Generated by trjconv : CNT in water t= 219.00000
33518
    1C        C    1   2.846   2.772   4.749
    1C        C    2   2.902   2.721   4.868
    1C        C    3   2.841   2.771   4.984
    1C        C    4   2.855   2.782   4.262
    1C        C    5   2.907   2.735   4.384
    1C        C    6   2.853   2.780   4.507
    1C        C    7   3.018   2.644   4.624
    1C        C    8   2.903   2.727   4.628
    1C        C    9   3.078   2.609   4.746
    1C        C   10   3.013   2.633   4.869
    1C        C   11   3.185   2.495   4.976
    1C        C   12   3.064   2.565   4.980
    1C        C   13   2.854   2.774   3.773
    1C        C   14   2.909   2.727   3.895
    1C        C   15   2.856   2.778   4.016
    1C        C   16   3.019   2.648   4.139
    1C        C   17   2.905   2.732   4.140
    1C        C   18   3.085   2.617   4.260
    1C        C   19   3.022   2.653   4.382
    1C        C   20   3.213   2.559   4.505
    1C        C   21   3.080   2.608   4.503
    1C        C   22   3.281   2.538   4.627
    1C        C   23   3.208   2.550   4.747
    1C        C   24   3.415   2.484   4.867
    1C        C   25   3.273   2.502   4.864
    1C        C   26   3.489   2.476   4.986
    1C        C   27   2.856   2.772   3.283
    1C        C   28   2.907   2.724   3.406
    1C        C   29   2.859   2.779   3.527
    1C        C   30   3.022   2.647   3.651
    1C        C   31   2.911   2.734   3.650
    1C        C   32   3.082   2.606   3.772
    1C        C   33   3.023   2.644   3.895
    1C        C   34   3.211   2.555   4.018
    1C        C   35   3.080   2.607   4.019
    1C        C   36   3.279   2.533   4.140
    1C        C   37   3.214   2.561   4.262
    1C        C   38   3.419   2.503   4.384
    1C        C   39   3.281   2.534   4.384
    1C        C   40   3.492   2.497   4.505
    1C        C   41   3.418   2.503   4.625
    1C        C   42   3.630   2.478   4.746
    1C        C   43   3.488   2.483   4.746
    1C        C   44   3.704   2.489   4.866
    1C        C   45   3.628   2.477   4.983
    1C        C   46   2.839   2.753   2.795
    1C        C   47   2.897   2.713   2.917
    1C        C   48   2.848   2.764   3.039
    1C        C   49   3.024   2.644   3.163
    1C        C   50   2.907   2.724   3.161
    1C        C   51   3.085   2.608   3.285
    1C        C   52   3.024   2.644   3.408
    1C        C   53   3.212   2.549   3.530
    1C        C   54   3.083   2.607   3.530
    1C        C   55   3.279   2.528   3.653
    1C        C   56   3.211   2.548   3.775
    1C        C   57   3.418   2.504   3.896
    1C        C   58   3.279   2.528   3.898
    1C        C   59   3.488   2.494   4.018
    1C        C   60   3.417   2.502   4.140
    1C        C   61   3.630   2.496   4.263
    1C        C   62   3.489   2.494   4.261
    1C        C   63   3.703   2.503   4.383
    1C        C   64   3.633   2.496   4.506
    1C        C   65   3.838   2.543   4.627
    1C        C   66   3.705   2.497   4.628
    1C        C   67   3.905   2.568   4.748
    1C        C   68   3.839   2.530   4.867
    1C        C   69   4.051   2.588   4.979
    1C        C   70   3.926   2.525   4.978
    1C        C   71   2.825   2.738   2.310
    1C        C   72   2.889   2.698   2.429
    1C        C   73   2.839   2.750   2.550
    1C        C   74   3.008   2.624   2.674
    1C        C   75   2.893   2.706   2.673
    1C        C   76   3.074   2.596   2.796
    1C        C   77   3.015   2.636   2.918
    1C        C   78   3.209   2.547   3.040
    1C        C   79   3.081   2.608   3.039
    1C        C   80   3.277   2.526   3.162
    1C        C   81   3.210   2.543   3.286
    1C        C   82   3.415   2.491   3.404
    1C        C   83   3.277   2.521   3.408
    1C        C   84   3.486   2.489   3.526
    1C        C   85   3.418   2.501   3.649
    1C        C   86   3.628   2.495   3.770
    1C        C   87   3.486   2.496   3.772
    1C        C   88   3.699   2.503   3.891
    1C        C   89   3.630   2.495   4.014
    1C        C   90   3.832   2.549   4.137
    1C        C   91   3.696   2.508   4.138
    1C        C   92   3.900   2.575   4.258
    1C        C   93   3.839   2.542   4.381
    1C        C   94   4.027   2.635   4.501
    1C        C   95   3.905   2.565   4.504
    1C        C   96   4.088   2.677   4.621
    1C        C   97   4.030   2.635   4.743
    1C        C   98   4.196   2.765   4.865
    1C        C   99   4.102   2.657   4.864
    1C        C  100   4.213   2.846   4.978
    1C        C  101   2.826   2.736   2.073
    1C        C  102   2.990   2.592   2.195
    1C        C  103   2.877   2.680   2.191
    1C        C  104   3.065   2.571   2.314
    1C        C  105   3.003   2.614   2.433
    1C        C  106   3.201   2.532   2.553
    1C        C  107   3.071   2.588   2.553
    1C        C  108   3.270   2.513   2.675
    1C        C  109   3.202   2.536   2.797
    1C        C  110   3.413   2.494   2.913
    1C        C  111   3.274   2.519   2.917
    1C        C  112   3.484   2.490   3.036
    1C        C  113   3.416   2.503   3.159
    1C        C  114   3.626   2.493   3.280
    1C        C  115   3.485   2.488   3.281
    1C        C  116   3.696   2.506   3.402
    1C        C  117   3.627   2.502   3.525
    1C        C  118   3.835   2.543   3.649
    1C        C  119   3.697   2.510   3.648
    1C        C  120   3.899   2.573   3.771
    1C        C  121   3.834   2.545   3.894
    1C        C  122   4.022   2.641   4.014
    1C        C  123   3.900   2.570   4.016
    1C        C  124   4.087   2.674   4.136
    1C        C  125   4.027   2.638   4.258
    1C        C  126   4.191   2.773   4.380
    1C        C  127   4.084   2.680   4.380
    1C        C  128   4.239   2.826   4.502
    1C        C  129   4.192   2.773   4.623
    1C        C  130   4.324   2.941   4.741
    1C        C  131   4.245   2.822   4.745
    1C        C  132   4.354   3.007   4.862
    1C        C  133   4.284   2.966   4.976
    1C        C  134   3.173   2.472   2.082
    1C        C  135   3.039   2.514   2.085
    1C        C  136   3.259   2.475   2.192
    1C        C  137   3.197   2.516   2.312
    1C        C  138   3.408   2.478   2.429
    1C        C  139   3.269   2.503   2.433
    1C        C  140   3.481   2.473   2.550
    1C        C  141   3.410   2.490   2.670
    1C        C  142   3.625   2.491   2.792
    1C        C  143   3.483   2.489   2.791
    1C        C  144   3.697   2.500   2.913
    1C        C  145   3.625   2.492   3.034
    1C        C  146   3.833   2.532   3.158
    1C        C  147   3.696   2.497   3.157
    1C        C  148   3.899   2.561   3.280
    1C        C  149   3.833   2.540   3.403
    1C        C  150   4.024   2.630   3.524
    1C        C  151   3.899   2.564   3.525
    1C        C  152   4.084   2.670   3.645
    1C        C  153   4.025   2.638   3.769
    1C        C  154   4.193   2.766   3.890
    1C        C  155   4.078   2.683   3.892
    1C        C  156   4.244   2.816   4.012
    1C        C  157   4.192   2.768   4.135
    1C        C  158   4.334   2.926   4.253
    1C        C  159   4.244   2.817   4.257
    1C        C  160   4.371   2.988   4.374
    1C        C  161   4.327   2.937   4.499
    1C        C  162   4.441   3.118   4.617
    1C        C  163   4.366   2.999   4.620
    1C        C  164   4.468   3.189   4.737
    1C        C  165   4.432   3.125   4.858
    1C        C  166   4.519   3.322   4.972
    1C        C  167   4.478   3.189   4.974
    1C        C  168   3.477   2.436   2.074
    1C        C  169   3.399   2.455   2.188
    1C        C  170   3.618   2.473   2.308
    1C        C  171   3.476   2.466   2.306
    1C        C  172   3.694   2.491   2.426
    1C        C  173   3.622   2.486   2.547
    1C        C  174   3.829   2.538   2.670
    1C        C  175   3.693   2.500   2.669
    1C        C  176   3.899   2.561   2.791
    1C        C  177   3.835   2.532   2.913
    1C        C  178   4.024   2.625   3.035
    1C        C  179   3.899   2.558   3.036
    1C        C  180   4.084   2.666   3.156
    1C        C  181   4.022   2.632   3.278
    1C        C  182   4.188   2.762   3.399
    1C        C  183   4.081   2.669   3.400
    1C        C  184   4.234   2.814   3.522
    1C        C  185   4.190   2.764   3.646
    1C        C  186   4.332   2.924   3.765
    1C        C  187   4.243   2.815   3.767
    1C        C  188   4.375   2.980   3.888
    1C        C  189   4.335   2.924   4.011
    1C        C  190   4.439   3.112   4.130
    1C        C  191   4.376   2.985   4.132
    1C        C  192   4.462   3.180   4.252
    1C        C  193   4.434   3.114   4.374
    1C        C  194   4.515   3.314   4.493
    1C        C  195   4.466   3.182   4.494
    1C        C  196   4.529   3.390   4.611
    1C        C  197   4.514   3.323   4.735
    1C        C  198   4.550   3.539   4.855
    1C        C  199   4.533   3.397   4.855
    1C        C  200   4.585   3.622   4.967
    1C        C  201   3.617   2.426   2.072
    1C        C  202   3.828   2.513   2.184
    1C        C  203   3.693   2.467   2.187
    1C        C  204   3.899   2.545   2.303
    1C        C  205   3.830   2.527   2.426
    1C        C  206   4.022   2.620   2.544
    1C        C  207   3.894   2.560   2.547
    1C        C  208   4.084   2.660   2.665
    1C        C  209   4.023   2.630   2.788
    1C        C  210   4.191   2.754   2.908
    1C        C  211   4.080   2.666   2.912
    1C        C  212   4.246   2.800   3.030
    1C        C  213   4.192   2.758   3.153
    1C        C  214   4.328   2.919   3.273
    1C        C  215   4.239   2.810   3.276
    1C        C  216   4.364   2.979   3.396
    1C        C  217   4.322   2.924   3.519
    1C        C  218   4.431   3.107   3.640
    1C        C  219   4.365   2.982   3.641
    1C        C  220   4.462   3.173   3.761
    1C        C  221   4.435   3.108   3.884
    1C        C  222   4.505   3.309   4.005
    1C        C  223   4.464   3.174   4.006
    1C        C  224   4.521   3.382   4.125
    1C        C  225   4.508   3.313   4.248
    1C        C  226   4.526   3.525   4.369
    1C        C  227   4.521   3.384   4.370
    1C        C  228   4.524   3.601   4.488
    1C        C  229   4.533   3.531   4.610
    1C        C  230   4.507   3.744   4.733
    1C        C  231   4.539   3.605   4.730
    1C        C  232   4.495   3.820   4.851
    1C        C  233   4.551   3.758   4.964
    1C        C  234   4.014   2.619   2.064
    1C        C  235   3.895   2.547   2.066
    1C        C  236   4.085   2.652   2.180
    1C        C  237   4.026   2.610   2.301
    1C        C  238   4.201   2.735   2.425
    1C        C  239   4.082   2.656   2.422
    1C        C  240   4.256   2.789   2.543
    1C        C  241   4.196   2.747   2.663
    1C        C  242   4.331   2.910   2.785
    1C        C  243   4.246   2.797   2.785
    1C        C  244   4.370   2.969   2.907
    1C        C  245   4.335   2.910   3.031
    1C        C  246   4.438   3.099   3.151
    1C        C  247   4.374   2.974   3.151
    1C        C  248   4.461   3.166   3.273
    1C        C  249   4.431   3.103   3.396
    1C        C  250   4.503   3.305   3.517
    1C        C  251   4.458   3.171   3.517
    1C        C  252   4.518   3.378   3.638
    1C        C  253   4.500   3.309   3.760
    1C        C  254   4.528   3.519   3.881
    1C        C  255   4.514   3.378   3.882
    1C        C  256   4.525   3.592   4.002
    1C        C  257   4.526   3.523   4.125
    1C        C  258   4.507   3.736   4.243
    1C        C  259   4.527   3.596   4.246
    1C        C  260   4.484   3.807   4.363
    1C        C  261   4.496   3.739   4.486
    1C        C  262   4.434   3.940   4.606
    1C        C  263   4.481   3.807   4.609
    1C        C  264   4.405   4.010   4.725
    1C        C  265   4.435   3.948   4.847
    1C        C  266   4.321   4.130   4.959
    1C        C  267   4.397   4.014   4.965
    1C        C  268   4.259   2.787   2.064
    1C        C  269   4.197   2.738   2.180
    1C        C  270   4.338   2.897   2.299
    1C        C  271   4.248   2.787   2.302
    1C        C  272   4.379   2.958   2.420
    1C        C  273   4.344   2.899   2.543
    1C        C  274   4.452   3.086   2.663
    1C        C  275   4.379   2.965   2.664
    1C        C  276   4.474   3.154   2.785
    1C        C  277   4.445   3.089   2.907
    1C        C  278   4.510   3.295   3.027
    1C        C  279   4.469   3.159   3.027
    1C        C  280   4.514   3.369   3.147
    1C        C  281   4.495   3.303   3.271
    1C        C  282   4.524   3.512   3.392
    1C        C  283   4.512   3.371   3.393
    1C        C  284   4.528   3.585   3.513
    1C        C  285   4.532   3.518   3.637
    1C        C  286   4.494   3.728   3.758
    1C        C  287   4.525   3.590   3.759
    1C        C  288   4.475   3.797   3.879
    1C        C  289   4.500   3.731   4.001
    1C        C  290   4.427   3.933   4.118
    1C        C  291   4.484   3.804   4.121
    1C        C  292   4.396   3.998   4.240
    1C        C  293   4.429   3.938   4.363
    1C        C  294   4.329   4.126   4.479
    1C        C  295   4.403   4.005   4.484
    1C        C  296   4.289   4.187   4.599
    1C        C  297   4.330   4.131   4.722
    1C        C  298   4.205   4.315   4.839
    1C        C  299   4.286   4.196   4.841
    1C        C  300   4.173   4.404   4.946
    1C        C  301   4.355   2.888   2.062
    1C        C  302   4.468   3.074   2.180
    1C        C  303   4.394   2.952   2.180
    1C        C  304   4.479   3.147   2.302
    1C        C  305   4.443   3.084   2.423
    1C        C  306   4.519   3.287   2.538
    1C        C  307   4.481   3.151   2.541
    1C        C  308   4.519   3.361   2.658
    1C        C  309   4.504   3.292   2.780
    1C        C  310   4.530   3.502   2.901
    1C        C  311   4.521   3.361   2.902
    1C        C  312   4.525   3.577   3.021
    1C        C  313   4.526   3.510   3.145
    1C        C  314   4.493   3.717   3.267
    1C        C  315   4.525   3.579   3.268
    1C        C  316   4.474   3.788   3.387
    1C        C  317   4.498   3.724   3.510
    1C        C  318   4.428   3.923   3.629
    1C        C  319   4.482   3.792   3.633
    1C        C  320   4.394   3.987   3.750
    1C        C  321   4.427   3.930   3.875
    1C        C  322   4.320   4.116   3.993
    1C        C  323   4.395   3.996   3.996
    1C        C  324   4.284   4.178   4.115
    1C        C  325   4.326   4.120   4.237
    1C        C  326   4.187   4.285   4.354
    1C        C  327   4.284   4.181   4.357
    1C        C  328   4.138   4.337   4.475
    1C        C  329   4.194   4.292   4.597
    1C        C  330   4.027   4.430   4.714
    1C        C  331   4.143   4.348   4.716
    1C        C  332   3.973   4.487   4.831
    1C        C  333   4.053   4.477   4.946
    1C        C  334   4.558   3.271   2.065
    1C        C  335   4.531   3.133   2.066
    1C        C  336   4.536   3.353   2.177
    1C        C  337   4.516   3.284   2.298
    1C        C  338   4.529   3.501   2.412
    1C        C  339   4.528   3.360   2.417
    1C        C  340   4.529   3.572   2.534
    1C        C  341   4.532   3.502   2.657
    1C        C  342   4.500   3.712   2.776
    1C        C  343   4.526   3.573   2.779
    1C        C  344   4.484   3.783   2.897
    1C        C  345   4.499   3.716   3.020
    1C        C  346   4.427   3.915   3.140
    1C        C  347   4.477   3.783   3.143
    1C        C  348   4.393   3.982   3.260
    1C        C  349   4.429   3.922   3.383
    1C        C  350   4.321   4.103   3.504
    1C        C  351   4.399   3.985   3.506
    1C        C  352   4.274   4.162   3.623
    1C        C  353   4.319   4.107   3.745
    1C        C  354   4.175   4.263   3.869
    1C        C  355   4.275   4.164   3.867
    1C        C  356   4.124   4.317   3.989
    1C        C  357   4.179   4.271   4.111
    1C        C  358   4.010   4.402   4.233
    1C        C  359   4.127   4.323   4.232
    1C        C  360   3.951   4.446   4.354
    1C        C  361   4.021   4.416   4.473
    1C        C  362   3.830   4.516   4.593
    1C        C  363   3.959   4.459   4.593
    1C        C  364   3.765   4.546   4.714
    1C        C  365   3.844   4.544   4.831
    1C        C  366   3.632   4.595   4.949
    1C        C  367   3.770   4.575   4.946
    1C        C  368   4.513   3.569   2.053
    1C        C  369   4.521   3.493   2.170
    1C        C  370   4.506   3.710   2.287
    1C        C  371   4.522   3.569   2.289
    1C        C  372   4.487   3.781   2.407
    1C        C  373   4.503   3.711   2.528
    1C        C  374   4.432   3.908   2.650
    1C        C  375   4.482   3.776   2.652
    1C        C  376   4.399   3.973   2.771
    1C        C  377   4.425   3.912   2.895
    1C        C  378   4.319   4.096   3.014
    1C        C  379   4.394   3.976   3.017
    1C        C  380   4.275   4.155   3.135
    1C        C  381   4.315   4.100   3.258
    1C        C  382   4.175   4.256   3.381
    1C        C  383   4.275   4.156   3.381
    1C        C  384   4.120   4.307   3.500
    1C        C  385   4.173   4.261   3.623
    1C        C  386   4.007   4.391   3.746
    1C        C  387   4.123   4.309   3.746
    1C        C  388   3.944   4.428   3.867
    1C        C  389   4.006   4.396   3.989
    1C        C  390   3.820   4.496   4.107
    1C        C  391   3.949   4.438   4.111
    1C        C  392   3.751   4.515   4.229
    1C        C  393   3.820   4.496   4.351
    1C        C  394   3.617   4.552   4.476
    1C        C  395   3.756   4.527   4.473
    1C        C  396   3.546   4.561   4.598
    1C        C  397   3.624   4.559   4.715
    1C        C  398   3.413   4.551   4.838
    1C        C  399   3.552   4.576   4.836
    1C        C  400   3.347   4.509   4.954
    1C        C  401   4.507   3.708   2.050
    1C        C  402   4.461   3.921   2.168
    1C        C  403   4.495   3.784   2.167
    1C        C  404   4.419   3.983   2.288
    1C        C  405   4.441   3.915   2.410
    1C        C  406   4.330   4.099   2.528
    1C        C  407   4.406   3.979   2.530
    1C        C  408   4.278   4.148   2.649
    1C        C  409   4.321   4.091   2.771
    1C        C  410   4.177   4.251   2.889
    1C        C  411   4.274   4.149   2.891
    1C        C  412   4.123   4.296   3.011
    1C        C  413   4.173   4.253   3.136
    1C        C  414   4.001   4.376   3.254
    1C        C  415   4.119   4.299   3.258
    1C        C  416   3.941   4.414   3.376
    1C        C  417   4.000   4.381   3.501
    1C        C  418   3.815   4.479   3.621
    1C        C  419   3.944   4.422   3.624
    1C        C  420   3.747   4.503   3.743
    1C        C  421   3.814   4.483   3.866
    1C        C  422   3.610   4.545   3.990
    1C        C  423   3.748   4.514   3.987
    1C        C  424   3.539   4.547   4.112
    1C        C  425   3.612   4.544   4.233
    1C        C  426   3.403   4.557   4.356
    1C        C  427   3.544   4.559   4.356
    1C        C  428   3.333   4.546   4.478
    1C        C  429   3.405   4.550   4.600
    1C        C  430   3.193   4.524   4.723
    1C        C  431   3.333   4.547   4.722
    1C        C  432   3.128   4.496   4.847
    1C        C  433   3.210   4.489   4.961
    1C        C  434   4.392   4.129   2.052
    1C        C  435   4.449   4.001   2.054
    1C        C  436   4.307   4.164   2.162
    1C        C  437   4.339   4.100   2.285
    1C        C  438   4.184   4.250   2.402
    1C        C  439   4.284   4.151   2.405
    1C        C  440   4.128   4.296   2.523
    1C        C  441   4.178   4.248   2.646
    1C        C  442   4.001   4.370   2.767
    1C        C  443   4.121   4.295   2.767
    1C        C  444   3.942   4.407   2.889
    1C        C  445   4.005   4.374   3.012
    1C        C  446   3.811   4.469   3.132
    1C        C  447   3.940   4.410   3.131
    1C        C  448   3.747   4.495   3.255
    1C        C  449   3.814   4.474   3.377
    1C        C  450   3.608   4.530   3.499
    1C        C  451   3.746   4.499   3.499
    1C        C  452   3.538   4.544   3.621
    1C        C  453   3.610   4.537   3.742
    1C        C  454   3.401   4.542   3.865
    1C        C  455   3.542   4.546   3.866
    1C        C  456   3.331   4.538   3.988
    1C        C  457   3.398   4.543   4.112
    1C        C  458   3.193   4.509   4.240
    1C        C  459   3.330   4.543   4.236
    1C        C  460   3.125   4.487   4.362
    1C        C  461   3.195   4.517   4.481
    1C        C  462   2.998   4.438   4.604
    1C        C  463   3.124   4.503   4.602
    1C        C  464   2.933   4.404   4.724
    1C        C  465   2.993   4.449   4.845
    1C        C  466   2.809   4.341   4.960
    1C        C  467   2.915   4.432   4.964
    1C        C  468   4.127   4.289   2.042
    1C        C  469   4.187   4.243   2.160
    1C        C  470   4.009   4.371   2.282
    1C        C  471   4.127   4.292   2.279
    1C        C  472   3.944   4.406   2.402
    1C        C  473   4.007   4.369   2.523
    1C        C  474   3.815   4.465   2.644
    1C        C  475   3.942   4.404   2.643
    1C        C  476   3.747   4.489   2.765
    1C        C  477   3.814   4.466   2.888
    1C        C  478   3.605   4.517   3.009
    1C        C  479   3.743   4.486   3.009
    1C        C  480   3.537   4.526   3.132
    1C        C  481   3.608   4.522   3.254
    1C        C  482   3.398   4.536   3.377
    1C        C  483   3.539   4.536   3.376
    1C        C  484   3.328   4.530   3.500
    1C        C  485   3.397   4.544   3.623
    1C        C  486   3.189   4.504   3.747
    1C        C  487   3.326   4.536   3.745
    1C        C  488   3.127   4.481   3.872
    1C        C  489   3.194   4.502   3.994
    1C        C  490   3.003   4.416   4.116
    1C        C  491   3.129   4.480   4.117
    1C        C  492   2.940   4.384   4.238
    1C        C  493   2.997   4.428   4.359
    1C        C  494   2.830   4.303   4.483
    1C        C  495   2.941   4.391   4.484
    1C        C  496   2.774   4.260   4.605
    1C        C  497   2.823   4.315   4.726
    1C        C  498   2.668   4.168   4.847
    1C        C  499   2.759   4.276   4.846
    1C        C  500   2.599   4.123   4.960
    1C        C  501   4.007   4.360   2.045
    1C        C  502   3.816   4.466   2.159
    1C        C  503   3.943   4.405   2.162
    1C        C  504   3.745   4.488   2.279
    1C        C  505   3.813   4.459   2.399
    1C        C  506   3.608   4.512   2.520
    1C        C  507   3.746   4.480   2.521
    1C        C  508   3.537   4.525   2.641
    1C        C  509   3.609   4.517   2.763
    1C        C  510   3.397   4.525   2.888
    1C        C  511   3.538   4.527   2.885
    1C        C  512   3.325   4.525   3.009
    1C        C  513   3.396   4.534   3.131
    1C        C  514   3.191   4.495   3.256
    1C        C  515   3.327   4.532   3.255
    1C        C  516   3.125   4.473   3.379
    1C        C  517   3.190   4.503   3.501
    1C        C  518   3.000   4.415   3.626
    1C        C  519   3.122   4.487   3.624
    1C        C  520   2.942   4.378   3.749
    1C        C  521   3.002   4.415   3.872
    1C        C  522   2.839   4.280   3.997
    1C        C  523   2.947   4.371   3.994
    1C        C  524   2.785   4.236   4.120
    1C        C  525   2.831   4.294   4.240
    1C        C  526   2.700   4.131   4.367
    1C        C  527   2.780   4.247   4.363
    1C        C  528   2.654   4.077   4.489
    1C        C  529   2.690   4.147   4.607
    1C        C  530   2.581   3.966   4.733
    1C        C  531   2.640   4.095   4.729
    1C        C  532   2.543   3.907   4.856
    1C        C  533   2.531   4.001   4.963
    1C        C  534   3.618   4.558   2.039
    1C        C  535   3.751   4.516   2.045
    1C        C  536   3.538   4.537   2.156
    1C        C  537   3.605   4.512   2.279
    1C        C  538   3.392   4.521   2.402
    1C        C  539   3.533   4.524   2.400
    1C        C  540   3.322   4.514   2.524
    1C        C  541   3.396   4.522   2.644
    1C        C  542   3.186   4.492   2.766
    1C        C  543   3.325   4.517   2.766
    1C        C  544   3.122   4.466   2.889
    1C        C  545   3.189   4.487   3.012
    1C        C  546   2.996   4.407   3.135
    1C        C  547   3.122   4.470   3.135
    1C        C  548   2.940   4.369   3.260
    1C        C  549   2.999   4.408   3.382
    1C        C  550   2.834   4.279   3.506
    1C        C  551   2.943   4.370   3.505
    1C        C  552   2.785   4.231   3.629
    1C        C  553   2.837   4.283   3.750
    1C        C  554   2.704   4.121   3.877
    1C        C  555   2.788   4.235   3.873
    1C        C  556   2.662   4.063   3.999
    1C        C  557   2.702   4.122   4.121
    1C        C  558   2.598   3.943   4.246
    1C        C  559   2.664   4.068   4.246
    1C        C  560   2.565   3.883   4.369
    1C        C  561   2.587   3.953   4.490
    1C        C  562   2.527   3.754   4.616
    1C        C  563   2.562   3.891   4.614
    1C        C  564   2.517   3.685   4.739
    1C        C  565   2.524   3.765   4.856
    1C        C  566   2.529   3.550   4.977
    1C        C  567   2.520   3.689   4.974
    1C        C  568   3.328   4.483   2.040
    1C        C  569   3.398   4.514   2.157
    1C        C  570   3.184   4.482   2.281
    1C        C  571   3.324   4.510   2.279
    1C        C  572   3.115   4.466   2.403
    1C        C  573   3.184   4.483   2.525
    1C        C  574   2.987   4.406   2.649
    1C        C  575   3.114   4.467   2.647
    1C        C  576   2.927   4.369   2.771
    1C        C  577   2.996   4.403   2.890
    1C        C  578   2.829   4.275   3.016
    1C        C  579   2.936   4.367   3.013
    1C        C  580   2.784   4.224   3.140
    1C        C  581   2.831   4.279   3.262
    1C        C  582   2.698   4.116   3.385
    1C        C  583   2.784   4.228   3.384
    1C        C  584   2.661   4.060   3.510
    1C        C  585   2.696   4.121   3.632
    1C        C  586   2.594   3.939   3.755
    1C        C  587   2.659   4.065   3.756
    1C        C  588   2.571   3.873   3.878
    1C        C  589   2.601   3.935   4.001
    1C        C  590   2.535   3.738   4.130
    1C        C  591   2.571   3.875   4.125
    1C        C  592   2.516   3.673   4.253
    1C        C  593   2.531   3.746   4.373
    1C        C  594   2.508   3.538   4.498
    1C        C  595   2.515   3.679   4.497
    1C        C  596   2.514   3.468   4.620
    1C        C  597   2.516   3.543   4.741
    1C        C  598   2.542   3.331   4.865
    1C        C  599   2.524   3.471   4.862
    1C        C  600   2.533   3.254   4.982
    1C        C  601   3.197   4.439   2.043
    1C        C  602   2.986   4.393   2.160
    1C        C  603   3.121   4.442   2.160
    1C        C  604   2.923   4.364   2.284
    1C        C  605   2.990   4.401   2.403
    1C        C  606   2.823   4.273   2.529
    1C        C  607   2.930   4.365   2.526
    1C        C  608   2.775   4.221   2.651
    1C        C  609   2.821   4.276   2.773
    1C        C  610   2.685   4.117   2.897
    1C        C  611   2.770   4.229   2.896
    1C        C  612   2.652   4.056   3.020
    1C        C  613   2.698   4.112   3.142
    1C        C  614   2.592   3.930   3.267
    1C        C  615   2.658   4.055   3.264
    1C        C  616   2.563   3.869   3.391
    1C        C  617   2.594   3.935   3.512
    1C        C  618   2.528   3.735   3.639
    1C        C  619   2.567   3.870   3.635
    1C        C  620   2.517   3.665   3.761
    1C        C  621   2.527   3.739   3.882
    1C        C  622   2.512   3.532   4.010
    1C        C  623   2.514   3.673   4.006
    1C        C  624   2.513   3.461   4.132
    1C        C  625   2.504   3.532   4.253
    1C        C  626   2.538   3.326   4.380
    1C        C  627   2.508   3.464   4.377
    1C        C  628   2.560   3.259   4.503
    1C        C  629   2.536   3.329   4.623
    1C        C  630   2.597   3.123   4.746
    1C        C  631   2.555   3.259   4.744
    1C        C  632   2.616   3.051   4.867
    1C        C  633   2.566   3.118   4.983
    1C        C  634   2.788   4.302   2.055
    1C        C  635   2.898   4.389   2.048
    1C        C  636   2.751   4.232   2.171
    1C        C  637   2.809   4.279   2.291
    1C        C  638   2.675   4.113   2.412
    1C        C  639   2.759   4.226   2.412
    1C        C  640   2.644   4.049   2.534
    1C        C  641   2.690   4.109   2.653
    1C        C  642   2.588   3.925   2.780
    1C        C  643   2.649   4.053   2.776
    1C        C  644   2.565   3.858   2.902
    1C        C  645   2.591   3.929   3.021
    1C        C  646   2.527   3.729   3.151
    1C        C  647   2.569   3.863   3.144
    1C        C  648   2.510   3.660   3.274
    1C        C  649   2.526   3.733   3.394
    1C        C  650   2.510   3.524   3.518
    1C        C  651   2.515   3.665   3.517
    1C        C  652   2.517   3.455   3.641
    1C        C  653   2.511   3.524   3.764
    1C        C  654   2.530   3.318   3.891
    1C        C  655   2.513   3.458   3.889
    1C        C  656   2.553   3.252   4.014
    1C        C  657   2.539   3.322   4.135
    1C        C  658   2.610   3.125   4.260
    1C        C  659   2.556   3.255   4.259
    1C        C  660   2.643   3.062   4.382
    1C        C  661   2.607   3.126   4.503
    1C        C  662   2.713   2.943   4.627
    1C        C  663   2.634   3.060   4.625
    1C        C  664   2.755   2.881   4.747
    1C        C  665   2.696   2.932   4.866
    1C        C  666   2.752   2.878   4.982
    1C        C  667   2.687   4.023   2.061
    1C        C  668   2.684   4.108   2.172
    1C        C  669   2.586   3.915   2.296
    1C        C  670   2.643   4.046   2.292
    1C        C  671   2.558   3.849   2.417
    1C        C  672   2.580   3.923   2.536
    1C        C  673   2.523   3.721   2.663
    1C        C  674   2.558   3.858   2.659
    1C        C  675   2.509   3.651   2.785
    1C        C  676   2.529   3.721   2.906
    1C        C  677   2.506   3.515   3.032
    1C        C  678   2.516   3.656   3.031
    1C        C  679   2.505   3.444   3.154
    1C        C  680   2.503   3.519   3.274
    1C        C  681   2.535   3.311   3.402
    1C        C  682   2.509   3.450   3.397
    1C        C  683   2.558   3.246   3.525
    1C        C  684   2.541   3.316   3.647
    1C        C  685   2.607   3.118   3.772
    1C        C  686   2.550   3.247   3.770
    1C        C  687   2.639   3.056   3.895
    1C        C  688   2.608   3.121   4.016
    1C        C  689   2.718   2.940   4.139
    1C        C  690   2.641   3.059   4.138
    1C        C  691   2.754   2.881   4.262
    1C        C  692   2.718   2.943   4.384
    1C        C  693   2.763   2.889   4.507
    1C        C  694   2.636   3.893   2.062
    1C        C  695   2.529   3.706   2.178
    1C        C  696   2.579   3.839   2.177
    1C        C  697   2.501   3.641   2.300
    1C        C  698   2.521   3.713   2.420
    1C        C  699   2.490   3.506   2.546
    1C        C  700   2.507   3.647   2.544
    1C        C  701   2.498   3.436   2.668
    1C        C  702   2.496   3.510   2.788
    1C        C  703   2.529   3.303   2.913
    1C        C  704   2.507   3.442   2.911
    1C        C  705   2.545   3.236   3.036
    1C        C  706   2.532   3.306   3.158
    1C        C  707   2.604   3.108   3.279
    1C        C  708   2.556   3.241   3.281
    1C        C  709   2.637   3.051   3.404
    1C        C  710   2.610   3.115   3.527
    1C        C  711   2.714   2.934   3.652
    1C        C  712   2.637   3.052   3.651
    1C        C  713   2.760   2.879   3.774
    1C        C  714   2.716   2.937   3.895
    1C        C  715   2.762   2.884   4.017
    1C        C  716   2.455   3.501   2.065
    1C        C  717   2.498   3.634   2.062
    1C        C  718   2.467   3.425   2.186
    1C        C  719   2.476   3.501   2.306
    1C        C  720   2.511   3.290   2.426
    1C        C  721   2.485   3.429   2.428
    1C        C  722   2.534   3.223   2.548
    1C        C  723   2.518   3.296   2.668
    1C        C  724   2.599   3.102   2.794
    1C        C  725   2.545   3.232   2.791
    1C        C  726   2.631   3.037   2.915
    1C        C  727   2.601   3.106   3.035
    1C        C  728   2.713   2.926   3.161
    1C        C  729   2.635   3.043   3.158
    1C        C  730   2.762   2.878   3.285
    1C        C  731   2.719   2.936   3.406
    1C        C  732   2.760   2.880   3.529
    1C        C  733   2.495   3.200   2.074
    1C        C  734   2.491   3.284   2.186
    1C        C  735   2.583   3.087   2.309
    1C        C  736   2.524   3.216   2.306
    1C        C  737   2.607   3.020   2.432
    1C        C  738   2.577   3.089   2.552
    1C        C  739   2.703   2.916   2.671
    1C        C  740   2.622   3.032   2.673
    1C        C  741   2.741   2.856   2.793
    1C        C  742   2.702   2.915   2.915
    1C        C  743   2.756   2.872   3.038
    1C        C  744   2.546   3.071   2.075
    1C        C  745   2.688   2.901   2.188
    1C        C  746   2.611   3.020   2.188
    1C        C  747   2.732   2.845   2.310
    1C        C  748   2.690   2.906   2.431
    1C        C  749   2.743   2.854   2.551
    1C        C  750   2.740   2.845   2.071
    1C        C  751   3.660   2.329   1.968
    1C        O  752   3.686   2.210   1.999
    1C        O  753   3.648   2.358   1.832
    1C        C  754   4.646   3.064   2.004
    1C        O  755   4.640   3.019   1.887
    1C        O  756   4.737   2.991   2.082
    1C        C  757   4.441   4.232   1.959
    1C        O  758   4.562   4.267   1.962
    1C        O  759   4.401   4.228   1.824
    1C        C  760   3.596   4.675   1.951
    1C        O  761   3.594   4.796   1.987
    1C        O  762   3.603   4.653   1.813
    1C        C  763   2.887   4.502   1.954
    1C        O  764   2.922   4.489   1.833
    1C        O  765   2.865   4.633   1.998
    1C        C  766   2.362   3.463   1.956
    1C        O  767   2.399   3.427   1.841
    1C        O  768   2.233   3.421   1.989
    1C        C  769   4.701   3.591   5.053
    1C        O  770   4.688   3.563   5.175
    1C        O  771   4.817   3.667   5.030
    1C        C  772   4.278   4.461   5.034
    1C        O  773   4.274   4.441   5.158
    1C        O  774   4.405   4.504   4.994
    1C        C  775   4.141   2.518   5.073
    1C        O  776   4.246   2.463   5.030
    1C        O  777   4.165   2.583   5.194
    1C        C  778   2.886   4.554   5.042
    1C        O  779   2.859   4.662   4.982
    1C        O  780   2.836   4.538   5.172
    1C        C  781   2.490   3.041   5.085
    1C        O  782   2.409   2.953   5.045
    1C        O  783   2.497   3.046   5.224
    1C        C  784   2.407   4.018   5.042
    1C        O  785   2.297   4.045   4.987
    1C        O  786   2.387   3.955   5.166
    1C        C  787   2.960   2.443   1.982
    1C        O  788   2.941   2.502   1.873
    1C        O  789   2.857   2.364   2.033
    1C        C  790   3.179   2.367   5.052
    1C        O  791   3.193   2.251   5.005
    1C        O  792   3.125   2.357   5.181
    1C        H  793   4.269   3.032   5.059
    1C        H  794   4.177   2.813   5.073
    1C        H  795   4.478   3.135   5.066
    1C        H  796   4.542   3.367   5.067
    1C        H  797   4.584   3.819   5.045
    1C        H  798   4.403   3.957   5.055
    1C        H  799   4.281   4.171   5.050
    1C        H  800   4.028   4.539   5.030
    1C        H  801   3.812   4.557   5.042
    1C        H  802   3.605   4.678   5.011
    1C        H  803   3.407   4.452   5.022
    1C        H  804   3.164   4.508   5.055
    1C        H  805   3.889   2.491   5.072
    1C        H  806   3.677   2.515   5.069
    1C        H  807   3.007   2.561   5.071
    1C        H  808   3.441   2.423   5.066
    1C        H  809   2.813   2.697   5.056
    1C        H  810   2.765   2.946   5.063
    1C        H  811   2.473   3.298   5.059
    1C        H  812   2.592   3.507   5.052
    1C        H  813   2.455   3.726   5.050
    1C        H  814   2.579   4.197   5.036
    1C        H  815   2.781   4.306   5.057
    1C        H  816   2.760   2.913   1.990
    1C        H  817   2.826   2.676   1.984
    1C        H  818   3.218   2.474   1.985
    1C        H  819   3.424   2.440   1.981
    1C        H  820   3.859   2.510   1.972
    1C        H  821   4.053   2.654   1.971
    1C        H  822   4.252   2.731   1.974
    1C        H  823   4.431   2.880   1.987
    1C        H  824   4.597   3.317   1.977
    1C        H  825   4.508   3.522   1.957
    1C        H  826   4.506   3.752   1.952
    1C        H  827   3.811   4.573   1.977
    1C        H  828   3.949   4.365   1.955
    1C        H  829   4.179   4.285   1.949
    1C        H  830   4.510   3.968   1.973
    1C        H  831   2.692   3.827   1.998
    1C        H  832   2.688   4.069   1.964
    1C        H  833   2.742   4.272   1.963
    1C        H  834   3.360   4.536   1.953
    1C        H  835   3.159   4.392   1.955
    1C        H  836   2.493   2.998   2.018
    1C        H  837   2.437   3.236   1.991
    1C        H  838   2.479   3.687   1.972
    2V3OU   H29  839   2.817   3.545   2.027
    2V3OU   C27  840   2.791   3.503   2.127
    2V3OU   H27  841   2.740   3.572   2.199
    2V3OU   H28  842   2.732   3.408   2.124
    2V3OU   O11  843   2.913   3.483   2.199
    2V3OU   C15  844   2.928   3.396   2.305
    2V3OU   C13  845   3.052   3.381   2.370
    2V3OU   C14  846   3.082   3.278   2.460
    2V3OU   C16  847   2.980   3.190   2.496
    2V3OU    H6  848   2.998   3.101   2.559
    2V3OU   C12  849   3.216   3.227   2.494
    2V3OU    O2  850   3.231   3.123   2.562
    2V3OU   C10  851   3.328   3.305   2.439
    2V3OU    C8  852   3.459   3.270   2.472
    2V3OU   O10  853   3.489   3.158   2.542
    2V3OU   H26  854   3.401   3.119   2.556
    2V3OU    C6  855   3.568   3.357   2.440
    2V3OU    C5  856   3.540   3.471   2.365
    2V3OU    C4  857   3.704   3.298   2.437
    2V3OU    H4  858   3.733   3.224   2.517
    2V3OU    H5  859   3.711   3.236   2.343
    2V3OU    C2  860   3.814   3.404   2.435
    2V3OU    O6  861   3.813   3.473   2.560
    2V3OU   H21  862   3.772   3.558   2.538
    2V3OU    C3  863   3.788   3.500   2.319
    2V3OU    H2  864   3.871   3.575   2.325
    2V3OU    H3  865   3.787   3.444   2.223
    2V3OU   C25  866   3.948   3.333   2.414
    2V3OU    O7  867   3.991   3.291   2.306
    2V3OU   C26  868   4.030   3.294   2.536
    2V3OU   H22  869   4.065   3.389   2.582
    2V3OU   H23  870   4.112   3.224   2.507
    2V3OU    O8  871   3.961   3.210   2.627
    2V3OU   H24  872   3.923   3.262   2.699
    2V3OU    C1  873   3.651   3.566   2.334
    2V3OU    H1  874   3.627   3.620   2.238
    2V3OU    O3  875   3.655   3.656   2.446
    2V3OU   C19  876   3.621   3.795   2.446
    2V3OU    H9  877   3.520   3.809   2.396
    2V3OU    O4  878   3.718   3.854   2.362
    2V3OU   C20  879   3.849   3.880   2.413
    2V3OU   H10  880   3.896   3.779   2.433
    2V3OU   C24  881   3.614   3.853   2.587
    2V3OU   H16  882   3.551   3.786   2.651
    2V3OU   H17  883   3.571   3.956   2.574
    2V3OU   C23  884   3.754   3.876   2.645
    2V3OU   H15  885   3.801   3.774   2.664
    2V3OU    N1  886   3.739   3.953   2.768
    2V3OU   H19  887   3.809   3.927   2.834
    2V3OU   H20  888   3.655   3.929   2.817
    2V3OU   C21  889   3.853   3.949   2.550
    2V3OU   H11  890   3.959   3.931   2.586
    2V3OU    O5  891   3.832   4.089   2.543
    2V3OU   H18  892   3.776   4.108   2.621
    2V3OU   C22  893   3.919   3.952   2.299
    2V3OU   H12  894   3.859   4.044   2.276
    2V3OU   H13  895   3.907   3.894   2.204
    2V3OU   H14  896   4.028   3.968   2.319
    2V3OU   C11  897   3.161   3.477   2.349
    2V3OU    O1  898   3.140   3.599   2.330
    2V3OU    C9  899   3.298   3.424   2.368
    2V3OU    C7  900   3.406   3.502   2.327
    2V3OU    O9  901   3.384   3.622   2.262
    2V3OU   H25  902   3.289   3.639   2.273
    2V3OU   C17  903   2.825   3.310   2.348
    2V3OU    H7  904   2.725   3.342   2.321
    2V3OU   C18  905   2.854   3.212   2.443
    2V3OU    H8  906   2.778   3.163   2.506
    3SOL     OW  907   2.825   5.082   0.667
    3SOL    HW1  908   2.760   5.131   0.725
    3SOL    HW2  909   2.916   5.122   0.677
    4SOL     OW  910   6.545   6.261   1.736
    4SOL    HW1  911   6.521   6.321   1.812
    4SOL    HW2  912   6.526   6.307   1.650
    5SOL     OW  913   4.602   1.619   2.840
    5SOL    HW1  914   4.617   1.550   2.911
    5SOL    HW2  915   4.690   1.652   2.806
    6SOL     OW  916   4.195   0.915   0.689
    6SOL    HW1  917   4.173   0.896   0.594
    6SOL    HW2  918   4.215   0.830   0.737
    7SOL     OW  919   6.735   3.623   2.067
    7SOL    HW1  920   6.771   3.635   1.975
    7SOL    HW2  921   6.803   3.575   2.124
    8SOL     OW  922   2.807   0.402   0.077
    8SOL    HW1  923   2.707   0.401   0.073
    8SOL    HW2  924   2.836   0.422   0.171
    9SOL     OW  925   6.265   6.727   6.331
    9SOL    HW1  926   6.252   6.664   6.255
    9SOL    HW2  927   6.259   6.677   6.417
   10SOL     OW  928   1.932   5.201   6.527
   10SOL    HW1  929   1.902   5.206   6.431
   10SOL    HW2  930   1.985   5.117   6.540
   11SOL     OW  931   2.673   0.295   6.157
   11SOL    HW1  932   2.711   0.255   6.074
   11SOL    HW2  933   2.573   0.290   6.155
   12SOL     OW  934   4.150   6.297   3.345
   12SOL    HW1  935   4.242   6.330   3.365
   12SOL    HW2  936   4.102   6.365   3.289
   13SOL     OW  937   4.037   5.570   4.017
   13SOL    HW1  938   4.054   5.642   3.950
   13SOL    HW2  939   3.960   5.596   4.075
   14SOL     OW  940   3.753   5.739   6.013
   14SOL    HW1  941   3.719   5.826   6.048
   14SOL    HW2  942   3.812   5.756   5.933
   15SOL     OW  943   1.890   6.440   1.544
   15SOL    HW1  944   1.974   6.481   1.508
   15SOL    HW2  945   1.903   6.342   1.556
   16SOL     OW  946   5.290   2.896   5.638
   16SOL    HW1  947   5.245   2.891   5.727
   16SOL    HW2  948   5.233   2.949   5.575
   17SOL     OW  949   5.310   5.402   5.463
   17SOL    HW1  950   5.293   5.304   5.473
   17SOL    HW2  951   5.406   5.421   5.484
   18SOL     OW  952   3.213   0.768   5.938
   18SOL    HW1  953   3.240   0.708   5.863
   18SOL    HW2  954   3.258   0.737   6.022
   19SOL     OW  955   0.666   0.263   3.228
   19SOL    HW1  956   0.616   0.331   3.174
   19SOL    HW2  957   0.688   0.185   3.170
   20SOL     OW  958   5.440   2.481   4.978
   20SOL    HW1  959   5.499   2.443   5.049
   20SOL    HW2  960   5.484   2.560   4.937
   21SOL     OW  961   3.831   2.134   2.626
   21SOL    HW1  962   3.926   2.110   2.646
   21SOL    HW2  963   3.818   2.142   2.527
   22SOL     OW  964   2.049   6.123   0.569
   22SOL    HW1  965   1.987   6.202   0.567
   22SOL    HW2  966   2.137   6.148   0.529
   23SOL     OW  967   5.474   6.194   3.219
   23SOL    HW1  968   5.549   6.136   3.251
   23SOL    HW2  969   5.498   6.290   3.232
   24SOL     OW  970   4.602   1.428   3.033
   24SOL    HW1  971   4.661   1.383   3.100
   24SOL    HW2  972   4.527   1.473   3.081
   25SOL     OW  973   3.260   0.192   5.132
   25SOL    HW1  974   3.276   0.261   5.202
   25SOL    HW2  975   3.166   0.159   5.138
   26SOL     OW  976   6.670   0.752   0.086
   26SOL    HW1  977   6.632   0.749   7.020
   26SOL    HW2  978   6.674   0.846   0.117
   27SOL     OW  979   1.103   2.181   2.097
   27SOL    HW1  980   1.096   2.213   2.191
   27SOL    HW2  981   1.141   2.088   2.097
   28SOL     OW  982   3.277   1.950   5.743
   28SOL    HW1  983   3.259   2.038   5.697
   28SOL    HW2  984   3.190   1.903   5.758
   29SOL     OW  985   4.885   2.194   1.962
   29SOL    HW1  986   4.905   2.160   2.053
   29SOL    HW2  987   4.786   2.205   1.951
   30SOL     OW  988   3.469   1.114   4.608
   30SOL    HW1  989   3.505   1.204   4.582
   30SOL    HW2  990   3.515   1.083   4.691
   31SOL     OW  991   1.311   2.596   6.412
   31SOL    HW1  992   1.342   2.643   6.329
   31SOL    HW2  993   1.365   2.512   6.424
   32SOL     OW  994   0.331   1.481   2.692
   32SOL    HW1  995   0.352   1.467   2.595
   32SOL    HW2  996   0.321   1.393   2.738
   33SOL     OW  997   2.248   4.456   6.632
   33SOL    HW1  998   2.165   4.478   6.581
   33SOL    HW2  999   2.224   4.398   6.710
   34SOL     OW 1000   2.767   0.669   4.384
   34SOL    HW1 1001   2.707   0.739   4.424
   34SOL    HW2 1002   2.714   0.587   4.364
   35SOL     OW 1003   3.022   3.723   0.040
   35SOL    HW1 1004   3.030   3.815   0.079
   35SOL    HW2 1005   2.943   3.720   7.005
   36SOL     OW 1006   6.213   0.951   4.706
   36SOL    HW1 1007   6.243   1.000   4.788
   36SOL    HW2 1008   6.272   0.976   4.629
   37SOL     OW 1009   0.668   1.502   0.650
   37SOL    HW1 1010   0.692   1.447   0.570
   37SOL    HW2 1011   0.676   1.447   0.733
   38SOL     OW 1012   6.913   4.337   2.646
   38SOL    HW1 1013   6.913   4.280   2.564
   38SOL    HW2 1014   6.984   4.305   2.709
   39SOL     OW 1015   7.020   5.059   6.949
   39SOL    HW1 1016   0.030   5.151   6.940
   39SOL    HW2 1017   0.059   5.001   6.998
   40SOL     OW 1018   5.407   1.626   0.786
   40SOL    HW1 1019   5.466   1.644   0.707
   40SOL    HW2 1020   5.376   1.531   0.782
   41SOL     OW 1021   6.966   6.033   3.858
   41SOL    HW1 1022   6.879   6.009   3.900
   41SOL    HW2 1023   6.952   6.110   3.795
   42SOL     OW 1024   2.840   5.188   5.384
   42SOL    HW1 1025   2.843   5.285   5.360
   42SOL    HW2 1026   2.744   5.161   5.398
   43SOL     OW 1027   5.989   6.309   5.201
   43SOL    HW1 1028   5.928   6.231   5.216
   43SOL    HW2 1029   5.938   6.385   5.161
   44SOL     OW 1030   4.991   1.640   6.414
   44SOL    HW1 1031   5.000   1.669   6.509
   44SOL    HW2 1032   4.929   1.562   6.408
   45SOL     OW 1033   4.392   6.219   3.119
   45SOL    HW1 1034   4.342   6.213   3.033
   45SOL    HW2 1035   4.406   6.315   3.144
   46SOL     OW 1036   0.787   2.838   3.087
   46SOL    HW1 1037   0.732   2.815   3.007
   46SOL    HW2 1038   0.747   2.796   3.169
   47SOL     OW 1039   4.963   4.451   0.911
   47SOL    HW1 1040   5.055   4.477   0.939
   47SOL    HW2 1041   4.965   4.360   0.869
   48SOL     OW 1042   7.002   2.871   5.493
   48SOL    HW1 1043   0.069   2.848   5.519
   48SOL    HW2 1044   6.951   2.898   5.575
   49SOL     OW 1045   5.302   4.007   1.650
   49SOL    HW1 1046   5.283   3.936   1.582
   49SOL    HW2 1047   5.299   3.967   1.742
   50SOL     OW 1048   5.463   0.770   4.788
   50SOL    HW1 1049   5.405   0.688   4.796
   50SOL    HW2 1050   5.559   0.742   4.782
   51SOL     OW 1051   2.810   6.825   3.299
   51SOL    HW1 1052   2.813   6.914   3.344
   51SOL    HW2 1053   2.718   6.807   3.265
   52SOL     OW 1054   5.792   2.137   3.212
   52SOL    HW1 1055   5.818   2.224   3.255
   52SOL    HW2 1056   5.873   2.080   3.203
   53SOL     OW 1057   3.566   6.637   4.513
   53SOL    HW1 1058   3.656   6.680   4.511
   53SOL    HW2 1059   3.571   6.547   4.469
   54SOL     OW 1060   3.672   5.371   1.005
   54SOL    HW1 1061   3.738   5.317   1.058
   54SOL    HW2 1062   3.579   5.348   1.033
   55SOL     OW 1063   2.829   2.495   6.580
   55SOL    HW1 1064   2.759   2.488   6.508
   55SOL    HW2 1065   2.881   2.410   6.584
   56SOL     OW 1066   0.074   6.903   1.084
   56SOL    HW1 1067   0.049   6.962   1.007
   56SOL    HW2 1068   0.166   6.925   1.114
   57SOL     OW 1069   5.056   1.379   0.942
   57SOL    HW1 1070   5.083   1.412   0.851
   57SOL    HW2 1071   5.138   1.366   0.998
   58SOL     OW 1072   6.388   6.436   5.638
   58SOL    HW1 1073   6.388   6.367   5.710
   58SOL    HW2 1074   6.446   6.404   5.562
   59SOL     OW 1075   1.065   1.718   5.117
   59SOL    HW1 1076   1.068   1.810   5.157
   59SOL    HW2 1077   1.090   1.650   5.186
   60SOL     OW 1078   5.180   2.216   5.923
   60SOL    HW1 1079   5.259   2.270   5.953
   60SOL    HW2 1080   5.210   2.123   5.904
   61SOL     OW 1081   5.552   2.397   5.228
   61SOL    HW1 1082   5.599   2.324   5.179
   61SOL    HW2 1083   5.572   2.390   5.326
   62SOL     OW 1084   0.851   1.146   1.600
   62SOL    HW1 1085   0.881   1.145   1.504
   62SOL    HW2 1086   0.838   1.053   1.632
   63SOL     OW 1087   5.059   1.313   3.423
   63SOL    HW1 1088   5.043   1.214   3.421
   63SOL    HW2 1089   5.130   1.336   3.356
   64SOL     OW 1090   6.977   3.495   5.353
   64SOL    HW1 1091   0.002   3.472   5.270
   64SOL    HW2 1092   0.002   3.467   5.434
   65SOL     OW 1093   0.547   5.144   6.384
   65SOL    HW1 1094   0.551   5.079   6.308
   65SOL    HW2 1095   0.560   5.094   6.470
   66SOL     OW 1096   3.966   1.086   5.478
   66SOL    HW1 1097   4.000   1.105   5.570
   66SOL    HW2 1098   3.888   1.144   5.458
   67SOL     OW 1099   5.262   4.046   6.032
   67SOL    HW1 1100   5.209   4.126   6.062
   67SOL    HW2 1101   5.358   4.071   6.020
   68SOL     OW 1102   5.873   1.064   6.406
   68SOL    HW1 1103   5.862   1.110   6.493
   68SOL    HW2 1104   5.840   0.970   6.413
   69SOL     OW 1105   0.756   3.372   5.910
   69SOL    HW1 1106   0.778   3.452   5.854
   69SOL    HW2 1107   0.697   3.400   5.986
   70SOL     OW 1108   5.531   3.929   4.941
   70SOL    HW1 1109   5.564   3.886   5.026
   70SOL    HW2 1110   5.470   3.866   4.894
   71SOL     OW 1111   4.510   1.793   3.197
   71SOL    HW1 1112   4.603   1.807   3.162
   71SOL    HW2 1113   4.502   1.836   3.287
   72SOL     OW 1114   1.890   6.325   4.232
   72SOL    HW1 1115   1.804   6.278   4.210
   72SOL    HW2 1116   1.956   6.312   4.159
   73SOL     OW 1117   3.437   0.818   1.427
   73SOL    HW1 1118   3.493   0.797   1.347
   73SOL    HW2 1119   3.385   0.901   1.410
   74SOL     OW 1120   4.715   6.850   6.958
   74SOL    HW1 1121   4.661   6.780   6.910
   74SOL    HW2 1122   4.745   6.813   0.019
   75SOL     OW 1123   4.247   0.699   0.852
   75SOL    HW1 1124   4.245   0.696   0.952
   75SOL    HW2 1125   4.312   0.631   0.817
   76SOL     OW 1126   3.447   3.218   0.859
   76SOL    HW1 1127   3.484   3.273   0.934
   76SOL    HW2 1128   3.462   3.121   0.878
   77SOL     OW 1129   6.709   6.845   3.422
   77SOL    HW1 1130   6.742   6.784   3.494
   77SOL    HW2 1131   6.655   6.792   3.356
   78SOL     OW 1132   5.810   2.021   0.230
   78SOL    HW1 1133   5.764   2.077   0.300
   78SOL    HW2 1134   5.868   2.080   0.174
   79SOL     OW 1135   3.293   6.227   0.960
   79SOL    HW1 1136   3.357   6.221   0.884
   79SOL    HW2 1137   3.267   6.322   0.975
   80SOL     OW 1138   5.351   1.023   4.702
   80SOL    HW1 1139   5.358   0.935   4.748
   80SOL    HW2 1140   5.438   1.046   4.658
   81SOL     OW 1141   1.947   0.010   2.744
   81SOL    HW1 1142   1.918   0.094   2.790
   81SOL    HW2 1143   1.940   6.960   2.807
   82SOL     OW 1144   6.009   4.809   1.012
   82SOL    HW1 1145   5.987   4.794   1.108
   82SOL    HW2 1146   6.045   4.725   0.972
   83SOL     OW 1147   0.801   0.797   0.016
   83SOL    HW1 1148   0.744   0.769   0.093
   83SOL    HW2 1149   0.853   0.718   7.009
   84SOL     OW 1150   5.776   2.382   3.346
   84SOL    HW1 1151   5.828   2.440   3.283
   84SOL    HW2 1152   5.799   2.407   3.440
   85SOL     OW 1153   1.616   1.000   4.097
   85SOL    HW1 1154   1.677   0.923   4.075
   85SOL    HW2 1155   1.643   1.080   4.044
   86SOL     OW 1156   6.815   1.040   4.865
   86SOL    HW1 1157   6.752   1.115   4.884
   86SOL    HW2 1158   6.823   0.982   4.946
   87SOL     OW 1159   4.623   3.612   0.792
   87SOL    HW1 1160   4.723   3.613   0.782
   87SOL    HW2 1161   4.599   3.630   0.887
   88SOL     OW 1162   3.372   1.645   5.298
   88SOL    HW1 1163   3.421   1.628   5.212
   88SOL    HW2 1164   3.432   1.622   5.375
   89SOL     OW 1165   1.341   2.590   5.878
   89SOL    HW1 1166   1.439   2.597   5.896
   89SOL    HW2 1167   1.322   2.504   5.831
   90SOL     OW 1168   3.604   5.025   2.448
   90SOL    HW1 1169   3.592   5.117   2.409
   90SOL    HW2 1170   3.550   4.959   2.395
   91SOL     OW 1171   5.360   4.446   5.376
   91SOL    HW1 1172   5.423   4.457   5.453
   91SOL    HW2 1173   5.300   4.368   5.392
   92SOL     OW 1174   3.869   4.791   0.576
   92SOL    HW1 1175   3.803   4.721   0.550
   92SOL    HW2 1176   3.880   4.856   0.501
   93SOL     OW 1177   3.023   4.219   6.676
   93SOL    HW1 1178   2.991   4.163   6.752
   93SOL    HW2 1179   2.948   4.235   6.612
   94SOL     OW 1180   2.020   5.792   6.796
   94SOL    HW1 1181   2.055   5.742   6.875
   94SOL    HW2 1182   1.923   5.772   6.783
   95SOL     OW 1183   1.378   0.319   3.751
   95SOL    HW1 1184   1.288   0.279   3.734
   95SOL    HW2 1185   1.401   0.311   3.848
   96SOL     OW 1186   3.350   0.477   5.362
   96SOL    HW1 1187   3.306   0.450   5.447
   96SOL    HW2 1188   3.281   0.505   5.295
   97SOL     OW 1189   2.133   3.458   5.821
   97SOL    HW1 1190   2.150   3.383   5.884
   97SOL    HW2 1191   2.083   3.425   5.742
   98SOL     OW 1192   0.072   3.742   0.925
   98SOL    HW1 1193   0.109   3.651   0.903
   98SOL    HW2 1194   0.033   3.783   0.843
   99SOL     OW 1195   3.696   2.926   0.985
   99SOL    HW1 1196   3.783   2.976   0.988
   99SOL    HW2 1197   3.678   2.886   1.075
  100SOL     OW 1198   6.918   7.022   4.906
  100SOL    HW1 1199   6.877   0.086   4.906
  100SOL    HW2 1200   6.846   6.953   4.910
  101SOL     OW 1201   1.508   5.027   1.948
  101SOL    HW1 1202   1.448   4.956   1.911
  101SOL    HW2 1203   1.589   5.036   1.889
  102SOL     OW 1204   4.012   5.596   2.466
  102SOL    HW1 1205   3.982   5.542   2.545
  102SOL    HW2 1206   4.093   5.554   2.426
  103SOL     OW 1207   2.308   1.737   1.734
  103SOL    HW1 1208   2.353   1.754   1.822
  103SOL    HW2 1209   2.251   1.655   1.742
  104SOL     OW 1210   0.816   5.396   2.463
  104SOL    HW1 1211   0.865   5.472   2.506
  104SOL    HW2 1212   0.732   5.430   2.421
  105SOL     OW 1213   6.595   2.262   6.381
  105SOL    HW1 1214   6.496   2.271   6.368
  105SOL    HW2 1215   6.641   2.341   6.340
  106SOL     OW 1216   3.416   6.206   4.907
  106SOL    HW1 1217   3.449   6.226   4.999
  106SOL    HW2 1218   3.450   6.276   4.844
  107SOL     OW 1219   1.766   1.627   1.469
  107SOL    HW1 1220   1.851   1.588   1.432
  107SOL    HW2 1221   1.724   1.560   1.531
  108SOL     OW 1222   2.640   5.887   5.642
  108SOL    HW1 1223   2.615   5.976   5.678
  108SOL    HW2 1224   2.639   5.819   5.715
  109SOL     OW 1225   6.941   0.013   1.624
  109SOL    HW1 1226   6.881   7.016   1.700
  109SOL    HW2 1227   6.953   6.961   1.564
  110SOL     OW 1228   3.583   6.059   4.645
  110SOL    HW1 1229   3.483   6.060   4.639
  110SOL    HW2 1230   3.622   6.040   4.555
  111SOL     OW 1231   2.070   0.766   4.613
  111SOL    HW1 1232   2.092   0.677   4.572
  111SOL    HW2 1233   2.141   0.791   4.679
  112SOL     OW 1234   3.409   6.555   6.679
  112SOL    HW1 1235   3.323   6.606   6.676
  112SOL    HW2 1236   3.486   6.618   6.681
  113SOL     OW 1237   0.212   5.682   3.623
  113SOL    HW1 1238   0.306   5.647   3.621
  113SOL    HW2 1239   0.201   5.743   3.701
  114SOL     OW 1240   0.638   0.124   1.930
  114SOL    HW1 1241   0.582   0.049   1.967
  114SOL    HW2 1242   0.584   0.208   1.928
  115SOL     OW 1243   4.225   1.861   3.078
  115SOL    HW1 1244   4.237   1.866   3.177
  115SOL    HW2 1245   4.280   1.931   3.034
  116SOL     OW 1246   5.822   5.328   1.730
  116SOL    HW1 1247   5.896   5.261   1.735
  116SOL    HW2 1248   5.840   5.402   1.795
  117SOL     OW 1249   1.950   2.054   0.555
  117SOL    HW1 1250   1.926   2.000   0.474
  117SOL    HW2 1251   1.936   1.998   0.637
  118SOL     OW 1252   1.625   0.892   2.688
  118SOL    HW1 1253   1.560   0.942   2.745
  118SOL    HW2 1254   1.638   0.800   2.724
  119SOL     OW 1255   0.491   0.452   6.799
  119SOL    HW1 1256   0.532   0.374   6.751
  119SOL    HW2 1257   0.470   0.524   6.734
  120SOL     OW 1258   5.758   6.874   6.890
  120SOL    HW1 1259   5.743   6.956   6.945
  120SOL    HW2 1260   5.768   6.901   6.794
  121SOL     OW 1261   1.169   3.723   6.116
  121SOL    HW1 1262   1.189   3.776   6.198
  121SOL    HW2 1263   1.192   3.776   6.034
  122SOL     OW 1264   1.864   3.307   5.659
  122SOL    HW1 1265   1.864   3.208   5.671
  122SOL    HW2 1266   1.861   3.330   5.562
  123SOL     OW 1267   0.868   1.409   2.925
  123SOL    HW1 1268   0.843   1.504   2.904
  123SOL    HW2 1269   0.940   1.379   2.862
  124SOL     OW 1270   3.939   2.924   0.548
  124SOL    HW1 1271   3.862   2.952   0.491
  124SOL    HW2 1272   3.981   2.842   0.509
  125SOL     OW 1273   2.995   1.770   0.540
  125SOL    HW1 1274   3.041   1.760   0.628
  125SOL    HW2 1275   3.064   1.775   0.467
  126SOL     OW 1276   1.857   4.208   1.017
  126SOL    HW1 1277   1.944   4.167   1.045
  126SOL    HW2 1278   1.848   4.298   1.059
  127SOL     OW 1279   0.616   5.214   0.258
  127SOL    HW1 1280   0.692   5.244   0.201
  127SOL    HW2 1281   0.539   5.188   0.201
  128SOL     OW 1282   5.324   2.240   1.415
  128SOL    HW1 1283   5.295   2.175   1.485
  128SOL    HW2 1284   5.244   2.274   1.366
  129SOL     OW 1285   2.022   3.143   6.432
  129SOL    HW1 1286   1.993   3.237   6.449
  129SOL    HW2 1287   1.958   3.098   6.370
  130SOL     OW 1288   1.203   1.972   4.558
  130SOL    HW1 1289   1.263   2.008   4.486
  130SOL    HW2 1290   1.259   1.944   4.636
  131SOL     OW 1291   5.251   1.342   3.227
  131SOL    HW1 1292   5.218   1.262   3.177
  131SOL    HW2 1293   5.350   1.334   3.241
  132SOL     OW 1294   2.752   3.071   1.098
  132SOL    HW1 1295   2.671   3.012   1.094
  132SOL    HW2 1296   2.804   3.050   1.180
  133SOL     OW 1297   5.147   0.236   4.405
  133SOL    HW1 1298   5.049   0.223   4.420
  133SOL    HW2 1299   5.178   0.173   4.335
  134SOL     OW 1300   6.527   0.616   2.596
  134SOL    HW1 1301   6.527   0.703   2.546
  134SOL    HW2 1302   6.620   0.594   2.624
  135SOL     OW 1303   5.413   3.673   3.532
  135SOL    HW1 1304   5.334   3.710   3.581
  135SOL    HW2 1305   5.461   3.608   3.590
  136SOL     OW 1306   2.695   4.320   5.799
  136SOL    HW1 1307   2.734   4.382   5.867
  136SOL    HW2 1308   2.769   4.275   5.749
  137SOL     OW 1309   5.793   2.318   3.779
  137SOL    HW1 1310   5.855   2.371   3.721
  137SOL    HW2 1311   5.755   2.242   3.727
  138SOL     OW 1312   1.016   4.339   2.180
  138SOL    HW1 1313   1.056   4.417   2.133
  138SOL    HW2 1314   1.055   4.331   2.272
  139SOL     OW 1315   1.795   0.034   5.009
  139SOL    HW1 1316   1.782   6.961   5.005
  139SOL    HW2 1317   1.809   0.069   4.917
  140SOL     OW 1318   1.421   6.236   2.964
  140SOL    HW1 1319   1.517   6.224   2.939
  140SOL    HW2 1320   1.415   6.261   3.061
  141SOL     OW 1321   0.330   2.546   5.274
  141SOL    HW1 1322   0.348   2.622   5.336
  141SOL    HW2 1323   0.368   2.462   5.312
  142SOL     OW 1324   1.033   3.622   1.312
  142SOL    HW1 1325   1.038   3.523   1.300
  142SOL    HW2 1326   0.937   3.651   1.308
  143SOL     OW 1327   5.911   4.547   0.499
  143SOL    HW1 1328   5.852   4.626   0.484
  143SOL    HW2 1329   5.956   4.523   0.413
  144SOL     OW 1330   1.400   4.873   5.868
  144SOL    HW1 1331   1.436   4.966   5.855
  144SOL    HW2 1332   1.394   4.827   5.780
  145SOL     OW 1333   6.882   5.642   0.192
  145SOL    HW1 1334   6.835   5.560   0.224
  145SOL    HW2 1335   6.829   5.723   0.218
  146SOL     OW 1336   5.035   0.418   5.948
  146SOL    HW1 1337   5.027   0.433   5.850
  146SOL    HW2 1338   4.955   0.368   5.981
  147SOL     OW 1339   5.523   3.708   6.811
  147SOL    HW1 1340   5.467   3.664   6.881
  147SOL    HW2 1341   5.525   3.652   6.729
  148SOL     OW 1342   6.717   5.743   6.895
  148SOL    HW1 1343   6.683   5.649   6.886
  148SOL    HW2 1344   6.670   5.801   6.828
  149SOL     OW 1345   3.641   2.118   3.989
  149SOL    HW1 1346   3.669   2.039   4.043
  149SOL    HW2 1347   3.625   2.090   3.895
  150SOL     OW 1348   5.886   6.709   0.898
  150SOL    HW1 1349   5.832   6.737   0.819
  150SOL    HW2 1350   5.983   6.726   0.880
  151SOL     OW 1351   2.899   2.844   0.948
  151SOL    HW1 1352   2.885   2.880   1.041
  151SOL    HW2 1353   2.882   2.916   0.881
  152SOL     OW 1354   0.784   0.862   1.678
  152SOL    HW1 1355   0.707   0.837   1.736
  152SOL    HW2 1356   0.866   0.814   1.709
  153SOL     OW 1357   2.860   0.949   2.650
  153SOL    HW1 1358   2.902   1.021   2.705
  153SOL    HW2 1359   2.840   0.870   2.707
  154SOL     OW 1360   0.332   2.538   2.071
  154SOL    HW1 1361   0.340   2.587   1.984
  154SOL    HW2 1362   0.415   2.485   2.087
  155SOL     OW 1363   0.418   1.636   3.670
  155SOL    HW1 1364   0.414   1.613   3.767
  155SOL    HW2 1365   0.330   1.674   3.641
  156SOL     OW 1366   6.745   1.652   0.580
  156SOL    HW1 1367   6.773   1.689   0.668
  156SOL    HW2 1368   6.649   1.624   0.584
  157SOL     OW 1369   5.333   3.678   1.979
  157SOL    HW1 1370   5.414   3.719   2.021
  157SOL    HW2 1371   5.257   3.744   1.981
  158SOL     OW 1372   2.179   4.488   2.549
  158SOL    HW1 1373   2.221   4.576   2.524
  158SOL    HW2 1374   2.232   4.446   2.623
  159SOL     OW 1375   4.893   4.160   2.376
  159SOL    HW1 1376   4.862   4.110   2.457
  159SOL    HW2 1377   4.821   4.159   2.307
  160SOL     OW 1378   5.129   5.612   1.023
  160SOL    HW1 1379   5.043   5.565   1.043
  160SOL    HW2 1380   5.189   5.605   1.103
  161SOL     OW 1381   1.932   5.967   4.094
  161SOL    HW1 1382   1.964   6.052   4.134
  161SOL    HW2 1383   1.974   5.954   4.004
  162SOL     OW 1384   3.655   5.908   0.247
  162SOL    HW1 1385   3.652   5.999   0.289
  162SOL    HW2 1386   3.657   5.838   0.319
  163SOL     OW 1387   5.820   5.392   0.654
  163SOL    HW1 1388   5.812   5.427   0.748
  163SOL    HW2 1389   5.864   5.462   0.597
  164SOL     OW 1390   6.925   4.618   1.604
  164SOL    HW1 1391   6.882   4.542   1.556
  164SOL    HW2 1392   6.932   4.597   1.701
  165SOL     OW 1393   5.049   3.262   1.430
  165SOL    HW1 1394   5.073   3.182   1.485
  165SOL    HW2 1395   4.950   3.271   1.425
  166SOL     OW 1396   0.589   4.077   2.683
  166SOL    HW1 1397   0.640   4.006   2.635
  166SOL    HW2 1398   0.621   4.082   2.778
  167SOL     OW 1399   5.152   3.024   0.008
  167SOL    HW1 1400   5.235   2.970   0.022
  167SOL    HW2 1401   5.082   2.995   0.073
  168SOL     OW 1402   2.863   3.312   1.350
  168SOL    HW1 1403   2.900   3.378   1.415
  168SOL    HW2 1404   2.807   3.245   1.398
  169SOL     OW 1405   5.206   1.908   1.844
  169SOL    HW1 1406   5.192   1.815   1.809
  169SOL    HW2 1407   5.294   1.912   1.892
  170SOL     OW 1408   0.848   0.745   2.615
  170SOL    HW1 1409   0.880   0.802   2.691
  170SOL    HW2 1410   0.757   0.710   2.637
  171SOL     OW 1411   3.089   4.907   6.301
  171SOL    HW1 1412   3.158   4.979   6.295
  171SOL    HW2 1413   3.028   4.925   6.378
  172SOL     OW 1414   6.583   1.464   3.012
  172SOL    HW1 1415   6.525   1.448   2.932
  172SOL    HW2 1416   6.655   1.395   3.015
  173SOL     OW 1417   5.575   1.476   4.319
  173SOL    HW1 1418   5.520   1.556   4.342
  173SOL    HW2 1419   5.649   1.502   4.258
  174SOL     OW 1420   3.787   4.915   3.571
  174SOL    HW1 1421   3.846   4.996   3.576
  174SOL    HW2 1422   3.761   4.887   3.664
  175SOL     OW 1423   3.177   0.176   1.663
  175SOL    HW1 1424   3.262   0.191   1.713
  175SOL    HW2 1425   3.175   0.234   1.582
  176SOL     OW 1426   0.580   4.509   0.654
  176SOL    HW1 1427   0.622   4.433   0.704
  176SOL    HW2 1428   0.607   4.595   0.697
  177SOL     OW 1429   5.212   2.782   2.650
  177SOL    HW1 1430   5.281   2.791   2.578
  177SOL    HW2 1431   5.123   2.764   2.609
  178SOL     OW 1432   2.189   2.820   6.378
  178SOL    HW1 1433   2.111   2.780   6.427
  178SOL    HW2 1434   2.161   2.906   6.335
  179SOL     OW 1435   3.798   1.376   5.580
  179SOL    HW1 1436   3.737   1.408   5.653
  179SOL    HW2 1437   3.747   1.318   5.517
  180SOL     OW 1438   2.025   6.870   6.889
  180SOL    HW1 1439   2.054   6.874   6.985
  180SOL    HW2 1440   1.932   6.835   6.883
  181SOL     OW 1441   3.150   3.238   6.104
  181SOL    HW1 1442   3.247   3.214   6.110
  181SOL    HW2 1443   3.129   3.311   6.169
  182SOL     OW 1444   3.551   1.993   5.711
  182SOL    HW1 1445   3.452   1.980   5.721
  182SOL    HW2 1446   3.569   2.048   5.630
  183SOL     OW 1447   4.236   2.193   3.676
  183SOL    HW1 1448   4.273   2.216   3.586
  183SOL    HW2 1449   4.293   2.123   3.718
  184SOL     OW 1450   1.245   6.276   4.532
  184SOL    HW1 1451   1.202   6.350   4.479
  184SOL    HW2 1452   1.226   6.290   4.629
  185SOL     OW 1453   0.843   1.285   6.067
  185SOL    HW1 1454   0.839   1.223   6.146
  185SOL    HW2 1455   0.855   1.379   6.099
  186SOL     OW 1456   5.828   0.284   4.182
  186SOL    HW1 1457   5.860   0.374   4.209
  186SOL    HW2 1458   5.905   0.219   4.183
  187SOL     OW 1459   4.621   0.166   2.337
  187SOL    HW1 1460   4.719   0.186   2.326
  187SOL    HW2 1461   4.568   0.248   2.317
  188SOL     OW 1462   0.886   2.063   3.643
  188SOL    HW1 1463   0.864   2.083   3.739
  188SOL    HW2 1464   0.862   2.142   3.587
  189SOL     OW 1465   2.211   5.487   1.647
  189SOL    HW1 1466   2.308   5.496   1.670
  189SOL    HW2 1467   2.156   5.537   1.714
  190SOL     OW 1468   5.266   2.327   4.861
  190SOL    HW1 1469   5.261   2.255   4.930
  190SOL    HW2 1470   5.324   2.401   4.894
  191SOL     OW 1471   6.046   0.299   6.923
  191SOL    HW1 1472   5.959   0.276   6.880
  191SOL    HW2 1473   6.102   0.216   6.931
  192SOL     OW 1474   1.483   5.531   1.697
  192SOL    HW1 1475   1.489   5.498   1.603
  192SOL    HW2 1476   1.429   5.615   1.700
  193SOL     OW 1477   4.306   3.656   5.494
  193SOL    HW1 1478   4.239   3.701   5.435
  193SOL    HW2 1479   4.389   3.638   5.442
  194SOL     OW 1480   4.081   0.743   3.116
  194SOL    HW1 1481   4.156   0.771   3.057
  194SOL    HW2 1482   3.997   0.735   3.061
  195SOL     OW 1483   2.040   0.445   5.260
  195SOL    HW1 1484   2.000   0.526   5.305
  195SOL    HW2 1485   1.986   0.424   5.178
  196SOL     OW 1486   2.518   0.618   0.914
  196SOL    HW1 1487   2.509   0.688   0.984
  196SOL    HW2 1488   2.613   0.588   0.908
  197SOL     OW 1489   2.813   0.159   1.349
  197SOL    HW1 1490   2.716   0.134   1.348
  197SOL    HW2 1491   2.860   0.108   1.421
  198SOL     OW 1492   4.804   0.686   1.670
  198SOL    HW1 1493   4.732   0.722   1.729
  198SOL    HW2 1494   4.770   0.606   1.621
  199SOL     OW 1495   6.914   1.443   3.687
  199SOL    HW1 1496   6.845   1.459   3.758
  199SOL    HW2 1497   6.928   1.528   3.636
  200SOL     OW 1498   1.295   4.360   1.650
  200SOL    HW1 1499   1.370   4.427   1.653
  200SOL    HW2 1500   1.260   4.345   1.742
  201SOL     OW 1501   6.637   6.897   5.665
  201SOL    HW1 1502   6.666   6.950   5.585
  201SOL    HW2 1503   6.558   6.943   5.708
  202SOL     OW 1504   4.699   1.380   6.743
  202SOL    HW1 1505   4.691   1.309   6.673
  202SOL    HW2 1506   4.608   1.410   6.771
  203SOL     OW 1507   5.384   2.169   5.304
  203SOL    HW1 1508   5.423   2.142   5.392
  203SOL    HW2 1509   5.299   2.119   5.288
  204SOL     OW 1510   0.483   0.479   5.344
  204SOL    HW1 1511   0.449   0.477   5.438
  204SOL    HW2 1512   0.438   0.554   5.294
  205SOL     OW 1513   0.793   1.575   2.689
  205SOL    HW1 1514   0.882   1.591   2.647
  205SOL    HW2 1515   0.762   1.483   2.666
  206SOL     OW 1516   0.535   4.452   1.053
  206SOL    HW1 1517   0.605   4.419   0.990
  206SOL    HW2 1518   0.450   4.469   1.002
  207SOL     OW 1519   6.055   1.673   3.382
  207SOL    HW1 1520   6.008   1.585   3.387
  207SOL    HW2 1521   6.058   1.714   3.473
  208SOL     OW 1522   6.088   3.223   4.932
  208SOL    HW1 1523   6.060   3.228   5.028
  208SOL    HW2 1524   6.136   3.307   4.907
  209SOL     OW 1525   0.710   4.694   3.717
  209SOL    HW1 1526   0.686   4.774   3.662
  209SOL    HW2 1527   0.807   4.672   3.703
  210SOL     OW 1528   4.071   2.202   0.704
  210SOL    HW1 1529   4.023   2.225   0.619
  210SOL    HW2 1530   4.034   2.258   0.778
  211SOL     OW 1531   2.202   6.309   2.728
  211SOL    HW1 1532   2.164   6.363   2.653
  211SOL    HW2 1533   2.163   6.340   2.815
  212SOL     OW 1534   1.273   3.879   1.860
  212SOL    HW1 1535   1.287   3.928   1.774
  212SOL    HW2 1536   1.315   3.930   1.935
  213SOL     OW 1537   3.311   0.865   0.611
  213SOL    HW1 1538   3.323   0.848   0.513
  213SOL    HW2 1539   3.239   0.933   0.624
  214SOL     OW 1540   4.508   4.687   1.603
  214SOL    HW1 1541   4.477   4.610   1.658
  214SOL    HW2 1542   4.431   4.747   1.583
  215SOL     OW 1543   2.490   4.175   0.907
  215SOL    HW1 1544   2.408   4.226   0.882
  215SOL    HW2 1545   2.535   4.140   0.825
  216SOL     OW 1546   2.097   6.177   4.133
  216SOL    HW1 1547   2.170   6.112   4.152
  216SOL    HW2 1548   2.120   6.231   4.052
  217SOL     OW 1549   0.860   1.987   4.028
  217SOL    HW1 1550   0.835   1.898   4.066
  217SOL    HW2 1551   0.779   2.046   4.024
  218SOL     OW 1552   0.217   3.681   4.401
  218SOL    HW1 1553   0.147   3.693   4.330
  218SOL    HW2 1554   0.177   3.697   4.491
  219SOL     OW 1555   4.335   6.992   6.562
  219SOL    HW1 1556   4.386   0.051   6.563
  219SOL    HW2 1557   4.241   7.009   6.591
  220SOL     OW 1558   3.177   7.014   1.371
  220SOL    HW1 1559   3.219   6.986   1.457
  220SOL    HW2 1560   3.079   0.002   1.385
  221SOL     OW 1561   0.076   3.490   0.841
  221SOL    HW1 1562   0.062   3.440   0.756
  221SOL    HW2 1563   0.042   3.435   0.918
  222SOL     OW 1564   1.807   4.959   5.646
  222SOL    HW1 1565   1.860   5.026   5.594
  222SOL    HW2 1566   1.790   4.993   5.738
  223SOL     OW 1567   5.956   3.346   6.739
  223SOL    HW1 1568   5.886   3.306   6.680
  223SOL    HW2 1569   6.001   3.422   6.692
  224SOL     OW 1570   1.927   1.197   4.403
  224SOL    HW1 1571   1.953   1.272   4.343
  224SOL    HW2 1572   1.876   1.234   4.482
  225SOL     OW 1573   4.040   3.842   6.342
  225SOL    HW1 1574   4.091   3.758   6.325
  225SOL    HW2 1575   4.102   3.914   6.372
  226SOL     OW 1576   2.127   1.632   5.687
  226SOL    HW1 1577   2.214   1.615   5.642
  226SOL    HW2 1578   2.096   1.548   5.732
  227SOL     OW 1579   1.762   3.565   2.263
  227SOL    HW1 1580   1.806   3.509   2.334
  227SOL    HW2 1581   1.789   3.661   2.275
  228SOL     OW 1582   3.190   6.602   3.966
  228SOL    HW1 1583   3.142   6.689   3.954
  228SOL    HW2 1584   3.133   6.539   4.020
  229SOL     OW 1585   6.023   6.280   0.030
  229SOL    HW1 1586   5.949   6.301   6.993
  229SOL    HW2 1587   5.985   6.263   0.121
  230SOL     OW 1588   3.349   5.167   3.727
  230SOL    HW1 1589   3.384   5.087   3.775
  230SOL    HW2 1590   3.388   5.250   3.765
  231SOL     OW 1591   6.341   2.063   6.054
  231SOL    HW1 1592   6.321   2.160   6.067
  231SOL    HW2 1593   6.439   2.050   6.039
  232SOL     OW 1594   0.547   3.388   6.733
  232SOL    HW1 1595   0.461   3.425   6.699
  232SOL    HW2 1596   0.528   3.310   6.793
  233SOL     OW 1597   3.030   1.774   2.807
  233SOL    HW1 1598   3.082   1.838   2.751
  233SOL    HW2 1599   3.094   1.713   2.856
  234SOL     OW 1600   5.279   0.374   5.411
  234SOL    HW1 1601   5.184   0.355   5.436
  234SOL    HW2 1602   5.319   0.436   5.478
  235SOL     OW 1603   3.442   2.501   1.427
  235SOL    HW1 1604   3.472   2.442   1.502
  235SOL    HW2 1605   3.475   2.594   1.444
  236SOL     OW 1606   5.242   3.260   6.315
  236SOL    HW1 1607   5.150   3.247   6.277
  236SOL    HW2 1608   5.305   3.286   6.242
  237SOL     OW 1609   5.967   4.484   1.666
  237SOL    HW1 1610   6.028   4.448   1.737
  237SOL    HW2 1611   6.022   4.519   1.591
  238SOL     OW 1612   4.965   2.257   0.391
  238SOL    HW1 1613   5.012   2.311   0.320
  238SOL    HW2 1614   4.979   2.160   0.374
  239SOL     OW 1615   0.647   5.380   7.003
  239SOL    HW1 1616   0.706   5.407   0.052
  239SOL    HW2 1617   0.704   5.357   6.924
  240SOL     OW 1618   6.839   2.579   3.558
  240SOL    HW1 1619   6.865   2.483   3.564
  240SOL    HW2 1620   6.909   2.635   3.601
  241SOL     OW 1621   2.592   1.559   5.319
  241SOL    HW1 1622   2.505   1.512   5.304
  241SOL    HW2 1623   2.601   1.635   5.254
  242SOL     OW 1624   3.459   3.544   4.078
  242SOL    HW1 1625   3.555   3.515   4.075
  242SOL    HW2 1626   3.424   3.535   4.171
  243SOL     OW 1627   3.772   0.431   6.004
  243SOL    HW1 1628   3.844   0.368   6.032
  243SOL    HW2 1629   3.793   0.523   6.036
  244SOL     OW 1630   6.172   2.767   4.929
  244SOL    HW1 1631   6.072   2.764   4.930
  244SOL    HW2 1632   6.203   2.862   4.934
  245SOL     OW 1633   5.717   3.746   4.083
  245SOL    HW1 1634   5.740   3.656   4.045
  245SOL    HW2 1635   5.795   3.781   4.135
  246SOL     OW 1636   4.690   2.575   3.837
  246SOL    HW1 1637   4.646   2.590   3.926
  246SOL    HW2 1638   4.620   2.550   3.770
  247SOL     OW 1639   3.023   2.040   1.690
  247SOL    HW1 1640   3.073   1.956   1.713
  247SOL    HW2 1641   2.982   2.077   1.773
  248SOL     OW 1642   3.434   1.502   2.480
  248SOL    HW1 1643   3.528   1.502   2.515
  248SOL    HW2 1644   3.378   1.444   2.538
  249SOL     OW 1645   4.186   0.363   4.795
  249SOL    HW1 1646   4.117   0.339   4.863
  249SOL    HW2 1647   4.147   0.428   4.729
  250SOL     OW 1648   4.937   2.892   1.001
  250SOL    HW1 1649   4.959   2.797   1.024
  250SOL    HW2 1650   4.961   2.952   1.078
  251SOL     OW 1651   4.500   4.195   6.060
  251SOL    HW1 1652   4.446   4.135   6.118
  251SOL    HW2 1653   4.439   4.243   5.996
  252SOL     OW 1654   6.209   5.907   0.234
  252SOL    HW1 1655   6.238   5.895   0.139
  252SOL    HW2 1656   6.254   5.988   0.272
  253SOL     OW 1657   2.456   5.795   6.547
  253SOL    HW1 1658   2.396   5.857   6.496
  253SOL    HW2 1659   2.549   5.803   6.513
  254SOL     OW 1660   5.527   3.065   3.556
  254SOL    HW1 1661   5.505   3.154   3.516
  254SOL    HW2 1662   5.442   3.014   3.573
  255SOL     OW 1663   1.446   3.703   5.100
  255SOL    HW1 1664   1.512   3.772   5.130
  255SOL    HW2 1665   1.403   3.732   5.015
  256SOL     OW 1666   6.572   3.818   6.178
  256SOL    HW1 1667   6.543   3.778   6.266
  256SOL    HW2 1668   6.669   3.800   6.164
  257SOL     OW 1669   4.605   0.166   3.367
  257SOL    HW1 1670   4.694   0.194   3.402
  257SOL    HW2 1671   4.535   0.182   3.437
  258SOL     OW 1672   2.163   5.130   5.085
  258SOL    HW1 1673   2.210   5.105   5.170
  258SOL    HW2 1674   2.139   5.046   5.036
  259SOL     OW 1675   0.729   1.929   2.034
  259SOL    HW1 1676   0.768   1.979   1.956
  259SOL    HW2 1677   0.802   1.881   2.082
  260SOL     OW 1678   4.531   0.862   0.822
  260SOL    HW1 1679   4.561   0.768   0.803
  260SOL    HW2 1680   4.599   0.927   0.788
  261SOL     OW 1681   6.675   3.378   0.921
  261SOL    HW1 1682   6.578   3.355   0.912
  261SOL    HW2 1683   6.731   3.303   0.886
  262SOL     OW 1684   0.089   3.946   0.652
  262SOL    HW1 1685   0.101   4.045   0.653
  262SOL    HW2 1686   0.009   3.923   0.595
  263SOL     OW 1687   1.654   0.831   3.329
  263SOL    HW1 1688   1.637   0.920   3.285
  263SOL    HW2 1689   1.752   0.819   3.344
  264SOL     OW 1690   5.813   3.244   6.534
  264SOL    HW1 1691   5.716   3.248   6.509
  264SOL    HW2 1692   5.860   3.179   6.474
  265SOL     OW 1693   5.172   5.835   2.432
  265SOL    HW1 1694   5.219   5.879   2.355
  265SOL    HW2 1695   5.119   5.757   2.397
  266SOL     OW 1696   3.110   2.902   5.425
  266SOL    HW1 1697   3.155   2.891   5.337
  266SOL    HW2 1698   3.170   2.953   5.487
  267SOL     OW 1699   0.544   1.335   6.694
  267SOL    HW1 1700   0.488   1.358   6.773
  267SOL    HW2 1701   0.629   1.291   6.725
  268SOL     OW 1702   3.568   0.713   5.842
  268SOL    HW1 1703   3.639   0.757   5.895
  268SOL    HW2 1704   3.550   0.622   5.879
  269SOL     OW 1705   0.988   3.455   1.994
  269SOL    HW1 1706   1.041   3.517   1.937
  269SOL    HW2 1707   1.049   3.404   2.054
  270SOL     OW 1708   0.622   0.244   0.504
  270SOL    HW1 1709   0.666   0.233   0.415
  270SOL    HW2 1710   0.683   0.209   0.575
  271SOL     OW 1711   0.924   1.379   6.870
  271SOL    HW1 1712   0.913   1.310   6.799
  271SOL    HW2 1713   0.875   1.462   6.843
  272SOL     OW 1714   3.336   5.462   4.367
  272SOL    HW1 1715   3.300   5.413   4.446
  272SOL    HW2 1716   3.436   5.465   4.371
  273SOL     OW 1717   1.974   4.366   4.837
  273SOL    HW1 1718   2.007   4.460   4.830
  273SOL    HW2 1719   2.035   4.314   4.897
  274SOL     OW 1720   4.397   1.879   3.437
  274SOL    HW1 1721   4.373   1.970   3.406
  274SOL    HW2 1722   4.369   1.867   3.533
  275SOL     OW 1723   5.735   4.111   5.236
  275SOL    HW1 1724   5.651   4.096   5.184
  275SOL    HW2 1725   5.745   4.208   5.257
  276SOL     OW 1726   0.505   6.552   2.403
  276SOL    HW1 1727   0.517   6.495   2.321
  276SOL    HW2 1728   0.548   6.507   2.481
  277SOL     OW 1729   1.161   4.136   0.978
  277SOL    HW1 1730   1.254   4.123   0.944
  277SOL    HW2 1731   1.124   4.048   1.007
  278SOL     OW 1732   6.086   4.898   2.136
  278SOL    HW1 1733   6.033   4.905   2.052
  278SOL    HW2 1734   6.026   4.907   2.215
  279SOL     OW 1735   6.807   2.873   4.405
  279SOL    HW1 1736   6.822   2.811   4.327
  279SOL    HW2 1737   6.861   2.956   4.393
  280SOL     OW 1738   2.873   0.069   3.057
  280SOL    HW1 1739   2.956   0.097   3.008
  280SOL    HW2 1740   2.890   0.068   3.155
  281SOL     OW 1741   2.723   4.692   2.387
  281SOL    HW1 1742   2.647   4.669   2.327
  281SOL    HW2 1743   2.795   4.737   2.334
  282SOL     OW 1744   3.218   1.910   5.404
  282SOL    HW1 1745   3.298   1.850   5.403
  282SOL    HW2 1746   3.247   2.003   5.379
  283SOL     OW 1747   6.495   1.670   6.561
  283SOL    HW1 1748   6.452   1.748   6.606
  283SOL    HW2 1749   6.577   1.642   6.613
  284SOL     OW 1750   1.458   3.931   4.016
  284SOL    HW1 1751   1.545   3.974   3.991
  284SOL    HW2 1752   1.472   3.833   4.028
  285SOL     OW 1753   5.988   4.528   5.542
  285SOL    HW1 1754   5.889   4.519   5.553
  285SOL    HW2 1755   6.033   4.517   5.631
  286SOL     OW 1756   3.790   6.052   5.352
  286SOL    HW1 1757   3.790   6.025   5.449
  286SOL    HW2 1758   3.803   5.971   5.295
  287SOL     OW 1759   0.459   4.599   6.895
  287SOL    HW1 1760   0.371   4.609   6.940
  287SOL    HW2 1761   0.499   4.511   6.918
  288SOL     OW 1762   3.888   1.969   6.268
  288SOL    HW1 1763   3.803   1.949   6.317
  288SOL    HW2 1764   3.916   1.889   6.215
  289SOL     OW 1765   0.094   4.427   4.814
  289SOL    HW1 1766   0.045   4.401   4.897
  289SOL    HW2 1767   0.077   4.360   4.742
  290SOL     OW 1768   6.222   1.931   4.427
  290SOL    HW1 1769   6.180   1.859   4.372
  290SOL    HW2 1770   6.322   1.923   4.422
  291SOL     OW 1771   1.703   2.377   4.621
  291SOL    HW1 1772   1.690   2.464   4.572
  291SOL    HW2 1773   1.626   2.317   4.602
  292SOL     OW 1774   1.474   1.883   3.141
  292SOL    HW1 1775   1.401   1.946   3.115
  292SOL    HW2 1776   1.538   1.873   3.065
  293SOL     OW 1777   4.308   4.848   1.652
  293SOL    HW1 1778   4.274   4.856   1.745
  293SOL    HW2 1779   4.234   4.866   1.587
  294SOL     OW 1780   6.912   5.374   6.410
  294SOL    HW1 1781   6.956   5.285   6.404
  294SOL    HW2 1782   6.975   5.440   6.450
  295SOL     OW 1783   3.130   1.993   4.421
  295SOL    HW1 1784   3.158   1.897   4.418
  295SOL    HW2 1785   3.143   2.034   4.331
  296SOL     OW 1786   4.423   1.804   2.755
  296SOL    HW1 1787   4.489   1.739   2.793
  296SOL    HW2 1788   4.360   1.756   2.694
  297SOL     OW 1789   2.152   4.476   2.889
  297SOL    HW1 1790   2.098   4.402   2.851
  297SOL    HW2 1791   2.240   4.481   2.841
  298SOL     OW 1792   3.949   6.378   0.866
  298SOL    HW1 1793   3.864   6.360   0.916
  298SOL    HW2 1794   4.023   6.393   0.931
  299SOL     OW 1795   4.408   4.072   6.544
  299SOL    HW1 1796   4.363   4.034   6.624
  299SOL    HW2 1797   4.482   4.133   6.573
  300SOL     OW 1798   5.821   0.932   1.481
  300SOL    HW1 1799   5.776   1.012   1.520
  300SOL    HW2 1800   5.909   0.960   1.442
  301SOL     OW 1801   5.169   3.601   1.693
  301SOL    HW1 1802   5.075   3.579   1.717
  301SOL    HW2 1803   5.224   3.608   1.776
  302SOL     OW 1804   1.004   0.466   3.437
  302SOL    HW1 1805   1.080   0.407   3.412
  302SOL    HW2 1806   0.921   0.411   3.448
  303SOL     OW 1807   6.146   6.816   1.213
  303SOL    HW1 1808   6.154   6.743   1.282
  303SOL    HW2 1809   6.067   6.798   1.155
  304SOL     OW 1810   2.667   0.262   4.290
  304SOL    HW1 1811   2.614   0.221   4.363
  304SOL    HW2 1812   2.623   0.348   4.261
  305SOL     OW 1813   0.504   3.047   0.190
  305SOL    HW1 1814   0.440   3.013   0.121
  305SOL    HW2 1815   0.566   3.114   0.149
  306SOL     OW 1816   2.380   0.562   3.902
  306SOL    HW1 1817   2.384   0.569   3.803
  306SOL    HW2 1818   2.373   0.653   3.942
  307SOL     OW 1819   5.253   0.099   0.452
  307SOL    HW1 1820   5.352   0.093   0.465
  307SOL    HW2 1821   5.220   0.189   0.482
  308SOL     OW 1822   5.678   3.401   5.190
  308SOL    HW1 1823   5.759   3.444   5.152
  308SOL    HW2 1824   5.703   3.348   5.272
  309SOL     OW 1825   3.269   5.264   6.966
  309SOL    HW1 1826   3.248   5.259   6.868
  309SOL    HW2 1827   3.216   5.339   7.007
  310SOL     OW 1828   6.167   6.839   4.896
  310SOL    HW1 1829   6.179   6.899   4.975
  310SOL    HW2 1830   6.180   6.744   4.924
  311SOL     OW 1831   5.548   4.551   2.228
  311SOL    HW1 1832   5.545   4.462   2.273
  311SOL    HW2 1833   5.628   4.602   2.261
  312SOL     OW 1834   4.209   1.767   5.586
  312SOL    HW1 1835   4.172   1.825   5.513
  312SOL    HW2 1836   4.139   1.703   5.617
  313SOL     OW 1837   3.518   4.208   1.749
  313SOL    HW1 1838   3.514   4.164   1.838
  313SOL    HW2 1839   3.554   4.144   1.681
  314SOL     OW 1840   3.630   5.131   6.820
  314SOL    HW1 1841   3.580   5.191   6.883
  314SOL    HW2 1842   3.727   5.152   6.824
  315SOL     OW 1843   1.543   2.806   3.503
  315SOL    HW1 1844   1.586   2.783   3.416
  315SOL    HW2 1845   1.453   2.847   3.485
  316SOL     OW 1846   3.183   1.376   3.525
  316SOL    HW1 1847   3.177   1.464   3.574
  316SOL    HW2 1848   3.249   1.317   3.571
  317SOL     OW 1849   0.591   0.453   0.763
  317SOL    HW1 1850   0.527   0.483   0.692
  317SOL    HW2 1851   0.673   0.510   0.760
  318SOL     OW 1852   1.341   6.299   6.939
  318SOL    HW1 1853   1.257   6.291   6.886
  318SOL    HW2 1854   1.420   6.285   6.879
  319SOL     OW 1855   6.813   0.566   3.750
  319SOL    HW1 1856   6.827   0.502   3.826
  319SOL    HW2 1857   6.896   0.620   3.736
  320SOL     OW 1858   5.957   2.242   0.402
  320SOL    HW1 1859   6.000   2.207   0.319
  320SOL    HW2 1860   5.874   2.292   0.379
  321SOL     OW 1861   4.083   1.278   0.809
  321SOL    HW1 1862   4.147   1.325   0.869
  321SOL    HW2 1863   4.061   1.188   0.847
  322SOL     OW 1864   3.616   4.082   4.466
  322SOL    HW1 1865   3.595   3.984   4.476
  322SOL    HW2 1866   3.572   4.133   4.540
  323SOL     OW 1867   1.026   3.384   6.608
  323SOL    HW1 1868   1.072   3.443   6.542
  323SOL    HW2 1869   0.949   3.434   6.649
  324SOL     OW 1870   2.571   2.072   4.140
  324SOL    HW1 1871   2.648   2.009   4.155
  324SOL    HW2 1872   2.491   2.019   4.114
  325SOL     OW 1873   1.213   2.854   1.722
  325SOL    HW1 1874   1.227   2.762   1.685
  325SOL    HW2 1875   1.178   2.914   1.651
  326SOL     OW 1876   1.069   4.967   0.162
  326SOL    HW1 1877   1.067   4.988   0.064
  326SOL    HW2 1878   0.984   5.000   0.204
  327SOL     OW 1879   1.351   5.624   3.780
  327SOL    HW1 1880   1.317   5.636   3.874
  327SOL    HW2 1881   1.388   5.532   3.769
  328SOL     OW 1882   1.404   6.090   1.651
  328SOL    HW1 1883   1.318   6.123   1.689
  328SOL    HW2 1884   1.396   5.994   1.627
  329SOL     OW 1885   3.896   4.041   4.334
  329SOL    HW1 1886   3.809   4.072   4.369
  329SOL    HW2 1887   3.947   3.994   4.406
  330SOL     OW 1888   2.996   0.252   1.166
  330SOL    HW1 1889   2.932   0.219   1.236
  330SOL    HW2 1890   2.952   0.325   1.113
  331SOL     OW 1891   3.725   5.747   0.450
  331SOL    HW1 1892   3.801   5.738   0.514
  331SOL    HW2 1893   3.640   5.716   0.493
  332SOL     OW 1894   2.940   1.645   4.358
  332SOL    HW1 1895   3.020   1.698   4.387
  332SOL    HW2 1896   2.937   1.559   4.409
  333SOL     OW 1897   3.641   6.565   6.442
  333SOL    HW1 1898   3.614   6.471   6.464
  333SOL    HW2 1899   3.702   6.600   6.512
  334SOL     OW 1900   2.812   0.472   1.516
  334SOL    HW1 1901   2.764   0.387   1.495
  334SOL    HW2 1902   2.855   0.508   1.433
  335SOL     OW 1903   3.544   0.020   4.226
  335SOL    HW1 1904   3.510   0.103   4.271
  335SOL    HW2 1905   3.584   0.045   4.138
  336SOL     OW 1906   2.288   0.795   3.996
  336SOL    HW1 1907   2.273   0.787   4.095
  336SOL    HW2 1908   2.353   0.869   3.978
  337SOL     OW 1909   0.019   3.207   0.065
  337SOL    HW1 1910   6.991   3.262   0.002
  337SOL    HW2 1911   0.089   3.265   0.108
  338SOL     OW 1912   3.053   2.701   1.464
  338SOL    HW1 1913   3.069   2.643   1.544
  338SOL    HW2 1914   2.983   2.769   1.485
  339SOL     OW 1915   2.866   6.640   4.709
  339SOL    HW1 1916   2.796   6.677   4.770
  339SOL    HW2 1917   2.878   6.542   4.727
  340SOL     OW 1918   4.943   4.358   5.926
  340SOL    HW1 1919   5.013   4.334   5.993
  340SOL    HW2 1920   4.853   4.334   5.963
  341SOL     OW 1921   6.761   0.898   4.400
  341SOL    HW1 1922   6.690   0.903   4.330
  341SOL    HW2 1923   6.829   0.970   4.386
  342SOL     OW 1924   6.135   3.875   0.128
  342SOL    HW1 1925   6.124   3.905   0.033
  342SOL    HW2 1926   6.070   3.923   0.186
  343SOL     OW 1927   1.979   5.458   0.622
  343SOL    HW1 1928   1.885   5.493   0.630
  343SOL    HW2 1929   2.039   5.509   0.684
  344SOL     OW 1930   1.203   4.931   2.199
  344SOL    HW1 1931   1.104   4.932   2.208
  344SOL    HW2 1932   1.231   4.855   2.140
  345SOL     OW 1933   5.834   0.825   4.533
  345SOL    HW1 1934   5.767   0.814   4.607
  345SOL    HW2 1935   5.878   0.915   4.540
  346SOL     OW 1936   1.935   0.614   3.000
  346SOL    HW1 1937   1.922   0.603   2.901
  346SOL    HW2 1938   1.923   0.710   3.025
  347SOL     OW 1939   3.099   5.508   6.096
  347SOL    HW1 1940   3.000   5.498   6.103
  347SOL    HW2 1941   3.140   5.500   6.187
  348SOL     OW 1942   5.447   5.063   1.740
  348SOL    HW1 1943   5.505   4.993   1.782
  348SOL    HW2 1944   5.503   5.144   1.719
  349SOL     OW 1945   6.937   4.075   0.919
  349SOL    HW1 1946   6.898   3.987   0.891
  349SOL    HW2 1947   7.020   4.060   0.972
  350SOL     OW 1948   3.775   2.685   0.686
  350SOL    HW1 1949   3.702   2.705   0.621
  350SOL    HW2 1950   3.737   2.633   0.763
  351SOL     OW 1951   1.975   2.779   0.237
  351SOL    HW1 1952   1.898   2.725   0.269
  351SOL    HW2 1953   1.954   2.818   0.148
  352SOL     OW 1954   3.389   0.091   4.851
  352SOL    HW1 1955   3.308   0.133   4.890
  352SOL    HW2 1956   3.433   0.033   4.920
  353SOL     OW 1957   2.695   6.915   0.638
  353SOL    HW1 1958   2.706   6.847   0.710
  353SOL    HW2 1959   2.751   6.995   0.658
  354SOL     OW 1960   3.278   2.781   6.869
  354SOL    HW1 1961   3.260   2.778   6.771
  354SOL    HW2 1962   3.237   2.701   6.913
  355SOL     OW 1963   0.047   3.024   2.811
  355SOL    HW1 1964   7.014   3.024   2.731
  355SOL    HW2 1965   0.065   3.119   2.838
  356SOL     OW 1966   3.667   6.289   5.382
  356SOL    HW1 1967   3.622   6.279   5.471
  356SOL    HW2 1968   3.731   6.213   5.369
  357SOL     OW 1969   6.450   6.322   5.368
  357SOL    HW1 1970   6.388   6.297   5.294
  357SOL    HW2 1971   6.537   6.353   5.330
  358SOL     OW 1972   5.255   0.045   1.829
  358SOL    HW1 1973   5.190   7.025   1.889
  358SOL    HW2 1974   5.210   0.122   1.784
  359SOL     OW 1975   1.189   2.352   1.926
  359SOL    HW1 1976   1.160   2.275   1.984
  359SOL    HW2 1977   1.198   2.434   1.982
  360SOL     OW 1978   1.249   5.822   6.448
  360SOL    HW1 1979   1.168   5.797   6.500
  360SOL    HW2 1980   1.227   5.823   6.351
  361SOL     OW 1981   5.732   6.085   3.259
  361SOL    HW1 1982   5.729   6.065   3.357
  361SOL    HW2 1983   5.805   6.151   3.241
  362SOL     OW 1984   3.703   4.101   1.330
  362SOL    HW1 1985   3.631   4.039   1.361
  362SOL    HW2 1986   3.718   4.087   1.232
  363SOL     OW 1987   5.091   4.342   3.786
  363SOL    HW1 1988   5.034   4.283   3.729
  363SOL    HW2 1989   5.077   4.437   3.761
  364SOL     OW 1990   6.665   5.753   6.015
  364SOL    HW1 1991   6.618   5.795   5.938
  364SOL    HW2 1992   6.756   5.724   5.988
  365SOL     OW 1993   5.467   4.812   2.084
  365SOL    HW1 1994   5.402   4.887   2.074
  365SOL    HW2 1995   5.423   4.726   2.060
  366SOL     OW 1996   6.212   0.752   0.023
  366SOL    HW1 1997   6.247   0.846   0.019
  366SOL    HW2 1998   6.285   0.688   7.025
  367SOL     OW 1999   4.968   3.071   1.180
  367SOL    HW1 2000   4.983   3.163   1.143
  367SOL    HW2 2001   5.001   3.067   1.274
  368SOL     OW 2002   0.368   3.675   4.968
  368SOL    HW1 2003   0.274   3.659   4.939
  368SOL    HW2 2004   0.370   3.695   5.066
  369SOL     OW 2005   6.765   5.131   1.492
  369SOL    HW1 2006   6.699   5.157   1.562
  369SOL    HW2 2007   6.733   5.161   1.402
  370SOL     OW 2008   3.087   1.708   5.609
  370SOL    HW1 2009   2.996   1.709   5.568
  370SOL    HW2 2010   3.154   1.739   5.541
  371SOL     OW 2011   2.590   3.555   6.636
  371SOL    HW1 2012   2.610   3.583   6.542
  371SOL    HW2 2013   2.545   3.630   6.684
  372SOL     OW 2014   0.451   0.064   5.388
  372SOL    HW1 2015   0.503   0.048   5.304
  372SOL    HW2 2016   0.474   0.155   5.424
  373SOL     OW 2017   6.465   6.122   4.983
  373SOL    HW1 2018   6.506   6.189   5.045
  373SOL    HW2 2019   6.527   6.107   4.905
  374SOL     OW 2020   2.827   1.497   2.295
  374SOL    HW1 2021   2.892   1.544   2.355
  374SOL    HW2 2022   2.799   1.410   2.337
  375SOL     OW 2023   1.309   4.482   3.163
  375SOL    HW1 2024   1.312   4.389   3.199
  375SOL    HW2 2025   1.234   4.490   3.097
  376SOL     OW 2026   1.907   1.959   4.495
  376SOL    HW1 2027   1.991   1.953   4.548
  376SOL    HW2 2028   1.924   1.924   4.402
  377SOL     OW 2029   0.064   3.130   1.903
  377SOL    HW1 2030   0.064   3.080   1.816
  377SOL    HW2 2031   7.004   3.114   1.950
  378SOL     OW 2032   3.496   2.775   5.562
  378SOL    HW1 2033   3.533   2.738   5.476
  378SOL    HW2 2034   3.570   2.816   5.615
  379SOL     OW 2035   6.046   4.172   1.483
  379SOL    HW1 2036   6.062   4.164   1.385
  379SOL    HW2 2037   6.095   4.252   1.518
  380SOL     OW 2038   2.930   1.396   1.673
  380SOL    HW1 2039   2.889   1.484   1.647
  380SOL    HW2 2040   2.901   1.373   1.766
  381SOL     OW 2041   1.643   4.231   2.671
  381SOL    HW1 2042   1.563   4.247   2.614
  381SOL    HW2 2043   1.698   4.315   2.677
  382SOL     OW 2044   5.693   6.309   5.885
  382SOL    HW1 2045   5.789   6.307   5.913
  382SOL    HW2 2046   5.686   6.296   5.786
  383SOL     OW 2047   5.668   3.176   5.936
  383SOL    HW1 2048   5.761   3.213   5.939
  383SOL    HW2 2049   5.662   3.094   5.994
  384SOL     OW 2050   6.380   4.875   4.310
  384SOL    HW1 2051   6.390   4.795   4.251
  384SOL    HW2 2052   6.438   4.949   4.275
  385SOL     OW 2053   4.574   6.227   6.179
  385SOL    HW1 2054   4.616   6.152   6.127
  385SOL    HW2 2055   4.582   6.312   6.127
  386SOL     OW 2056   3.360   6.446   5.713
  386SOL    HW1 2057   3.325   6.384   5.643
  386SOL    HW2 2058   3.446   6.410   5.749
  387SOL     OW 2059   6.778   6.658   3.035
  387SOL    HW1 2060   6.865   6.682   3.079
  387SOL    HW2 2061   6.794   6.634   2.939
  388SOL     OW 2062   1.022   2.461   3.888
  388SOL    HW1 2063   1.112   2.489   3.918
  388SOL    HW2 2064   0.952   2.507   3.942
  389SOL     OW 2065   4.213   4.156   1.635
  389SOL    HW1 2066   4.276   4.124   1.564
  389SOL    HW2 2067   4.264   4.202   1.707
  390SOL     OW 2068   3.803   1.274   0.026
  390SOL    HW1 2069   3.876   1.259   0.091
  390SOL    HW2 2070   3.838   1.325   6.974
  391SOL     OW 2071   2.148   4.019   5.254
  391SOL    HW1 2072   2.175   4.025   5.350
  391SOL    HW2 2073   2.230   4.016   5.197
  392SOL     OW 2074   1.852   3.547   1.892
  392SOL    HW1 2075   1.809   3.603   1.821
  392SOL    HW2 2076   1.903   3.472   1.850
  393SOL     OW 2077   1.306   5.147   0.543
  393SOL    HW1 2078   1.248   5.220   0.508
  393SOL    HW2 2079   1.402   5.168   0.523
  394SOL     OW 2080   0.822   3.039   0.053
  394SOL    HW1 2081   0.763   3.120   0.049
  394SOL    HW2 2082   0.891   3.045   7.007
  395SOL     OW 2083   5.267   4.482   2.834
  395SOL    HW1 2084   5.340   4.549   2.848
  395SOL    HW2 2085   5.239   4.444   2.922
  396SOL     OW 2086   2.467   2.863   1.796
  396SOL    HW1 2087   2.462   2.786   1.732
  396SOL    HW2 2088   2.412   2.841   1.877
  397SOL     OW 2089   5.430   2.062   6.431
  397SOL    HW1 2090   5.445   2.019   6.520
  397SOL    HW2 2091   5.501   2.130   6.415
  398SOL     OW 2092   1.619   6.247   3.393
  398SOL    HW1 2093   1.719   6.243   3.392
  398SOL    HW2 2094   1.588   6.303   3.470
  399SOL     OW 2095   5.620   6.535   4.414
  399SOL    HW1 2096   5.566   6.561   4.334
  399SOL    HW2 2097   5.586   6.584   4.494
  400SOL     OW 2098   6.127   6.392   5.433
  400SOL    HW1 2099   6.065   6.383   5.355
  400SOL    HW2 2100   6.221   6.373   5.404
  401SOL     OW 2101   5.510   6.978   6.185
  401SOL    HW1 2102   5.410   6.974   6.196
  401SOL    HW2 2103   5.544   6.886   6.164
  402SOL     OW 2104   6.273   6.861   3.242
  402SOL    HW1 2105   6.192   6.919   3.253
  402SOL    HW2 2106   6.256   6.792   3.172
  403SOL     OW 2107   3.958   0.556   5.836
  403SOL    HW1 2108   4.010   0.498   5.774
  403SOL    HW2 2109   3.870   0.514   5.856
  404SOL     OW 2110   1.955   5.117   5.489
  404SOL    HW1 2111   2.049   5.081   5.485
  404SOL    HW2 2112   1.917   5.122   5.396
  405SOL     OW 2113   2.141   3.898   3.194
  405SOL    HW1 2114   2.151   3.806   3.157
  405SOL    HW2 2115   2.149   3.896   3.293
  406SOL     OW 2116   0.495   4.578   4.469
  406SOL    HW1 2117   0.497   4.637   4.550
  406SOL    HW2 2118   0.418   4.604   4.411
  407SOL     OW 2119   2.154   2.109   4.521
  407SOL    HW1 2120   2.235   2.137   4.572
  407SOL    HW2 2121   2.082   2.178   4.530
  408SOL     OW 2122   3.246   2.124   3.094
  408SOL    HW1 2123   3.199   2.036   3.097
  408SOL    HW2 2124   3.288   2.137   3.004
  409SOL     OW 2125   6.677   3.204   1.602
  409SOL    HW1 2126   6.677   3.175   1.507
  409SOL    HW2 2127   6.767   3.242   1.626
  410SOL     OW 2128   1.356   2.171   1.065
  410SOL    HW1 2129   1.398   2.102   1.123
  410SOL    HW2 2130   1.276   2.132   1.019
  411SOL     OW 2131   6.210   0.877   1.511
  411SOL    HW1 2132   6.153   0.832   1.580
  411SOL    HW2 2133   6.152   0.908   1.435
  412SOL     OW 2134   3.434   5.062   3.002
  412SOL    HW1 2135   3.471   5.126   3.070
  412SOL    HW2 2136   3.441   5.102   2.911
  413SOL     OW 2137   4.836   4.459   1.528
  413SOL    HW1 2138   4.935   4.453   1.534
  413SOL    HW2 2139   4.795   4.400   1.599
  414SOL     OW 2140   3.669   0.104   3.888
  414SOL    HW1 2141   3.741   0.091   3.820
  414SOL    HW2 2142   3.614   0.020   3.893
  415SOL     OW 2143   0.305   0.766   6.848
  415SOL    HW1 2144   0.344   0.718   6.769
  415SOL    HW2 2145   0.338   0.724   6.932
  416SOL     OW 2146   5.180   5.106   4.949
  416SOL    HW1 2147   5.277   5.093   4.929
  416SOL    HW2 2148   5.166   5.196   4.990
  417SOL     OW 2149   2.074   1.308   6.647
  417SOL    HW1 2150   2.158   1.353   6.618
  417SOL    HW2 2151   2.029   1.363   6.718
  418SOL     OW 2152   2.471   6.682   5.934
  418SOL    HW1 2153   2.378   6.704   5.907
  418SOL    HW2 2154   2.536   6.729   5.874
  419SOL     OW 2155   0.523   6.893   3.190
  419SOL    HW1 2156   0.438   6.908   3.140
  419SOL    HW2 2157   0.510   6.917   3.287
  420SOL     OW 2158   5.591   1.381   6.250
  420SOL    HW1 2159   5.675   1.336   6.281
  420SOL    HW2 2160   5.568   1.349   6.158
  421SOL     OW 2161   5.660   3.747   5.367
  421SOL    HW1 2162   5.708   3.834   5.370
  421SOL    HW2 2163   5.722   3.673   5.391
  422SOL     OW 2164   5.408   2.940   0.704
  422SOL    HW1 2165   5.333   2.885   0.667
  422SOL    HW2 2166   5.395   3.035   0.679
  423SOL     OW 2167   2.493   1.509   0.055
  423SOL    HW1 2168   2.445   1.586   0.098
  423SOL    HW2 2169   2.590   1.512   0.080
  424SOL     OW 2170   1.776   4.952   3.071
  424SOL    HW1 2171   1.758   4.860   3.105
  424SOL    HW2 2172   1.816   5.007   3.144
  425SOL     OW 2173   4.985   1.248   4.510
  425SOL    HW1 2174   4.957   1.294   4.594
  425SOL    HW2 2175   5.064   1.189   4.529
  426SOL     OW 2176   2.406   2.709   5.054
  426SOL    HW1 2177   2.407   2.807   5.032
  426SOL    HW2 2178   2.366   2.695   5.144
  427SOL     OW 2179   5.415   0.375   3.463
  427SOL    HW1 2180   5.456   0.440   3.400
  427SOL    HW2 2181   5.466   0.289   3.460
  428SOL     OW 2182   3.274   0.374   3.047
  428SOL    HW1 2183   3.293   0.383   3.145
  428SOL    HW2 2184   3.359   0.381   2.995
  429SOL     OW 2185   0.599   5.134   3.928
  429SOL    HW1 2186   0.536   5.179   3.865
  429SOL    HW2 2187   0.554   5.055   3.970
  430SOL     OW 2188   1.591   6.896   3.336
  430SOL    HW1 2189   1.664   6.942   3.286
  430SOL    HW2 2190   1.614   6.799   3.346
  431SOL     OW 2191   2.632   2.058   0.626
  431SOL    HW1 2192   2.641   1.988   0.697
  431SOL    HW2 2193   2.650   2.148   0.666
  432SOL     OW 2194   6.211   1.993   0.446
  432SOL    HW1 2195   6.255   1.904   0.434
  432SOL    HW2 2196   6.130   1.999   0.388
  433SOL     OW 2197   2.629   6.065   5.893
  433SOL    HW1 2198   2.623   5.965   5.902
  433SOL    HW2 2199   2.724   6.090   5.875
  434SOL     OW 2200   4.441   5.569   4.348
  434SOL    HW1 2201   4.358   5.610   4.310
  434SOL    HW2 2202   4.430   5.470   4.354
  435SOL     OW 2203   3.844   1.719   5.455
  435SOL    HW1 2204   3.758   1.669   5.467
  435SOL    HW2 2205   3.917   1.673   5.505
  436SOL     OW 2206   3.376   6.129   2.593
  436SOL    HW1 2207   3.332   6.098   2.677
  436SOL    HW2 2208   3.472   6.151   2.611
  437SOL     OW 2209   0.081   1.255   5.194
  437SOL    HW1 2210   0.153   1.322   5.207
  437SOL    HW2 2211   0.112   1.183   5.132
  438SOL     OW 2212   2.146   3.707   3.498
  438SOL    HW1 2213   2.079   3.709   3.572
  438SOL    HW2 2214   2.184   3.799   3.486
  439SOL     OW 2215   6.088   0.048   2.361
  439SOL    HW1 2216   6.076   0.143   2.333
  439SOL    HW2 2217   6.119   0.045   2.456
  440SOL     OW 2218   3.736   1.350   6.268
  440SOL    HW1 2219   3.697   1.431   6.312
  440SOL    HW2 2220   3.723   1.271   6.328
  441SOL     OW 2221   5.775   4.169   3.145
  441SOL    HW1 2222   5.728   4.101   3.201
  441SOL    HW2 2223   5.811   4.125   3.063
  442SOL     OW 2224   4.207   4.697   5.538
  442SOL    HW1 2225   4.124   4.714   5.590
  442SOL    HW2 2226   4.202   4.607   5.495
  443SOL     OW 2227   5.838   4.392   3.998
  443SOL    HW1 2228   5.763   4.362   4.057
  443SOL    HW2 2229   5.915   4.422   4.055
  444SOL     OW 2230   4.051   1.299   6.603
  444SOL    HW1 2231   4.061   1.374   6.538
  444SOL    HW2 2232   4.124   1.232   6.588
  445SOL     OW 2233   2.051   5.474   3.365
  445SOL    HW1 2234   2.114   5.524   3.424
  445SOL    HW2 2235   2.005   5.403   3.418
  446SOL     OW 2236   4.062   5.445   3.094
  446SOL    HW1 2237   4.127   5.419   3.166
  446SOL    HW2 2238   3.979   5.390   3.102
  447SOL     OW 2239   6.272   3.027   4.986
  447SOL    HW1 2240   6.205   3.087   4.943
  447SOL    HW2 2241   6.234   2.989   5.070
  448SOL     OW 2242   1.876   1.570   2.625
  448SOL    HW1 2243   1.932   1.487   2.626
  448SOL    HW2 2244   1.802   1.560   2.559
  449SOL     OW 2245   2.638   1.903   3.226
  449SOL    HW1 2246   2.673   1.957   3.303
  449SOL    HW2 2247   2.543   1.929   3.209
  450SOL     OW 2248   1.767   4.575   3.759
  450SOL    HW1 2249   1.673   4.601   3.781
  450SOL    HW2 2250   1.825   4.657   3.756
  451SOL     OW 2251   1.249   2.545   3.984
  451SOL    HW1 2252   1.308   2.620   3.955
  451SOL    HW2 2253   1.295   2.493   4.056
  452SOL     OW 2254   3.874   0.624   1.486
  452SOL    HW1 2255   3.825   0.542   1.514
  452SOL    HW2 2256   3.827   0.705   1.523
  453SOL     OW 2257   3.571   6.772   6.742
  453SOL    HW1 2258   3.514   6.853   6.757
  453SOL    HW2 2259   3.631   6.758   6.821
  454SOL     OW 2260   6.636   4.246   6.663
  454SOL    HW1 2261   6.723   4.289   6.636
  454SOL    HW2 2262   6.651   4.148   6.679
  455SOL     OW 2263   6.411   3.539   5.339
  455SOL    HW1 2264   6.451   3.478   5.270
  455SOL    HW2 2265   6.392   3.628   5.297
  456SOL     OW 2266   1.490   0.663   4.311
  456SOL    HW1 2267   1.406   0.709   4.342
  456SOL    HW2 2268   1.560   0.673   4.381
  457SOL     OW 2269   1.028   4.974   4.720
  457SOL    HW1 2270   1.016   4.922   4.635
  457SOL    HW2 2271   1.056   4.912   4.793
  458SOL     OW 2272   3.419   0.715   3.003
  458SOL    HW1 2273   3.492   0.718   2.935
  458SOL    HW2 2274   3.331   0.700   2.958
  459SOL     OW 2275   2.211   0.872   5.444
  459SOL    HW1 2276   2.261   0.957   5.463
  459SOL    HW2 2277   2.142   0.858   5.515
  460SOL     OW 2278   1.296   1.376   5.394
  460SOL    HW1 2279   1.365   1.340   5.456
  460SOL    HW2 2280   1.215   1.403   5.446
  461SOL     OW 2281   6.392   4.920   5.686
  461SOL    HW1 2282   6.402   5.009   5.731
  461SOL    HW2 2283   6.469   4.861   5.711
  462SOL     OW 2284   4.003   3.680   4.943
  462SOL    HW1 2285   4.000   3.771   4.985
  462SOL    HW2 2286   4.048   3.616   5.005
  463SOL     OW 2287   6.656   0.111   3.194
  463SOL    HW1 2288   6.662   0.040   3.124
  463SOL    HW2 2289   6.716   0.088   3.270
  464SOL     OW 2290   3.306   0.045   5.947
  464SOL    HW1 2291   3.260   0.124   5.907
  464SOL    HW2 2292   3.337   0.067   6.040
  465SOL     OW 2293   0.562   2.647   6.849
  465SOL    HW1 2294   0.596   2.736   6.817
  465SOL    HW2 2295   0.637   2.596   6.890
  466SOL     OW 2296   2.883   6.564   3.984
  466SOL    HW1 2297   2.942   6.555   4.064
  466SOL    HW2 2298   2.886   6.658   3.951
  467SOL     OW 2299   0.542   2.069   2.471
  467SOL    HW1 2300   0.583   2.001   2.532
  467SOL    HW2 2301   0.611   2.103   2.407
  468SOL     OW 2302   4.734   6.500   6.286
  468SOL    HW1 2303   4.699   6.413   6.321
  468SOL    HW2 2304   4.760   6.559   6.363
  469SOL     OW 2305   2.827   4.486   5.989
  469SOL    HW1 2306   2.882   4.482   5.906
  469SOL    HW2 2307   2.869   4.430   6.060
  470SOL     OW 2308   3.860   6.019   2.392
  470SOL    HW1 2309   3.907   6.002   2.479
  470SOL    HW2 2310   3.857   5.934   2.339
  471SOL     OW 2311   2.951   2.204   3.940
  471SOL    HW1 2312   2.903   2.172   3.858
  471SOL    HW2 2313   2.899   2.278   3.982
  472SOL     OW 2314   6.049   5.339   6.932
  472SOL    HW1 2315   5.990   5.258   6.944
  472SOL    HW2 2316   6.102   5.354   7.015
  473SOL     OW 2317   6.649   2.145   2.528
  473SOL    HW1 2318   6.655   2.057   2.577
  473SOL    HW2 2319   6.694   2.216   2.583
  474SOL     OW 2320   6.214   4.842   5.404
  474SOL    HW1 2321   6.137   4.778   5.397
  474SOL    HW2 2322   6.181   4.930   5.439
  475SOL     OW 2323   6.095   3.619   0.249
  475SOL    HW1 2324   6.050   3.559   0.182
  475SOL    HW2 2325   6.128   3.702   0.203
  476SOL     OW 2326   0.301   4.037   1.470
  476SOL    HW1 2327   0.320   3.981   1.550
  476SOL    HW2 2328   0.387   4.072   1.432
  477SOL     OW 2329   1.884   5.706   3.513
  477SOL    HW1 2330   1.922   5.693   3.604
  477SOL    HW2 2331   1.916   5.633   3.452
  478SOL     OW 2332   4.678   5.811   3.317
  478SOL    HW1 2333   4.634   5.870   3.249
  478SOL    HW2 2334   4.608   5.757   3.364
  479SOL     OW 2335   3.658   3.349   4.612
  479SOL    HW1 2336   3.588   3.372   4.680
  479SOL    HW2 2337   3.730   3.295   4.656
  480SOL     OW 2338   1.678   0.353   2.725
  480SOL    HW1 2339   1.627   0.281   2.678
  480SOL    HW2 2340   1.758   0.314   2.769
  481SOL     OW 2341   0.702   6.803   1.401
  481SOL    HW1 2342   0.654   6.844   1.479
  481SOL    HW2 2343   0.717   6.706   1.418
  482SOL     OW 2344   4.453   4.987   2.803
  482SOL    HW1 2345   4.441   4.909   2.742
  482SOL    HW2 2346   4.536   5.036   2.779
  483SOL     OW 2347   6.513   2.793   2.829
  483SOL    HW1 2348   6.473   2.755   2.746
  483SOL    HW2 2349   6.464   2.758   2.909
  484SOL     OW 2350   1.468   4.098   5.077
  484SOL    HW1 2351   1.533   4.045   5.023
  484SOL    HW2 2352   1.463   4.191   5.042
  485SOL     OW 2353   5.332   3.696   2.510
  485SOL    HW1 2354   5.296   3.785   2.540
  485SOL    HW2 2355   5.290   3.623   2.564
  486SOL     OW 2356   5.323   0.625   6.339
  486SOL    HW1 2357   5.256   0.573   6.286
  486SOL    HW2 2358   5.298   0.722   6.339
  487SOL     OW 2359   0.476   0.388   3.057
  487SOL    HW1 2360   0.398   0.340   3.017
  487SOL    HW2 2361   0.537   0.419   2.985
  488SOL     OW 2362   1.627   6.637   3.340
  488SOL    HW1 2363   1.602   6.559   3.398
  488SOL    HW2 2364   1.577   6.631   3.254
  489SOL     OW 2365   6.315   5.441   4.871
  489SOL    HW1 2366   6.386   5.423   4.803
  489SOL    HW2 2367   6.276   5.354   4.902
  490SOL     OW 2368   1.784   5.912   4.749
  490SOL    HW1 2369   1.685   5.929   4.747
  490SOL    HW2 2370   1.814   5.902   4.844
  491SOL     OW 2371   0.449   3.711   0.147
  491SOL    HW1 2372   0.529   3.742   0.198
  491SOL    HW2 2373   0.378   3.681   0.211
  492SOL     OW 2374   1.721   1.496   5.845
  492SOL    HW1 2375   1.765   1.469   5.930
  492SOL    HW2 2376   1.789   1.533   5.782
  493SOL     OW 2377   2.341   6.979   5.987
  493SOL    HW1 2378   2.330   6.948   5.892
  493SOL    HW2 2379   2.432   7.018   5.999
  494SOL     OW 2380   2.426   1.808   6.050
  494SOL    HW1 2381   2.386   1.739   6.111
  494SOL    HW2 2382   2.500   1.856   6.097
  495SOL     OW 2383   4.122   6.355   5.352
  495SOL    HW1 2384   4.213   6.382   5.322
  495SOL    HW2 2385   4.060   6.433   5.348
  496SOL     OW 2386   6.204   1.147   2.215
  496SOL    HW1 2387   6.228   1.244   2.219
  496SOL    HW2 2388   6.145   1.124   2.293
  497SOL     OW 2389   3.452   1.401   4.478
  497SOL    HW1 2390   3.534   1.349   4.456
  497SOL    HW2 2391   3.463   1.495   4.447
  498SOL     OW 2392   0.629   4.679   1.756
  498SOL    HW1 2393   0.565   4.649   1.685
  498SOL    HW2 2394   0.686   4.753   1.720
  499SOL     OW 2395   2.465   5.844   5.902
  499SOL    HW1 2396   2.478   5.755   5.946
  499SOL    HW2 2397   2.421   5.906   5.967
  500SOL     OW 2398   5.094   3.069   5.523
  500SOL    HW1 2399   5.092   3.152   5.466
  500SOL    HW2 2400   5.102   3.095   5.619
  501SOL     OW 2401   2.596   0.029   2.238
  501SOL    HW1 2402   2.575   7.014   2.326
  501SOL    HW2 2403   2.669   0.097   2.250
  502SOL     OW 2404   1.172   4.681   6.888
  502SOL    HW1 2405   1.252   4.730   6.923
  502SOL    HW2 2406   1.198   4.625   6.810
  503SOL     OW 2407   2.394   5.238   6.101
  503SOL    HW1 2408   2.383   5.141   6.077
  503SOL    HW2 2409   2.405   5.292   6.018
  504SOL     OW 2410   0.358   5.749   2.408
  504SOL    HW1 2411   0.375   5.770   2.504
  504SOL    HW2 2412   0.288   5.811   2.372
  505SOL     OW 2413   3.953   7.021   5.161
  505SOL    HW1 2414   4.030   6.969   5.124
  505SOL    HW2 2415   3.963   0.091   5.137
  506SOL     OW 2416   3.214   5.594   2.467
  506SOL    HW1 2417   3.120   5.599   2.432
  506SOL    HW2 2418   3.221   5.650   2.550
  507SOL     OW 2419   4.119   1.071   2.569
  507SOL    HW1 2420   4.024   1.095   2.549
  507SOL    HW2 2421   4.164   1.148   2.615
  508SOL     OW 2422   6.604   2.267   3.641
  508SOL    HW1 2423   6.703   2.280   3.633
  508SOL    HW2 2424   6.556   2.337   3.589
  509SOL     OW 2425   4.415   0.504   6.805
  509SOL    HW1 2426   4.323   0.465   6.803
  509SOL    HW2 2427   4.413   0.596   6.766
  510SOL     OW 2428   6.969   4.791   5.780
  510SOL    HW1 2429   6.997   4.755   5.869
  510SOL    HW2 2430   6.872   4.776   5.767
  511SOL     OW 2431   1.560   1.839   6.506
  511SOL    HW1 2432   1.635   1.805   6.562
  511SOL    HW2 2433   1.596   1.870   6.417
  512SOL     OW 2434   6.091   2.464   0.062
  512SOL    HW1 2435   6.051   2.493   0.148
  512SOL    HW2 2436   6.187   2.441   0.075
  513SOL     OW 2437   5.784   6.326   2.462
  513SOL    HW1 2438   5.773   6.404   2.401
  513SOL    HW2 2439   5.714   6.329   2.533
  514SOL     OW 2440   0.585   0.072   4.129
  514SOL    HW1 2441   0.502   0.115   4.093
  514SOL    HW2 2442   0.565   0.027   4.216
  515SOL     OW 2443   2.114   0.680   6.331
  515SOL    HW1 2444   2.141   0.584   6.318
  515SOL    HW2 2445   2.193   0.739   6.315
  516SOL     OW 2446   2.356   4.251   2.114
  516SOL    HW1 2447   2.411   4.282   2.037
  516SOL    HW2 2448   2.375   4.308   2.194
  517SOL     OW 2449   3.383   4.884   2.361
  517SOL    HW1 2450   3.387   4.843   2.270
  517SOL    HW2 2451   3.287   4.897   2.387
  518SOL     OW 2452   2.434   2.413   4.075
  518SOL    HW1 2453   2.386   2.326   4.064
  518SOL    HW2 2454   2.532   2.398   4.069
  519SOL     OW 2455   6.981   6.809   3.674
  519SOL    HW1 2456   0.022   6.838   3.606
  519SOL    HW2 2457   6.947   6.890   3.722
  520SOL     OW 2458   1.019   4.218   6.697
  520SOL    HW1 2459   0.995   4.139   6.640
  520SOL    HW2 2460   1.006   4.195   6.793
  521SOL     OW 2461   4.810   5.338   4.521
  521SOL    HW1 2462   4.774   5.294   4.603
  521SOL    HW2 2463   4.907   5.361   4.535
  522SOL     OW 2464   4.161   3.884   1.685
  522SOL    HW1 2465   4.112   3.883   1.773
  522SOL    HW2 2466   4.173   3.979   1.655
  523SOL     OW 2467   0.130   6.239   1.787
  523SOL    HW1 2468   0.058   6.248   1.856
  523SOL    HW2 2469   0.166   6.329   1.764
  524SOL     OW 2470   0.704   3.287   2.298
  524SOL    HW1 2471   0.641   3.363   2.319
  524SOL    HW2 2472   0.678   3.207   2.351
  525SOL     OW 2473   1.989   3.974   6.624
  525SOL    HW1 2474   1.954   3.939   6.710
  525SOL    HW2 2475   1.946   3.925   6.548
  526SOL     OW 2476   2.849   6.908   4.321
  526SOL    HW1 2477   2.777   6.916   4.253
  526SOL    HW2 2478   2.838   6.823   4.371
  527SOL     OW 2479   0.425   2.450   0.053
  527SOL    HW1 2480   0.512   2.497   0.035
  527SOL    HW2 2481   0.351   2.517   0.056
  528SOL     OW 2482   0.871   2.649   3.693
  528SOL    HW1 2483   0.934   2.577   3.722
  528SOL    HW2 2484   0.921   2.736   3.687
  529SOL     OW 2485   2.308   0.601   5.371
  529SOL    HW1 2486   2.234   0.543   5.338
  529SOL    HW2 2487   2.271   0.691   5.396
  530SOL     OW 2488   3.714   2.980   2.427
  530SOL    HW1 2489   3.773   2.977   2.508
  530SOL    HW2 2490   3.627   3.024   2.451
  531SOL     OW 2491   1.634   0.624   2.756
  531SOL    HW1 2492   1.632   0.528   2.728
  531SOL    HW2 2493   1.629   0.630   2.856
  532SOL     OW 2494   1.193   3.684   0.759
  532SOL    HW1 2495   1.163   3.756   0.696
  532SOL    HW2 2496   1.212   3.725   0.849
  533SOL     OW 2497   4.905   6.799   3.811
  533SOL    HW1 2498   4.862   6.888   3.830
  533SOL    HW2 2499   4.910   6.785   3.712
  534SOL     OW 2500   6.913   6.069   2.037
  534SOL    HW1 2501   6.946   5.976   2.055
  534SOL    HW2 2502   6.842   6.065   1.967
  535SOL     OW 2503   6.947   4.467   3.018
  535SOL    HW1 2504   6.861   4.419   3.037
  535SOL    HW2 2505   6.992   4.490   3.104
  536SOL     OW 2506   6.259   5.394   2.984
  536SOL    HW1 2507   6.281   5.486   3.016
  536SOL    HW2 2508   6.337   5.358   2.932
  537SOL     OW 2509   3.578   6.683   4.185
  537SOL    HW1 2510   3.532   6.636   4.110
  537SOL    HW2 2511   3.518   6.685   4.265
  538SOL     OW 2512   1.099   4.793   4.921
  538SOL    HW1 2513   1.038   4.737   4.866
  538SOL    HW2 2514   1.102   4.757   5.015
  539SOL     OW 2515   1.713   5.909   2.351
  539SOL    HW1 2516   1.621   5.911   2.310
  539SOL    HW2 2517   1.773   5.853   2.294
  540SOL     OW 2518   2.048   0.598   3.774
  540SOL    HW1 2519   1.956   0.611   3.812
  540SOL    HW2 2520   2.113   0.657   3.822
  541SOL     OW 2521   4.589   6.267   3.395
  541SOL    HW1 2522   4.660   6.336   3.408
  541SOL    HW2 2523   4.622   6.197   3.331
  542SOL     OW 2524   3.582   6.291   6.459
  542SOL    HW1 2525   3.602   6.222   6.528
  542SOL    HW2 2526   3.515   6.255   6.393
  543SOL     OW 2527   5.319   3.665   3.958
  543SOL    HW1 2528   5.288   3.724   3.883
  543SOL    HW2 2529   5.378   3.718   4.019
  544SOL     OW 2530   0.272   5.239   0.614
  544SOL    HW1 2531   0.245   5.289   0.697
  544SOL    HW2 2532   0.370   5.220   0.617
  545SOL     OW 2533   4.419   1.478   0.973
  545SOL    HW1 2534   4.467   1.430   0.900
  545SOL    HW2 2535   4.441   1.435   1.061
  546SOL     OW 2536   1.121   3.631   1.844
  546SOL    HW1 2537   1.160   3.723   1.859
  546SOL    HW2 2538   1.164   3.591   1.763
  547SOL     OW 2539   3.213   2.986   0.934
  547SOL    HW1 2540   3.168   2.902   0.966
  547SOL    HW2 2541   3.245   2.973   0.840
  548SOL     OW 2542   3.590   3.785   1.063
  548SOL    HW1 2543   3.684   3.763   1.089
  548SOL    HW2 2544   3.559   3.721   0.993
  549SOL     OW 2545   5.440   2.730   1.920
  549SOL    HW1 2546   5.485   2.647   1.886
  549SOL    HW2 2547   5.370   2.705   1.987
  550SOL     OW 2548   0.538   5.066   3.261
  550SOL    HW1 2549   0.594   5.149   3.263
  550SOL    HW2 2550   0.468   5.075   3.190
  551SOL     OW 2551   6.702   0.446   1.574
  551SOL    HW1 2552   6.773   0.392   1.620
  551SOL    HW2 2553   6.675   0.400   1.490
  552SOL     OW 2554   5.119   4.556   5.286
  552SOL    HW1 2555   5.209   4.514   5.288
  552SOL    HW2 2556   5.106   4.604   5.200
  553SOL     OW 2557   3.209   6.512   3.650
  553SOL    HW1 2558   3.290   6.453   3.651
  553SOL    HW2 2559   3.182   6.533   3.744
  554SOL     OW 2560   5.956   6.296   0.296
  554SOL    HW1 2561   5.891   6.324   0.366
  554SOL    HW2 2562   6.049   6.307   0.330
  555SOL     OW 2563   2.983   5.120   5.122
  555SOL    HW1 2564   3.015   5.026   5.111
  555SOL    HW2 2565   2.944   5.131   5.214
  556SOL     OW 2566   5.349   1.234   4.303
  556SOL    HW1 2567   5.430   1.179   4.280
  556SOL    HW2 2568   5.266   1.183   4.280
  557SOL     OW 2569   0.000   4.959   6.182
  557SOL    HW1 2570   6.982   4.884   6.231
  557SOL    HW2 2571   0.025   5.031   6.246
  558SOL     OW 2572   3.392   3.108   4.575
  558SOL    HW1 2573   3.388   3.201   4.539
  558SOL    HW2 2574   3.303   3.084   4.614
  559SOL     OW 2575   6.946   5.860   5.970
  559SOL    HW1 2576   6.879   5.932   5.985
  559SOL    HW2 2577   6.955   5.842   5.872
  560SOL     OW 2578   6.320   3.579   3.113
  560SOL    HW1 2579   6.401   3.629   3.144
  560SOL    HW2 2580   6.249   3.644   3.086
  561SOL     OW 2581   0.396   2.725   0.226
  561SOL    HW1 2582   0.366   2.816   0.198
  561SOL    HW2 2583   0.320   2.661   0.216
  562SOL     OW 2584   4.265   1.154   6.442
  562SOL    HW1 2585   4.306   1.200   6.363
  562SOL    HW2 2586   4.187   1.099   6.413
  563SOL     OW 2587   2.091   1.507   3.502
  563SOL    HW1 2588   2.127   1.474   3.589
  563SOL    HW2 2589   2.156   1.569   3.460
  564SOL     OW 2590   1.117   2.250   0.208
  564SOL    HW1 2591   1.151   2.243   0.114
  564SOL    HW2 2592   1.143   2.339   0.245
  565SOL     OW 2593   3.109   3.595   3.220
  565SOL    HW1 2594   3.125   3.500   3.247
  565SOL    HW2 2595   3.186   3.652   3.250
  566SOL     OW 2596   1.768   3.407   3.483
  566SOL    HW1 2597   1.730   3.449   3.400
  566SOL    HW2 2598   1.861   3.440   3.499
  567SOL     OW 2599   3.109   2.588   1.214
  567SOL    HW1 2600   3.176   2.514   1.206
  567SOL    HW2 2601   3.126   2.639   1.298
  568SOL     OW 2602   5.073   6.882   0.032
  568SOL    HW1 2603   5.106   6.835   6.977
  568SOL    HW2 2604   4.973   6.880   0.033
  569SOL     OW 2605   0.843   2.592   0.876
  569SOL    HW1 2606   0.769   2.624   0.816
  569SOL    HW2 2607   0.904   2.669   0.898
  570SOL     OW 2608   3.185   0.128   6.705
  570SOL    HW1 2609   3.166   0.165   6.614
  570SOL    HW2 2610   3.108   0.070   6.734
  571SOL     OW 2611   2.733   4.793   4.015
  571SOL    HW1 2612   2.767   4.833   3.930
  571SOL    HW2 2613   2.805   4.795   4.084
  572SOL     OW 2614   1.773   4.921   5.090
  572SOL    HW1 2615   1.729   4.852   5.148
  572SOL    HW2 2616   1.795   4.881   5.001
  573SOL     OW 2617   6.281   1.190   5.197
  573SOL    HW1 2618   6.196   1.161   5.242
  573SOL    HW2 2619   6.324   1.262   5.252
  574SOL     OW 2620   3.576   0.396   5.615
  574SOL    HW1 2621   3.559   0.399   5.517
  574SOL    HW2 2622   3.646   0.328   5.635
  575SOL     OW 2623   4.317   2.673   1.643
  575SOL    HW1 2624   4.319   2.573   1.636
  575SOL    HW2 2625   4.225   2.703   1.669
  576SOL     OW 2626   1.331   3.298   3.098
  576SOL    HW1 2627   1.241   3.292   3.139
  576SOL    HW2 2628   1.400   3.269   3.165
  577SOL     OW 2629   1.443   0.773   1.967
  577SOL    HW1 2630   1.402   0.773   1.876
  577SOL    HW2 2631   1.514   0.703   1.972
  578SOL     OW 2632   0.745   5.209   5.205
  578SOL    HW1 2633   0.842   5.186   5.205
  578SOL    HW2 2634   0.716   5.233   5.113
  579SOL     OW 2635   1.800   4.166   3.009
  579SOL    HW1 2636   1.867   4.116   3.064
  579SOL    HW2 2637   1.721   4.190   3.065
  580SOL     OW 2638   3.871   5.160   5.597
  580SOL    HW1 2639   3.815   5.173   5.516
  580SOL    HW2 2640   3.823   5.195   5.677
  581SOL     OW 2641   2.180   3.139   2.640
  581SOL    HW1 2642   2.101   3.086   2.674
  581SOL    HW2 2643   2.192   3.220   2.697
  582SOL     OW 2644   4.545   5.829   2.887
  582SOL    HW1 2645   4.482   5.770   2.835
  582SOL    HW2 2646   4.626   5.777   2.913
  583SOL     OW 2647   2.824   5.905   5.444
  583SOL    HW1 2648   2.765   5.885   5.522
  583SOL    HW2 2649   2.898   5.965   5.472
  584SOL     OW 2650   3.035   6.999   6.255
  584SOL    HW1 2651   3.030   0.064   6.216
  584SOL    HW2 2652   2.944   6.958   6.252
  585SOL     OW 2653   4.370   1.185   0.604
  585SOL    HW1 2654   4.271   1.188   0.588
  585SOL    HW2 2655   4.417   1.239   0.535
  586SOL     OW 2656   3.480   0.729   0.770
  586SOL    HW1 2657   3.427   0.794   0.716
  586SOL    HW2 2658   3.473   0.752   0.867
  587SOL     OW 2659   4.951   2.499   3.031
  587SOL    HW1 2660   5.029   2.560   3.045
  587SOL    HW2 2661   4.984   2.407   3.012
  588SOL     OW 2662   1.987   5.425   1.155
  588SOL    HW1 2663   2.031   5.439   1.244
  588SOL    HW2 2664   2.050   5.380   1.093
  589SOL     OW 2665   3.681   5.713   1.628
  589SOL    HW1 2666   3.722   5.799   1.599
  589SOL    HW2 2667   3.691   5.702   1.727
  590SOL     OW 2668   5.559   1.322   1.316
  590SOL    HW1 2669   5.460   1.328   1.312
  590SOL    HW2 2670   5.585   1.228   1.339
  591SOL     OW 2671   3.740   6.022   3.710
  591SOL    HW1 2672   3.797   5.940   3.708
  591SOL    HW2 2673   3.682   6.025   3.629
  592SOL     OW 2674   4.576   0.536   2.450
  592SOL    HW1 2675   4.605   0.610   2.390
  592SOL    HW2 2676   4.477   0.532   2.453
  593SOL     OW 2677   5.083   1.721   4.118
  593SOL    HW1 2678   5.093   1.807   4.168
  593SOL    HW2 2679   5.113   1.734   4.023
  594SOL     OW 2680   6.260   0.401   1.125
  594SOL    HW1 2681   6.161   0.412   1.125
  594SOL    HW2 2682   6.301   0.466   1.060
  595SOL     OW 2683   5.070   6.416   3.881
  595SOL    HW1 2684   5.121   6.468   3.812
  595SOL    HW2 2685   4.984   6.385   3.843
  596SOL     OW 2686   0.434   4.796   3.100
  596SOL    HW1 2687   0.343   4.801   3.142
  596SOL    HW2 2688   0.489   4.728   3.149
  597SOL     OW 2689   2.882   6.567   6.561
  597SOL    HW1 2690   2.933   6.542   6.643
  597SOL    HW2 2691   2.940   6.557   6.481
  598SOL     OW 2692   3.784   4.033   4.771
  598SOL    HW1 2693   3.744   4.013   4.682
  598SOL    HW2 2694   3.741   4.115   4.809
  599SOL     OW 2695   2.157   5.625   2.735
  599SOL    HW1 2696   2.114   5.535   2.735
  599SOL    HW2 2697   2.208   5.638   2.821
  600SOL     OW 2698   6.076   2.790   6.323
  600SOL    HW1 2699   5.982   2.758   6.322
  600SOL    HW2 2700   6.097   2.835   6.236
  601SOL     OW 2701   1.343   0.995   4.220
  601SOL    HW1 2702   1.429   1.007   4.169
  601SOL    HW2 2703   1.307   1.084   4.246
  602SOL     OW 2704   2.323   0.817   6.203
  602SOL    HW1 2705   2.310   0.749   6.131
  602SOL    HW2 2706   2.419   0.816   6.233
  603SOL     OW 2707   2.797   2.572   5.378
  603SOL    HW1 2708   2.717   2.632   5.366
  603SOL    HW2 2709   2.878   2.628   5.396
  604SOL     OW 2710   1.162   1.959   1.267
  604SOL    HW1 2711   1.181   1.865   1.297
  604SOL    HW2 2712   1.167   1.964   1.167
  605SOL     OW 2713   6.141   4.656   1.449
  605SOL    HW1 2714   6.093   4.669   1.362
  605SOL    HW2 2715   6.238   4.644   1.432
  606SOL     OW 2716   5.064   6.788   5.387
  606SOL    HW1 2717   5.059   6.708   5.328
  606SOL    HW2 2718   5.150   6.786   5.439
  607SOL     OW 2719   6.893   4.884   4.744
  607SOL    HW1 2720   6.889   4.931   4.655
  607SOL    HW2 2721   6.807   4.835   4.760
  608SOL     OW 2722   3.946   6.394   6.559
  608SOL    HW1 2723   4.000   6.458   6.503
  608SOL    HW2 2724   3.955   6.419   6.655
  609SOL     OW 2725   3.615   2.806   2.210
  609SOL    HW1 2726   3.650   2.872   2.275
  609SOL    HW2 2727   3.676   2.727   2.206
  610SOL     OW 2728   5.744   3.259   0.180
  610SOL    HW1 2729   5.676   3.264   0.107
  610SOL    HW2 2730   5.708   3.202   0.255
  611SOL     OW 2731   4.511   0.313   1.660
  611SOL    HW1 2732   4.475   0.254   1.588
  611SOL    HW2 2733   4.435   0.348   1.715
  612SOL     OW 2734   3.301   5.697   4.628
  612SOL    HW1 2735   3.316   5.769   4.696
  612SOL    HW2 2736   3.276   5.737   4.540
  613SOL     OW 2737   4.868   4.462   5.411
  613SOL    HW1 2738   4.877   4.431   5.505
  613SOL    HW2 2739   4.956   4.496   5.378
  614SOL     OW 2740   4.952   5.023   5.661
  614SOL    HW1 2741   4.898   4.944   5.687
  614SOL    HW2 2742   5.031   5.031   5.723
  615SOL     OW 2743   6.621   2.570   0.942
  615SOL    HW1 2744   6.644   2.488   0.891
  615SOL    HW2 2745   6.636   2.554   1.040
  616SOL     OW 2746   0.078   2.067   2.365
  616SOL    HW1 2747   7.023   2.109   2.326
  616SOL    HW2 2748   0.132   2.136   2.413
  617SOL     OW 2749   0.638   4.559   5.843
  617SOL    HW1 2750   0.701   4.517   5.778
  617SOL    HW2 2751   0.546   4.523   5.827
  618SOL     OW 2752   1.067   2.178   0.528
  618SOL    HW1 2753   0.978   2.161   0.486
  618SOL    HW2 2754   1.061   2.256   0.589
  619SOL     OW 2755   2.964   2.017   0.737
  619SOL    HW1 2756   2.937   2.094   0.795
  619SOL    HW2 2757   2.893   2.001   0.668
  620SOL     OW 2758   4.495   2.365   0.290
  620SOL    HW1 2759   4.478   2.461   0.314
  620SOL    HW2 2760   4.419   2.309   0.322
  621SOL     OW 2761   3.204   5.752   6.892
  621SOL    HW1 2762   3.290   5.719   6.852
  621SOL    HW2 2763   3.169   5.828   6.839
  622SOL     OW 2764   1.036   1.136   6.456
  622SOL    HW1 2765   1.093   1.083   6.394
  622SOL    HW2 2766   1.093   1.195   6.512
  623SOL     OW 2767   1.069   6.265   5.934
  623SOL    HW1 2768   1.166   6.256   5.957
  623SOL    HW2 2769   1.060   6.286   5.837
  624SOL     OW 2770   0.279   2.405   1.406
  624SOL    HW1 2771   0.223   2.330   1.371
  624SOL    HW2 2772   0.233   2.446   1.486
  625SOL     OW 2773   2.513   2.272   0.864
  625SOL    HW1 2774   2.600   2.307   0.831
  625SOL    HW2 2775   2.442   2.342   0.852
  626SOL     OW 2776   2.626   5.789   3.592
  626SOL    HW1 2777   2.571   5.724   3.540
  626SOL    HW2 2778   2.722   5.777   3.568
  627SOL     OW 2779   5.398   0.585   0.784
  627SOL    HW1 2780   5.313   0.540   0.810
  627SOL    HW2 2781   5.427   0.553   0.694
  628SOL     OW 2782   5.395   5.203   5.666
  628SOL    HW1 2783   5.342   5.244   5.740
  628SOL    HW2 2784   5.376   5.105   5.663
  629SOL     OW 2785   6.664   6.561   1.123
  629SOL    HW1 2786   6.615   6.624   1.183
  629SOL    HW2 2787   6.690   6.479   1.174
  630SOL     OW 2788   6.178   1.388   2.598
  630SOL    HW1 2789   6.149   1.294   2.618
  630SOL    HW2 2790   6.278   1.391   2.591
  631SOL     OW 2791   3.844   6.680   4.853
  631SOL    HW1 2792   3.906   6.719   4.921
  631SOL    HW2 2793   3.782   6.751   4.820
  632SOL     OW 2794   2.665   2.126   0.312
  632SOL    HW1 2795   2.662   2.133   0.411
  632SOL    HW2 2796   2.619   2.205   0.272
  633SOL     OW 2797   4.009   5.031   0.116
  633SOL    HW1 2798   4.002   5.044   0.017
  633SOL    HW2 2799   4.103   5.043   0.145
  634SOL     OW 2800   4.944   4.624   1.879
  634SOL    HW1 2801   4.979   4.587   1.793
  634SOL    HW2 2802   4.865   4.570   1.908
  635SOL     OW 2803   4.270   5.955   2.290
  635SOL    HW1 2804   4.365   5.983   2.275
  635SOL    HW2 2805   4.213   5.988   2.215
  636SOL     OW 2806   5.108   5.776   6.723
  636SOL    HW1 2807   5.113   5.866   6.767
  636SOL    HW2 2808   5.024   5.730   6.753
  637SOL     OW 2809   6.074   3.946   1.854
  637SOL    HW1 2810   6.146   3.990   1.801
  637SOL    HW2 2811   6.004   3.910   1.791
  638SOL     OW 2812   4.902   1.899   2.091
  638SOL    HW1 2813   4.804   1.892   2.110
  638SOL    HW2 2814   4.945   1.958   2.159
  639SOL     OW 2815   5.243   3.942   2.633
  639SOL    HW1 2816   5.161   3.890   2.654
  639SOL    HW2 2817   5.230   4.038   2.658
  640SOL     OW 2818   1.326   4.920   5.102
  640SOL    HW1 2819   1.242   4.866   5.102
  640SOL    HW2 2820   1.384   4.893   5.025
  641SOL     OW 2821   0.254   5.345   4.436
  641SOL    HW1 2822   0.177   5.369   4.377
  641SOL    HW2 2823   0.306   5.428   4.458
  642SOL     OW 2824   6.788   3.903   4.271
  642SOL    HW1 2825   6.824   3.980   4.324
  642SOL    HW2 2826   6.855   3.875   4.202
  643SOL     OW 2827   5.702   4.507   5.541
  643SOL    HW1 2828   5.631   4.577   5.552
  643SOL    HW2 2829   5.700   4.473   5.447
  644SOL     OW 2830   1.418   6.307   3.221
  644SOL    HW1 2831   1.392   6.380   3.284
  644SOL    HW2 2832   1.504   6.266   3.251
  645SOL     OW 2833   5.436   2.001   4.606
  645SOL    HW1 2834   5.479   2.017   4.695
  645SOL    HW2 2835   5.372   1.924   4.613
  646SOL     OW 2836   2.727   1.554   3.602
  646SOL    HW1 2837   2.793   1.498   3.653
  646SOL    HW2 2838   2.691   1.502   3.525
  647SOL     OW 2839   5.743   2.762   5.866
  647SOL    HW1 2840   5.683   2.825   5.916
  647SOL    HW2 2841   5.694   2.726   5.786
  648SOL     OW 2842   0.326   3.762   3.368
  648SOL    HW1 2843   0.408   3.714   3.398
  648SOL    HW2 2844   0.253   3.697   3.352
  649SOL     OW 2845   4.168   4.041   0.902
  649SOL    HW1 2846   4.075   4.051   0.866
  649SOL    HW2 2847   4.203   4.130   0.931
  650SOL     OW 2848   5.305   4.186   0.855
  650SOL    HW1 2849   5.378   4.145   0.800
  650SOL    HW2 2850   5.289   4.129   0.936
  651SOL     OW 2851   0.228   6.885   6.664
  651SOL    HW1 2852   0.209   6.882   6.762
  651SOL    HW2 2853   0.155   6.838   6.614
  652SOL     OW 2854   5.648   6.277   3.617
  652SOL    HW1 2855   5.599   6.274   3.704
  652SOL    HW2 2856   5.636   6.191   3.568
  653SOL     OW 2857   3.714   5.869   5.074
  653SOL    HW1 2858   3.678   5.942   5.016
  653SOL    HW2 2859   3.759   5.801   5.016
  654SOL     OW 2860   6.976   4.121   6.001
  654SOL    HW1 2861   6.877   4.111   6.014
  654SOL    HW2 2862   7.019   4.031   6.003
  655SOL     OW 2863   0.838   6.912   2.287
  655SOL    HW1 2864   0.889   6.920   2.372
  655SOL    HW2 2865   0.891   6.952   2.212
  656SOL     OW 2866   1.806   5.887   1.542
  656SOL    HW1 2867   1.744   5.965   1.534
  656SOL    HW2 2868   1.764   5.816   1.598
  657SOL     OW 2869   1.919   2.323   1.645
  657SOL    HW1 2870   1.938   2.420   1.638
  657SOL    HW2 2871   1.980   2.282   1.713
  658SOL     OW 2872   2.874   3.837   6.154
  658SOL    HW1 2873   2.823   3.755   6.128
  658SOL    HW2 2874   2.971   3.815   6.161
  659SOL     OW 2875   2.885   6.655   6.094
  659SOL    HW1 2876   2.817   6.667   6.165
  659SOL    HW2 2877   2.977   6.663   6.133
  660SOL     OW 2878   4.938   4.162   1.835
  660SOL    HW1 2879   4.949   4.066   1.810
  660SOL    HW2 2880   5.001   4.219   1.783
  661SOL     OW 2881   4.378   6.134   3.768
  661SOL    HW1 2882   4.326   6.211   3.731
  661SOL    HW2 2883   4.323   6.087   3.837
  662SOL     OW 2884   4.038   1.114   5.196
  662SOL    HW1 2885   4.038   1.110   5.295
  662SOL    HW2 2886   4.128   1.088   5.161
  663SOL     OW 2887   2.440   3.721   6.032
  663SOL    HW1 2888   2.361   3.663   6.051
  663SOL    HW2 2889   2.429   3.763   5.942
  664SOL     OW 2890   0.519   6.446   6.461
  664SOL    HW1 2891   0.506   6.446   6.560
  664SOL    HW2 2892   0.492   6.357   6.424
  665SOL     OW 2893   4.391   5.587   1.993
  665SOL    HW1 2894   4.311   5.571   2.050
  665SOL    HW2 2895   4.397   5.515   1.923
  666SOL     OW 2896   5.180   1.229   1.944
  666SOL    HW1 2897   5.164   1.315   1.896
  666SOL    HW2 2898   5.268   1.234   1.991
  667SOL     OW 2899   1.432   5.416   2.428
  667SOL    HW1 2900   1.441   5.324   2.467
  667SOL    HW2 2901   1.431   5.484   2.501
  668SOL     OW 2902   4.964   6.101   6.116
  668SOL    HW1 2903   4.867   6.088   6.097
  668SOL    HW2 2904   4.976   6.187   6.167
  669SOL     OW 2905   5.067   0.249   3.388
  669SOL    HW1 2906   5.107   0.159   3.369
  669SOL    HW2 2907   5.125   0.320   3.347
  670SOL     OW 2908   3.025   2.458   1.639
  670SOL    HW1 2909   2.942   2.433   1.589
  670SOL    HW2 2910   3.001   2.489   1.731
  671SOL     OW 2911   3.341   6.496   0.959
  671SOL    HW1 2912   3.336   6.557   1.037
  671SOL    HW2 2913   3.435   6.492   0.925
  672SOL     OW 2914   6.554   5.667   1.649
  672SOL    HW1 2915   6.471   5.719   1.670
  672SOL    HW2 2916   6.542   5.572   1.677
  673SOL     OW 2917   6.498   0.276   1.186
  673SOL    HW1 2918   6.560   0.354   1.185
  673SOL    HW2 2919   6.403   0.308   1.181
  674SOL     OW 2920   0.475   1.645   5.131
  674SOL    HW1 2921   0.476   1.648   5.031
  674SOL    HW2 2922   0.384   1.668   5.164
  675SOL     OW 2923   6.812   2.622   2.584
  675SOL    HW1 2924   6.871   2.647   2.507
  675SOL    HW2 2925   6.775   2.530   2.569
  676SOL     OW 2926   2.977   5.488   3.616
  676SOL    HW1 2927   2.941   5.395   3.620
  676SOL    HW2 2928   3.074   5.487   3.638
  677SOL     OW 2929   5.300   1.296   0.220
  677SOL    HW1 2930   5.202   1.284   0.231
  677SOL    HW2 2931   5.341   1.326   0.306
  678SOL     OW 2932   2.766   6.089   4.967
  678SOL    HW1 2933   2.846   6.069   5.024
  678SOL    HW2 2934   2.700   6.015   4.974
  679SOL     OW 2935   4.655   1.891   4.163
  679SOL    HW1 2936   4.580   1.956   4.176
  679SOL    HW2 2937   4.642   1.844   4.075
  680SOL     OW 2938   5.044   5.904   4.832
  680SOL    HW1 2939   5.112   5.969   4.798
  680SOL    HW2 2940   5.088   5.841   4.897
  681SOL     OW 2941   4.559   5.508   1.750
  681SOL    HW1 2942   4.604   5.492   1.838
  681SOL    HW2 2943   4.486   5.441   1.739
  682SOL     OW 2944   6.072   1.073   1.971
  682SOL    HW1 2945   6.127   1.056   1.890
  682SOL    HW2 2946   6.132   1.087   2.050
  683SOL     OW 2947   4.818   2.625   0.913
  683SOL    HW1 2948   4.816   2.535   0.868
  683SOL    HW2 2949   4.734   2.674   0.891
  684SOL     OW 2950   6.660   1.320   0.969
  684SOL    HW1 2951   6.753   1.315   0.930
  684SOL    HW2 2952   6.611   1.236   0.946
  685SOL     OW 2953   3.059   1.988   4.068
  685SOL    HW1 2954   3.097   1.919   4.006
  685SOL    HW2 2955   3.028   2.067   4.015
  686SOL     OW 2956   4.622   2.332   4.230
  686SOL    HW1 2957   4.682   2.267   4.277
  686SOL    HW2 2958   4.582   2.394   4.297
  687SOL     OW 2959   0.575   2.029   3.889
  687SOL    HW1 2960   0.586   1.942   3.841
  687SOL    HW2 2961   0.479   2.041   3.914
  688SOL     OW 2962   0.617   1.699   6.341
  688SOL    HW1 2963   0.643   1.613   6.297
  688SOL    HW2 2964   0.535   1.685   6.397
  689SOL     OW 2965   0.967   4.709   6.599
  689SOL    HW1 2966   0.984   4.619   6.558
  689SOL    HW2 2967   0.948   4.697   6.697
  690SOL     OW 2968   6.738   3.124   3.607
  690SOL    HW1 2969   6.821   3.179   3.605
  690SOL    HW2 2970   6.699   3.119   3.516
  691SOL     OW 2971   3.101   1.225   0.485
  691SOL    HW1 2972   3.090   1.324   0.492
  691SOL    HW2 2973   3.105   1.199   0.389
  692SOL     OW 2974   4.156   2.094   4.186
  692SOL    HW1 2975   4.062   2.060   4.199
  692SOL    HW2 2976   4.189   2.134   4.271
  693SOL     OW 2977   4.702   6.598   3.987
  693SOL    HW1 2978   4.744   6.640   3.906
  693SOL    HW2 2979   4.627   6.538   3.958
  694SOL     OW 2980   4.433   6.909   4.807
  694SOL    HW1 2981   4.518   6.960   4.792
  694SOL    HW2 2982   4.355   6.966   4.783
  695SOL     OW 2983   3.967   6.762   3.778
  695SOL    HW1 2984   4.016   6.675   3.787
  695SOL    HW2 2985   3.967   6.810   3.866
  696SOL     OW 2986   5.241   4.858   3.732
  696SOL    HW1 2987   5.320   4.877   3.675
  696SOL    HW2 2988   5.270   4.843   3.827
  697SOL     OW 2989   1.834   3.812   2.328
  697SOL    HW1 2990   1.808   3.900   2.287
  697SOL    HW2 2991   1.932   3.810   2.344
  698SOL     OW 2992   5.269   6.339   1.298
  698SOL    HW1 2993   5.179   6.296   1.309
  698SOL    HW2 2994   5.266   6.404   1.222
  699SOL     OW 2995   1.554   3.420   6.827
  699SOL    HW1 2996   1.499   3.402   6.909
  699SOL    HW2 2997   1.541   3.345   6.762
  700SOL     OW 2998   3.687   0.567   2.479
  700SOL    HW1 2999   3.618   0.639   2.488
  700SOL    HW2 3000   3.675   0.500   2.552
  701SOL     OW 3001   6.640   3.590   0.181
  701SOL    HW1 3002   6.581   3.512   0.158
  701SOL    HW2 3003   6.689   3.620   0.099
  702SOL     OW 3004   1.563   6.468   4.897
  702SOL    HW1 3005   1.570   6.412   4.814
  702SOL    HW2 3006   1.515   6.553   4.876
  703SOL     OW 3007   3.456   3.326   5.800
  703SOL    HW1 3008   3.490   3.233   5.809
  703SOL    HW2 3009   3.511   3.387   5.857
  704SOL     OW 3010   1.423   2.706   6.216
  704SOL    HW1 3011   1.391   2.801   6.216
  704SOL    HW2 3012   1.476   2.689   6.133
  705SOL     OW 3013   6.129   5.698   2.863
  705SOL    HW1 3014   6.030   5.699   2.875
  705SOL    HW2 3015   6.157   5.782   2.816
  706SOL     OW 3016   4.106   1.897   5.155
  706SOL    HW1 3017   4.040   1.822   5.152
  706SOL    HW2 3018   4.155   1.902   5.068
  707SOL     OW 3019   4.537   4.687   3.405
  707SOL    HW1 3020   4.622   4.716   3.360
  707SOL    HW2 3021   4.549   4.596   3.444
  708SOL     OW 3022   2.891   0.627   2.730
  708SOL    HW1 3023   2.816   0.605   2.667
  708SOL    HW2 3024   2.871   0.588   2.820
  709SOL     OW 3025   1.015   5.749   1.072
  709SOL    HW1 3026   0.928   5.723   1.029
  709SOL    HW2 3027   1.011   5.845   1.100
  710SOL     OW 3028   4.193   2.162   1.213
  710SOL    HW1 3029   4.170   2.076   1.258
  710SOL    HW2 3030   4.239   2.222   1.277
  711SOL     OW 3031   0.242   2.951   5.624
  711SOL    HW1 3032   0.160   2.967   5.679
  711SOL    HW2 3033   0.278   3.038   5.591
  712SOL     OW 3034   4.811   2.423   1.220
  712SOL    HW1 3035   4.790   2.481   1.298
  712SOL    HW2 3036   4.898   2.376   1.235
  713SOL     OW 3037   3.566   3.775   5.703
  713SOL    HW1 3038   3.633   3.715   5.659
  713SOL    HW2 3039   3.475   3.757   5.665
  714SOL     OW 3040   0.055   4.986   3.601
  714SOL    HW1 3041   0.023   5.026   3.515
  714SOL    HW2 3042   7.006   4.977   3.664
  715SOL     OW 3043   5.536   6.018   6.513
  715SOL    HW1 3044   5.481   5.944   6.552
  715SOL    HW2 3045   5.506   6.106   6.550
  716SOL     OW 3046   0.746   1.176   2.279
  716SOL    HW1 3047   0.793   1.189   2.366
  716SOL    HW2 3048   0.803   1.123   2.217
  717SOL     OW 3049   0.005   4.544   3.885
  717SOL    HW1 3050   0.098   4.580   3.874
  717SOL    HW2 3051   6.974   4.577   3.811
  718SOL     OW 3052   4.481   3.072   5.898
  718SOL    HW1 3053   4.556   3.096   5.959
  718SOL    HW2 3054   4.394   3.093   5.943
  719SOL     OW 3055   5.925   0.165   2.596
  719SOL    HW1 3056   5.912   0.119   2.684
  719SOL    HW2 3057   5.885   0.110   2.523
  720SOL     OW 3058   2.245   0.427   6.306
  720SOL    HW1 3059   2.262   0.392   6.398
  720SOL    HW2 3060   2.298   0.375   6.240
  721SOL     OW 3061   2.409   1.767   2.003
  721SOL    HW1 3062   2.438   1.682   2.047
  721SOL    HW2 3063   2.398   1.838   2.073
  722SOL     OW 3064   2.763   0.930   5.699
  722SOL    HW1 3065   2.837   0.933   5.766
  722SOL    HW2 3066   2.798   0.954   5.609
  723SOL     OW 3067   2.005   4.787   3.171
  723SOL    HW1 3068   2.064   4.782   3.252
  723SOL    HW2 3069   1.984   4.694   3.140
  724SOL     OW 3070   0.684   1.377   3.499
  724SOL    HW1 3071   0.776   1.393   3.534
  724SOL    HW2 3072   0.672   1.280   3.478
  725SOL     OW 3073   1.232   5.070   2.826
  725SOL    HW1 3074   1.154   5.120   2.865
  725SOL    HW2 3075   1.299   5.052   2.897
  726SOL     OW 3076   2.706   4.996   1.556
  726SOL    HW1 3077   2.680   5.086   1.519
  726SOL    HW2 3078   2.687   4.994   1.654
  727SOL     OW 3079   5.887   4.363   6.006
  727SOL    HW1 3080   5.911   4.306   6.085
  727SOL    HW2 3081   5.878   4.458   6.034
  728SOL     OW 3082   6.543   3.422   3.871
  728SOL    HW1 3083   6.568   3.339   3.821
  728SOL    HW2 3084   6.560   3.408   3.969
  729SOL     OW 3085   0.006   2.562   1.303
  729SOL    HW1 3086   0.090   2.561   1.249
  729SOL    HW2 3087   0.028   2.554   1.400
  730SOL     OW 3088   6.905   0.364   4.101
  730SOL    HW1 3089   6.950   0.445   4.065
  730SOL    HW2 3090   6.973   0.293   4.119
  731SOL     OW 3091   4.643   4.975   6.386
  731SOL    HW1 3092   4.724   5.000   6.332
  731SOL    HW2 3093   4.580   5.053   6.390
  732SOL     OW 3094   6.061   2.978   2.282
  732SOL    HW1 3095   5.966   3.002   2.262
  732SOL    HW2 3096   6.068   2.879   2.294
  733SOL     OW 3097   5.542   0.058   5.174
  733SOL    HW1 3098   5.458   0.049   5.227
  733SOL    HW2 3099   5.566   6.997   5.134
  734SOL     OW 3100   6.062   5.305   2.791
  734SOL    HW1 3101   6.097   5.224   2.744
  734SOL    HW2 3102   6.137   5.348   2.843
  735SOL     OW 3103   4.116   1.273   0.544
  735SOL    HW1 3104   4.088   1.262   0.639
  735SOL    HW2 3105   4.045   1.236   0.483
  736SOL     OW 3106   0.818   1.130   3.831
  736SOL    HW1 3107   0.877   1.142   3.751
  736SOL    HW2 3108   0.736   1.079   3.804
  737SOL     OW 3109   5.245   1.752   6.023
  737SOL    HW1 3110   5.243   1.748   6.123
  737SOL    HW2 3111   5.273   1.663   5.987
  738SOL     OW 3112   2.984   3.755   1.550
  738SOL    HW1 3113   2.891   3.740   1.514
  738SOL    HW2 3114   2.998   3.697   1.630
  739SOL     OW 3115   4.496   0.376   4.391
  739SOL    HW1 3116   4.539   0.402   4.477
  739SOL    HW2 3117   4.412   0.324   4.410
  740SOL     OW 3118   5.538   1.155   2.980
  740SOL    HW1 3119   5.586   1.067   2.977
  740SOL    HW2 3120   5.581   1.214   3.048
  741SOL     OW 3121   1.971   0.169   3.991
  741SOL    HW1 3122   1.893   0.182   3.929
  741SOL    HW2 3123   2.051   0.216   3.954
  742SOL     OW 3124   2.035   6.793   1.676
  742SOL    HW1 3125   2.076   6.831   1.758
  742SOL    HW2 3126   2.089   6.715   1.645
  743SOL     OW 3127   0.336   5.123   3.099
  743SOL    HW1 3128   0.305   5.033   3.130
  743SOL    HW2 3129   0.284   5.194   3.147
  744SOL     OW 3130   5.549   0.853   1.088
  744SOL    HW1 3131   5.493   0.860   1.170
  744SOL    HW2 3132   5.635   0.808   1.111
  745SOL     OW 3133   1.726   5.373   5.043
  745SOL    HW1 3134   1.637   5.340   5.011
  745SOL    HW2 3135   1.731   5.363   5.143
  746SOL     OW 3136   6.298   3.655   6.309
  746SOL    HW1 3137   6.244   3.732   6.343
  746SOL    HW2 3138   6.377   3.689   6.258
  747SOL     OW 3139   4.200   5.842   4.984
  747SOL    HW1 3140   4.248   5.858   5.070
  747SOL    HW2 3141   4.188   5.743   4.970
  748SOL     OW 3142   4.632   5.187   2.464
  748SOL    HW1 3143   4.534   5.204   2.465
  748SOL    HW2 3144   4.659   5.141   2.549
  749SOL     OW 3145   5.692   3.814   4.623
  749SOL    HW1 3146   5.593   3.805   4.619
  749SOL    HW2 3147   5.721   3.891   4.566
  750SOL     OW 3148   2.688   1.210   1.616
  750SOL    HW1 3149   2.707   1.305   1.591
  750SOL    HW2 3150   2.615   1.208   1.685
  751SOL     OW 3151   4.438   1.426   0.200
  751SOL    HW1 3152   4.340   1.445   0.194
  751SOL    HW2 3153   4.487   1.512   0.215
  752SOL     OW 3154   2.772   3.508   1.160
  752SOL    HW1 3155   2.814   3.454   1.234
  752SOL    HW2 3156   2.720   3.447   1.100
  753SOL     OW 3157   1.226   3.864   5.881
  753SOL    HW1 3158   1.219   3.850   5.783
  753SOL    HW2 3159   1.322   3.877   5.906
  754SOL     OW 3160   4.534   1.638   6.171
  754SOL    HW1 3161   4.456   1.622   6.232
  754SOL    HW2 3162   4.525   1.728   6.129
  755SOL     OW 3163   2.381   4.792   5.334
  755SOL    HW1 3164   2.466   4.810   5.284
  755SOL    HW2 3165   2.316   4.745   5.274
  756SOL     OW 3166   2.278   5.285   0.019
  756SOL    HW1 3167   2.198   5.238   7.010
  756SOL    HW2 3168   2.253   5.336   0.101
  757SOL     OW 3169   0.999   6.342   4.041
  757SOL    HW1 3170   0.930   6.406   4.073
  757SOL    HW2 3171   1.079   6.392   4.008
  758SOL     OW 3172   4.650   0.811   3.427
  758SOL    HW1 3173   4.605   0.807   3.338
  758SOL    HW2 3174   4.600   0.754   3.493
  759SOL     OW 3175   0.197   2.852   2.654
  759SOL    HW1 3176   0.187   2.877   2.558
  759SOL    HW2 3177   0.123   2.894   2.707
  760SOL     OW 3178   6.389   0.139   3.817
  760SOL    HW1 3179   6.409   0.208   3.886
  760SOL    HW2 3180   6.453   0.063   3.825
  761SOL     OW 3181   5.785   4.159   6.768
  761SOL    HW1 3182   5.793   4.232   6.837
  761SOL    HW2 3183   5.751   4.199   6.682
  762SOL     OW 3184   3.250   0.095   5.545
  762SOL    HW1 3185   3.187   0.020   5.521
  762SOL    HW2 3186   3.342   0.058   5.559
  763SOL     OW 3187   4.262   6.263   6.018
  763SOL    HW1 3188   4.165   6.274   5.996
  763SOL    HW2 3189   4.297   6.348   6.056
  764SOL     OW 3190   4.943   1.060   5.734
  764SOL    HW1 3191   4.952   0.969   5.695
  764SOL    HW2 3192   5.006   1.123   5.688
  765SOL     OW 3193   1.603   5.872   0.871
  765SOL    HW1 3194   1.562   5.861   0.961
  765SOL    HW2 3195   1.531   5.887   0.803
  766SOL     OW 3196   3.043   2.012   5.594
  766SOL    HW1 3197   3.027   2.107   5.569
  766SOL    HW2 3198   3.110   1.972   5.532
  767SOL     OW 3199   6.743   6.328   3.967
  767SOL    HW1 3200   6.705   6.236   3.977
  767SOL    HW2 3201   6.807   6.329   3.890
  768SOL     OW 3202   1.897   5.344   3.612
  768SOL    HW1 3203   1.835   5.406   3.661
  768SOL    HW2 3204   1.983   5.336   3.662
  769SOL     OW 3205   3.030   0.969   5.893
  769SOL    HW1 3206   3.068   1.032   5.825
  769SOL    HW2 3207   3.091   0.891   5.904
  770SOL     OW 3208   1.547   5.119   3.926
  770SOL    HW1 3209   1.638   5.154   3.901
  770SOL    HW2 3210   1.515   5.057   3.855
  771SOL     OW 3211   1.249   4.609   2.550
  771SOL    HW1 3212   1.175   4.636   2.489
  771SOL    HW2 3213   1.244   4.661   2.635
  772SOL     OW 3214   5.944   4.560   0.069
  772SOL    HW1 3215   6.017   4.610   0.116
  772SOL    HW2 3216   5.887   4.624   0.017
  773SOL     OW 3217   0.842   3.933   3.068
  773SOL    HW1 3218   0.893   3.913   2.984
  773SOL    HW2 3219   0.779   4.009   3.052
  774SOL     OW 3220   1.495   1.451   2.149
  774SOL    HW1 3221   1.457   1.359   2.159
  774SOL    HW2 3222   1.581   1.447   2.099
  775SOL     OW 3223   2.232   1.436   4.212
  775SOL    HW1 3224   2.149   1.478   4.174
  775SOL    HW2 3225   2.221   1.336   4.212
  776SOL     OW 3226   6.819   0.735   6.221
  776SOL    HW1 3227   6.725   0.707   6.241
  776SOL    HW2 3228   6.861   0.671   6.157
  777SOL     OW 3229   1.982   4.199   1.599
  777SOL    HW1 3230   1.889   4.177   1.629
  777SOL    HW2 3231   2.018   4.125   1.542
  778SOL     OW 3232   2.373   6.982   1.567
  778SOL    HW1 3233   2.318   0.012   1.628
  778SOL    HW2 3234   2.469   7.008   1.575
  779SOL     OW 3235   6.453   2.066   2.045
  779SOL    HW1 3236   6.470   2.046   1.949
  779SOL    HW2 3237   6.492   1.994   2.102
  780SOL     OW 3238   0.955   2.087   4.570
  780SOL    HW1 3239   0.967   2.186   4.579
  780SOL    HW2 3240   1.045   2.043   4.564
  781SOL     OW 3241   5.635   6.032   1.151
  781SOL    HW1 3242   5.544   6.011   1.187
  781SOL    HW2 3243   5.628   6.051   1.053
  782SOL     OW 3244   1.341   3.326   5.488
  782SOL    HW1 3245   1.393   3.268   5.426
  782SOL    HW2 3246   1.304   3.272   5.562
  783SOL     OW 3247   5.171   4.627   2.038
  783SOL    HW1 3248   5.092   4.641   1.979
  783SOL    HW2 3249   5.234   4.563   1.994
  784SOL     OW 3250   4.164   4.898   1.902
  784SOL    HW1 3251   4.123   4.809   1.882
  784SOL    HW2 3252   4.093   4.968   1.901
  785SOL     OW 3253   0.646   1.135   3.410
  785SOL    HW1 3254   0.608   1.063   3.352
  785SOL    HW2 3255   0.719   1.096   3.466
  786SOL     OW 3256   6.887   0.720   2.427
  786SOL    HW1 3257   6.841   0.762   2.505
  786SOL    HW2 3258   6.886   0.621   2.437
  787SOL     OW 3259   1.665   0.229   0.048
  787SOL    HW1 3260   1.601   0.173   0.101
  787SOL    HW2 3261   1.675   0.191   6.983
  788SOL     OW 3262   4.617   2.155   0.787
  788SOL    HW1 3263   4.555   2.125   0.715
  788SOL    HW2 3264   4.681   2.082   0.808
  789SOL     OW 3265   4.527   4.883   2.090
  789SOL    HW1 3266   4.439   4.924   2.112
  789SOL    HW2 3267   4.523   4.785   2.106
  790SOL     OW 3268   2.497   1.565   2.945
  790SOL    HW1 3269   2.407   1.548   2.905
  790SOL    HW2 3270   2.566   1.513   2.895
  791SOL     OW 3271   2.547   6.186   5.285
  791SOL    HW1 3272   2.587   6.196   5.376
  791SOL    HW2 3273   2.565   6.093   5.251
  792SOL     OW 3274   0.991   0.661   1.799
  792SOL    HW1 3275   1.015   0.596   1.727
  792SOL    HW2 3276   0.990   0.613   1.887
  793SOL     OW 3277   5.070   5.614   4.888
  793SOL    HW1 3278   5.165   5.583   4.884
  793SOL    HW2 3279   5.034   5.596   4.980
  794SOL     OW 3280   2.691   3.911   5.636
  794SOL    HW1 3281   2.597   3.939   5.655
  794SOL    HW2 3282   2.715   3.833   5.694
  795SOL     OW 3283   4.005   0.540   5.493
  795SOL    HW1 3284   4.039   0.600   5.421
  795SOL    HW2 3285   4.010   0.445   5.462
  796SOL     OW 3286   1.092   2.766   6.834
  796SOL    HW1 3287   1.089   2.849   6.891
  796SOL    HW2 3288   1.095   2.793   6.738
  797SOL     OW 3289   4.760   0.611   0.997
  797SOL    HW1 3290   4.742   0.688   1.059
  797SOL    HW2 3291   4.728   0.634   0.905
  798SOL     OW 3292   3.877   6.792   2.103
  798SOL    HW1 3293   3.896   6.741   2.187
  798SOL    HW2 3294   3.926   6.750   2.027
  799SOL     OW 3295   0.705   0.447   6.372
  799SOL    HW1 3296   0.633   0.504   6.412
  799SOL    HW2 3297   0.722   0.475   6.278
  800SOL     OW 3298   6.763   0.778   2.665
  800SOL    HW1 3299   6.712   0.859   2.694
  800SOL    HW2 3300   6.834   0.757   2.732
  801SOL     OW 3301   2.401   4.388   5.009
  801SOL    HW1 3302   2.348   4.324   5.064
  801SOL    HW2 3303   2.494   4.353   4.998
  802SOL     OW 3304   3.336   2.270   6.799
  802SOL    HW1 3305   3.243   2.296   6.825
  802SOL    HW2 3306   3.346   2.277   6.699
  803SOL     OW 3307   1.443   0.493   5.815
  803SOL    HW1 3308   1.412   0.433   5.890
  803SOL    HW2 3309   1.398   0.582   5.823
  804SOL     OW 3310   6.573   6.728   1.433
  804SOL    HW1 3311   6.671   6.720   1.415
  804SOL    HW2 3312   6.558   6.734   1.531
  805SOL     OW 3313   1.785   0.526   4.265
  805SOL    HW1 3314   1.851   0.466   4.312
  805SOL    HW2 3315   1.774   0.610   4.318
  806SOL     OW 3316   5.816   0.676   6.113
  806SOL    HW1 3317   5.718   0.669   6.098
  806SOL    HW2 3318   5.839   0.770   6.139
  807SOL     OW 3319   0.529   6.981   4.361
  807SOL    HW1 3320   0.589   6.974   4.441
  807SOL    HW2 3321   0.435   6.996   4.391
  808SOL     OW 3322   4.945   2.990   0.243
  808SOL    HW1 3323   4.917   3.065   0.303
  808SOL    HW2 3324   5.006   2.928   0.293
  809SOL     OW 3325   0.873   4.471   0.923
  809SOL    HW1 3326   0.910   4.396   0.977
  809SOL    HW2 3327   0.822   4.533   0.983
  810SOL     OW 3328   3.423   4.216   0.122
  810SOL    HW1 3329   3.447   4.274   0.201
  810SOL    HW2 3330   3.434   4.268   0.038
  811SOL     OW 3331   5.415   5.482   3.989
  811SOL    HW1 3332   5.460   5.511   3.905
  811SOL    HW2 3333   5.480   5.435   4.049
  812SOL     OW 3334   6.807   2.035   2.036
  812SOL    HW1 3335   6.749   1.996   2.109
  812SOL    HW2 3336   6.900   1.999   2.046
  813SOL     OW 3337   3.201   0.363   4.331
  813SOL    HW1 3338   3.223   0.419   4.251
  813SOL    HW2 3339   3.102   0.350   4.336
  814SOL     OW 3340   6.651   5.560   2.629
  814SOL    HW1 3341   6.557   5.554   2.663
  814SOL    HW2 3342   6.665   5.647   2.583
  815SOL     OW 3343   5.770   2.976   3.578
  815SOL    HW1 3344   5.676   3.007   3.569
  815SOL    HW2 3345   5.827   3.019   3.508
  816SOL     OW 3346   5.395   5.354   0.317
  816SOL    HW1 3347   5.340   5.351   0.401
  816SOL    HW2 3348   5.424   5.448   0.300
  817SOL     OW 3349   0.818   5.345   1.408
  817SOL    HW1 3350   0.914   5.345   1.436
  817SOL    HW2 3351   0.781   5.437   1.417
  818SOL     OW 3352   5.863   2.840   3.812
  818SOL    HW1 3353   5.847   2.892   3.729
  818SOL    HW2 3354   5.931   2.768   3.793
  819SOL     OW 3355   6.100   2.751   1.297
  819SOL    HW1 3356   6.162   2.762   1.374
  819SOL    HW2 3357   6.112   2.660   1.256
  820SOL     OW 3358   3.198   2.138   4.764
  820SOL    HW1 3359   3.196   2.194   4.847
  820SOL    HW2 3360   3.273   2.169   4.705
  821SOL     OW 3361   6.542   4.781   6.162
  821SOL    HW1 3362   6.520   4.684   6.171
  821SOL    HW2 3363   6.459   4.835   6.176
  822SOL     OW 3364   6.991   3.650   3.051
  822SOL    HW1 3365   0.008   3.739   3.040
  822SOL    HW2 3366   0.000   3.605   3.133
  823SOL     OW 3367   6.438   4.501   6.238
  823SOL    HW1 3368   6.446   4.504   6.138
  823SOL    HW2 3369   6.485   4.419   6.272
  824SOL     OW 3370   4.540   1.280   6.048
  824SOL    HW1 3371   4.622   1.282   6.106
  824SOL    HW2 3372   4.560   1.228   5.965
  825SOL     OW 3373   6.182   5.608   0.848
  825SOL    HW1 3374   6.097   5.660   0.837
  825SOL    HW2 3375   6.181   5.561   0.936
  826SOL     OW 3376   3.981   2.595   5.636
  826SOL    HW1 3377   3.969   2.663   5.564
  826SOL    HW2 3378   3.896   2.587   5.688
  827SOL     OW 3379   2.753   4.152   5.326
  827SOL    HW1 3380   2.677   4.088   5.338
  827SOL    HW2 3381   2.795   4.137   5.236
  828SOL     OW 3382   6.161   6.204   6.316
  828SOL    HW1 3383   6.256   6.226   6.295
  828SOL    HW2 3384   6.149   6.197   6.415
  829SOL     OW 3385   3.834   3.392   1.897
  829SOL    HW1 3386   3.773   3.327   1.942
  829SOL    HW2 3387   3.829   3.380   1.798
  830SOL     OW 3388   5.647   4.812   6.683
  830SOL    HW1 3389   5.643   4.887   6.618
  830SOL    HW2 3390   5.585   4.739   6.654
  831SOL     OW 3391   6.001   0.160   1.112
  831SOL    HW1 3392   5.988   0.259   1.100
  831SOL    HW2 3393   5.926   0.112   1.067
  832SOL     OW 3394   4.319   2.002   3.988
  832SOL    HW1 3395   4.388   2.073   4.002
  832SOL    HW2 3396   4.234   2.030   4.033
  833SOL     OW 3397   1.964   3.812   6.395
  833SOL    HW1 3398   2.005   3.722   6.409
  833SOL    HW2 3399   1.874   3.815   6.437
  834SOL     OW 3400   5.270   3.463   1.134
  834SOL    HW1 3401   5.348   3.518   1.104
  834SOL    HW2 3402   5.260   3.470   1.233
  835SOL     OW 3403   2.620   0.111   5.032
  835SOL    HW1 3404   2.583   0.139   5.121
  835SOL    HW2 3405   2.557   0.139   4.959
  836SOL     OW 3406   3.617   0.723   5.270
  836SOL    HW1 3407   3.693   0.782   5.246
  836SOL    HW2 3408   3.620   0.704   5.368
  837SOL     OW 3409   0.318   0.193   0.920
  837SOL    HW1 3410   0.342   0.170   0.826
  837SOL    HW2 3411   0.396   0.239   0.964
  838SOL     OW 3412   2.640   6.330   4.568
  838SOL    HW1 3413   2.605   6.424   4.570
  838SOL    HW2 3414   2.615   6.284   4.653
  839SOL     OW 3415   2.172   1.499   1.838
  839SOL    HW1 3416   2.095   1.520   1.898
  839SOL    HW2 3417   2.144   1.431   1.770
  840SOL     OW 3418   6.381   5.919   6.893
  840SOL    HW1 3419   6.362   5.826   6.923
  840SOL    HW2 3420   6.296   5.973   6.895
  841SOL     OW 3421   3.481   5.616   6.064
  841SOL    HW1 3422   3.566   5.564   6.058
  841SOL    HW2 3423   3.434   5.613   5.975
  842SOL     OW 3424   3.616   7.012   6.096
  842SOL    HW1 3425   3.545   0.017   6.159
  842SOL    HW2 3426   3.705   7.017   6.141
  843SOL     OW 3427   1.534   1.769   1.531
  843SOL    HW1 3428   1.558   1.866   1.541
  843SOL    HW2 3429   1.616   1.718   1.504
  844SOL     OW 3430   6.923   6.618   1.113
  844SOL    HW1 3431   6.902   6.714   1.096
  844SOL    HW2 3432   6.839   6.568   1.134
  845SOL     OW 3433   5.294   4.072   3.487
  845SOL    HW1 3434   5.240   4.087   3.405
  845SOL    HW2 3435   5.375   4.018   3.464
  846SOL     OW 3436   2.288   0.380   5.882
  846SOL    HW1 3437   2.321   0.336   5.965
  846SOL    HW2 3438   2.365   0.394   5.819
  847SOL     OW 3439   1.155   3.245   1.634
  847SOL    HW1 3440   1.233   3.184   1.626
  847SOL    HW2 3441   1.077   3.196   1.671
  848SOL     OW 3442   6.678   6.601   5.674
  848SOL    HW1 3443   6.653   6.698   5.668
  848SOL    HW2 3444   6.627   6.559   5.749
  849SOL     OW 3445   6.134   4.251   6.091
  849SOL    HW1 3446   6.191   4.330   6.070
  849SOL    HW2 3447   6.088   4.220   6.008
  850SOL     OW 3448   6.118   7.014   4.653
  850SOL    HW1 3449   6.143   0.066   4.708
  850SOL    HW2 3450   6.134   6.930   4.706
  851SOL     OW 3451   0.120   2.980   0.206
  851SOL    HW1 3452   0.086   3.068   0.174
  851SOL    HW2 3453   0.043   2.919   0.224
  852SOL     OW 3454   0.929   4.058   0.352
  852SOL    HW1 3455   1.027   4.051   0.369
  852SOL    HW2 3456   0.904   4.155   0.347
  853SOL     OW 3457   0.717   4.661   0.280
  853SOL    HW1 3458   0.674   4.744   0.245
  853SOL    HW2 3459   0.814   4.660   0.254
  854SOL     OW 3460   4.992   5.903   0.158
  854SOL    HW1 3461   4.937   5.844   0.217
  854SOL    HW2 3462   4.931   5.961   0.104
  855SOL     OW 3463   6.525   0.286   0.490
  855SOL    HW1 3464   6.507   0.384   0.490
  855SOL    HW2 3465   6.534   0.254   0.395
  856SOL     OW 3466   1.441   1.117   6.753
  856SOL    HW1 3467   1.534   1.089   6.726
  856SOL    HW2 3468   1.437   1.127   6.853
  857SOL     OW 3469   6.344   5.105   2.448
  857SOL    HW1 3470   6.376   5.061   2.364
  857SOL    HW2 3471   6.411   5.173   2.477
  858SOL     OW 3472   3.189   4.928   1.329
  858SOL    HW1 3473   3.197   4.921   1.429
  858SOL    HW2 3474   3.241   4.853   1.287
  859SOL     OW 3475   5.941   6.404   4.875
  859SOL    HW1 3476   5.889   6.401   4.790
  859SOL    HW2 3477   6.004   6.482   4.873
  860SOL     OW 3478   6.410   2.404   6.604
  860SOL    HW1 3479   6.398   2.498   6.633
  860SOL    HW2 3480   6.379   2.394   6.509
  861SOL     OW 3481   2.220   4.797   3.584
  861SOL    HW1 3482   2.152   4.830   3.649
  861SOL    HW2 3483   2.309   4.789   3.629
  862SOL     OW 3484   2.245   4.074   2.997
  862SOL    HW1 3485   2.149   4.083   2.968
  862SOL    HW2 3486   2.249   4.021   3.081
  863SOL     OW 3487   6.311   0.988   6.375
  863SOL    HW1 3488   6.318   0.948   6.467
  863SOL    HW2 3489   6.281   0.918   6.311
  864SOL     OW 3490   4.171   6.131   4.455
  864SOL    HW1 3491   4.098   6.099   4.516
  864SOL    HW2 3492   4.256   6.082   4.476
  865SOL     OW 3493   1.815   0.231   5.839
  865SOL    HW1 3494   1.736   0.220   5.899
  865SOL    HW2 3495   1.857   0.142   5.821
  866SOL     OW 3496   2.817   0.951   0.654
  866SOL    HW1 3497   2.778   0.990   0.737
  866SOL    HW2 3498   2.915   0.969   0.650
  867SOL     OW 3499   4.899   3.558   0.811
  867SOL    HW1 3500   4.975   3.622   0.825
  867SOL    HW2 3501   4.904   3.485   0.879
  868SOL     OW 3502   6.692   1.163   1.554
  868SOL    HW1 3503   6.616   1.203   1.605
  868SOL    HW2 3504   6.762   1.232   1.538
  869SOL     OW 3505   0.073   4.304   2.849
  869SOL    HW1 3506   0.019   4.376   2.892
  869SOL    HW2 3507   0.161   4.296   2.896
  870SOL     OW 3508   3.970   4.394   0.821
  870SOL    HW1 3509   3.911   4.370   0.898
  870SOL    HW2 3510   3.988   4.313   0.766
  871SOL     OW 3511   5.141   2.268   3.650
  871SOL    HW1 3512   5.152   2.327   3.570
  871SOL    HW2 3513   5.196   2.304   3.726
  872SOL     OW 3514   5.887   2.598   4.093
  872SOL    HW1 3515   5.914   2.669   4.158
  872SOL    HW2 3516   5.967   2.545   4.066
  873SOL     OW 3517   5.211   5.547   5.234
  873SOL    HW1 3518   5.228   5.489   5.314
  873SOL    HW2 3519   5.113   5.568   5.229
  874SOL     OW 3520   6.760   3.956   6.724
  874SOL    HW1 3521   6.830   4.018   6.759
  874SOL    HW2 3522   6.803   3.872   6.691
  875SOL     OW 3523   4.706   5.057   1.022
  875SOL    HW1 3524   4.618   5.104   1.032
  875SOL    HW2 3525   4.709   4.978   1.083
  876SOL     OW 3526   0.118   5.541   2.039
  876SOL    HW1 3527   0.056   5.464   2.045
  876SOL    HW2 3528   0.179   5.541   2.118
  877SOL     OW 3529   3.057   4.635   6.295
  877SOL    HW1 3530   3.069   4.607   6.200
  877SOL    HW2 3531   3.091   4.728   6.307
  878SOL     OW 3532   4.637   6.485   4.698
  878SOL    HW1 3533   4.578   6.407   4.679
  878SOL    HW2 3534   4.708   6.492   4.628
  879SOL     OW 3535   4.284   0.502   1.412
  879SOL    HW1 3536   4.268   0.442   1.333
  879SOL    HW2 3537   4.379   0.531   1.413
  880SOL     OW 3538   3.202   3.421   3.980
  880SOL    HW1 3539   3.268   3.460   4.045
  880SOL    HW2 3540   3.110   3.433   4.017
  881SOL     OW 3541   4.935   3.903   5.605
  881SOL    HW1 3542   5.006   3.898   5.676
  881SOL    HW2 3543   4.845   3.900   5.649
  882SOL     OW 3544   0.896   2.213   3.884
  882SOL    HW1 3545   0.952   2.296   3.884
  882SOL    HW2 3546   0.911   2.163   3.969
  883SOL     OW 3547   3.062   0.658   0.992
  883SOL    HW1 3548   3.145   0.606   1.014
  883SOL    HW2 3549   3.068   0.749   1.032
  884SOL     OW 3550   6.460   4.205   6.108
  884SOL    HW1 3551   6.454   4.296   6.067
  884SOL    HW2 3552   6.392   4.196   6.181
  885SOL     OW 3553   3.843   0.806   4.857
  885SOL    HW1 3554   3.885   0.757   4.933
  885SOL    HW2 3555   3.828   0.744   4.780
  886SOL     OW 3556   3.326   0.306   0.442
  886SOL    HW1 3557   3.292   0.391   0.404
  886SOL    HW2 3558   3.326   0.311   0.542
  887SOL     OW 3559   3.670   6.392   3.805
  887SOL    HW1 3560   3.736   6.394   3.881
  887SOL    HW2 3561   3.690   6.467   3.742
  888SOL     OW 3562   0.107   5.752   3.190
  888SOL    HW1 3563   0.104   5.849   3.169
  888SOL    HW2 3564   0.202   5.720   3.191
  889SOL     OW 3565   0.223   1.813   6.642
  889SOL    HW1 3566   0.211   1.736   6.705
  889SOL    HW2 3567   0.299   1.870   6.673
  890SOL     OW 3568   1.972   5.045   3.240
  890SOL    HW1 3569   2.039   5.107   3.199
  890SOL    HW2 3570   1.993   4.951   3.213
  891SOL     OW 3571   6.302   3.541   1.247
  891SOL    HW1 3572   6.223   3.582   1.293
  891SOL    HW2 3573   6.378   3.534   1.312
  892SOL     OW 3574   3.039   3.820   4.601
  892SOL    HW1 3575   3.073   3.740   4.552
  892SOL    HW2 3576   2.940   3.812   4.613
  893SOL     OW 3577   2.292   6.472   3.603
  893SOL    HW1 3578   2.254   6.563   3.620
  893SOL    HW2 3579   2.371   6.457   3.662
  894SOL     OW 3580   0.975   3.265   2.467
  894SOL    HW1 3581   0.985   3.177   2.422
  894SOL    HW2 3582   0.895   3.313   2.431
  895SOL     OW 3583   0.865   5.206   4.020
  895SOL    HW1 3584   0.770   5.204   3.990
  895SOL    HW2 3585   0.908   5.292   3.991
  896SOL     OW 3586   5.241   4.732   1.558
  896SOL    HW1 3587   5.278   4.707   1.468
  896SOL    HW2 3588   5.313   4.775   1.613
  897SOL     OW 3589   3.496   1.214   6.906
  897SOL    HW1 3590   3.509   1.223   6.807
  897SOL    HW2 3591   3.577   1.171   6.947
  898SOL     OW 3592   3.979   6.374   2.969
  898SOL    HW1 3593   4.069   6.400   3.002
  898SOL    HW2 3594   3.945   6.296   3.022
  899SOL     OW 3595   0.808   6.747   0.262
  899SOL    HW1 3596   0.833   6.657   0.298
  899SOL    HW2 3597   0.732   6.784   0.314
  900SOL     OW 3598   5.505   0.181   0.199
  900SOL    HW1 3599   5.456   0.106   0.155
  900SOL    HW2 3600   5.445   0.261   0.203
  901SOL     OW 3601   1.575   0.788   3.590
  901SOL    HW1 3602   1.610   0.805   3.498
  901SOL    HW2 3603   1.500   0.721   3.585
  902SOL     OW 3604   0.949   2.530   1.155
  902SOL    HW1 3605   0.992   2.441   1.140
  902SOL    HW2 3606   0.936   2.576   1.067
  903SOL     OW 3607   0.801   3.412   6.996
  903SOL    HW1 3608   0.743   3.338   0.002
  903SOL    HW2 3609   0.764   3.448   6.909
  904SOL     OW 3610   1.817   1.756   2.312
  904SOL    HW1 3611   1.819   1.657   2.305
  904SOL    HW2 3612   1.730   1.785   2.351
  905SOL     OW 3613   5.361   3.568   6.041
  905SOL    HW1 3614   5.444   3.589   5.989
  905SOL    HW2 3615   5.304   3.650   6.047
  906SOL     OW 3616   0.521   2.112   6.455
  906SOL    HW1 3617   0.519   2.203   6.495
  906SOL    HW2 3618   0.486   2.045   6.521
  907SOL     OW 3619   5.142   3.032   0.644
  907SOL    HW1 3620   5.092   3.109   0.604
  907SOL    HW2 3621   5.079   2.976   0.697
  908SOL     OW 3622   2.479   4.619   3.018
  908SOL    HW1 3623   2.513   4.526   3.026
  908SOL    HW2 3624   2.556   4.682   3.003
  909SOL     OW 3625   4.019   6.894   1.797
  909SOL    HW1 3626   4.022   6.992   1.783
  909SOL    HW2 3627   4.089   6.850   1.740
  910SOL     OW 3628   3.430   1.899   1.263
  910SOL    HW1 3629   3.369   1.821   1.260
  910SOL    HW2 3630   3.415   1.951   1.348
  911SOL     OW 3631   1.240   6.402   6.555
  911SOL    HW1 3632   1.326   6.436   6.517
  911SOL    HW2 3633   1.164   6.445   6.507
  912SOL     OW 3634   6.255   0.985   3.112
  912SOL    HW1 3635   6.246   0.979   3.211
  912SOL    HW2 3636   6.167   1.012   3.072
  913SOL     OW 3637   3.398   0.658   3.670
  913SOL    HW1 3638   3.331   0.730   3.690
  913SOL    HW2 3639   3.352   0.582   3.624
  914SOL     OW 3640   2.054   0.204   6.040
  914SOL    HW1 3641   2.128   0.168   6.097
  914SOL    HW2 3642   2.040   0.144   5.961
  915SOL     OW 3643   6.706   3.127   0.101
  915SOL    HW1 3644   6.658   3.077   0.029
  915SOL    HW2 3645   6.664   3.217   0.113
  916SOL     OW 3646   1.619   3.068   2.601
  916SOL    HW1 3647   1.689   3.047   2.532
  916SOL    HW2 3648   1.576   2.983   2.632
  917SOL     OW 3649   0.867   6.618   1.674
  917SOL    HW1 3650   0.929   6.696   1.682
  917SOL    HW2 3651   0.773   6.649   1.684
  918SOL     OW 3652   3.744   0.414   0.966
  918SOL    HW1 3653   3.829   0.467   0.971
  918SOL    HW2 3654   3.690   0.445   0.887
  919SOL     OW 3655   6.665   0.013   2.646
  919SOL    HW1 3656   6.637   6.995   2.561
  919SOL    HW2 3657   6.623   0.104   2.651
  920SOL     OW 3658   2.555   4.526   2.238
  920SOL    HW1 3659   2.478   4.490   2.290
  920SOL    HW2 3660   2.638   4.476   2.263
  921SOL     OW 3661   3.795   5.552   4.210
  921SOL    HW1 3662   3.780   5.636   4.262
  921SOL    HW2 3663   3.852   5.489   4.263
  922SOL     OW 3664   2.933   3.456   4.036
  922SOL    HW1 3665   2.905   3.422   4.125
  922SOL    HW2 3666   2.927   3.556   4.035
  923SOL     OW 3667   2.341   3.555   6.361
  923SOL    HW1 3668   2.436   3.550   6.330
  923SOL    HW2 3669   2.321   3.648   6.392
  924SOL     OW 3670   6.257   3.851   2.036
  924SOL    HW1 3671   6.306   3.771   2.000
  924SOL    HW2 3672   6.193   3.884   1.966
  925SOL     OW 3673   0.103   2.132   6.713
  925SOL    HW1 3674   0.104   2.034   6.693
  925SOL    HW2 3675   0.122   2.147   6.810
  926SOL     OW 3676   6.684   0.695   1.369
  926SOL    HW1 3677   6.621   0.701   1.447
  926SOL    HW2 3678   6.639   0.647   1.294
  927SOL     OW 3679   5.330   4.304   3.197
  927SOL    HW1 3680   5.282   4.242   3.135
  927SOL    HW2 3681   5.410   4.343   3.150
  928SOL     OW 3682   2.077   5.844   0.596
  928SOL    HW1 3683   2.046   5.939   0.590
  928SOL    HW2 3684   2.153   5.829   0.533
  929SOL     OW 3685   0.601   0.896   6.632
  929SOL    HW1 3686   0.598   0.921   6.535
  929SOL    HW2 3687   0.556   0.808   6.645
  930SOL     OW 3688   5.527   6.587   5.857
  930SOL    HW1 3689   5.549   6.492   5.879
  930SOL    HW2 3690   5.603   6.627   5.805
  931SOL     OW 3691   6.706   1.316   4.839
  931SOL    HW1 3692   6.689   1.364   4.924
  931SOL    HW2 3693   6.804   1.298   4.829
  932SOL     OW 3694   3.101   0.893   3.571
  932SOL    HW1 3695   3.046   0.809   3.565
  932SOL    HW2 3696   3.100   0.940   3.483
  933SOL     OW 3697   1.631   5.758   3.381
  933SOL    HW1 3698   1.613   5.660   3.370
  933SOL    HW2 3699   1.722   5.771   3.420
  934SOL     OW 3700   2.637   6.147   6.788
  934SOL    HW1 3701   2.699   6.196   6.850
  934SOL    HW2 3702   2.583   6.213   6.736
  935SOL     OW 3703   4.941   3.886   4.421
  935SOL    HW1 3704   4.957   3.805   4.365
  935SOL    HW2 3705   4.953   3.863   4.517
  936SOL     OW 3706   6.681   0.419   6.054
  936SOL    HW1 3707   6.665   0.332   6.007
  936SOL    HW2 3708   6.774   0.450   6.036
  937SOL     OW 3709   5.688   1.649   6.283
  937SOL    HW1 3710   5.634   1.566   6.291
  937SOL    HW2 3711   5.670   1.708   6.361
  938SOL     OW 3712   5.937   4.485   6.438
  938SOL    HW1 3713   5.891   4.473   6.526
  938SOL    HW2 3714   6.025   4.531   6.452
  939SOL     OW 3715   0.543   6.769   4.183
  939SOL    HW1 3716   0.619   6.712   4.212
  939SOL    HW2 3717   0.532   6.846   4.246
  940SOL     OW 3718   0.220   3.993   0.957
  940SOL    HW1 3719   0.170   3.917   0.915
  940SOL    HW2 3720   0.207   3.990   1.057
  941SOL     OW 3721   5.609   2.240   6.863
  941SOL    HW1 3722   5.673   2.304   6.906
  941SOL    HW2 3723   5.541   2.210   6.930
  942SOL     OW 3724   6.221   6.970   2.838
  942SOL    HW1 3725   6.192   6.890   2.891
  942SOL    HW2 3726   6.315   6.994   2.863
  943SOL     OW 3727   1.490   4.144   2.889
  943SOL    HW1 3728   1.532   4.201   2.960
  943SOL    HW2 3729   1.527   4.170   2.799
  944SOL     OW 3730   0.188   5.239   5.591
  944SOL    HW1 3731   0.275   5.224   5.638
  944SOL    HW2 3732   0.130   5.158   5.601
  945SOL     OW 3733   0.450   4.525   6.197
  945SOL    HW1 3734   0.393   4.600   6.164
  945SOL    HW2 3735   0.513   4.495   6.125
  946SOL     OW 3736   4.897   4.269   5.683
  946SOL    HW1 3737   4.950   4.287   5.765
  946SOL    HW2 3738   4.821   4.334   5.677
  947SOL     OW 3739   3.600   3.191   3.370
  947SOL    HW1 3740   3.545   3.275   3.362
  947SOL    HW2 3741   3.658   3.197   3.452
  948SOL     OW 3742   5.379   0.947   2.793
  948SOL    HW1 3743   5.285   0.928   2.819
  948SOL    HW2 3744   5.436   0.951   2.875
  949SOL     OW 3745   2.523   5.770   0.410
  949SOL    HW1 3746   2.486   5.684   0.444
  949SOL    HW2 3747   2.557   5.757   0.317
  950SOL     OW 3748   6.128   5.676   2.255
  950SOL    HW1 3749   6.071   5.618   2.313
  950SOL    HW2 3750   6.179   5.618   2.191
  951SOL     OW 3751   1.790   0.198   4.367
  951SOL    HW1 3752   1.803   0.125   4.300
  951SOL    HW2 3753   1.754   0.159   4.452
  952SOL     OW 3754   4.626   2.586   3.336
  952SOL    HW1 3755   4.679   2.620   3.259
  952SOL    HW2 3756   4.573   2.506   3.307
  953SOL     OW 3757   5.644   5.489   4.658
  953SOL    HW1 3758   5.594   5.422   4.714
  953SOL    HW2 3759   5.742   5.473   4.668
  954SOL     OW 3760   3.571   5.925   2.211
  954SOL    HW1 3761   3.512   5.991   2.258
  954SOL    HW2 3762   3.663   5.963   2.201
  955SOL     OW 3763   0.705   3.905   1.116
  955SOL    HW1 3764   0.639   3.980   1.114
  955SOL    HW2 3765   0.675   3.833   1.054
  956SOL     OW 3766   6.205   0.368   1.403
  956SOL    HW1 3767   6.222   0.373   1.305
  956SOL    HW2 3768   6.106   0.364   1.419
  957SOL     OW 3769   5.441   2.798   2.479
  957SOL    HW1 3770   5.466   2.828   2.387
  957SOL    HW2 3771   5.500   2.844   2.546
  958SOL     OW 3772   4.387   0.834   1.558
  958SOL    HW1 3773   4.381   0.903   1.486
  958SOL    HW2 3774   4.311   0.769   1.549
  959SOL     OW 3775   3.610   6.376   4.389
  959SOL    HW1 3776   3.675   6.352   4.317
  959SOL    HW2 3777   3.531   6.315   4.386
  960SOL     OW 3778   1.065   0.282   1.340
  960SOL    HW1 3779   0.969   0.303   1.325
  960SOL    HW2 3780   1.079   0.183   1.333
  961SOL     OW 3781   4.236   6.528   3.616
  961SOL    HW1 3782   4.289   6.466   3.557
  961SOL    HW2 3783   4.270   6.621   3.605
  962SOL     OW 3784   6.674   0.584   4.765
  962SOL    HW1 3785   6.717   0.671   4.740
  962SOL    HW2 3786   6.622   0.595   4.849
  963SOL     OW 3787   5.473   1.223   6.560
  963SOL    HW1 3788   5.564   1.258   6.586
  963SOL    HW2 3789   5.404   1.292   6.581
  964SOL     OW 3790   5.333   4.788   6.864
  964SOL    HW1 3791   5.269   4.832   6.801
  964SOL    HW2 3792   5.349   4.849   6.943
  965SOL     OW 3793   5.881   1.649   2.244
  965SOL    HW1 3794   5.787   1.623   2.222
  965SOL    HW2 3795   5.920   1.584   2.309
  966SOL     OW 3796   5.556   2.462   2.850
  966SOL    HW1 3797   5.602   2.456   2.761
  966SOL    HW2 3798   5.462   2.493   2.837
  967SOL     OW 3799   2.967   4.669   1.016
  967SOL    HW1 3800   2.922   4.743   0.966
  967SOL    HW2 3801   2.942   4.674   1.113
  968SOL     OW 3802   4.498   0.597   1.954
  968SOL    HW1 3803   4.449   0.533   1.895
  968SOL    HW2 3804   4.444   0.614   2.037
  969SOL     OW 3805   2.424   4.025   5.590
  969SOL    HW1 3806   2.328   4.017   5.563
  969SOL    HW2 3807   2.448   4.122   5.599
  970SOL     OW 3808   5.148   0.468   6.196
  970SOL    HW1 3809   5.136   0.394   6.261
  970SOL    HW2 3810   5.114   0.440   6.106
  971SOL     OW 3811   6.956   2.979   2.550
  971SOL    HW1 3812   6.867   2.950   2.584
  971SOL    HW2 3813   6.972   2.940   2.459
  972SOL     OW 3814   5.948   1.890   2.104
  972SOL    HW1 3815   5.930   1.807   2.158
  972SOL    HW2 3816   6.003   1.954   2.158
  973SOL     OW 3817   1.024   5.443   6.923
  973SOL    HW1 3818   0.944   5.484   6.879
  973SOL    HW2 3819   1.107   5.490   6.894
  974SOL     OW 3820   6.111   5.550   1.628
  974SOL    HW1 3821   6.036   5.589   1.575
  974SOL    HW2 3822   6.170   5.623   1.661
  975SOL     OW 3823   2.380   0.446   0.478
  975SOL    HW1 3824   2.432   0.512   0.532
  975SOL    HW2 3825   2.400   0.353   0.509
  976SOL     OW 3826   0.189   3.796   1.239
  976SOL    HW1 3827   0.278   3.780   1.284
  976SOL    HW2 3828   0.149   3.879   1.276
  977SOL     OW 3829   0.197   0.636   2.118
  977SOL    HW1 3830   0.283   0.677   2.086
  977SOL    HW2 3831   0.121   0.695   2.091
  978SOL     OW 3832   5.392   2.199   0.005
  978SOL    HW1 3833   5.433   2.154   0.084
  978SOL    HW2 3834   5.301   2.161   7.015
  979SOL     OW 3835   0.608   3.231   0.022
  979SOL    HW1 3836   0.551   3.309   0.047
  979SOL    HW2 3837   0.570   3.186   6.969
  980SOL     OW 3838   5.537   1.933   4.087
  980SOL    HW1 3839   5.552   1.996   4.163
  980SOL    HW2 3840   5.494   1.982   4.010
  981SOL     OW 3841   0.250   1.129   4.775
  981SOL    HW1 3842   0.253   1.217   4.822
  981SOL    HW2 3843   0.163   1.121   4.727
  982SOL     OW 3844   0.720   1.152   4.995
  982SOL    HW1 3845   0.802   1.107   5.032
  982SOL    HW2 3846   0.699   1.114   4.905
  983SOL     OW 3847   6.486   2.857   3.445
  983SOL    HW1 3848   6.583   2.841   3.465
  983SOL    HW2 3849   6.454   2.789   3.379
  984SOL     OW 3850   2.463   2.576   3.835
  984SOL    HW1 3851   2.428   2.518   3.909
  984SOL    HW2 3852   2.432   2.670   3.848
  985SOL     OW 3853   6.616   3.686   5.044
  985SOL    HW1 3854   6.686   3.745   5.085
  985SOL    HW2 3855   6.656   3.637   4.966
  986SOL     OW 3856   4.216   4.306   0.963
  986SOL    HW1 3857   4.144   4.314   1.032
  986SOL    HW2 3858   4.202   4.375   0.892
  987SOL     OW 3859   4.694   6.559   2.638
  987SOL    HW1 3860   4.749   6.625   2.587
  987SOL    HW2 3861   4.627   6.516   2.577
  988SOL     OW 3862   3.266   4.352   0.802
  988SOL    HW1 3863   3.214   4.408   0.866
  988SOL    HW2 3864   3.269   4.257   0.835
  989SOL     OW 3865   6.660   1.965   6.382
  989SOL    HW1 3866   6.589   1.910   6.338
  989SOL    HW2 3867   6.636   2.062   6.376
  990SOL     OW 3868   3.542   0.795   2.224
  990SOL    HW1 3869   3.618   0.815   2.162
  990SOL    HW2 3870   3.514   0.880   2.270
  991SOL     OW 3871   0.489   3.611   3.652
  991SOL    HW1 3872   0.515   3.616   3.556
  991SOL    HW2 3873   0.565   3.643   3.708
  992SOL     OW 3874   0.166   3.381   2.032
  992SOL    HW1 3875   0.252   3.356   2.078
  992SOL    HW2 3876   0.119   3.298   2.004
  993SOL     OW 3877   6.885   4.655   0.844
  993SOL    HW1 3878   6.947   4.600   0.788
  993SOL    HW2 3879   6.819   4.596   0.889
  994SOL     OW 3880   4.266   5.021   2.136
  994SOL    HW1 3881   4.260   5.054   2.042
  994SOL    HW2 3882   4.200   4.947   2.150
  995SOL     OW 3883   3.981   3.253   6.195
  995SOL    HW1 3884   3.985   3.156   6.220
  995SOL    HW2 3885   4.060   3.300   6.233
  996SOL     OW 3886   3.583   4.963   4.841
  996SOL    HW1 3887   3.498   4.973   4.893
  996SOL    HW2 3888   3.661   4.982   4.901
  997SOL     OW 3889   1.129   0.017   3.020
  997SOL    HW1 3890   1.077   6.982   2.962
  997SOL    HW2 3891   1.082   0.030   3.107
  998SOL     OW 3892   5.863   0.457   5.946
  998SOL    HW1 3893   5.811   0.468   5.862
  998SOL    HW2 3894   5.842   0.532   6.009
  999SOL     OW 3895   5.328   4.048   2.397
  999SOL    HW1 3896   5.291   4.029   2.488
  999SOL    HW2 3897   5.408   3.990   2.381
 1000SOL     OW 3898   4.097   1.774   1.463
 1000SOL    HW1 3899   4.050   1.852   1.504
 1000SOL    HW2 3900   4.091   1.695   1.525
 1001SOL     OW 3901   4.119   6.098   2.104
 1001SOL    HW1 3902   4.119   6.042   2.021
 1001SOL    HW2 3903   4.075   6.185   2.086
 1002SOL     OW 3904   5.393   1.958   1.165
 1002SOL    HW1 3905   5.414   1.984   1.259
 1002SOL    HW2 3906   5.402   1.860   1.154
 1003SOL     OW 3907   2.062   5.397   3.072
 1003SOL    HW1 3908   1.988   5.461   3.055
 1003SOL    HW2 3909   2.103   5.416   3.162
 1004SOL     OW 3910   0.959   1.287   1.980
 1004SOL    HW1 3911   0.990   1.261   1.889
 1004SOL    HW2 3912   0.888   1.357   1.973
 1005SOL     OW 3913   1.803   2.884   4.059
 1005SOL    HW1 3914   1.835   2.808   4.002
 1005SOL    HW2 3915   1.703   2.886   4.057
 1006SOL     OW 3916   1.354   4.268   0.510
 1006SOL    HW1 3917   1.316   4.360   0.504
 1006SOL    HW2 3918   1.422   4.264   0.583
 1007SOL     OW 3919   4.178   0.968   5.893
 1007SOL    HW1 3920   4.250   0.899   5.888
 1007SOL    HW2 3921   4.193   1.025   5.974
 1008SOL     OW 3922   0.580   2.048   5.671
 1008SOL    HW1 3923   0.528   2.130   5.695
 1008SOL    HW2 3924   0.518   1.970   5.665
 1009SOL     OW 3925   7.014   5.452   5.608
 1009SOL    HW1 3926   0.054   5.378   5.616
 1009SOL    HW2 3927   6.963   5.441   5.523
 1010SOL     OW 3928   2.592   2.499   1.061
 1010SOL    HW1 3929   2.630   2.590   1.071
 1010SOL    HW2 3930   2.666   2.433   1.046
 1011SOL     OW 3931   1.198   5.383   3.242
 1011SOL    HW1 3932   1.284   5.410   3.284
 1011SOL    HW2 3933   1.176   5.289   3.269
 1012SOL     OW 3934   0.048   6.837   2.153
 1012SOL    HW1 3935   0.131   6.806   2.107
 1012SOL    HW2 3936   6.997   6.782   2.122
 1013SOL     OW 3937   0.306   0.808   6.258
 1013SOL    HW1 3938   0.294   0.896   6.213
 1013SOL    HW2 3939   0.265   0.811   6.349
 1014SOL     OW 3940   0.288   4.045   5.150
 1014SOL    HW1 3941   0.207   4.005   5.193
 1014SOL    HW2 3942   0.291   4.020   5.053
 1015SOL     OW 3943   1.914   0.397   6.160
 1015SOL    HW1 3944   1.929   0.474   6.098
 1015SOL    HW2 3945   1.960   0.315   6.124
 1016SOL     OW 3946   4.212   4.221   0.559
 1016SOL    HW1 3947   4.152   4.299   0.577
 1016SOL    HW2 3948   4.164   4.155   0.501
 1017SOL     OW 3949   3.933   2.192   1.092
 1017SOL    HW1 3950   4.012   2.205   1.152
 1017SOL    HW2 3951   3.943   2.248   1.010
 1018SOL     OW 3952   1.033   4.474   4.270
 1018SOL    HW1 3953   0.933   4.475   4.267
 1018SOL    HW2 3954   1.069   4.513   4.185
 1019SOL     OW 3955   6.931   5.930   1.091
 1019SOL    HW1 3956   6.867   5.853   1.102
 1019SOL    HW2 3957   6.958   5.937   0.995
 1020SOL     OW 3958   6.574   1.656   1.927
 1020SOL    HW1 3959   6.628   1.732   1.892
 1020SOL    HW2 3960   6.632   1.576   1.940
 1021SOL     OW 3961   5.367   6.759   2.002
 1021SOL    HW1 3962   5.331   6.837   2.054
 1021SOL    HW2 3963   5.377   6.785   1.906
 1022SOL     OW 3964   2.718   4.796   5.210
 1022SOL    HW1 3965   2.756   4.716   5.165
 1022SOL    HW2 3966   2.756   4.803   5.303
 1023SOL     OW 3967   0.466   1.169   2.652
 1023SOL    HW1 3968   0.518   1.193   2.734
 1023SOL    HW2 3969   0.410   1.248   2.624
 1024SOL     OW 3970   0.293   1.988   3.953
 1024SOL    HW1 3971   0.277   2.068   4.010
 1024SOL    HW2 3972   0.265   2.008   3.859
 1025SOL     OW 3973   3.892   3.287   0.842
 1025SOL    HW1 3974   3.812   3.315   0.787
 1025SOL    HW2 3975   3.882   3.322   0.935
 1026SOL     OW 3976   2.435   3.157   1.354
 1026SOL    HW1 3977   2.382   3.188   1.433
 1026SOL    HW2 3978   2.527   3.129   1.384
 1027SOL     OW 3979   2.996   7.025   2.229
 1027SOL    HW1 3980   3.004   6.950   2.295
 1027SOL    HW2 3981   2.941   0.071   2.269
 1028SOL     OW 3982   1.370   6.643   2.647
 1028SOL    HW1 3983   1.434   6.598   2.709
 1028SOL    HW2 3984   1.283   6.659   2.695
 1029SOL     OW 3985   1.149   1.717   5.884
 1029SOL    HW1 3986   1.211   1.795   5.874
 1029SOL    HW2 3987   1.161   1.676   5.974
 1030SOL     OW 3988   3.299   3.436   1.661
 1030SOL    HW1 3989   3.379   3.402   1.612
 1030SOL    HW2 3990   3.264   3.365   1.722
 1031SOL     OW 3991   4.696   3.390   1.745
 1031SOL    HW1 3992   4.704   3.292   1.758
 1031SOL    HW2 3993   4.602   3.413   1.719
 1032SOL     OW 3994   0.956   1.047   5.073
 1032SOL    HW1 3995   0.987   1.112   5.142
 1032SOL    HW2 3996   1.031   1.025   5.012
 1033SOL     OW 3997   1.629   5.336   1.517
 1033SOL    HW1 3998   1.631   5.244   1.556
 1033SOL    HW2 3999   1.721   5.372   1.510
 1034SOL     OW 4000   1.680   5.463   4.194
 1034SOL    HW1 4001   1.703   5.555   4.224
 1034SOL    HW2 4002   1.761   5.420   4.153
 1035SOL     OW 4003   6.846   2.190   6.820
 1035SOL    HW1 4004   6.860   2.280   6.778
 1035SOL    HW2 4005   6.934   2.142   6.827
 1036SOL     OW 4006   4.159   0.779   1.917
 1036SOL    HW1 4007   4.130   0.691   1.879
 1036SOL    HW2 4008   4.225   0.764   1.991
 1037SOL     OW 4009   1.570   1.469   2.546
 1037SOL    HW1 4010   1.571   1.508   2.454
 1037SOL    HW2 4011   1.545   1.372   2.541
 1038SOL     OW 4012   1.967   1.408   5.294
 1038SOL    HW1 4013   1.892   1.343   5.306
 1038SOL    HW2 4014   1.930   1.501   5.292
 1039SOL     OW 4015   3.882   4.029   4.052
 1039SOL    HW1 4016   3.911   4.044   4.146
 1039SOL    HW2 4017   3.959   3.995   3.998
 1040SOL     OW 4018   5.107   0.964   2.081
 1040SOL    HW1 4019   5.026   1.021   2.097
 1040SOL    HW2 4020   5.186   1.022   2.062
 1041SOL     OW 4021   0.037   6.027   3.158
 1041SOL    HW1 4022   6.976   6.063   3.126
 1041SOL    HW2 4023   0.104   6.101   3.159
 1042SOL     OW 4024   4.284   5.420   2.649
 1042SOL    HW1 4025   4.256   5.374   2.565
 1042SOL    HW2 4026   4.232   5.385   2.726
 1043SOL     OW 4027   3.507   2.101   3.212
 1043SOL    HW1 4028   3.409   2.120   3.208
 1043SOL    HW2 4029   3.542   2.083   3.120
 1044SOL     OW 4030   6.166   5.344   2.478
 1044SOL    HW1 4031   6.108   5.312   2.553
 1044SOL    HW2 4032   6.223   5.419   2.510
 1045SOL     OW 4033   4.157   0.804   2.650
 1045SOL    HW1 4034   4.093   0.736   2.615
 1045SOL    HW2 4035   4.121   0.896   2.635
 1046SOL     OW 4036   1.650   1.537   0.258
 1046SOL    HW1 4037   1.567   1.579   0.294
 1046SOL    HW2 4038   1.725   1.550   0.324
 1047SOL     OW 4039   2.470   0.050   4.313
 1047SOL    HW1 4040   2.535   0.046   4.236
 1047SOL    HW2 4041   2.428   6.987   4.324
 1048SOL     OW 4042   3.611   6.612   2.134
 1048SOL    HW1 4043   3.665   6.685   2.175
 1048SOL    HW2 4044   3.539   6.584   2.197
 1049SOL     OW 4045   6.073   6.737   3.959
 1049SOL    HW1 4046   6.140   6.767   4.028
 1049SOL    HW2 4047   6.066   6.638   3.961
 1050SOL     OW 4048   3.932   4.800   2.539
 1050SOL    HW1 4049   3.859   4.743   2.577
 1050SOL    HW2 4050   3.988   4.837   2.613
 1051SOL     OW 4051   0.569   5.299   0.781
 1051SOL    HW1 4052   0.609   5.209   0.800
 1051SOL    HW2 4053   0.576   5.318   0.683
 1052SOL     OW 4054   4.381   1.093   5.706
 1052SOL    HW1 4055   4.462   1.133   5.750
 1052SOL    HW2 4056   4.353   1.011   5.756
 1053SOL     OW 4057   5.900   3.696   2.611
 1053SOL    HW1 4058   5.901   3.739   2.520
 1053SOL    HW2 4059   5.834   3.621   2.612
 1054SOL     OW 4060   3.129   3.813   0.981
 1054SOL    HW1 4061   3.062   3.765   1.036
 1054SOL    HW2 4062   3.200   3.851   1.040
 1055SOL     OW 4063   4.151   6.754   5.455
 1055SOL    HW1 4064   4.131   6.852   5.455
 1055SOL    HW2 4065   4.242   6.739   5.415
 1056SOL     OW 4066   1.609   3.196   0.215
 1056SOL    HW1 4067   1.576   3.192   0.120
 1056SOL    HW2 4068   1.676   3.270   0.224
 1057SOL     OW 4069   3.505   3.353   1.088
 1057SOL    HW1 4070   3.545   3.275   1.135
 1057SOL    HW2 4071   3.461   3.413   1.154
 1058SOL     OW 4072   5.112   2.199   4.008
 1058SOL    HW1 4073   5.189   2.263   4.002
 1058SOL    HW2 4074   5.028   2.249   4.024
 1059SOL     OW 4075   2.087   0.833   2.315
 1059SOL    HW1 4076   2.025   0.805   2.388
 1059SOL    HW2 4077   2.045   0.813   2.226
 1060SOL     OW 4078   0.534   4.553   3.852
 1060SOL    HW1 4079   0.595   4.620   3.810
 1060SOL    HW2 4080   0.524   4.475   3.790
 1061SOL     OW 4081   6.808   3.172   6.185
 1061SOL    HW1 4082   6.831   3.243   6.117
 1061SOL    HW2 4083   6.877   3.170   6.257
 1062SOL     OW 4084   5.126   5.004   5.876
 1062SOL    HW1 4085   5.064   5.044   5.943
 1062SOL    HW2 4086   5.172   4.924   5.916
 1063SOL     OW 4087   0.740   5.894   0.413
 1063SOL    HW1 4088   0.674   5.825   0.385
 1063SOL    HW2 4089   0.731   5.911   0.511
 1064SOL     OW 4090   1.401   4.356   2.516
 1064SOL    HW1 4091   1.328   4.292   2.494
 1064SOL    HW2 4092   1.364   4.449   2.520
 1065SOL     OW 4093   4.568   0.727   2.674
 1065SOL    HW1 4094   4.577   0.652   2.607
 1065SOL    HW2 4095   4.649   0.727   2.733
 1066SOL     OW 4096   4.622   6.751   2.820
 1066SOL    HW1 4097   4.524   6.734   2.828
 1066SOL    HW2 4098   4.664   6.681   2.763
 1067SOL     OW 4099   1.392   2.198   0.288
 1067SOL    HW1 4100   1.346   2.276   0.331
 1067SOL    HW2 4101   1.330   2.153   0.224
 1068SOL     OW 4102   6.648   4.174   1.377
 1068SOL    HW1 4103   6.698   4.192   1.292
 1068SOL    HW2 4104   6.555   4.147   1.356
 1069SOL     OW 4105   5.322   6.152   1.011
 1069SOL    HW1 4106   5.225   6.173   1.016
 1069SOL    HW2 4107   5.351   6.103   1.094
 1070SOL     OW 4108   1.657   0.348   1.604
 1070SOL    HW1 4109   1.706   0.279   1.657
 1070SOL    HW2 4110   1.655   0.434   1.655
 1071SOL     OW 4111   2.252   1.788   3.690
 1071SOL    HW1 4112   2.279   1.781   3.594
 1071SOL    HW2 4113   2.332   1.778   3.749
 1072SOL     OW 4114   2.575   1.061   1.344
 1072SOL    HW1 4115   2.577   1.010   1.430
 1072SOL    HW2 4116   2.485   1.052   1.302
 1073SOL     OW 4117   4.664   0.547   3.207
 1073SOL    HW1 4118   4.722   0.485   3.154
 1073SOL    HW2 4119   4.703   0.559   3.298
 1074SOL     OW 4120   2.614   5.283   1.886
 1074SOL    HW1 4121   2.533   5.252   1.936
 1074SOL    HW2 4122   2.622   5.382   1.895
 1075SOL     OW 4123   6.012   0.386   3.277
 1075SOL    HW1 4124   6.090   0.402   3.336
 1075SOL    HW2 4125   5.989   0.470   3.227
 1076SOL     OW 4126   0.805   2.199   5.677
 1076SOL    HW1 4127   0.730   2.143   5.643
 1076SOL    HW2 4128   0.769   2.282   5.720
 1077SOL     OW 4129   6.565   6.690   0.613
 1077SOL    HW1 4130   6.618   6.629   0.672
 1077SOL    HW2 4131   6.556   6.779   0.658
 1078SOL     OW 4132   0.142   0.735   2.844
 1078SOL    HW1 4133   0.197   0.804   2.798
 1078SOL    HW2 4134   0.048   0.766   2.851
 1079SOL     OW 4135   1.341   6.003   1.970
 1079SOL    HW1 4136   1.398   6.039   1.897
 1079SOL    HW2 4137   1.364   6.046   2.056
 1080SOL     OW 4138   2.653   5.522   3.787
 1080SOL    HW1 4139   2.718   5.574   3.732
 1080SOL    HW2 4140   2.622   5.442   3.735
 1081SOL     OW 4141   6.739   5.354   5.633
 1081SOL    HW1 4142   6.796   5.419   5.684
 1081SOL    HW2 4143   6.646   5.390   5.625
 1082SOL     OW 4144   5.667   2.030   5.971
 1082SOL    HW1 4145   5.680   2.129   5.972
 1082SOL    HW2 4146   5.634   2.001   5.881
 1083SOL     OW 4147   4.878   4.151   0.395
 1083SOL    HW1 4148   4.957   4.206   0.419
 1083SOL    HW2 4149   4.908   4.070   0.344
 1084SOL     OW 4150   6.533   6.636   6.311
 1084SOL    HW1 4151   6.445   6.681   6.295
 1084SOL    HW2 4152   6.556   6.642   6.408
 1085SOL     OW 4153   1.743   4.097   4.486
 1085SOL    HW1 4154   1.696   4.131   4.405
 1085SOL    HW2 4155   1.678   4.083   4.560
 1086SOL     OW 4156   6.707   4.576   0.474
 1086SOL    HW1 4157   6.663   4.500   0.521
 1086SOL    HW2 4158   6.805   4.561   0.470
 1087SOL     OW 4159   0.050   2.120   4.987
 1087SOL    HW1 4160   6.994   2.090   5.036
 1087SOL    HW2 4161   0.077   2.050   4.921
 1088SOL     OW 4162   6.887   3.863   2.712
 1088SOL    HW1 4163   6.960   3.926   2.739
 1088SOL    HW2 4164   6.848   3.892   2.625
 1089SOL     OW 4165   6.439   5.668   4.513
 1089SOL    HW1 4166   6.496   5.587   4.498
 1089SOL    HW2 4167   6.447   5.698   4.608
 1090SOL     OW 4168   3.505   1.769   3.129
 1090SOL    HW1 4169   3.425   1.797   3.182
 1090SOL    HW2 4170   3.587   1.805   3.173
 1091SOL     OW 4171   2.458   2.681   4.151
 1091SOL    HW1 4172   2.512   2.684   4.235
 1091SOL    HW2 4173   2.447   2.586   4.122
 1092SOL     OW 4174   1.192   4.556   0.462
 1092SOL    HW1 4175   1.115   4.567   0.399
 1092SOL    HW2 4176   1.169   4.597   0.550
 1093SOL     OW 4177   2.827   6.582   1.417
 1093SOL    HW1 4178   2.900   6.618   1.475
 1093SOL    HW2 4179   2.867   6.542   1.334
 1094SOL     OW 4180   0.937   6.281   3.037
 1094SOL    HW1 4181   0.987   6.362   3.067
 1094SOL    HW2 4182   0.892   6.238   3.116
 1095SOL     OW 4183   0.445   3.058   5.995
 1095SOL    HW1 4184   0.377   3.118   5.951
 1095SOL    HW2 4185   0.439   2.967   5.954
 1096SOL     OW 4186   3.514   4.542   1.190
 1096SOL    HW1 4187   3.547   4.476   1.122
 1096SOL    HW2 4188   3.569   4.534   1.273
 1097SOL     OW 4189   2.065   4.855   3.797
 1097SOL    HW1 4190   1.968   4.869   3.815
 1097SOL    HW2 4191   2.105   4.798   3.869
 1098SOL     OW 4192   5.294   3.516   6.447
 1098SOL    HW1 4193   5.251   3.428   6.427
 1098SOL    HW2 4194   5.373   3.528   6.388
 1099SOL     OW 4195   3.815   1.164   6.674
 1099SOL    HW1 4196   3.727   1.212   6.675
 1099SOL    HW2 4197   3.887   1.226   6.646
 1100SOL     OW 4198   4.657   1.580   4.593
 1100SOL    HW1 4199   4.714   1.601   4.514
 1100SOL    HW2 4200   4.604   1.662   4.618
 1101SOL     OW 4201   5.635   4.098   5.813
 1101SOL    HW1 4202   5.565   4.056   5.755
 1101SOL    HW2 4203   5.640   4.196   5.793
 1102SOL     OW 4204   1.358   0.683   5.051
 1102SOL    HW1 4205   1.316   0.678   5.142
 1102SOL    HW2 4206   1.299   0.736   4.990
 1103SOL     OW 4207   3.480   1.354   0.405
 1103SOL    HW1 4208   3.390   1.354   0.361
 1103SOL    HW2 4209   3.475   1.404   0.492
 1104SOL     OW 4210   1.609   3.277   4.202
 1104SOL    HW1 4211   1.530   3.284   4.141
 1104SOL    HW2 4212   1.693   3.292   4.150
 1105SOL     OW 4213   5.720   3.066   4.945
 1105SOL    HW1 4214   5.760   3.121   4.871
 1105SOL    HW2 4215   5.650   3.121   4.992
 1106SOL     OW 4216   0.719   2.225   1.193
 1106SOL    HW1 4217   0.737   2.273   1.107
 1106SOL    HW2 4218   0.805   2.199   1.235
 1107SOL     OW 4219   1.160   0.342   0.069
 1107SOL    HW1 4220   1.134   0.386   0.155
 1107SOL    HW2 4221   1.122   0.250   0.065
 1108SOL     OW 4222   3.489   6.700   5.622
 1108SOL    HW1 4223   3.449   6.632   5.684
 1108SOL    HW2 4224   3.562   6.656   5.568
 1109SOL     OW 4225   5.594   1.095   4.565
 1109SOL    HW1 4226   5.659   1.132   4.631
 1109SOL    HW2 4227   5.626   1.114   4.473
 1110SOL     OW 4228   4.693   2.150   2.900
 1110SOL    HW1 4229   4.692   2.233   2.955
 1110SOL    HW2 4230   4.743   2.078   2.949
 1111SOL     OW 4231   5.708   5.967   6.764
 1111SOL    HW1 4232   5.792   6.020   6.751
 1111SOL    HW2 4233   5.706   5.931   6.858
 1112SOL     OW 4234   5.920   1.010   2.295
 1112SOL    HW1 4235   5.854   1.030   2.367
 1112SOL    HW2 4236   6.005   0.975   2.337
 1113SOL     OW 4237   5.634   4.806   1.347
 1113SOL    HW1 4238   5.564   4.734   1.348
 1113SOL    HW2 4239   5.596   4.889   1.390
 1114SOL     OW 4240   2.449   1.059   6.492
 1114SOL    HW1 4241   2.367   1.081   6.441
 1114SOL    HW2 4242   2.529   1.067   6.433
 1115SOL     OW 4243   3.762   3.322   5.713
 1115SOL    HW1 4244   3.768   3.400   5.775
 1115SOL    HW2 4245   3.714   3.247   5.758
 1116SOL     OW 4246   5.366   6.774   6.577
 1116SOL    HW1 4247   5.430   6.697   6.577
 1116SOL    HW2 4248   5.287   6.751   6.521
 1117SOL     OW 4249   0.866   2.310   2.087
 1117SOL    HW1 4250   0.822   2.304   1.997
 1117SOL    HW2 4251   0.953   2.260   2.084
 1118SOL     OW 4252   2.359   5.112   0.633
 1118SOL    HW1 4253   2.343   5.031   0.689
 1118SOL    HW2 4254   2.428   5.170   0.676
 1119SOL     OW 4255   4.144   4.468   1.593
 1119SOL    HW1 4256   4.221   4.501   1.648
 1119SOL    HW2 4257   4.160   4.489   1.497
 1120SOL     OW 4258   5.998   5.577   0.489
 1120SOL    HW1 4259   6.083   5.525   0.505
 1120SOL    HW2 4260   6.013   5.642   0.415
 1121SOL     OW 4261   6.889   4.442   4.519
 1121SOL    HW1 4262   6.837   4.390   4.451
 1121SOL    HW2 4263   6.981   4.458   4.485
 1122SOL     OW 4264   5.599   3.093   2.066
 1122SOL    HW1 4265   5.538   3.014   2.064
 1122SOL    HW2 4266   5.562   3.162   2.129
 1123SOL     OW 4267   5.133   2.362   3.353
 1123SOL    HW1 4268   5.118   2.307   3.271
 1123SOL    HW2 4269   5.065   2.435   3.358
 1124SOL     OW 4270   0.159   3.825   5.391
 1124SOL    HW1 4271   0.115   3.776   5.466
 1124SOL    HW2 4272   0.116   3.915   5.380
 1125SOL     OW 4273   1.961   1.987   3.875
 1125SOL    HW1 4274   2.008   1.965   3.789
 1125SOL    HW2 4275   1.928   2.082   3.871
 1126SOL     OW 4276   6.119   5.346   6.229
 1126SOL    HW1 4277   6.133   5.247   6.219
 1126SOL    HW2 4278   6.083   5.384   6.143
 1127SOL     OW 4279   5.314   6.320   4.699
 1127SOL    HW1 4280   5.414   6.318   4.703
 1127SOL    HW2 4281   5.279   6.226   4.703
 1128SOL     OW 4282   5.771   1.507   4.098
 1128SOL    HW1 4283   5.742   1.427   4.045
 1128SOL    HW2 4284   5.735   1.590   4.056
 1129SOL     OW 4285   2.077   6.708   0.871
 1129SOL    HW1 4286   1.997   6.748   0.917
 1129SOL    HW2 4287   2.138   6.781   0.840
 1130SOL     OW 4288   2.495   4.738   1.001
 1130SOL    HW1 4289   2.558   4.692   1.064
 1130SOL    HW2 4290   2.401   4.725   1.032
 1131SOL     OW 4291   1.573   6.816   5.441
 1131SOL    HW1 4292   1.671   6.826   5.458
 1131SOL    HW2 4293   1.524   6.893   5.482
 1132SOL     OW 4294   4.449   0.198   2.806
 1132SOL    HW1 4295   4.510   0.277   2.804
 1132SOL    HW2 4296   4.434   0.171   2.901
 1133SOL     OW 4297   1.488   1.232   7.013
 1133SOL    HW1 4298   1.434   1.306   6.972
 1133SOL    HW2 4299   1.437   1.192   0.063
 1134SOL     OW 4300   5.064   6.874   2.851
 1134SOL    HW1 4301   5.084   6.908   2.943
 1134SOL    HW2 4302   4.991   6.930   2.810
 1135SOL     OW 4303   2.055   6.482   4.378
 1135SOL    HW1 4304   2.109   6.528   4.308
 1135SOL    HW2 4305   1.987   6.423   4.334
 1136SOL     OW 4306   4.458   4.532   3.178
 1136SOL    HW1 4307   4.359   4.543   3.174
 1136SOL    HW2 4308   4.498   4.608   3.230
 1137SOL     OW 4309   1.288   6.601   0.158
 1137SOL    HW1 4310   1.296   6.654   0.243
 1137SOL    HW2 4311   1.243   6.656   0.088
 1138SOL     OW 4312   0.057   1.030   5.813
 1138SOL    HW1 4313   0.050   0.993   5.720
 1138SOL    HW2 4314   6.997   1.072   5.839
 1139SOL     OW 4315   2.652   5.079   3.312
 1139SOL    HW1 4316   2.749   5.054   3.304
 1139SOL    HW2 4317   2.598   5.027   3.247
 1140SOL     OW 4318   2.808   0.974   2.260
 1140SOL    HW1 4319   2.885   0.921   2.294
 1140SOL    HW2 4320   2.818   0.991   2.162
 1141SOL     OW 4321   0.569   6.260   0.446
 1141SOL    HW1 4322   0.502   6.188   0.463
 1141SOL    HW2 4323   0.579   6.316   0.528
 1142SOL     OW 4324   3.275   0.134   3.943
 1142SOL    HW1 4325   3.288   0.036   3.959
 1142SOL    HW2 4326   3.322   0.161   3.859
 1143SOL     OW 4327   1.976   2.830   2.952
 1143SOL    HW1 4328   1.983   2.804   3.049
 1143SOL    HW2 4329   2.042   2.902   2.933
 1144SOL     OW 4330   6.211   4.543   3.448
 1144SOL    HW1 4331   6.298   4.499   3.465
 1144SOL    HW2 4332   6.211   4.582   3.356
 1145SOL     OW 4333   6.860   3.204   0.811
 1145SOL    HW1 4334   6.816   3.117   0.788
 1145SOL    HW2 4335   6.921   3.231   0.737
 1146SOL     OW 4336   0.162   1.519   2.079
 1146SOL    HW1 4337   0.083   1.567   2.041
 1146SOL    HW2 4338   0.140   1.485   2.171
 1147SOL     OW 4339   3.389   5.590   1.851
 1147SOL    HW1 4340   3.376   5.533   1.932
 1147SOL    HW2 4341   3.404   5.685   1.879
 1148SOL     OW 4342   4.611   6.443   0.702
 1148SOL    HW1 4343   4.677   6.393   0.646
 1148SOL    HW2 4344   4.649   6.454   0.794
 1149SOL     OW 4345   5.363   2.542   2.495
 1149SOL    HW1 4346   5.413   2.628   2.484
 1149SOL    HW2 4347   5.290   2.554   2.562
 1150SOL     OW 4348   0.792   4.445   6.997
 1150SOL    HW1 4349   0.743   4.468   0.055
 1150SOL    HW2 4350   0.755   4.361   6.959
 1151SOL     OW 4351   5.459   4.366   5.129
 1151SOL    HW1 4352   5.438   4.268   5.134
 1151SOL    HW2 4353   5.403   4.415   5.196
 1152SOL     OW 4354   5.041   5.547   5.979
 1152SOL    HW1 4355   5.032   5.594   6.067
 1152SOL    HW2 4356   4.959   5.561   5.925
 1153SOL     OW 4357   6.770   6.873   1.785
 1153SOL    HW1 4358   6.815   6.786   1.804
 1153SOL    HW2 4359   6.704   6.893   1.858
 1154SOL     OW 4360   0.429   4.893   0.792
 1154SOL    HW1 4361   0.351   4.924   0.848
 1154SOL    HW2 4362   0.509   4.949   0.813
 1155SOL     OW 4363   3.059   4.993   5.559
 1155SOL    HW1 4364   3.061   5.092   5.568
 1155SOL    HW2 4365   3.132   4.953   5.615
 1156SOL     OW 4366   4.149   1.993   5.399
 1156SOL    HW1 4367   4.108   1.956   5.316
 1156SOL    HW2 4368   4.247   2.005   5.385
 1157SOL     OW 4369   4.849   1.176   5.970
 1157SOL    HW1 4370   4.908   1.162   6.050
 1157SOL    HW2 4371   4.887   1.126   5.892
 1158SOL     OW 4372   6.941   5.056   4.952
 1158SOL    HW1 4373   6.879   5.075   5.029
 1158SOL    HW2 4374   6.918   4.967   4.913
 1159SOL     OW 4375   6.466   6.862   3.812
 1159SOL    HW1 4376   6.425   6.799   3.878
 1159SOL    HW2 4377   6.463   6.822   3.720
 1160SOL     OW 4378   4.284   4.939   1.274
 1160SOL    HW1 4379   4.328   5.024   1.302
 1160SOL    HW2 4380   4.209   4.918   1.337
 1161SOL     OW 4381   0.060   5.688   6.129
 1161SOL    HW1 4382   0.008   5.768   6.101
 1161SOL    HW2 4383   0.082   5.633   6.048
 1162SOL     OW 4384   1.855   2.371   6.525
 1162SOL    HW1 4385   1.921   2.394   6.454
 1162SOL    HW2 4386   1.880   2.284   6.567
 1163SOL     OW 4387   6.510   4.165   1.869
 1163SOL    HW1 4388   6.448   4.124   1.802
 1163SOL    HW2 4389   6.461   4.181   1.955
 1164SOL     OW 4390   4.769   2.108   4.313
 1164SOL    HW1 4391   4.822   2.081   4.393
 1164SOL    HW2 4392   4.781   2.041   4.240
 1165SOL     OW 4393   4.501   5.363   3.824
 1165SOL    HW1 4394   4.512   5.399   3.917
 1165SOL    HW2 4395   4.462   5.435   3.766
 1166SOL     OW 4396   2.688   6.528   0.205
 1166SOL    HW1 4397   2.780   6.494   0.185
 1166SOL    HW2 4398   2.632   6.452   0.239
 1167SOL     OW 4399   4.358   6.421   0.317
 1167SOL    HW1 4400   4.313   6.470   0.391
 1167SOL    HW2 4401   4.366   6.324   0.341
 1168SOL     OW 4402   5.724   2.654   1.291
 1168SOL    HW1 4403   5.667   2.602   1.228
 1168SOL    HW2 4404   5.741   2.600   1.373
 1169SOL     OW 4405   4.381   1.757   5.957
 1169SOL    HW1 4406   4.370   1.787   5.862
 1169SOL    HW2 4407   4.402   1.836   6.015
 1170SOL     OW 4408   5.413   0.112   3.071
 1170SOL    HW1 4409   5.469   0.120   2.988
 1170SOL    HW2 4410   5.340   0.046   3.055
 1171SOL     OW 4411   3.025   6.472   6.753
 1171SOL    HW1 4412   3.072   6.560   6.761
 1171SOL    HW2 4413   3.064   6.408   6.818
 1172SOL     OW 4414   4.771   4.468   1.097
 1172SOL    HW1 4415   4.840   4.468   1.025
 1172SOL    HW2 4416   4.700   4.535   1.074
 1173SOL     OW 4417   3.689   1.165   1.058
 1173SOL    HW1 4418   3.770   1.131   1.106
 1173SOL    HW2 4419   3.710   1.179   0.962
 1174SOL     OW 4420   3.471   3.868   1.719
 1174SOL    HW1 4421   3.570   3.872   1.702
 1174SOL    HW2 4422   3.445   3.943   1.780
 1175SOL     OW 4423   4.406   3.905   6.321
 1175SOL    HW1 4424   4.346   3.929   6.245
 1175SOL    HW2 4425   4.395   3.972   6.394
 1176SOL     OW 4426   5.105   3.665   0.341
 1176SOL    HW1 4427   5.017   3.633   0.377
 1176SOL    HW2 4428   5.178   3.605   0.375
 1177SOL     OW 4429   6.258   3.988   4.774
 1177SOL    HW1 4430   6.299   4.016   4.688
 1177SOL    HW2 4431   6.159   3.997   4.769
 1178SOL     OW 4432   3.220   4.113   0.271
 1178SOL    HW1 4433   3.232   4.105   0.369
 1178SOL    HW2 4434   3.302   4.153   0.230
 1179SOL     OW 4435   2.786   5.664   0.821
 1179SOL    HW1 4436   2.689   5.674   0.844
 1179SOL    HW2 4437   2.806   5.716   0.738
 1180SOL     OW 4438   2.653   6.454   4.062
 1180SOL    HW1 4439   2.683   6.363   4.091
 1180SOL    HW2 4440   2.726   6.498   4.009
 1181SOL     OW 4441   0.169   5.437   4.863
 1181SOL    HW1 4442   0.089   5.419   4.805
 1181SOL    HW2 4443   0.225   5.508   4.822
 1182SOL     OW 4444   5.535   5.568   3.772
 1182SOL    HW1 4445   5.520   5.649   3.715
 1182SOL    HW2 4446   5.554   5.489   3.713
 1183SOL     OW 4447   2.416   4.849   0.269
 1183SOL    HW1 4448   2.508   4.812   0.265
 1183SOL    HW2 4449   2.418   4.941   0.310
 1184SOL     OW 4450   6.971   1.293   4.781
 1184SOL    HW1 4451   6.982   1.215   4.719
 1184SOL    HW2 4452   0.025   1.352   4.775
 1185SOL     OW 4453   0.781   0.721   1.045
 1185SOL    HW1 4454   0.846   0.779   0.996
 1185SOL    HW2 4455   0.722   0.778   1.103
 1186SOL     OW 4456   5.287   6.061   5.594
 1186SOL    HW1 4457   5.304   6.127   5.667
 1186SOL    HW2 4458   5.343   6.084   5.515
 1187SOL     OW 4459   4.864   0.185   5.674
 1187SOL    HW1 4460   4.809   0.103   5.691
 1187SOL    HW2 4461   4.806   0.256   5.634
 1188SOL     OW 4462   3.578   5.981   6.096
 1188SOL    HW1 4463   3.623   6.069   6.106
 1188SOL    HW2 4464   3.479   5.995   6.086
 1189SOL     OW 4465   6.101   1.808   1.303
 1189SOL    HW1 4466   6.147   1.724   1.275
 1189SOL    HW2 4467   6.073   1.801   1.398
 1190SOL     OW 4468   3.752   5.575   3.668
 1190SOL    HW1 4469   3.675   5.573   3.604
 1190SOL    HW2 4470   3.818   5.503   3.643
 1191SOL     OW 4471   4.136   5.604   4.461
 1191SOL    HW1 4472   4.220   5.625   4.510
 1191SOL    HW2 4473   4.079   5.687   4.456
 1192SOL     OW 4474   4.969   4.429   2.259
 1192SOL    HW1 4475   5.029   4.435   2.179
 1192SOL    HW2 4476   4.910   4.349   2.249
 1193SOL     OW 4477   6.614   2.102   5.008
 1193SOL    HW1 4478   6.622   2.064   5.100
 1193SOL    HW2 4479   6.704   2.110   4.967
 1194SOL     OW 4480   5.573   6.930   1.530
 1194SOL    HW1 4481   5.642   6.978   1.584
 1194SOL    HW2 4482   5.615   6.853   1.483
 1195SOL     OW 4483   0.478   4.143   0.836
 1195SOL    HW1 4484   0.396   4.199   0.834
 1195SOL    HW2 4485   0.559   4.202   0.829
 1196SOL     OW 4486   6.761   4.952   3.436
 1196SOL    HW1 4487   6.844   4.958   3.381
 1196SOL    HW2 4488   6.700   4.885   3.395
 1197SOL     OW 4489   4.642   0.133   5.034
 1197SOL    HW1 4490   4.545   0.157   5.035
 1197SOL    HW2 4491   4.655   0.048   5.086
 1198SOL     OW 4492   1.450   2.843   3.099
 1198SOL    HW1 4493   1.389   2.768   3.075
 1198SOL    HW2 4494   1.527   2.845   3.036
 1199SOL     OW 4495   3.347   3.885   1.117
 1199SOL    HW1 4496   3.310   3.820   1.184
 1199SOL    HW2 4497   3.445   3.867   1.104
 1200SOL     OW 4498   3.645   4.150   4.035
 1200SOL    HW1 4499   3.744   4.155   4.048
 1200SOL    HW2 4500   3.599   4.175   4.120
 1201SOL     OW 4501   0.855   1.426   4.447
 1201SOL    HW1 4502   0.905   1.339   4.449
 1201SOL    HW2 4503   0.847   1.462   4.540
 1202SOL     OW 4504   0.267   5.856   5.527
 1202SOL    HW1 4505   0.208   5.916   5.582
 1202SOL    HW2 4506   0.354   5.843   5.575
 1203SOL     OW 4507   0.002   6.367   7.022
 1203SOL    HW1 4508   6.944   6.340   0.040
 1203SOL    HW2 4509   0.080   6.328   0.046
 1204SOL     OW 4510   4.320   1.450   1.507
 1204SOL    HW1 4511   4.386   1.471   1.435
 1204SOL    HW2 4512   4.339   1.360   1.545
 1205SOL     OW 4513   4.056   3.182   0.616
 1205SOL    HW1 4514   3.999   3.101   0.601
 1205SOL    HW2 4515   4.034   3.221   0.706
 1206SOL     OW 4516   2.597   2.803   5.321
 1206SOL    HW1 4517   2.683   2.848   5.347
 1206SOL    HW2 4518   2.553   2.856   5.248
 1207SOL     OW 4519   2.418   6.437   0.890
 1207SOL    HW1 4520   2.366   6.479   0.816
 1207SOL    HW2 4521   2.392   6.479   0.977
 1208SOL     OW 4522   3.409   3.502   1.288
 1208SOL    HW1 4523   3.380   3.598   1.287
 1208SOL    HW2 4524   3.329   3.442   1.291
 1209SOL     OW 4525   4.042   1.050   4.275
 1209SOL    HW1 4526   4.053   1.066   4.373
 1209SOL    HW2 4527   4.063   1.134   4.225
 1210SOL     OW 4528   3.390   0.069   3.473
 1210SOL    HW1 4529   3.303   0.027   3.501
 1210SOL    HW2 4530   3.449   7.025   3.433
 1211SOL     OW 4531   0.300   3.558   2.583
 1211SOL    HW1 4532   0.326   3.651   2.608
 1211SOL    HW2 4533   0.227   3.562   2.514
 1212SOL     OW 4534   6.199   0.353   0.284
 1212SOL    HW1 4535   6.293   0.388   0.283
 1212SOL    HW2 4536   6.149   0.392   0.207
 1213SOL     OW 4537   6.386   2.322   1.045
 1213SOL    HW1 4538   6.400   2.365   0.956
 1213SOL    HW2 4539   6.332   2.383   1.103
 1214SOL     OW 4540   1.283   2.985   6.656
 1214SOL    HW1 4541   1.274   3.048   6.579
 1214SOL    HW2 4542   1.320   2.898   6.625
 1215SOL     OW 4543   1.244   4.545   2.849
 1215SOL    HW1 4544   1.344   4.535   2.845
 1215SOL    HW2 4545   1.203   4.458   2.876
 1216SOL     OW 4546   5.057   0.298   1.229
 1216SOL    HW1 4547   5.115   0.360   1.281
 1216SOL    HW2 4548   5.026   0.343   1.145
 1217SOL     OW 4549   2.154   4.492   0.921
 1217SOL    HW1 4550   2.139   4.562   0.851
 1217SOL    HW2 4551   2.165   4.536   1.010
 1218SOL     OW 4552   1.524   4.074   4.662
 1218SOL    HW1 4553   1.513   4.172   4.678
 1218SOL    HW2 4554   1.445   4.040   4.610
 1219SOL     OW 4555   5.277   5.968   2.213
 1219SOL    HW1 4556   5.377   5.963   2.208
 1219SOL    HW2 4557   5.249   6.064   2.212
 1220SOL     OW 4558   0.645   4.577   3.118
 1220SOL    HW1 4559   0.701   4.529   3.185
 1220SOL    HW2 4560   0.680   4.558   3.026
 1221SOL     OW 4561   5.107   4.027   6.493
 1221SOL    HW1 4562   5.058   4.088   6.431
 1221SOL    HW2 4563   5.151   3.955   6.440
 1222SOL     OW 4564   6.956   0.763   0.075
 1222SOL    HW1 4565   6.977   0.781   7.006
 1222SOL    HW2 4566   6.858   0.744   0.085
 1223SOL     OW 4567   3.837   1.752   0.213
 1223SOL    HW1 4568   3.775   1.684   0.251
 1223SOL    HW2 4569   3.878   1.806   0.287
 1224SOL     OW 4570   3.500   5.791   0.787
 1224SOL    HW1 4571   3.553   5.725   0.840
 1224SOL    HW2 4572   3.429   5.830   0.845
 1225SOL     OW 4573   2.900   3.230   5.999
 1225SOL    HW1 4574   2.991   3.216   6.038
 1225SOL    HW2 4575   2.901   3.201   5.903
 1226SOL     OW 4576   2.762   5.928   1.604
 1226SOL    HW1 4577   2.743   5.830   1.599
 1226SOL    HW2 4578   2.677   5.978   1.618
 1227SOL     OW 4579   6.710   4.116   6.025
 1227SOL    HW1 4580   6.620   4.156   6.038
 1227SOL    HW2 4581   6.711   4.023   6.061
 1228SOL     OW 4582   3.237   1.916   6.178
 1228SOL    HW1 4583   3.295   1.880   6.105
 1228SOL    HW2 4584   3.289   1.983   6.231
 1229SOL     OW 4585   3.681   5.184   5.398
 1229SOL    HW1 4586   3.669   5.165   5.300
 1229SOL    HW2 4587   3.648   5.106   5.451
 1230SOL     OW 4588   4.622   7.001   2.751
 1230SOL    HW1 4589   4.609   6.911   2.792
 1230SOL    HW2 4590   4.551   0.037   2.785
 1231SOL     OW 4591   1.834   2.788   4.321
 1231SOL    HW1 4592   1.766   2.770   4.392
 1231SOL    HW2 4593   1.789   2.800   4.233
 1232SOL     OW 4594   0.707   1.927   4.915
 1232SOL    HW1 4595   0.702   1.877   4.828
 1232SOL    HW2 4596   0.729   1.863   4.989
 1233SOL     OW 4597   0.647   4.420   4.717
 1233SOL    HW1 4598   0.594   4.405   4.801
 1233SOL    HW2 4599   0.603   4.490   4.661
 1234SOL     OW 4600   6.406   3.781   5.182
 1234SOL    HW1 4601   6.482   3.741   5.131
 1234SOL    HW2 4602   6.333   3.807   5.118
 1235SOL     OW 4603   0.152   5.958   2.363
 1235SOL    HW1 4604   0.144   6.011   2.447
 1235SOL    HW2 4605   0.217   6.002   2.301
 1236SOL     OW 4606   4.495   1.749   6.876
 1236SOL    HW1 4607   4.507   1.657   6.914
 1236SOL    HW2 4608   4.584   1.792   6.863
 1237SOL     OW 4609   2.132   5.344   5.756
 1237SOL    HW1 4610   2.154   5.253   5.722
 1237SOL    HW2 4611   2.047   5.340   5.809
 1238SOL     OW 4612   2.517   1.314   0.307
 1238SOL    HW1 4613   2.588   1.262   0.352
 1238SOL    HW2 4614   2.557   1.394   0.262
 1239SOL     OW 4615   0.174   6.811   5.701
 1239SOL    HW1 4616   0.079   6.843   5.702
 1239SOL    HW2 4617   0.215   6.830   5.612
 1240SOL     OW 4618   5.259   6.245   2.159
 1240SOL    HW1 4619   5.287   6.275   2.068
 1240SOL    HW2 4620   5.270   6.321   2.224
 1241SOL     OW 4621   5.460   3.837   4.128
 1241SOL    HW1 4622   5.467   3.898   4.208
 1241SOL    HW2 4623   5.552   3.812   4.097
 1242SOL     OW 4624   0.272   3.313   1.521
 1242SOL    HW1 4625   0.371   3.307   1.511
 1242SOL    HW2 4626   0.232   3.348   1.436
 1243SOL     OW 4627   0.072   0.127   4.686
 1243SOL    HW1 4628   0.015   0.064   4.739
 1243SOL    HW2 4629   0.165   0.128   4.723
 1244SOL     OW 4630   6.610   0.068   4.194
 1244SOL    HW1 4631   6.562   0.095   4.277
 1244SOL    HW2 4632   6.637   6.999   4.200
 1245SOL     OW 4633   4.534   5.079   0.369
 1245SOL    HW1 4634   4.527   4.994   0.317
 1245SOL    HW2 4635   4.628   5.090   0.402
 1246SOL     OW 4636   2.350   6.301   1.405
 1246SOL    HW1 4637   2.250   6.299   1.418
 1246SOL    HW2 4638   2.391   6.225   1.454
 1247SOL     OW 4639   2.300   0.565   6.746
 1247SOL    HW1 4640   2.398   0.548   6.739
 1247SOL    HW2 4641   2.284   0.657   6.780
 1248SOL     OW 4642   2.303   0.370   5.165
 1248SOL    HW1 4643   2.205   0.382   5.178
 1248SOL    HW2 4644   2.330   0.406   5.075
 1249SOL     OW 4645   5.809   2.205   2.609
 1249SOL    HW1 4646   5.883   2.138   2.603
 1249SOL    HW2 4647   5.817   2.271   2.535
 1250SOL     OW 4648   6.206   5.151   4.386
 1250SOL    HW1 4649   6.294   5.107   4.402
 1250SOL    HW2 4650   6.135   5.101   4.435
 1251SOL     OW 4651   3.192   0.554   4.557
 1251SOL    HW1 4652   3.239   0.492   4.495
 1251SOL    HW2 4653   3.144   0.625   4.505
 1252SOL     OW 4654   3.834   3.181   4.698
 1252SOL    HW1 4655   3.814   3.085   4.680
 1252SOL    HW2 4656   3.929   3.200   4.676
 1253SOL     OW 4657   3.530   5.270   1.935
 1253SOL    HW1 4658   3.530   5.176   1.966
 1253SOL    HW2 4659   3.476   5.327   1.997
 1254SOL     OW 4660   0.877   2.556   2.688
 1254SOL    HW1 4661   0.815   2.520   2.618
 1254SOL    HW2 4662   0.843   2.642   2.723
 1255SOL     OW 4663   6.363   2.167   4.908
 1255SOL    HW1 4664   6.419   2.145   4.987
 1255SOL    HW2 4665   6.415   2.150   4.824
 1256SOL     OW 4666   6.776   6.628   3.581
 1256SOL    HW1 4667   6.800   6.565   3.507
 1256SOL    HW2 4668   6.860   6.670   3.617
 1257SOL     OW 4669   0.347   6.603   4.480
 1257SOL    HW1 4670   0.362   6.662   4.559
 1257SOL    HW2 4671   0.368   6.509   4.504
 1258SOL     OW 4672   1.651   5.477   3.637
 1258SOL    HW1 4673   1.665   5.493   3.539
 1258SOL    HW2 4674   1.578   5.410   3.649
 1259SOL     OW 4675   3.811   1.399   4.142
 1259SOL    HW1 4676   3.897   1.386   4.192
 1259SOL    HW2 4677   3.825   1.377   4.046
 1260SOL     OW 4678   1.587   1.593   6.814
 1260SOL    HW1 4679   1.638   1.637   6.740
 1260SOL    HW2 4680   1.629   1.614   6.902
 1261SOL     OW 4681   0.476   5.625   6.682
 1261SOL    HW1 4682   0.503   5.642   6.777
 1261SOL    HW2 4683   0.531   5.550   6.645
 1262SOL     OW 4684   4.800   4.028   1.374
 1262SOL    HW1 4685   4.714   4.065   1.338
 1262SOL    HW2 4686   4.871   4.099   1.371
 1263SOL     OW 4687   0.623   1.689   2.331
 1263SOL    HW1 4688   0.703   1.734   2.290
 1263SOL    HW2 4689   0.625   1.592   2.307
 1264SOL     OW 4690   0.148   4.413   0.227
 1264SOL    HW1 4691   0.060   4.426   0.272
 1264SOL    HW2 4692   0.137   4.353   0.148
 1265SOL     OW 4693   5.879   5.007   4.772
 1265SOL    HW1 4694   5.798   4.990   4.718
 1265SOL    HW2 4695   5.931   4.922   4.782
 1266SOL     OW 4696   0.232   0.977   4.287
 1266SOL    HW1 4697   0.233   1.077   4.283
 1266SOL    HW2 4698   0.308   0.941   4.234
 1267SOL     OW 4699   5.766   1.259   0.947
 1267SOL    HW1 4700   5.781   1.236   0.851
 1267SOL    HW2 4701   5.795   1.354   0.963
 1268SOL     OW 4702   2.666   2.991   6.601
 1268SOL    HW1 4703   2.698   3.044   6.523
 1268SOL    HW2 4704   2.575   2.955   6.582
 1269SOL     OW 4705   5.895   3.310   4.335
 1269SOL    HW1 4706   5.988   3.338   4.312
 1269SOL    HW2 4707   5.837   3.391   4.345
 1270SOL     OW 4708   1.766   4.468   2.690
 1270SOL    HW1 4709   1.850   4.424   2.659
 1270SOL    HW2 4710   1.734   4.532   2.619
 1271SOL     OW 4711   3.837   1.861   2.937
 1271SOL    HW1 4712   3.909   1.841   2.870
 1271SOL    HW2 4713   3.798   1.950   2.917
 1272SOL     OW 4714   5.448   5.150   6.864
 1272SOL    HW1 4715   5.509   5.155   6.785
 1272SOL    HW2 4716   5.484   5.084   6.930
 1273SOL     OW 4717   1.068   4.099   5.953
 1273SOL    HW1 4718   1.147   4.062   5.904
 1273SOL    HW2 4719   1.068   4.198   5.945
 1274SOL     OW 4720   0.258   4.519   1.028
 1274SOL    HW1 4721   0.191   4.588   0.999
 1274SOL    HW2 4722   0.228   4.478   1.114
 1275SOL     OW 4723   3.320   2.070   3.428
 1275SOL    HW1 4724   3.309   2.090   3.525
 1275SOL    HW2 4725   3.412   2.096   3.398
 1276SOL     OW 4726   5.755   4.630   5.223
 1276SOL    HW1 4727   5.759   4.634   5.124
 1276SOL    HW2 4728   5.667   4.666   5.255
 1277SOL     OW 4729   2.123   5.264   6.195
 1277SOL    HW1 4730   2.220   5.240   6.198
 1277SOL    HW2 4731   2.109   5.353   6.239
 1278SOL     OW 4732   1.324   0.354   4.981
 1278SOL    HW1 4733   1.305   0.438   5.032
 1278SOL    HW2 4734   1.302   0.274   5.038
 1279SOL     OW 4735   2.012   4.857   6.819
 1279SOL    HW1 4736   2.092   4.816   6.774
 1279SOL    HW2 4737   1.940   4.873   6.751
 1280SOL     OW 4738   4.495   6.421   3.940
 1280SOL    HW1 4739   4.469   6.414   4.036
 1280SOL    HW2 4740   4.481   6.332   3.896
 1281SOL     OW 4741   2.595   6.173   2.930
 1281SOL    HW1 4742   2.506   6.134   2.953
 1281SOL    HW2 4743   2.667   6.108   2.953
 1282SOL     OW 4744   6.422   1.891   6.274
 1282SOL    HW1 4745   6.366   1.923   6.351
 1282SOL    HW2 4746   6.371   1.905   6.189
 1283SOL     OW 4747   6.738   2.902   5.081
 1283SOL    HW1 4748   6.838   2.901   5.076
 1283SOL    HW2 4749   6.701   2.877   4.991
 1284SOL     OW 4750   4.319   1.697   1.670
 1284SOL    HW1 4751   4.310   1.616   1.613
 1284SOL    HW2 4752   4.359   1.771   1.617
 1285SOL     OW 4753   4.799   1.398   5.391
 1285SOL    HW1 4754   4.830   1.426   5.482
 1285SOL    HW2 4755   4.853   1.446   5.321
 1286SOL     OW 4756   4.499   2.848   0.746
 1286SOL    HW1 4757   4.423   2.903   0.712
 1286SOL    HW2 4758   4.496   2.844   0.846
 1287SOL     OW 4759   5.398   4.343   5.664
 1287SOL    HW1 4760   5.310   4.353   5.712
 1287SOL    HW2 4761   5.472   4.374   5.724
 1288SOL     OW 4762   3.847   3.871   6.116
 1288SOL    HW1 4763   3.761   3.923   6.108
 1288SOL    HW2 4764   3.881   3.878   6.210
 1289SOL     OW 4765   0.736   0.202   1.100
 1289SOL    HW1 4766   0.716   0.209   1.197
 1289SOL    HW2 4767   0.665   0.249   1.048
 1290SOL     OW 4768   1.609   0.012   0.449
 1290SOL    HW1 4769   1.566   0.009   0.540
 1290SOL    HW2 4770   1.688   6.977   0.448
 1291SOL     OW 4771   0.300   4.226   3.956
 1291SOL    HW1 4772   0.373   4.275   3.909
 1291SOL    HW2 4773   0.223   4.212   3.893
 1292SOL     OW 4774   0.605   5.938   2.512
 1292SOL    HW1 4775   0.564   5.991   2.438
 1292SOL    HW2 4776   0.705   5.939   2.503
 1293SOL     OW 4777   2.533   2.396   6.686
 1293SOL    HW1 4778   2.445   2.352   6.707
 1293SOL    HW2 4779   2.516   2.486   6.644
 1294SOL     OW 4780   0.378   3.302   5.809
 1294SOL    HW1 4781   0.396   3.312   5.711
 1294SOL    HW2 4782   0.462   3.317   5.861
 1295SOL     OW 4783   0.214   3.520   1.096
 1295SOL    HW1 4784   0.225   3.619   1.105
 1295SOL    HW2 4785   0.288   3.483   1.040
 1296SOL     OW 4786   4.722   6.910   5.117
 1296SOL    HW1 4787   4.772   6.875   5.038
 1296SOL    HW2 4788   4.786   6.946   5.185
 1297SOL     OW 4789   0.943   6.859   1.111
 1297SOL    HW1 4790   0.938   6.954   1.078
 1297SOL    HW2 4791   0.878   6.846   1.185
 1298SOL     OW 4792   4.855   6.079   3.454
 1298SOL    HW1 4793   4.922   6.060   3.382
 1298SOL    HW2 4794   4.842   6.178   3.462
 1299SOL     OW 4795   2.369   2.464   3.580
 1299SOL    HW1 4796   2.420   2.507   3.654
 1299SOL    HW2 4797   2.321   2.535   3.528
 1300SOL     OW 4798   2.229   3.291   0.662
 1300SOL    HW1 4799   2.294   3.291   0.738
 1300SOL    HW2 4800   2.208   3.385   0.635
 1301SOL     OW 4801   0.597   6.663   1.742
 1301SOL    HW1 4802   0.532   6.591   1.767
 1301SOL    HW2 4803   0.554   6.727   1.679
 1302SOL     OW 4804   5.281   0.053   5.289
 1302SOL    HW1 4805   5.231   0.080   5.207
 1302SOL    HW2 4806   5.230   0.082   5.370
 1303SOL     OW 4807   4.332   1.034   1.344
 1303SOL    HW1 4808   4.424   1.068   1.322
 1303SOL    HW2 4809   4.277   1.032   1.261
 1304SOL     OW 4810   2.036   0.148   0.789
 1304SOL    HW1 4811   1.982   0.107   0.716
 1304SOL    HW2 4812   2.055   0.244   0.766
 1305SOL     OW 4813   6.008   4.180   0.501
 1305SOL    HW1 4814   6.004   4.090   0.545
 1305SOL    HW2 4815   5.918   4.225   0.509
 1306SOL     OW 4816   1.147   5.972   4.290
 1306SOL    HW1 4817   1.211   6.006   4.359
 1306SOL    HW2 4818   1.162   6.020   4.204
 1307SOL     OW 4819   1.937   4.292   4.250
 1307SOL    HW1 4820   1.929   4.198   4.217
 1307SOL    HW2 4821   1.979   4.349   4.180
 1308SOL     OW 4822   0.040   6.809   6.031
 1308SOL    HW1 4823   0.109   6.785   5.963
 1308SOL    HW2 4824   7.027   6.725   6.069
 1309SOL     OW 4825   5.867   4.808   5.834
 1309SOL    HW1 4826   5.924   4.730   5.809
 1309SOL    HW2 4827   5.794   4.819   5.766
 1310SOL     OW 4828   0.254   3.551   2.925
 1310SOL    HW1 4829   0.175   3.588   2.877
 1310SOL    HW2 4830   0.253   3.583   3.020
 1311SOL     OW 4831   0.144   6.024   6.078
 1311SOL    HW1 4832   0.136   6.041   6.176
 1311SOL    HW2 4833   0.080   5.952   6.051
 1312SOL     OW 4834   1.575   6.342   0.160
 1312SOL    HW1 4835   1.665   6.360   0.120
 1312SOL    HW2 4836   1.504   6.382   0.102
 1313SOL     OW 4837   6.994   4.995   2.728
 1313SOL    HW1 4838   6.980   5.083   2.773
 1313SOL    HW2 4839   0.040   4.944   2.775
 1314SOL     OW 4840   3.764   1.232   4.736
 1314SOL    HW1 4841   3.852   1.194   4.766
 1314SOL    HW2 4842   3.696   1.217   4.808
 1315SOL     OW 4843   6.824   1.311   2.995
 1315SOL    HW1 4844   6.822   1.230   3.053
 1315SOL    HW2 4845   6.891   1.376   3.031
 1316SOL     OW 4846   3.706   0.103   5.875
 1316SOL    HW1 4847   3.771   0.043   5.827
 1316SOL    HW2 4848   3.651   0.048   5.937
 1317SOL     OW 4849   1.477   4.227   5.840
 1317SOL    HW1 4850   1.396   4.281   5.816
 1317SOL    HW2 4851   1.459   4.174   5.923
 1318SOL     OW 4852   1.097   2.683   0.397
 1318SOL    HW1 4853   1.141   2.762   0.440
 1318SOL    HW2 4854   1.005   2.671   0.435
 1319SOL     OW 4855   6.981   6.008   0.836
 1319SOL    HW1 4856   6.923   6.076   0.790
 1319SOL    HW2 4857   6.964   5.918   0.797
 1320SOL     OW 4858   3.422   3.933   0.063
 1320SOL    HW1 4859   3.347   3.895   0.119
 1320SOL    HW2 4860   3.439   4.027   0.090
 1321SOL     OW 4861   4.992   3.150   6.165
 1321SOL    HW1 4862   4.976   3.076   6.230
 1321SOL    HW2 4863   4.923   3.146   6.092
 1322SOL     OW 4864   3.689   1.727   4.437
 1322SOL    HW1 4865   3.748   1.743   4.517
 1322SOL    HW2 4866   3.629   1.806   4.425
 1323SOL     OW 4867   3.400   6.945   6.466
 1323SOL    HW1 4868   3.303   6.926   6.479
 1323SOL    HW2 4869   3.446   6.947   6.555
 1324SOL     OW 4870   0.196   3.022   6.523
 1324SOL    HW1 4871   0.199   3.053   6.618
 1324SOL    HW2 4872   0.208   3.100   6.462
 1325SOL     OW 4873   3.594   6.315   5.104
 1325SOL    HW1 4874   3.624   6.397   5.056
 1325SOL    HW2 4875   3.656   6.295   5.179
 1326SOL     OW 4876   4.855   3.525   5.392
 1326SOL    HW1 4877   4.887   3.435   5.421
 1326SOL    HW2 4878   4.799   3.515   5.309
 1327SOL     OW 4879   1.432   6.200   0.764
 1327SOL    HW1 4880   1.486   6.284   0.754
 1327SOL    HW2 4881   1.337   6.218   0.739
 1328SOL     OW 4882   2.295   3.409   0.289
 1328SOL    HW1 4883   2.257   3.324   0.253
 1328SOL    HW2 4884   2.349   3.388   0.371
 1329SOL     OW 4885   0.529   2.555   2.828
 1329SOL    HW1 4886   0.574   2.472   2.861
 1329SOL    HW2 4887   0.450   2.530   2.772
 1330SOL     OW 4888   1.838   1.906   1.484
 1330SOL    HW1 4889   1.837   1.807   1.472
 1330SOL    HW2 4890   1.744   1.940   1.489
 1331SOL     OW 4891   4.705   2.780   3.506
 1331SOL    HW1 4892   4.681   2.707   3.442
 1331SOL    HW2 4893   4.740   2.859   3.456
 1332SOL     OW 4894   2.879   0.008   1.060
 1332SOL    HW1 4895   2.924   0.065   1.129
 1332SOL    HW2 4896   2.780   0.018   1.068
 1333SOL     OW 4897   2.864   3.508   3.008
 1333SOL    HW1 4898   2.859   3.411   2.986
 1333SOL    HW2 4899   2.942   3.524   3.070
 1334SOL     OW 4900   6.539   1.294   3.905
 1334SOL    HW1 4901   6.552   1.393   3.898
 1334SOL    HW2 4902   6.442   1.272   3.901
 1335SOL     OW 4903   2.440   2.224   2.327
 1335SOL    HW1 4904   2.346   2.191   2.314
 1335SOL    HW2 4905   2.484   2.169   2.398
 1336SOL     OW 4906   2.881   1.639   4.803
 1336SOL    HW1 4907   2.885   1.687   4.891
 1336SOL    HW2 4908   2.827   1.693   4.739
 1337SOL     OW 4909   1.066   1.732   2.959
 1337SOL    HW1 4910   0.976   1.698   2.985
 1337SOL    HW2 4911   1.126   1.735   3.039
 1338SOL     OW 4912   6.721   2.800   4.819
 1338SOL    HW1 4913   6.705   2.703   4.840
 1338SOL    HW2 4914   6.633   2.848   4.818
 1339SOL     OW 4915   6.255   2.220   6.973
 1339SOL    HW1 4916   6.332   2.163   7.003
 1339SOL    HW2 4917   6.194   2.166   6.915
 1340SOL     OW 4918   5.162   1.333   2.608
 1340SOL    HW1 4919   5.228   1.309   2.679
 1340SOL    HW2 4920   5.123   1.423   2.627
 1341SOL     OW 4921   4.611   6.900   6.433
 1341SOL    HW1 4922   4.514   6.896   6.458
 1341SOL    HW2 4923   4.661   6.950   6.503
 1342SOL     OW 4924   3.065   5.470   6.400
 1342SOL    HW1 4925   3.062   5.553   6.456
 1342SOL    HW2 4926   2.976   5.457   6.355
 1343SOL     OW 4927   5.572   5.757   2.720
 1343SOL    HW1 4928   5.595   5.746   2.816
 1343SOL    HW2 4929   5.492   5.701   2.698
 1344SOL     OW 4930   0.456   5.968   4.520
 1344SOL    HW1 4931   0.365   6.008   4.525
 1344SOL    HW2 4932   0.490   5.949   4.612
 1345SOL     OW 4933   0.731   5.674   2.677
 1345SOL    HW1 4934   0.743   5.679   2.776
 1345SOL    HW2 4935   0.804   5.619   2.637
 1346SOL     OW 4936   2.033   5.461   5.071
 1346SOL    HW1 4937   1.941   5.428   5.050
 1346SOL    HW2 4938   2.100   5.396   5.038
 1347SOL     OW 4939   6.934   6.868   5.715
 1347SOL    HW1 4940   6.839   6.880   5.685
 1347SOL    HW2 4941   6.960   6.945   5.774
 1348SOL     OW 4942   6.797   6.380   4.650
 1348SOL    HW1 4943   6.784   6.460   4.591
 1348SOL    HW2 4944   6.817   6.300   4.593
 1349SOL     OW 4945   5.604   2.935   5.291
 1349SOL    HW1 4946   5.554   2.993   5.226
 1349SOL    HW2 4947   5.601   2.840   5.261
 1350SOL     OW 4948   5.306   4.921   5.609
 1350SOL    HW1 4949   5.258   4.888   5.528
 1350SOL    HW2 4950   5.245   4.915   5.688
 1351SOL     OW 4951   5.505   2.129   3.560
 1351SOL    HW1 4952   5.472   2.142   3.653
 1351SOL    HW2 4953   5.476   2.206   3.503
 1352SOL     OW 4954   6.318   5.900   4.024
 1352SOL    HW1 4955   6.266   5.815   4.033
 1352SOL    HW2 4956   6.358   5.905   3.933
 1353SOL     OW 4957   0.713   2.516   0.045
 1353SOL    HW1 4958   0.685   2.528   0.140
 1353SOL    HW2 4959   0.802   2.560   0.030
 1354SOL     OW 4960   0.360   4.468   1.720
 1354SOL    HW1 4961   0.431   4.400   1.742
 1354SOL    HW2 4962   0.271   4.432   1.746
 1355SOL     OW 4963   6.176   3.780   4.235
 1355SOL    HW1 4964   6.269   3.766   4.271
 1355SOL    HW2 4965   6.155   3.708   4.169
 1356SOL     OW 4966   3.352   2.904   2.339
 1356SOL    HW1 4967   3.346   2.899   2.439
 1356SOL    HW2 4968   3.427   2.845   2.308
 1357SOL     OW 4969   0.305   4.396   6.569
 1357SOL    HW1 4970   0.346   4.484   6.591
 1357SOL    HW2 4971   0.264   4.400   6.478
 1358SOL     OW 4972   5.847   6.621   6.477
 1358SOL    HW1 4973   5.822   6.712   6.444
 1358SOL    HW2 4974   5.938   6.596   6.444
 1359SOL     OW 4975   5.704   4.873   2.637
 1359SOL    HW1 4976   5.725   4.879   2.735
 1359SOL    HW2 4977   5.723   4.961   2.594
 1360SOL     OW 4978   2.812   3.689   0.444
 1360SOL    HW1 4979   2.724   3.655   0.479
 1360SOL    HW2 4980   2.871   3.612   0.422
 1361SOL     OW 4981   6.393   4.709   5.242
 1361SOL    HW1 4982   6.322   4.756   5.296
 1361SOL    HW2 4983   6.405   4.617   5.278
 1362SOL     OW 4984   3.938   3.979   3.421
 1362SOL    HW1 4985   4.005   3.971   3.348
 1362SOL    HW2 4986   3.986   3.988   3.509
 1363SOL     OW 4987   0.182   4.933   4.411
 1363SOL    HW1 4988   0.185   4.834   4.394
 1363SOL    HW2 4989   0.226   4.953   4.499
 1364SOL     OW 4990   5.093   4.313   0.491
 1364SOL    HW1 4991   5.107   4.392   0.432
 1364SOL    HW2 4992   5.179   4.291   0.539
 1365SOL     OW 4993   0.224   4.406   6.315
 1365SOL    HW1 4994   0.150   4.415   6.248
 1365SOL    HW2 4995   0.300   4.464   6.289
 1366SOL     OW 4996   1.788   6.029   6.611
 1366SOL    HW1 4997   1.778   6.054   6.515
 1366SOL    HW2 4998   1.786   5.930   6.620
 1367SOL     OW 4999   2.351   6.937   3.152
 1367SOL    HW1 5000   2.271   6.878   3.151
 1367SOL    HW2 5001   2.429   6.886   3.189
 1368SOL     OW 5002   5.504   6.734   3.935
 1368SOL    HW1 5003   5.444   6.742   3.855
 1368SOL    HW2 5004   5.546   6.644   3.936
 1369SOL     OW 5005   2.087   6.401   2.954
 1369SOL    HW1 5006   2.149   6.465   2.999
 1369SOL    HW2 5007   2.015   6.374   3.018
 1370SOL     OW 5008   3.349   1.274   1.608
 1370SOL    HW1 5009   3.272   1.294   1.548
 1370SOL    HW2 5010   3.434   1.301   1.562
 1371SOL     OW 5011   5.400   1.420   4.086
 1371SOL    HW1 5012   5.371   1.513   4.065
 1371SOL    HW2 5013   5.431   1.415   4.181
 1372SOL     OW 5014   1.565   2.744   0.459
 1372SOL    HW1 5015   1.584   2.758   0.556
 1372SOL    HW2 5016   1.630   2.797   0.404
 1373SOL     OW 5017   6.262   4.256   0.224
 1373SOL    HW1 5018   6.210   4.241   0.140
 1373SOL    HW2 5019   6.359   4.268   0.201
 1374SOL     OW 5020   3.706   1.992   0.540
 1374SOL    HW1 5021   3.710   2.056   0.463
 1374SOL    HW2 5022   3.614   1.955   0.547
 1375SOL     OW 5023   0.256   4.716   6.048
 1375SOL    HW1 5024   0.215   4.659   5.977
 1375SOL    HW2 5025   0.316   4.784   6.006
 1376SOL     OW 5026   4.893   3.446   4.105
 1376SOL    HW1 5027   4.993   3.441   4.099
 1376SOL    HW2 5028   4.855   3.354   4.104
 1377SOL     OW 5029   6.786   3.920   5.135
 1377SOL    HW1 5030   6.794   3.953   5.229
 1377SOL    HW2 5031   6.739   3.989   5.080
 1378SOL     OW 5032   6.112   2.224   5.000
 1378SOL    HW1 5033   6.203   2.223   4.958
 1378SOL    HW2 5034   6.063   2.140   4.975
 1379SOL     OW 5035   3.285   0.107   2.212
 1379SOL    HW1 5036   3.329   0.156   2.287
 1379SOL    HW2 5037   3.192   0.082   2.239
 1380SOL     OW 5038   0.259   0.388   2.033
 1380SOL    HW1 5039   0.272   0.317   2.103
 1380SOL    HW2 5040   0.224   0.471   2.076
 1381SOL     OW 5041   5.138   2.852   0.362
 1381SOL    HW1 5042   5.200   2.785   0.321
 1381SOL    HW2 5043   5.186   2.901   0.436
 1382SOL     OW 5044   5.592   4.365   6.917
 1382SOL    HW1 5045   5.558   4.310   6.840
 1382SOL    HW2 5046   5.623   4.304   6.990
 1383SOL     OW 5047   0.945   1.233   0.640
 1383SOL    HW1 5048   0.924   1.138   0.662
 1383SOL    HW2 5049   0.923   1.292   0.718
 1384SOL     OW 5050   4.004   1.248   2.862
 1384SOL    HW1 5051   3.986   1.226   2.958
 1384SOL    HW2 5052   4.054   1.173   2.819
 1385SOL     OW 5053   0.400   2.983   2.756
 1385SOL    HW1 5054   0.330   2.919   2.724
 1385SOL    HW2 5055   0.387   3.071   2.711
 1386SOL     OW 5056   2.466   1.894   4.505
 1386SOL    HW1 5057   2.488   1.988   4.480
 1386SOL    HW2 5058   2.376   1.869   4.467
 1387SOL     OW 5059   3.983   0.586   3.379
 1387SOL    HW1 5060   3.948   0.644   3.454
 1387SOL    HW2 5061   3.977   0.636   3.293
 1388SOL     OW 5062   6.968   6.522   4.178
 1388SOL    HW1 5063   6.876   6.492   4.205
 1388SOL    HW2 5064   6.970   6.539   4.080
 1389SOL     OW 5065   0.350   1.140   3.601
 1389SOL    HW1 5066   0.401   1.206   3.545
 1389SOL    HW2 5067   0.257   1.175   3.616
 1390SOL     OW 5068   4.395   1.895   6.466
 1390SOL    HW1 5069   4.428   1.807   6.501
 1390SOL    HW2 5070   4.304   1.914   6.504
 1391SOL     OW 5071   5.959   1.771   5.885
 1391SOL    HW1 5072   5.878   1.799   5.834
 1391SOL    HW2 5073   5.932   1.716   5.964
 1392SOL     OW 5074   5.059   5.864   5.777
 1392SOL    HW1 5075   5.025   5.790   5.719
 1392SOL    HW2 5076   4.998   5.943   5.770
 1393SOL     OW 5077   5.946   2.928   6.898
 1393SOL    HW1 5078   5.955   2.838   6.941
 1393SOL    HW2 5079   5.853   2.962   6.909
 1394SOL     OW 5080   3.863   6.407   4.020
 1394SOL    HW1 5081   3.922   6.445   3.949
 1394SOL    HW2 5082   3.854   6.473   4.095
 1395SOL     OW 5083   0.306   4.093   2.716
 1395SOL    HW1 5084   0.406   4.085   2.707
 1395SOL    HW2 5085   0.266   4.106   2.625
 1396SOL     OW 5086   2.085   6.993   4.343
 1396SOL    HW1 5087   2.053   0.023   4.418
 1396SOL    HW2 5088   2.054   6.899   4.356
 1397SOL     OW 5089   0.426   6.002   5.124
 1397SOL    HW1 5090   0.404   5.907   5.103
 1397SOL    HW2 5091   0.522   6.010   5.148
 1398SOL     OW 5092   2.048   1.061   1.299
 1398SOL    HW1 5093   2.027   1.002   1.377
 1398SOL    HW2 5094   1.979   1.049   1.228
 1399SOL     OW 5095   4.454   0.498   0.862
 1399SOL    HW1 5096   4.525   0.478   0.930
 1399SOL    HW2 5097   4.491   0.482   0.770
 1400SOL     OW 5098   6.435   0.769   4.405
 1400SOL    HW1 5099   6.434   0.677   4.367
 1400SOL    HW2 5100   6.506   0.823   4.359
 1401SOL     OW 5101   5.619   0.183   4.048
 1401SOL    HW1 5102   5.659   0.099   4.011
 1401SOL    HW2 5103   5.691   0.237   4.091
 1402SOL     OW 5104   5.929   4.286   0.020
 1402SOL    HW1 5105   5.930   4.386   0.025
 1402SOL    HW2 5106   5.949   4.248   0.110
 1403SOL     OW 5107   2.889   3.310   0.469
 1403SOL    HW1 5108   2.901   3.363   0.553
 1403SOL    HW2 5109   2.889   3.213   0.491
 1404SOL     OW 5110   4.764   0.355   1.033
 1404SOL    HW1 5111   4.810   0.320   0.951
 1404SOL    HW2 5112   4.765   0.455   1.032
 1405SOL     OW 5113   1.523   3.622   0.858
 1405SOL    HW1 5114   1.480   3.702   0.816
 1405SOL    HW2 5115   1.462   3.583   0.927
 1406SOL     OW 5116   2.311   4.033   1.699
 1406SOL    HW1 5117   2.377   4.105   1.681
 1406SOL    HW2 5118   2.222   4.058   1.659
 1407SOL     OW 5119   0.731   3.353   2.025
 1407SOL    HW1 5120   0.718   3.318   2.118
 1407SOL    HW2 5121   0.825   3.384   2.014
 1408SOL     OW 5122   6.400   6.644   6.889
 1408SOL    HW1 5123   6.336   6.600   6.951
 1408SOL    HW2 5124   6.486   6.661   6.937
 1409SOL     OW 5125   6.652   1.173   5.520
 1409SOL    HW1 5126   6.664   1.087   5.569
 1409SOL    HW2 5127   6.716   1.178   5.443
 1410SOL     OW 5128   2.297   3.152   6.303
 1410SOL    HW1 5129   2.369   3.201   6.351
 1410SOL    HW2 5130   2.213   3.155   6.356
 1411SOL     OW 5131   3.756   6.238   6.826
 1411SOL    HW1 5132   3.814   6.191   6.759
 1411SOL    HW2 5133   3.671   6.267   6.783
 1412SOL     OW 5134   0.477   3.482   0.824
 1412SOL    HW1 5135   0.452   3.579   0.832
 1412SOL    HW2 5136   0.461   3.436   0.911
 1413SOL     OW 5137   1.561   1.798   4.703
 1413SOL    HW1 5138   1.611   1.861   4.763
 1413SOL    HW2 5139   1.617   1.718   4.684
 1414SOL     OW 5140   1.146   3.036   1.926
 1414SOL    HW1 5141   1.232   3.088   1.933
 1414SOL    HW2 5142   1.152   2.972   1.849
 1415SOL     OW 5143   2.557   1.803   4.771
 1415SOL    HW1 5144   2.513   1.810   4.681
 1415SOL    HW2 5145   2.643   1.853   4.769
 1416SOL     OW 5146   3.996   0.640   5.023
 1416SOL    HW1 5147   4.092   0.612   5.015
 1416SOL    HW2 5148   3.952   0.588   5.096
 1417SOL     OW 5149   3.243   3.605   5.984
 1417SOL    HW1 5150   3.337   3.584   6.011
 1417SOL    HW2 5151   3.213   3.541   5.912
 1418SOL     OW 5152   3.580   4.018   0.460
 1418SOL    HW1 5153   3.534   4.067   0.386
 1418SOL    HW2 5154   3.650   4.076   0.501
 1419SOL     OW 5155   1.543   4.684   3.867
 1419SOL    HW1 5156   1.522   4.597   3.821
 1419SOL    HW2 5157   1.538   4.671   3.966
 1420SOL     OW 5158   4.270   5.061   2.998
 1420SOL    HW1 5159   4.327   5.028   2.924
 1420SOL    HW2 5160   4.323   5.122   3.057
 1421SOL     OW 5161   0.716   4.848   4.352
 1421SOL    HW1 5162   0.725   4.789   4.272
 1421SOL    HW2 5163   0.650   4.808   4.416
 1422SOL     OW 5164   2.443   4.317   5.644
 1422SOL    HW1 5165   2.532   4.329   5.687
 1422SOL    HW2 5166   2.386   4.397   5.662
 1423SOL     OW 5167   4.144   1.878   4.503
 1423SOL    HW1 5168   4.169   1.849   4.595
 1423SOL    HW2 5169   4.090   1.806   4.459
 1424SOL     OW 5170   6.848   4.001   6.442
 1424SOL    HW1 5171   6.888   4.080   6.489
 1424SOL    HW2 5172   6.752   4.020   6.421
 1425SOL     OW 5173   3.270   6.379   5.103
 1425SOL    HW1 5174   3.202   6.411   5.169
 1425SOL    HW2 5175   3.350   6.438   5.107
 1426SOL     OW 5176   2.362   1.706   6.718
 1426SOL    HW1 5177   2.286   1.644   6.701
 1426SOL    HW2 5178   2.446   1.654   6.732
 1427SOL     OW 5179   1.245   0.297   3.295
 1427SOL    HW1 5180   1.299   0.313   3.377
 1427SOL    HW2 5181   1.289   0.341   3.217
 1428SOL     OW 5182   0.055   2.677   1.956
 1428SOL    HW1 5183   0.144   2.705   1.921
 1428SOL    HW2 5184   0.057   2.580   1.980
 1429SOL     OW 5185   6.394   1.203   6.626
 1429SOL    HW1 5186   6.397   1.236   6.531
 1429SOL    HW2 5187   6.373   1.105   6.626
 1430SOL     OW 5188   2.553   4.650   4.351
 1430SOL    HW1 5189   2.493   4.717   4.308
 1430SOL    HW2 5190   2.570   4.676   4.446
 1431SOL     OW 5191   2.789   1.612   5.493
 1431SOL    HW1 5192   2.753   1.636   5.583
 1431SOL    HW2 5193   2.715   1.581   5.434
 1432SOL     OW 5194   2.307   1.371   0.896
 1432SOL    HW1 5195   2.297   1.274   0.921
 1432SOL    HW2 5196   2.396   1.384   0.851
 1433SOL     OW 5197   3.660   0.428   3.383
 1433SOL    HW1 5198   3.653   0.419   3.483
 1433SOL    HW2 5199   3.753   0.405   3.354
 1434SOL     OW 5200   0.440   2.229   6.871
 1434SOL    HW1 5201   0.504   2.250   6.798
 1434SOL    HW2 5202   0.441   2.303   6.939
 1435SOL     OW 5203   0.624   0.357   3.844
 1435SOL    HW1 5204   0.660   0.431   3.787
 1435SOL    HW2 5205   0.588   0.285   3.785
 1436SOL     OW 5206   5.652   3.722   0.880
 1436SOL    HW1 5207   5.633   3.639   0.932
 1436SOL    HW2 5208   5.634   3.802   0.938
 1437SOL     OW 5209   3.949   1.459   6.146
 1437SOL    HW1 5210   3.900   1.416   6.221
 1437SOL    HW2 5211   3.926   1.556   6.141
 1438SOL     OW 5212   2.945   1.006   1.653
 1438SOL    HW1 5213   2.944   0.936   1.581
 1438SOL    HW2 5214   2.927   1.095   1.612
 1439SOL     OW 5215   0.548   6.038   0.169
 1439SOL    HW1 5216   0.590   6.094   0.241
 1439SOL    HW2 5217   0.563   5.941   0.191
 1440SOL     OW 5218   3.315   3.744   3.805
 1440SOL    HW1 5219   3.315   3.730   3.706
 1440SOL    HW2 5220   3.409   3.739   3.840
 1441SOL     OW 5221   6.545   3.179   3.399
 1441SOL    HW1 5222   6.496   3.119   3.462
 1441SOL    HW2 5223   6.540   3.273   3.432
 1442SOL     OW 5224   5.278   4.768   1.140
 1442SOL    HW1 5225   5.326   4.855   1.150
 1442SOL    HW2 5226   5.334   4.704   1.088
 1443SOL     OW 5227   1.098   0.328   3.748
 1443SOL    HW1 5228   1.095   0.403   3.682
 1443SOL    HW2 5229   1.071   0.362   3.839
 1444SOL     OW 5230   4.085   6.082   3.166
 1444SOL    HW1 5231   4.159   6.030   3.124
 1444SOL    HW2 5232   4.123   6.149   3.229
 1445SOL     OW 5233   0.323   2.931   1.643
 1445SOL    HW1 5234   0.390   2.928   1.569
 1445SOL    HW2 5235   0.234   2.958   1.607
 1446SOL     OW 5236   4.780   2.767   0.219
 1446SOL    HW1 5237   4.846   2.841   0.212
 1446SOL    HW2 5238   4.829   2.681   0.238
 1447SOL     OW 5239   6.544   0.875   5.195
 1447SOL    HW1 5240   6.538   0.969   5.162
 1447SOL    HW2 5241   6.626   0.864   5.251
 1448SOL     OW 5242   6.215   1.651   0.778
 1448SOL    HW1 5243   6.151   1.577   0.801
 1448SOL    HW2 5244   6.197   1.729   0.838
 1449SOL     OW 5245   6.195   6.590   0.651
 1449SOL    HW1 5246   6.186   6.667   0.713
 1449SOL    HW2 5247   6.182   6.621   0.557
 1450SOL     OW 5248   6.740   2.877   2.674
 1450SOL    HW1 5249   6.773   2.786   2.650
 1450SOL    HW2 5250   6.679   2.872   2.753
 1451SOL     OW 5251   3.069   0.353   2.751
 1451SOL    HW1 5252   2.970   0.341   2.761
 1451SOL    HW2 5253   3.087   0.415   2.675
 1452SOL     OW 5254   5.041   0.799   4.663
 1452SOL    HW1 5255   4.954   0.842   4.688
 1452SOL    HW2 5256   5.075   0.838   4.578
 1453SOL     OW 5257   5.595   3.350   4.667
 1453SOL    HW1 5258   5.640   3.410   4.601
 1453SOL    HW2 5259   5.663   3.288   4.707
 1454SOL     OW 5260   5.309   2.343   2.050
 1454SOL    HW1 5261   5.374   2.348   2.125
 1454SOL    HW2 5262   5.357   2.320   1.965
 1455SOL     OW 5263   1.367   0.656   1.460
 1455SOL    HW1 5264   1.466   0.657   1.469
 1455SOL    HW2 5265   1.328   0.729   1.518
 1456SOL     OW 5266   0.039   6.510   5.138
 1456SOL    HW1 5267   6.988   6.517   5.075
 1456SOL    HW2 5268   0.065   6.602   5.168
 1457SOL     OW 5269   1.461   6.666   3.129
 1457SOL    HW1 5270   1.429   6.623   3.045
 1457SOL    HW2 5271   1.392   6.732   3.161
 1458SOL     OW 5272   5.414   6.841   5.034
 1458SOL    HW1 5273   5.456   6.841   4.943
 1458SOL    HW2 5274   5.443   6.759   5.084
 1459SOL     OW 5275   2.940   5.383   6.846
 1459SOL    HW1 5276   2.868   5.452   6.842
 1459SOL    HW2 5277   2.953   5.343   6.756
 1460SOL     OW 5278   0.194   6.140   6.333
 1460SOL    HW1 5279   0.284   6.136   6.377
 1460SOL    HW2 5280   0.123   6.137   6.403
 1461SOL     OW 5281   6.544   4.323   3.891
 1461SOL    HW1 5282   6.466   4.365   3.844
 1461SOL    HW2 5283   6.589   4.259   3.829
 1462SOL     OW 5284   6.773   1.929   0.227
 1462SOL    HW1 5285   6.732   1.940   0.318
 1462SOL    HW2 5286   6.851   1.990   0.218
 1463SOL     OW 5287   0.345   0.443   5.583
 1463SOL    HW1 5288   0.282   0.368   5.565
 1463SOL    HW2 5289   0.427   0.407   5.629
 1464SOL     OW 5290   0.670   6.681   0.580
 1464SOL    HW1 5291   0.591   6.691   0.520
 1464SOL    HW2 5292   0.680   6.585   0.606
 1465SOL     OW 5293   0.975   1.386   3.186
 1465SOL    HW1 5294   0.928   1.410   3.101
 1465SOL    HW2 5295   0.989   1.468   3.241
 1466SOL     OW 5296   6.932   6.247   2.537
 1466SOL    HW1 5297   6.938   6.261   2.636
 1466SOL    HW2 5298   7.012   6.288   2.493
 1467SOL     OW 5299   1.511   0.562   2.268
 1467SOL    HW1 5300   1.557   0.626   2.207
 1467SOL    HW2 5301   1.575   0.530   2.338
 1468SOL     OW 5302   5.435   5.868   3.071
 1468SOL    HW1 5303   5.482   5.951   3.044
 1468SOL    HW2 5304   5.347   5.861   3.023
 1469SOL     OW 5305   0.678   0.647   2.940
 1469SOL    HW1 5306   0.652   0.572   2.880
 1469SOL    HW2 5307   0.596   0.691   2.977
 1470SOL     OW 5308   0.935   1.024   2.111
 1470SOL    HW1 5309   0.932   1.107   2.055
 1470SOL    HW2 5310   1.029   1.004   2.136
 1471SOL     OW 5311   6.905   0.900   6.431
 1471SOL    HW1 5312   6.874   0.847   6.353
 1471SOL    HW2 5313   6.900   0.844   6.514
 1472SOL     OW 5314   4.555   6.099   4.848
 1472SOL    HW1 5315   4.629   6.083   4.783
 1472SOL    HW2 5316   4.475   6.047   4.821
 1473SOL     OW 5317   5.896   5.481   3.239
 1473SOL    HW1 5318   5.990   5.463   3.270
 1473SOL    HW2 5319   5.881   5.437   3.151
 1474SOL     OW 5320   6.247   6.044   3.697
 1474SOL    HW1 5321   6.207   6.026   3.607
 1474SOL    HW2 5322   6.177   6.032   3.768
 1475SOL     OW 5323   7.010   0.543   1.623
 1475SOL    HW1 5324   6.975   0.563   1.532
 1475SOL    HW2 5325   0.006   0.445   1.630
 1476SOL     OW 5326   1.462   1.068   1.198
 1476SOL    HW1 5327   1.541   1.073   1.137
 1476SOL    HW2 5328   1.427   0.974   1.199
 1477SOL     OW 5329   2.952   0.218   6.009
 1477SOL    HW1 5330   2.998   0.226   5.921
 1477SOL    HW2 5331   3.015   0.241   6.082
 1478SOL     OW 5332   5.723   4.779   0.940
 1478SOL    HW1 5333   5.797   4.718   0.967
 1478SOL    HW2 5334   5.724   4.860   0.999
 1479SOL     OW 5335   1.432   4.558   0.320
 1479SOL    HW1 5336   1.347   4.552   0.372
 1479SOL    HW2 5337   1.510   4.558   0.382
 1480SOL     OW 5338   2.584   0.727   7.012
 1480SOL    HW1 5339   2.553   0.666   6.939
 1480SOL    HW2 5340   2.622   0.810   6.972
 1481SOL     OW 5341   5.263   1.591   5.369
 1481SOL    HW1 5342   5.349   1.581   5.320
 1481SOL    HW2 5343   5.280   1.621   5.463
 1482SOL     OW 5344   5.716   1.554   0.858
 1482SOL    HW1 5345   5.737   1.650   0.878
 1482SOL    HW2 5346   5.664   1.515   0.933
 1483SOL     OW 5347   6.862   3.362   6.908
 1483SOL    HW1 5348   6.763   3.347   6.910
 1483SOL    HW2 5349   6.882   3.455   6.940
 1484SOL     OW 5350   6.296   4.196   3.636
 1484SOL    HW1 5351   6.213   4.143   3.616
 1484SOL    HW2 5352   6.271   4.276   3.691
 1485SOL     OW 5353   4.577   2.597   2.338
 1485SOL    HW1 5354   4.521   2.652   2.400
 1485SOL    HW2 5355   4.656   2.650   2.308
 1486SOL     OW 5356   4.653   2.278   3.552
 1486SOL    HW1 5357   4.724   2.258   3.619
 1486SOL    HW2 5358   4.672   2.226   3.468
 1487SOL     OW 5359   6.832   1.792   6.553
 1487SOL    HW1 5360   6.755   1.823   6.497
 1487SOL    HW2 5361   6.918   1.812   6.506
 1488SOL     OW 5362   5.526   2.139   3.196
 1488SOL    HW1 5363   5.625   2.142   3.188
 1488SOL    HW2 5364   5.496   2.204   3.266
 1489SOL     OW 5365   3.702   4.992   4.455
 1489SOL    HW1 5366   3.707   5.091   4.467
 1489SOL    HW2 5367   3.632   4.955   4.516
 1490SOL     OW 5368   1.309   2.038   0.527
 1490SOL    HW1 5369   1.365   2.102   0.474
 1490SOL    HW2 5370   1.215   2.073   0.532
 1491SOL     OW 5371   6.622   3.504   3.361
 1491SOL    HW1 5372   6.670   3.534   3.279
 1491SOL    HW2 5373   6.688   3.498   3.437
 1492SOL     OW 5374   4.947   1.997   1.779
 1492SOL    HW1 5375   4.918   2.062   1.849
 1492SOL    HW2 5376   5.025   1.944   1.815
 1493SOL     OW 5377   4.968   0.541   4.615
 1493SOL    HW1 5378   4.986   0.529   4.517
 1493SOL    HW2 5379   5.014   0.623   4.647
 1494SOL     OW 5380   4.244   2.755   5.371
 1494SOL    HW1 5381   4.239   2.683   5.301
 1494SOL    HW2 5382   4.198   2.837   5.337
 1495SOL     OW 5383   0.250   3.347   3.355
 1495SOL    HW1 5384   0.282   3.308   3.442
 1495SOL    HW2 5385   0.258   3.278   3.284
 1496SOL     OW 5386   0.385   0.652   1.727
 1496SOL    HW1 5387   0.408   0.565   1.684
 1496SOL    HW2 5388   0.360   0.719   1.657
 1497SOL     OW 5389   0.262   4.496   3.553
 1497SOL    HW1 5390   0.351   4.487   3.508
 1497SOL    HW2 5391   0.273   4.547   3.639
 1498SOL     OW 5392   1.958   4.856   6.530
 1498SOL    HW1 5393   2.044   4.900   6.504
 1498SOL    HW2 5394   1.952   4.767   6.485
 1499SOL     OW 5395   1.114   4.076   5.127
 1499SOL    HW1 5396   1.030   4.125   5.102
 1499SOL    HW2 5397   1.168   4.058   5.045
 1500SOL     OW 5398   5.845   0.335   0.740
 1500SOL    HW1 5399   5.797   0.389   0.808
 1500SOL    HW2 5400   5.818   0.239   0.749
 1501SOL     OW 5401   3.963   0.474   6.506
 1501SOL    HW1 5402   3.936   0.415   6.582
 1501SOL    HW2 5403   3.969   0.420   6.422
 1502SOL     OW 5404   6.422   6.834   0.176
 1502SOL    HW1 5405   6.348   6.781   0.217
 1502SOL    HW2 5406   6.487   6.772   0.132
 1503SOL     OW 5407   1.999   2.813   1.045
 1503SOL    HW1 5408   2.094   2.811   1.014
 1503SOL    HW2 5409   1.997   2.807   1.145
 1504SOL     OW 5410   3.010   0.102   5.183
 1504SOL    HW1 5411   3.035   0.019   5.232
 1504SOL    HW2 5412   2.979   0.078   5.091
 1505SOL     OW 5413   5.246   6.937   6.137
 1505SOL    HW1 5414   5.266   6.881   6.057
 1505SOL    HW2 5415   5.148   6.949   6.146
 1506SOL     OW 5416   1.419   4.726   3.337
 1506SOL    HW1 5417   1.360   4.666   3.282
 1506SOL    HW2 5418   1.401   4.709   3.434
 1507SOL     OW 5419   1.545   1.492   4.803
 1507SOL    HW1 5420   1.520   1.408   4.754
 1507SOL    HW2 5421   1.633   1.525   4.768
 1508SOL     OW 5422   4.619   6.822   0.800
 1508SOL    HW1 5423   4.605   6.781   0.891
 1508SOL    HW2 5424   4.603   6.920   0.806
 1509SOL     OW 5425   4.302   3.109   6.151
 1509SOL    HW1 5426   4.292   3.171   6.073
 1509SOL    HW2 5427   4.353   3.155   6.223
 1510SOL     OW 5428   5.540   2.352   4.194
 1510SOL    HW1 5429   5.557   2.445   4.159
 1510SOL    HW2 5430   5.507   2.358   4.288
 1511SOL     OW 5431   2.261   1.928   6.780
 1511SOL    HW1 5432   2.301   1.845   6.743
 1511SOL    HW2 5433   2.295   2.007   6.729
 1512SOL     OW 5434   6.533   6.605   1.726
 1512SOL    HW1 5435   6.472   6.677   1.758
 1512SOL    HW2 5436   6.487   6.551   1.656
 1513SOL     OW 5437   4.610   1.009   3.727
 1513SOL    HW1 5438   4.528   1.056   3.694
 1513SOL    HW2 5439   4.584   0.939   3.794
 1514SOL     OW 5440   5.320   1.586   5.012
 1514SOL    HW1 5441   5.401   1.625   4.969
 1514SOL    HW2 5442   5.271   1.529   4.945
 1515SOL     OW 5443   0.225   3.199   5.502
 1515SOL    HW1 5444   0.285   3.279   5.508
 1515SOL    HW2 5445   0.223   3.168   5.407
 1516SOL     OW 5446   0.584   1.029   1.024
 1516SOL    HW1 5447   0.562   1.007   0.929
 1516SOL    HW2 5448   0.529   0.972   1.085
 1517SOL     OW 5449   4.360   5.144   4.017
 1517SOL    HW1 5450   4.458   5.160   4.025
 1517SOL    HW2 5451   4.314   5.229   3.990
 1518SOL     OW 5452   6.614   4.095   6.967
 1518SOL    HW1 5453   6.689   4.072   0.003
 1518SOL    HW2 5454   6.586   4.013   6.918
 1519SOL     OW 5455   6.969   3.969   1.246
 1519SOL    HW1 5456   6.973   4.067   1.224
 1519SOL    HW2 5457   6.987   3.957   1.344
 1520SOL     OW 5458   2.120   3.295   2.427
 1520SOL    HW1 5459   2.107   3.258   2.335
 1520SOL    HW2 5460   2.162   3.225   2.485
 1521SOL     OW 5461   1.795   3.214   6.984
 1521SOL    HW1 5462   1.800   3.302   0.005
 1521SOL    HW2 5463   1.813   3.228   6.887
 1522SOL     OW 5464   0.022   1.882   5.763
 1522SOL    HW1 5465   0.067   1.883   5.673
 1522SOL    HW2 5466   0.038   1.969   5.809
 1523SOL     OW 5467   5.081   3.787   6.664
 1523SOL    HW1 5468   5.093   3.850   6.586
 1523SOL    HW2 5469   5.130   3.823   6.743
 1524SOL     OW 5470   0.891   2.032   1.828
 1524SOL    HW1 5471   0.985   1.998   1.839
 1524SOL    HW2 5472   0.893   2.125   1.790
 1525SOL     OW 5473   4.862   2.264   5.750
 1525SOL    HW1 5474   4.838   2.180   5.700
 1525SOL    HW2 5475   4.947   2.250   5.800
 1526SOL     OW 5476   0.209   0.679   1.053
 1526SOL    HW1 5477   0.185   0.610   0.986
 1526SOL    HW2 5478   0.225   0.766   1.007
 1527SOL     OW 5479   3.185   1.472   4.716
 1527SOL    HW1 5480   3.275   1.473   4.672
 1527SOL    HW2 5481   3.181   1.546   4.784
 1528SOL     OW 5482   5.141   6.069   2.585
 1528SOL    HW1 5483   5.131   6.010   2.505
 1528SOL    HW2 5484   5.219   6.038   2.640
 1529SOL     OW 5485   4.617   1.181   5.814
 1529SOL    HW1 5486   4.697   1.175   5.874
 1529SOL    HW2 5487   4.644   1.218   5.725
 1530SOL     OW 5488   3.349   0.215   1.372
 1530SOL    HW1 5489   3.290   0.135   1.365
 1530SOL    HW2 5490   3.413   0.203   1.448
 1531SOL     OW 5491   5.996   0.954   5.115
 1531SOL    HW1 5492   5.940   1.021   5.164
 1531SOL    HW2 5493   5.954   0.864   5.124
 1532SOL     OW 5494   2.549   2.159   4.927
 1532SOL    HW1 5495   2.610   2.117   4.860
 1532SOL    HW2 5496   2.595   2.237   4.970
 1533SOL     OW 5497   0.018   3.685   6.779
 1533SOL    HW1 5498   0.114   3.659   6.765
 1533SOL    HW2 5499   0.012   3.784   6.792
 1534SOL     OW 5500   1.777   5.158   0.663
 1534SOL    HW1 5501   1.723   5.142   0.746
 1534SOL    HW2 5502   1.717   5.154   0.583
 1535SOL     OW 5503   5.601   5.486   4.212
 1535SOL    HW1 5504   5.593   5.553   4.286
 1535SOL    HW2 5505   5.694   5.448   4.212
 1536SOL     OW 5506   3.285   5.299   4.043
 1536SOL    HW1 5507   3.320   5.348   4.123
 1536SOL    HW2 5508   3.197   5.257   4.065
 1537SOL     OW 5509   3.985   5.404   3.756
 1537SOL    HW1 5510   4.045   5.457   3.817
 1537SOL    HW2 5511   3.937   5.334   3.810
 1538SOL     OW 5512   3.747   4.777   6.333
 1538SOL    HW1 5513   3.693   4.724   6.398
 1538SOL    HW2 5514   3.762   4.724   6.249
 1539SOL     OW 5515   4.170   4.322   1.324
 1539SOL    HW1 5516   4.223   4.406   1.309
 1539SOL    HW2 5517   4.104   4.310   1.250
 1540SOL     OW 5518   0.969   6.962   4.844
 1540SOL    HW1 5519   0.925   6.882   4.805
 1540SOL    HW2 5520   1.066   6.942   4.861
 1541SOL     OW 5521   3.708   2.496   1.277
 1541SOL    HW1 5522   3.647   2.560   1.325
 1541SOL    HW2 5523   3.801   2.510   1.309
 1542SOL     OW 5524   6.677   6.049   1.848
 1542SOL    HW1 5525   6.628   6.122   1.801
 1542SOL    HW2 5526   6.689   5.971   1.787
 1543SOL     OW 5527   2.882   3.416   3.329
 1543SOL    HW1 5528   2.897   3.363   3.412
 1543SOL    HW2 5529   2.892   3.514   3.348
 1544SOL     OW 5530   2.990   3.802   2.195
 1544SOL    HW1 5531   3.005   3.867   2.269
 1544SOL    HW2 5532   2.993   3.709   2.232
 1545SOL     OW 5533   5.443   0.372   5.193
 1545SOL    HW1 5534   5.368   0.365   5.260
 1545SOL    HW2 5535   5.489   0.283   5.185
 1546SOL     OW 5536   5.598   0.189   6.125
 1546SOL    HW1 5537   5.580   0.091   6.131
 1546SOL    HW2 5538   5.616   0.225   6.217
 1547SOL     OW 5539   2.415   4.383   2.435
 1547SOL    HW1 5540   2.383   4.288   2.436
 1547SOL    HW2 5541   2.340   4.444   2.459
 1548SOL     OW 5542   4.142   4.343   5.800
 1548SOL    HW1 5543   4.063   4.403   5.818
 1548SOL    HW2 5544   4.119   4.278   5.728
 1549SOL     OW 5545   6.408   1.347   2.219
 1549SOL    HW1 5546   6.355   1.431   2.203
 1549SOL    HW2 5547   6.435   1.308   2.131
 1550SOL     OW 5548   3.132   6.876   5.863
 1550SOL    HW1 5549   3.194   6.939   5.910
 1550SOL    HW2 5550   3.149   6.783   5.894
 1551SOL     OW 5551   1.625   3.450   1.414
 1551SOL    HW1 5552   1.640   3.546   1.437
 1551SOL    HW2 5553   1.640   3.394   1.495
 1552SOL     OW 5554   1.460   6.915   1.067
 1552SOL    HW1 5555   1.440   6.996   1.011
 1552SOL    HW2 5556   1.504   6.943   1.152
 1553SOL     OW 5557   6.161   1.798   6.168
 1553SOL    HW1 5558   6.196   1.787   6.075
 1553SOL    HW2 5559   6.082   1.858   6.167
 1554SOL     OW 5560   4.326   2.186   3.398
 1554SOL    HW1 5561   4.403   2.230   3.351
 1554SOL    HW2 5562   4.240   2.214   3.354
 1555SOL     OW 5563   4.878   2.524   5.614
 1555SOL    HW1 5564   4.886   2.548   5.518
 1555SOL    HW2 5565   4.841   2.431   5.622
 1556SOL     OW 5566   3.596   0.482   0.740
 1556SOL    HW1 5567   3.509   0.433   0.733
 1556SOL    HW2 5568   3.580   0.575   0.774
 1557SOL     OW 5569   2.262   2.826   1.007
 1557SOL    HW1 5570   2.277   2.881   0.924
 1557SOL    HW2 5571   2.292   2.732   0.991
 1558SOL     OW 5572   5.930   2.365   5.303
 1558SOL    HW1 5573   6.026   2.389   5.293
 1558SOL    HW2 5574   5.873   2.438   5.266
 1559SOL     OW 5575   0.342   3.688   1.694
 1559SOL    HW1 5576   0.252   3.708   1.656
 1559SOL    HW2 5577   0.332   3.625   1.771
 1560SOL     OW 5578   3.355   1.620   6.541
 1560SOL    HW1 5579   3.287   1.660   6.479
 1560SOL    HW2 5580   3.401   1.693   6.591
 1561SOL     OW 5581   5.390   5.923   2.619
 1561SOL    HW1 5582   5.474   5.879   2.651
 1561SOL    HW2 5583   5.335   5.857   2.568
 1562SOL     OW 5584   3.142   6.587   2.088
 1562SOL    HW1 5585   3.128   6.489   2.106
 1562SOL    HW2 5586   3.222   6.599   2.030
 1563SOL     OW 5587   2.908   2.191   5.071
 1563SOL    HW1 5588   2.835   2.231   5.016
 1563SOL    HW2 5589   2.974   2.262   5.096
 1564SOL     OW 5590   1.137   1.384   2.142
 1564SOL    HW1 5591   1.105   1.439   2.218
 1564SOL    HW2 5592   1.058   1.343   2.095
 1565SOL     OW 5593   4.353   5.571   5.175
 1565SOL    HW1 5594   4.270   5.516   5.181
 1565SOL    HW2 5595   4.338   5.660   5.216
 1566SOL     OW 5596   6.095   4.908   3.966
 1566SOL    HW1 5597   6.189   4.920   3.935
 1566SOL    HW2 5598   6.092   4.914   4.066
 1567SOL     OW 5599   5.891   5.264   6.610
 1567SOL    HW1 5600   5.803   5.263   6.658
 1567SOL    HW2 5601   5.942   5.181   6.632
 1568SOL     OW 5602   2.547   6.048   3.500
 1568SOL    HW1 5603   2.565   5.964   3.551
 1568SOL    HW2 5604   2.451   6.051   3.473
 1569SOL     OW 5605   3.871   0.318   3.247
 1569SOL    HW1 5606   3.938   0.378   3.202
 1569SOL    HW2 5607   3.845   0.245   3.184
 1570SOL     OW 5608   2.622   6.702   6.188
 1570SOL    HW1 5609   2.560   6.708   6.111
 1570SOL    HW2 5610   2.586   6.638   6.256
 1571SOL     OW 5611   0.860   3.058   3.245
 1571SOL    HW1 5612   0.872   3.029   3.340
 1571SOL    HW2 5613   0.844   2.978   3.187
 1572SOL     OW 5614   1.754   5.704   1.782
 1572SOL    HW1 5615   1.733   5.608   1.801
 1572SOL    HW2 5616   1.834   5.732   1.835
 1573SOL     OW 5617   5.352   5.079   2.019
 1573SOL    HW1 5618   5.327   5.051   1.926
 1573SOL    HW2 5619   5.427   5.145   2.015
 1574SOL     OW 5620   6.264   3.125   2.152
 1574SOL    HW1 5621   6.197   3.071   2.204
 1574SOL    HW2 5622   6.282   3.080   2.065
 1575SOL     OW 5623   2.340   0.787   1.913
 1575SOL    HW1 5624   2.395   0.704   1.906
 1575SOL    HW2 5625   2.253   0.765   1.957
 1576SOL     OW 5626   0.982   6.455   2.580
 1576SOL    HW1 5627   0.938   6.487   2.496
 1576SOL    HW2 5628   0.911   6.436   2.649
 1577SOL     OW 5629   2.613   0.659   6.433
 1577SOL    HW1 5630   2.543   0.711   6.482
 1577SOL    HW2 5631   2.604   0.675   6.335
 1578SOL     OW 5632   4.768   1.178   6.566
 1578SOL    HW1 5633   4.865   1.162   6.549
 1578SOL    HW2 5634   4.732   1.104   6.624
 1579SOL     OW 5635   0.335   2.690   1.837
 1579SOL    HW1 5636   0.394   2.638   1.775
 1579SOL    HW2 5637   0.323   2.783   1.801
 1580SOL     OW 5638   3.197   4.082   3.105
 1580SOL    HW1 5639   3.279   4.131   3.075
 1580SOL    HW2 5640   3.145   4.051   3.025
 1581SOL     OW 5641   6.716   4.633   5.383
 1581SOL    HW1 5642   6.644   4.603   5.446
 1581SOL    HW2 5643   6.791   4.673   5.436
 1582SOL     OW 5644   3.914   5.763   5.274
 1582SOL    HW1 5645   3.863   5.790   5.192
 1582SOL    HW2 5646   3.940   5.667   5.268
 1583SOL     OW 5647   0.660   5.682   4.521
 1583SOL    HW1 5648   0.718   5.644   4.449
 1583SOL    HW2 5649   0.715   5.738   4.582
 1584SOL     OW 5650   2.101   4.503   7.010
 1584SOL    HW1 5651   2.193   4.529   6.979
 1584SOL    HW2 5652   2.056   4.583   0.023
 1585SOL     OW 5653   4.268   1.325   3.022
 1585SOL    HW1 5654   4.168   1.334   3.028
 1585SOL    HW2 5655   4.310   1.405   3.065
 1586SOL     OW 5656   2.978   4.822   2.985
 1586SOL    HW1 5657   3.069   4.825   3.027
 1586SOL    HW2 5658   2.985   4.843   2.888
 1587SOL     OW 5659   1.713   5.300   5.308
 1587SOL    HW1 5660   1.779   5.228   5.287
 1587SOL    HW2 5661   1.755   5.366   5.370
 1588SOL     OW 5662   4.573   0.387   2.159
 1588SOL    HW1 5663   4.656   0.441   2.173
 1588SOL    HW2 5664   4.551   0.384   2.062
 1589SOL     OW 5665   6.702   3.333   3.126
 1589SOL    HW1 5666   6.703   3.261   3.056
 1589SOL    HW2 5667   6.610   3.342   3.163
 1590SOL     OW 5668   5.637   1.039   3.560
 1590SOL    HW1 5669   5.679   1.000   3.642
 1590SOL    HW2 5670   5.543   1.067   3.581
 1591SOL     OW 5671   6.643   5.523   1.440
 1591SOL    HW1 5672   6.585   5.574   1.504
 1591SOL    HW2 5673   6.735   5.516   1.478
 1592SOL     OW 5674   1.825   4.210   0.120
 1592SOL    HW1 5675   1.765   4.132   0.138
 1592SOL    HW2 5676   1.827   4.228   0.021
 1593SOL     OW 5677   0.863   6.985   6.461
 1593SOL    HW1 5678   0.813   0.040   6.490
 1593SOL    HW2 5679   0.882   6.928   6.541
 1594SOL     OW 5680   6.854   6.740   1.423
 1594SOL    HW1 5681   6.939   6.707   1.464
 1594SOL    HW2 5682   6.874   6.823   1.370
 1595SOL     OW 5683   1.071   4.137   0.693
 1595SOL    HW1 5684   1.056   4.217   0.636
 1595SOL    HW2 5685   1.141   4.158   0.762
 1596SOL     OW 5686   6.269   3.148   2.924
 1596SOL    HW1 5687   6.336   3.204   2.974
 1596SOL    HW2 5688   6.317   3.087   2.862
 1597SOL     OW 5689   3.017   5.972   1.545
 1597SOL    HW1 5690   3.081   5.926   1.607
 1597SOL    HW2 5691   2.923   5.952   1.574
 1598SOL     OW 5692   1.352   5.464   6.116
 1598SOL    HW1 5693   1.404   5.379   6.120
 1598SOL    HW2 5694   1.265   5.452   6.163
 1599SOL     OW 5695   4.414   4.814   5.400
 1599SOL    HW1 5696   4.330   4.775   5.438
 1599SOL    HW2 5697   4.416   4.797   5.301
 1600SOL     OW 5698   2.845   0.741   1.997
 1600SOL    HW1 5699   2.848   0.838   1.972
 1600SOL    HW2 5700   2.753   0.718   2.030
 1601SOL     OW 5701   0.207   6.803   4.044
 1601SOL    HW1 5702   0.288   6.767   3.998
 1601SOL    HW2 5703   0.193   6.753   4.130
 1602SOL     OW 5704   4.996   5.621   4.051
 1602SOL    HW1 5705   4.998   5.573   4.139
 1602SOL    HW2 5706   5.059   5.576   3.988
 1603SOL     OW 5707   2.785   5.108   4.227
 1603SOL    HW1 5708   2.780   5.057   4.313
 1603SOL    HW2 5709   2.718   5.071   4.163
 1604SOL     OW 5710   3.954   5.095   1.348
 1604SOL    HW1 5711   3.891   5.027   1.311
 1604SOL    HW2 5712   3.911   5.141   1.425
 1605SOL     OW 5713   6.091   5.495   1.085
 1605SOL    HW1 5714   6.148   5.566   1.124
 1605SOL    HW2 5715   6.138   5.407   1.089
 1606SOL     OW 5716   4.124   5.480   5.475
 1606SOL    HW1 5717   4.139   5.567   5.522
 1606SOL    HW2 5718   4.123   5.495   5.377
 1607SOL     OW 5719   4.194   0.325   1.213
 1607SOL    HW1 5720   4.208   0.337   1.115
 1607SOL    HW2 5721   4.142   0.241   1.229
 1608SOL     OW 5722   0.027   0.974   3.051
 1608SOL    HW1 5723   0.046   1.043   3.122
 1608SOL    HW2 5724   0.035   1.016   2.961
 1609SOL     OW 5725   3.221   7.026   0.836
 1609SOL    HW1 5726   3.283   7.025   0.757
 1609SOL    HW2 5727   3.193   6.932   0.857
 1610SOL     OW 5728   4.974   6.544   0.830
 1610SOL    HW1 5729   5.074   6.534   0.833
 1610SOL    HW2 5730   4.932   6.454   0.819
 1611SOL     OW 5731   1.582   3.309   0.808
 1611SOL    HW1 5732   1.485   3.307   0.784
 1611SOL    HW2 5733   1.596   3.368   0.887
 1612SOL     OW 5734   3.384   6.606   1.226
 1612SOL    HW1 5735   3.303   6.664   1.232
 1612SOL    HW2 5736   3.365   6.517   1.268
 1613SOL     OW 5737   0.431   5.673   2.050
 1613SOL    HW1 5738   0.407   5.585   2.091
 1613SOL    HW2 5739   0.400   5.747   2.109
 1614SOL     OW 5740   5.742   2.112   6.252
 1614SOL    HW1 5741   5.731   2.210   6.268
 1614SOL    HW2 5742   5.725   2.092   6.155
 1615SOL     OW 5743   6.699   5.273   6.219
 1615SOL    HW1 5744   6.744   5.335   6.284
 1615SOL    HW2 5745   6.764   5.247   6.147
 1616SOL     OW 5746   3.862   0.577   3.862
 1616SOL    HW1 5747   3.846   0.596   3.765
 1616SOL    HW2 5748   3.781   0.533   3.901
 1617SOL     OW 5749   5.128   6.370   3.015
 1617SOL    HW1 5750   5.094   6.429   2.941
 1617SOL    HW2 5751   5.104   6.275   2.995
 1618SOL     OW 5752   0.905   5.829   2.253
 1618SOL    HW1 5753   0.981   5.799   2.311
 1618SOL    HW2 5754   0.862   5.910   2.294
 1619SOL     OW 5755   0.468   5.589   6.968
 1619SOL    HW1 5756   0.416   5.581   0.027
 1619SOL    HW2 5757   0.532   5.512   6.960
 1620SOL     OW 5758   2.880   4.726   1.539
 1620SOL    HW1 5759   2.803   4.714   1.603
 1620SOL    HW2 5760   2.957   4.670   1.569
 1621SOL     OW 5761   5.981   0.447   1.093
 1621SOL    HW1 5762   6.013   0.522   1.037
 1621SOL    HW2 5763   5.881   0.449   1.100
 1622SOL     OW 5764   0.635   3.892   5.749
 1622SOL    HW1 5765   0.631   3.843   5.662
 1622SOL    HW2 5766   0.550   3.943   5.762
 1623SOL     OW 5767   0.050   2.243   4.397
 1623SOL    HW1 5768   0.109   2.291   4.462
 1623SOL    HW2 5769   0.106   2.183   4.340
 1624SOL     OW 5770   4.321   1.853   0.060
 1624SOL    HW1 5771   4.225   1.827   0.073
 1624SOL    HW2 5772   4.355   1.813   7.001
 1625SOL     OW 5773   1.421   5.118   6.466
 1625SOL    HW1 5774   1.387   5.106   6.373
 1625SOL    HW2 5775   1.420   5.215   6.491
 1626SOL     OW 5776   3.128   1.644   1.852
 1626SOL    HW1 5777   3.171   1.557   1.829
 1626SOL    HW2 5778   3.175   1.718   1.804
 1627SOL     OW 5779   5.865   2.702   3.471
 1627SOL    HW1 5780   5.876   2.650   3.387
 1627SOL    HW2 5781   5.811   2.785   3.453
 1628SOL     OW 5782   4.379   5.426   6.701
 1628SOL    HW1 5783   4.365   5.487   6.779
 1628SOL    HW2 5784   4.476   5.408   6.689
 1629SOL     OW 5785   2.518   1.185   3.496
 1629SOL    HW1 5786   2.447   1.195   3.565
 1629SOL    HW2 5787   2.486   1.123   3.424
 1630SOL     OW 5788   0.237   4.279   5.580
 1630SOL    HW1 5789   0.161   4.337   5.551
 1630SOL    HW2 5790   0.202   4.197   5.625
 1631SOL     OW 5791   0.065   3.226   0.684
 1631SOL    HW1 5792   0.048   3.189   0.592
 1631SOL    HW2 5793   0.134   3.170   0.730
 1632SOL     OW 5794   4.801   4.185   2.755
 1632SOL    HW1 5795   4.719   4.240   2.739
 1632SOL    HW2 5796   4.877   4.222   2.702
 1633SOL     OW 5797   5.101   4.616   5.009
 1633SOL    HW1 5798   5.008   4.653   5.000
 1633SOL    HW2 5799   5.106   4.527   4.964
 1634SOL     OW 5800   4.633   1.180   4.138
 1634SOL    HW1 5801   4.603   1.266   4.178
 1634SOL    HW2 5802   4.730   1.166   4.157
 1635SOL     OW 5803   1.427   5.366   6.526
 1635SOL    HW1 5804   1.470   5.426   6.594
 1635SOL    HW2 5805   1.331   5.392   6.515
 1636SOL     OW 5806   3.504   5.608   1.264
 1636SOL    HW1 5807   3.445   5.581   1.188
 1636SOL    HW2 5808   3.564   5.532   1.289
 1637SOL     OW 5809   6.623   0.234   3.570
 1637SOL    HW1 5810   6.610   0.333   3.575
 1637SOL    HW2 5811   6.584   0.191   3.651
 1638SOL     OW 5812   0.437   3.052   1.867
 1638SOL    HW1 5813   0.399   3.009   1.786
 1638SOL    HW2 5814   0.445   3.151   1.852
 1639SOL     OW 5815   6.157   4.638   2.048
 1639SOL    HW1 5816   6.085   4.599   2.105
 1639SOL    HW2 5817   6.177   4.731   2.079
 1640SOL     OW 5818   6.832   0.158   0.125
 1640SOL    HW1 5819   6.918   0.176   0.172
 1640SOL    HW2 5820   6.815   0.230   0.057
 1641SOL     OW 5821   6.909   2.778   4.155
 1641SOL    HW1 5822   6.879   2.734   4.071
 1641SOL    HW2 5823   7.004   2.754   4.174
 1642SOL     OW 5824   6.865   2.989   6.507
 1642SOL    HW1 5825   6.882   2.897   6.472
 1642SOL    HW2 5826   6.905   3.056   6.444
 1643SOL     OW 5827   2.718   4.753   3.056
 1643SOL    HW1 5828   2.662   4.834   3.076
 1643SOL    HW2 5829   2.798   4.780   3.002
 1644SOL     OW 5830   5.708   3.035   6.952
 1644SOL    HW1 5831   5.635   3.004   6.890
 1644SOL    HW2 5832   5.683   3.124   6.990
 1645SOL     OW 5833   3.055   6.517   6.337
 1645SOL    HW1 5834   3.112   6.435   6.328
 1645SOL    HW2 5835   3.112   6.598   6.320
 1646SOL     OW 5836   1.964   6.199   0.254
 1646SOL    HW1 5837   1.925   6.291   0.257
 1646SOL    HW2 5838   1.968   6.161   0.347
 1647SOL     OW 5839   5.257   2.437   4.422
 1647SOL    HW1 5840   5.344   2.401   4.456
 1647SOL    HW2 5841   5.186   2.424   4.491
 1648SOL     OW 5842   5.351   6.298   0.240
 1648SOL    HW1 5843   5.336   6.233   0.165
 1648SOL    HW2 5844   5.284   6.372   0.235
 1649SOL     OW 5845   3.598   1.566   4.209
 1649SOL    HW1 5846   3.657   1.490   4.179
 1649SOL    HW2 5847   3.650   1.626   4.269
 1650SOL     OW 5848   1.412   5.702   5.493
 1650SOL    HW1 5849   1.413   5.684   5.395
 1650SOL    HW2 5850   1.503   5.688   5.531
 1651SOL     OW 5851   0.296   2.186   2.912
 1651SOL    HW1 5852   0.287   2.087   2.902
 1651SOL    HW2 5853   0.285   2.229   2.822
 1652SOL     OW 5854   1.266   3.714   2.214
 1652SOL    HW1 5855   1.355   3.667   2.218
 1652SOL    HW2 5856   1.273   3.793   2.153
 1653SOL     OW 5857   6.893   5.541   1.571
 1653SOL    HW1 5858   6.941   5.541   1.484
 1653SOL    HW2 5859   6.959   5.534   1.646
 1654SOL     OW 5860   0.109   3.349   1.258
 1654SOL    HW1 5861   0.073   3.280   1.196
 1654SOL    HW2 5862   0.141   3.428   1.205
 1655SOL     OW 5863   6.320   1.144   4.290
 1655SOL    HW1 5864   6.397   1.141   4.227
 1655SOL    HW2 5865   6.340   1.086   4.369
 1656SOL     OW 5866   2.285   5.326   2.913
 1656SOL    HW1 5867   2.308   5.423   2.901
 1656SOL    HW2 5868   2.188   5.318   2.937
 1657SOL     OW 5869   6.637   0.222   4.857
 1657SOL    HW1 5870   6.580   0.275   4.920
 1657SOL    HW2 5871   6.684   0.283   4.794
 1658SOL     OW 5872   6.730   0.301   0.694
 1658SOL    HW1 5873   6.679   0.309   0.608
 1658SOL    HW2 5874   6.743   0.204   0.716
 1659SOL     OW 5875   3.304   0.249   6.923
 1659SOL    HW1 5876   3.252   0.204   6.850
 1659SOL    HW2 5877   3.251   0.249   7.007
 1660SOL     OW 5878   1.899   6.813   2.894
 1660SOL    HW1 5879   1.806   6.843   2.912
 1660SOL    HW2 5880   1.899   6.744   2.822
 1661SOL     OW 5881   2.842   5.763   2.074
 1661SOL    HW1 5882   2.762   5.704   2.070
 1661SOL    HW2 5883   2.820   5.845   2.128
 1662SOL     OW 5884   6.282   0.094   5.030
 1662SOL    HW1 5885   6.227   0.120   4.951
 1662SOL    HW2 5886   6.225   0.046   5.097
 1663SOL     OW 5887   5.176   5.388   2.745
 1663SOL    HW1 5888   5.206   5.294   2.762
 1663SOL    HW2 5889   5.122   5.420   2.823
 1664SOL     OW 5890   2.059   6.397   5.501
 1664SOL    HW1 5891   1.986   6.363   5.561
 1664SOL    HW2 5892   2.111   6.320   5.466
 1665SOL     OW 5893   6.663   3.782   1.822
 1665SOL    HW1 5894   6.573   3.747   1.849
 1665SOL    HW2 5895   6.653   3.842   1.742
 1666SOL     OW 5896   5.883   0.237   0.353
 1666SOL    HW1 5897   5.958   0.295   0.385
 1666SOL    HW2 5898   5.807   0.243   0.417
 1667SOL     OW 5899   6.401   6.073   1.624
 1667SOL    HW1 5900   6.334   6.050   1.695
 1667SOL    HW2 5901   6.477   6.123   1.666
 1668SOL     OW 5902   4.955   4.714   3.444
 1668SOL    HW1 5903   5.023   4.697   3.372
 1668SOL    HW2 5904   4.867   4.674   3.417
 1669SOL     OW 5905   6.862   4.325   5.569
 1669SOL    HW1 5906   6.929   4.369   5.509
 1669SOL    HW2 5907   6.893   4.232   5.591
 1670SOL     OW 5908   0.472   4.409   4.953
 1670SOL    HW1 5909   0.412   4.485   4.931
 1670SOL    HW2 5910   0.438   4.361   5.034
 1671SOL     OW 5911   5.962   1.068   3.064
 1671SOL    HW1 5912   5.888   1.018   3.020
 1671SOL    HW2 5913   5.967   1.161   3.027
 1672SOL     OW 5914   1.898   4.253   6.643
 1672SOL    HW1 5915   1.936   4.167   6.610
 1672SOL    HW2 5916   1.948   4.330   6.602
 1673SOL     OW 5917   1.608   1.388   5.349
 1673SOL    HW1 5918   1.542   1.358   5.418
 1673SOL    HW2 5919   1.668   1.312   5.324
 1674SOL     OW 5920   6.909   2.688   2.292
 1674SOL    HW1 5921   6.911   2.591   2.316
 1674SOL    HW2 5922   6.980   2.708   2.224
 1675SOL     OW 5923   5.270   0.362   0.129
 1675SOL    HW1 5924   5.187   0.327   0.086
 1675SOL    HW2 5925   5.326   0.409   0.061
 1676SOL     OW 5926   2.592   2.450   2.322
 1676SOL    HW1 5927   2.665   2.438   2.255
 1676SOL    HW2 5928   2.544   2.364   2.335
 1677SOL     OW 5929   4.103   3.739   3.647
 1677SOL    HW1 5930   4.074   3.703   3.558
 1677SOL    HW2 5931   4.096   3.666   3.715
 1678SOL     OW 5932   0.119   5.834   1.662
 1678SOL    HW1 5933   0.108   5.805   1.568
 1678SOL    HW2 5934   0.032   5.872   1.696
 1679SOL     OW 5935   1.701   1.369   5.029
 1679SOL    HW1 5936   1.726   1.455   5.071
 1679SOL    HW2 5937   1.628   1.385   4.961
 1680SOL     OW 5938   6.157   3.769   5.671
 1680SOL    HW1 5939   6.061   3.793   5.658
 1680SOL    HW2 5940   6.182   3.695   5.608
 1681SOL     OW 5941   1.726   5.997   5.589
 1681SOL    HW1 5942   1.784   6.063   5.541
 1681SOL    HW2 5943   1.675   5.943   5.522
 1682SOL     OW 5944   2.115   0.975   5.961
 1682SOL    HW1 5945   2.142   0.893   5.911
 1682SOL    HW2 5946   2.194   1.036   5.969
 1683SOL     OW 5947   6.202   5.956   2.783
 1683SOL    HW1 5948   6.226   6.019   2.708
 1683SOL    HW2 5949   6.263   5.973   2.861
 1684SOL     OW 5950   0.286   5.526   2.245
 1684SOL    HW1 5951   0.304   5.586   2.323
 1684SOL    HW2 5952   0.337   5.441   2.256
 1685SOL     OW 5953   2.044   1.879   5.759
 1685SOL    HW1 5954   2.136   1.884   5.797
 1685SOL    HW2 5955   2.029   1.789   5.717
 1686SOL     OW 5956   3.676   5.869   4.007
 1686SOL    HW1 5957   3.597   5.814   3.980
 1686SOL    HW2 5958   3.664   5.963   3.973
 1687SOL     OW 5959   0.055   3.716   1.629
 1687SOL    HW1 5960   0.037   3.637   1.571
 1687SOL    HW2 5961   7.015   3.719   1.704
 1688SOL     OW 5962   1.487   1.412   3.983
 1688SOL    HW1 5963   1.420   1.382   4.051
 1688SOL    HW2 5964   1.465   1.505   3.953
 1689SOL     OW 5965   6.158   0.892   2.434
 1689SOL    HW1 5966   6.122   0.846   2.516
 1689SOL    HW2 5967   6.159   0.828   2.358
 1690SOL     OW 5968   0.774   3.418   4.711
 1690SOL    HW1 5969   0.856   3.442   4.660
 1690SOL    HW2 5970   0.766   3.476   4.792
 1691SOL     OW 5971   5.213   2.834   4.044
 1691SOL    HW1 5972   5.179   2.855   3.953
 1691SOL    HW2 5973   5.174   2.899   4.110
 1692SOL     OW 5974   4.880   5.841   1.797
 1692SOL    HW1 5975   4.797   5.885   1.832
 1692SOL    HW2 5976   4.953   5.910   1.789
 1693SOL     OW 5977   6.689   2.019   4.308
 1693SOL    HW1 5978   6.760   2.004   4.377
 1693SOL    HW2 5979   6.723   1.990   4.219
 1694SOL     OW 5980   6.074   1.148   4.178
 1694SOL    HW1 5981   6.003   1.199   4.227
 1694SOL    HW2 5982   6.146   1.122   4.243
 1695SOL     OW 5983   3.559   0.343   6.823
 1695SOL    HW1 5984   3.597   0.384   6.906
 1695SOL    HW2 5985   3.471   0.299   6.845
 1696SOL     OW 5986   3.591   6.462   0.845
 1696SOL    HW1 5987   3.600   6.556   0.814
 1696SOL    HW2 5988   3.587   6.401   0.766
 1697SOL     OW 5989   6.195   2.502   1.162
 1697SOL    HW1 5990   6.116   2.447   1.133
 1697SOL    HW2 5991   6.233   2.548   1.082
 1698SOL     OW 5992   3.839   0.992   1.308
 1698SOL    HW1 5993   3.903   1.068   1.313
 1698SOL    HW2 5994   3.803   0.973   1.399
 1699SOL     OW 5995   2.320   1.943   5.829
 1699SOL    HW1 5996   2.344   1.879   5.903
 1699SOL    HW2 5997   2.364   2.031   5.847
 1700SOL     OW 5998   6.177   3.798   3.233
 1700SOL    HW1 5999   6.122   3.872   3.272
 1700SOL    HW2 6000   6.235   3.759   3.303
 1701SOL     OW 6001   6.106   5.486   5.265
 1701SOL    HW1 6002   6.010   5.510   5.283
 1701SOL    HW2 6003   6.163   5.522   5.339
 1702SOL     OW 6004   0.700   1.331   0.875
 1702SOL    HW1 6005   0.693   1.338   0.974
 1702SOL    HW2 6006   0.642   1.256   0.843
 1703SOL     OW 6007   3.908   1.806   6.514
 1703SOL    HW1 6008   3.906   1.901   6.483
 1703SOL    HW2 6009   3.822   1.784   6.560
 1704SOL     OW 6010   1.723   2.088   0.118
 1704SOL    HW1 6011   1.703   2.180   0.084
 1704SOL    HW2 6012   1.658   2.065   0.190
 1705SOL     OW 6013   3.548   2.282   1.612
 1705SOL    HW1 6014   3.593   2.300   1.700
 1705SOL    HW2 6015   3.599   2.212   1.563
 1706SOL     OW 6016   4.018   2.041   1.646
 1706SOL    HW1 6017   4.052   1.984   1.721
 1706SOL    HW2 6018   3.978   2.125   1.683
 1707SOL     OW 6019   4.623   2.632   2.755
 1707SOL    HW1 6020   4.538   2.590   2.787
 1707SOL    HW2 6021   4.653   2.586   2.671
 1708SOL     OW 6022   4.157   5.235   1.559
 1708SOL    HW1 6023   4.215   5.176   1.614
 1708SOL    HW2 6024   4.064   5.198   1.557
 1709SOL     OW 6025   3.789   6.948   1.204
 1709SOL    HW1 6026   3.743   6.992   1.280
 1709SOL    HW2 6027   3.722   6.903   1.145
 1710SOL     OW 6028   3.746   4.933   3.859
 1710SOL    HW1 6029   3.834   4.980   3.856
 1710SOL    HW2 6030   3.725   4.910   3.954
 1711SOL     OW 6031   2.279   5.051   5.322
 1711SOL    HW1 6032   2.367   5.005   5.327
 1711SOL    HW2 6033   2.225   5.030   5.404
 1712SOL     OW 6034   0.094   1.886   4.787
 1712SOL    HW1 6035   0.140   1.894   4.699
 1712SOL    HW2 6036   0.028   1.811   4.784
 1713SOL     OW 6037   3.926   1.514   2.916
 1713SOL    HW1 6038   3.940   1.427   2.868
 1713SOL    HW2 6039   3.830   1.541   2.910
 1714SOL     OW 6040   4.135   1.617   6.812
 1714SOL    HW1 6041   4.106   1.528   6.849
 1714SOL    HW2 6042   4.114   1.689   6.878
 1715SOL     OW 6043   2.356   5.575   2.970
 1715SOL    HW1 6044   2.348   5.524   3.056
 1715SOL    HW2 6045   2.452   5.595   2.952
 1716SOL     OW 6046   4.224   0.437   3.735
 1716SOL    HW1 6047   4.231   0.521   3.790
 1716SOL    HW2 6048   4.274   0.363   3.780
 1717SOL     OW 6049   3.820   5.486   5.116
 1717SOL    HW1 6050   3.768   5.483   5.031
 1717SOL    HW2 6051   3.758   5.472   5.194
 1718SOL     OW 6052   2.739   1.858   2.450
 1718SOL    HW1 6053   2.742   1.829   2.545
 1718SOL    HW2 6054   2.825   1.835   2.405
 1719SOL     OW 6055   2.299   3.815   1.034
 1719SOL    HW1 6056   2.214   3.859   1.064
 1719SOL    HW2 6057   2.340   3.868   0.960
 1720SOL     OW 6058   6.925   2.623   5.339
 1720SOL    HW1 6059   6.956   2.694   5.402
 1720SOL    HW2 6060   6.846   2.656   5.287
 1721SOL     OW 6061   1.438   0.191   1.483
 1721SOL    HW1 6062   1.503   0.253   1.528
 1721SOL    HW2 6063   1.352   0.191   1.533
 1722SOL     OW 6064   4.095   1.290   3.466
 1722SOL    HW1 6065   4.151   1.215   3.432
 1722SOL    HW2 6066   4.001   1.280   3.431
 1723SOL     OW 6067   4.356   2.337   0.020
 1723SOL    HW1 6068   4.313   2.256   0.059
 1723SOL    HW2 6069   4.451   2.343   0.051
 1724SOL     OW 6070   6.452   2.450   1.885
 1724SOL    HW1 6071   6.418   2.381   1.949
 1724SOL    HW2 6072   6.436   2.541   1.924
 1725SOL     OW 6073   1.999   5.435   6.690
 1725SOL    HW1 6074   1.966   5.349   6.649
 1725SOL    HW2 6075   2.097   5.427   6.708
 1726SOL     OW 6076   5.369   3.946   4.416
 1726SOL    HW1 6077   5.420   4.016   4.465
 1726SOL    HW2 6078   5.387   3.857   4.457
 1727SOL     OW 6079   4.091   3.733   3.205
 1727SOL    HW1 6080   4.045   3.788   3.136
 1727SOL    HW2 6081   4.130   3.651   3.162
 1728SOL     OW 6082   5.030   4.693   5.688
 1728SOL    HW1 6083   4.935   4.725   5.696
 1728SOL    HW2 6084   5.071   4.731   5.605
 1729SOL     OW 6085   1.241   4.102   2.992
 1729SOL    HW1 6086   1.239   4.011   3.035
 1729SOL    HW2 6087   1.328   4.113   2.943
 1730SOL     OW 6088   3.240   6.890   5.308
 1730SOL    HW1 6089   3.199   6.872   5.219
 1730SOL    HW2 6090   3.334   6.921   5.295
 1731SOL     OW 6091   6.119   4.739   3.643
 1731SOL    HW1 6092   6.158   4.699   3.560
 1731SOL    HW2 6093   6.124   4.838   3.639
 1732SOL     OW 6094   1.745   4.599   6.597
 1732SOL    HW1 6095   1.764   4.619   6.501
 1732SOL    HW2 6096   1.666   4.652   6.627
 1733SOL     OW 6097   2.525   3.854   1.656
 1733SOL    HW1 6098   2.457   3.925   1.674
 1733SOL    HW2 6099   2.616   3.889   1.677
 1734SOL     OW 6100   5.712   2.891   1.409
 1734SOL    HW1 6101   5.726   2.801   1.366
 1734SOL    HW2 6102   5.614   2.906   1.422
 1735SOL     OW 6103   4.433   5.523   5.795
 1735SOL    HW1 6104   4.400   5.594   5.733
 1735SOL    HW2 6105   4.503   5.468   5.748
 1736SOL     OW 6106   3.654   3.781   0.630
 1736SOL    HW1 6107   3.600   3.768   0.546
 1736SOL    HW2 6108   3.600   3.750   0.709
 1737SOL     OW 6109   5.260   0.067   4.717
 1737SOL    HW1 6110   5.284   0.123   4.796
 1737SOL    HW2 6111   5.310   0.101   4.637
 1738SOL     OW 6112   1.569   3.672   4.056
 1738SOL    HW1 6113   1.518   3.595   4.018
 1738SOL    HW2 6114   1.607   3.646   4.145
 1739SOL     OW 6115   6.261   0.524   4.236
 1739SOL    HW1 6116   6.235   0.427   4.237
 1739SOL    HW2 6117   6.360   0.532   4.235
 1740SOL     OW 6118   6.487   1.588   5.396
 1740SOL    HW1 6119   6.575   1.621   5.361
 1740SOL    HW2 6120   6.413   1.641   5.356
 1741SOL     OW 6121   2.780   1.325   4.045
 1741SOL    HW1 6122   2.843   1.271   4.101
 1741SOL    HW2 6123   2.817   1.332   3.952
 1742SOL     OW 6124   5.648   1.017   5.930
 1742SOL    HW1 6125   5.670   1.027   6.027
 1742SOL    HW2 6126   5.723   1.054   5.875
 1743SOL     OW 6127   1.144   1.126   2.376
 1743SOL    HW1 6128   1.206   1.079   2.312
 1743SOL    HW2 6129   1.192   1.143   2.462
 1744SOL     OW 6130   5.338   2.332   3.056
 1744SOL    HW1 6131   5.388   2.249   3.035
 1744SOL    HW2 6132   5.396   2.392   3.112
 1745SOL     OW 6133   5.931   6.525   1.947
 1745SOL    HW1 6134   5.979   6.438   1.934
 1745SOL    HW2 6135   5.867   6.539   1.872
 1746SOL     OW 6136   2.055   3.848   4.138
 1746SOL    HW1 6137   2.149   3.847   4.172
 1746SOL    HW2 6138   1.996   3.894   4.204
 1747SOL     OW 6139   3.797   1.854   2.049
 1747SOL    HW1 6140   3.871   1.814   2.102
 1747SOL    HW2 6141   3.717   1.867   2.108
 1748SOL     OW 6142   6.226   1.487   4.123
 1748SOL    HW1 6143   6.279   1.432   4.057
 1748SOL    HW2 6144   6.245   1.454   4.215
 1749SOL     OW 6145   2.829   6.761   6.824
 1749SOL    HW1 6146   2.758   6.701   6.788
 1749SOL    HW2 6147   2.819   6.769   6.924
 1750SOL     OW 6148   4.626   0.556   4.213
 1750SOL    HW1 6149   4.558   0.602   4.156
 1750SOL    HW2 6150   4.579   0.499   4.281
 1751SOL     OW 6151   5.607   2.111   4.831
 1751SOL    HW1 6152   5.634   2.205   4.851
 1751SOL    HW2 6153   5.561   2.073   4.911
 1752SOL     OW 6154   5.767   0.480   1.251
 1752SOL    HW1 6155   5.678   0.468   1.296
 1752SOL    HW2 6156   5.839   0.452   1.314
 1753SOL     OW 6157   6.707   1.416   1.921
 1753SOL    HW1 6158   6.641   1.343   1.902
 1753SOL    HW2 6159   6.799   1.385   1.898
 1754SOL     OW 6160   1.864   5.787   6.338
 1754SOL    HW1 6161   1.834   5.709   6.393
 1754SOL    HW2 6162   1.791   5.812   6.274
 1755SOL     OW 6163   0.290   6.311   6.162
 1755SOL    HW1 6164   0.251   6.228   6.203
 1755SOL    HW2 6165   0.383   6.324   6.196
 1756SOL     OW 6166   3.849   6.417   6.290
 1756SOL    HW1 6167   3.855   6.370   6.378
 1756SOL    HW2 6168   3.783   6.492   6.298
 1757SOL     OW 6169   3.303   4.940   5.027
 1757SOL    HW1 6170   3.270   4.937   4.933
 1757SOL    HW2 6171   3.239   4.891   5.086
 1758SOL     OW 6172   1.828   0.105   4.702
 1758SOL    HW1 6173   1.849   0.196   4.737
 1758SOL    HW2 6174   1.738   0.106   4.658
 1759SOL     OW 6175   1.211   6.605   5.447
 1759SOL    HW1 6176   1.164   6.524   5.482
 1759SOL    HW2 6177   1.227   6.670   5.522
 1760SOL     OW 6178   6.046   0.735   4.263
 1760SOL    HW1 6179   6.064   0.827   4.298
 1760SOL    HW2 6180   6.129   0.680   4.271
 1761SOL     OW 6181   6.830   0.582   0.992
 1761SOL    HW1 6182   6.856   0.653   0.926
 1761SOL    HW2 6183   6.744   0.541   0.963
 1762SOL     OW 6184   6.936   1.475   5.182
 1762SOL    HW1 6185   6.968   1.380   5.191
 1762SOL    HW2 6186   6.994   1.523   5.116
 1763SOL     OW 6187   1.016   4.348   4.878
 1763SOL    HW1 6188   1.095   4.323   4.822
 1763SOL    HW2 6189   0.945   4.388   4.819
 1764SOL     OW 6190   0.454   3.369   2.063
 1764SOL    HW1 6191   0.409   3.377   1.974
 1764SOL    HW2 6192   0.550   3.345   2.050
 1765SOL     OW 6193   3.920   2.537   1.635
 1765SOL    HW1 6194   3.971   2.603   1.691
 1765SOL    HW2 6195   3.822   2.557   1.641
 1766SOL     OW 6196   5.472   4.606   4.046
 1766SOL    HW1 6197   5.548   4.608   3.980
 1766SOL    HW2 6198   5.408   4.680   4.026
 1767SOL     OW 6199   0.852   4.528   2.813
 1767SOL    HW1 6200   0.903   4.494   2.734
 1767SOL    HW2 6201   0.757   4.544   2.786
 1768SOL     OW 6202   4.596   0.369   0.338
 1768SOL    HW1 6203   4.539   0.287   0.349
 1768SOL    HW2 6204   4.677   0.345   0.284
 1769SOL     OW 6205   5.926   0.916   0.480
 1769SOL    HW1 6206   6.018   0.887   0.453
 1769SOL    HW2 6207   5.918   1.015   0.469
 1770SOL     OW 6208   0.348   3.735   5.240
 1770SOL    HW1 6209   0.408   3.812   5.263
 1770SOL    HW2 6210   0.253   3.758   5.261
 1771SOL     OW 6211   1.973   4.737   0.052
 1771SOL    HW1 6212   1.985   4.787   6.993
 1771SOL    HW2 6213   2.011   4.791   0.128
 1772SOL     OW 6214   3.972   5.410   4.388
 1772SOL    HW1 6215   4.040   5.480   4.409
 1772SOL    HW2 6216   4.019   5.323   4.370
 1773SOL     OW 6217   0.646   1.731   5.338
 1773SOL    HW1 6218   0.717   1.757   5.273
 1773SOL    HW2 6219   0.583   1.666   5.294
 1774SOL     OW 6220   5.269   6.577   2.232
 1774SOL    HW1 6221   5.279   6.642   2.157
 1774SOL    HW2 6222   5.343   6.591   2.298
 1775SOL     OW 6223   1.827   5.562   6.506
 1775SOL    HW1 6224   1.908   5.522   6.547
 1775SOL    HW2 6225   1.774   5.491   6.460
 1776SOL     OW 6226   4.926   0.619   5.722
 1776SOL    HW1 6227   4.963   0.697   5.672
 1776SOL    HW2 6228   5.000   0.558   5.748
 1777SOL     OW 6229   4.333   6.709   6.497
 1777SOL    HW1 6230   4.380   6.685   6.581
 1777SOL    HW2 6231   4.285   6.796   6.509
 1778SOL     OW 6232   4.827   1.055   4.419
 1778SOL    HW1 6233   4.880   1.128   4.463
 1778SOL    HW2 6234   4.821   1.072   4.321
 1779SOL     OW 6235   5.285   6.789   5.542
 1779SOL    HW1 6236   5.313   6.738   5.623
 1779SOL    HW2 6237   5.325   6.881   5.545
 1780SOL     OW 6238   1.656   4.499   4.903
 1780SOL    HW1 6239   1.576   4.450   4.937
 1780SOL    HW2 6240   1.721   4.433   4.865
 1781SOL     OW 6241   5.028   6.968   4.614
 1781SOL    HW1 6242   5.049   6.870   4.620
 1781SOL    HW2 6243   5.107   7.020   4.645
 1782SOL     OW 6244   1.868   1.778   2.810
 1782SOL    HW1 6245   1.890   1.709   2.742
 1782SOL    HW2 6246   1.897   1.868   2.777
 1783SOL     OW 6247   2.122   3.628   6.047
 1783SOL    HW1 6248   2.090   3.721   6.030
 1783SOL    HW2 6249   2.104   3.572   5.966
 1784SOL     OW 6250   2.596   1.192   2.012
 1784SOL    HW1 6251   2.521   1.257   2.020
 1784SOL    HW2 6252   2.576   1.125   1.940
 1785SOL     OW 6253   6.862   6.233   4.411
 1785SOL    HW1 6254   6.933   6.175   4.371
 1785SOL    HW2 6255   6.831   6.299   4.342
 1786SOL     OW 6256   2.061   5.176   0.832
 1786SOL    HW1 6257   2.107   5.108   0.774
 1786SOL    HW2 6258   2.004   5.235   0.775
 1787SOL     OW 6259   2.100   2.472   5.451
 1787SOL    HW1 6260   2.009   2.431   5.449
 1787SOL    HW2 6261   2.110   2.536   5.374
 1788SOL     OW 6262   4.649   3.876   0.370
 1788SOL    HW1 6263   4.584   3.801   0.378
 1788SOL    HW2 6264   4.624   3.935   0.293
 1789SOL     OW 6265   6.359   3.374   2.143
 1789SOL    HW1 6266   6.352   3.274   2.149
 1789SOL    HW2 6267   6.287   3.415   2.199
 1790SOL     OW 6268   3.171   1.274   4.434
 1790SOL    HW1 6269   3.169   1.198   4.369
 1790SOL    HW2 6270   3.264   1.288   4.467
 1791SOL     OW 6271   6.215   0.979   3.380
 1791SOL    HW1 6272   6.307   0.973   3.418
 1791SOL    HW2 6273   6.164   1.051   3.429
 1792SOL     OW 6274   6.532   1.702   4.490
 1792SOL    HW1 6275   6.466   1.757   4.437
 1792SOL    HW2 6276   6.592   1.763   4.541
 1793SOL     OW 6277   6.261   1.561   4.892
 1793SOL    HW1 6278   6.253   1.566   4.792
 1793SOL    HW2 6279   6.199   1.491   4.927
 1794SOL     OW 6280   6.331   0.190   6.333
 1794SOL    HW1 6281   6.300   0.186   6.428
 1794SOL    HW2 6282   6.361   0.099   6.303
 1795SOL     OW 6283   5.670   5.014   1.133
 1795SOL    HW1 6284   5.733   5.084   1.097
 1795SOL    HW2 6285   5.709   4.975   1.216
 1796SOL     OW 6286   1.985   0.911   5.625
 1796SOL    HW1 6287   1.916   0.948   5.562
 1796SOL    HW2 6288   2.061   0.975   5.632
 1797SOL     OW 6289   1.529   0.089   4.856
 1797SOL    HW1 6290   1.558   0.082   4.951
 1797SOL    HW2 6291   1.507   0.184   4.834
 1798SOL     OW 6292   3.550   2.898   4.529
 1798SOL    HW1 6293   3.586   2.891   4.436
 1798SOL    HW2 6294   3.495   2.981   4.538
 1799SOL     OW 6295   4.067   1.895   6.873
 1799SOL    HW1 6296   3.984   1.850   6.905
 1799SOL    HW2 6297   4.056   1.994   6.882
 1800SOL     OW 6298   5.369   4.316   3.667
 1800SOL    HW1 6299   5.412   4.406   3.654
 1800SOL    HW2 6300   5.361   4.270   3.578
 1801SOL     OW 6301   0.814   1.807   1.639
 1801SOL    HW1 6302   0.765   1.836   1.557
 1801SOL    HW2 6303   0.830   1.886   1.699
 1802SOL     OW 6304   6.284   5.609   3.631
 1802SOL    HW1 6305   6.314   5.531   3.577
 1802SOL    HW2 6306   6.216   5.662   3.579
 1803SOL     OW 6307   0.148   6.321   2.401
 1803SOL    HW1 6308   0.186   6.413   2.388
 1803SOL    HW2 6309   0.197   6.256   2.343
 1804SOL     OW 6310   3.327   3.748   5.601
 1804SOL    HW1 6311   3.282   3.836   5.585
 1804SOL    HW2 6312   3.258   3.676   5.610
 1805SOL     OW 6313   1.347   6.039   5.772
 1805SOL    HW1 6314   1.259   5.995   5.789
 1805SOL    HW2 6315   1.356   6.060   5.675
 1806SOL     OW 6316   6.602   2.230   2.259
 1806SOL    HW1 6317   6.609   2.164   2.334
 1806SOL    HW2 6318   6.574   2.183   2.176
 1807SOL     OW 6319   6.367   3.649   0.464
 1807SOL    HW1 6320   6.345   3.733   0.513
 1807SOL    HW2 6321   6.283   3.597   0.448
 1808SOL     OW 6322   5.502   3.151   5.136
 1808SOL    HW1 6323   5.407   3.129   5.114
 1808SOL    HW2 6324   5.522   3.245   5.110
 1809SOL     OW 6325   2.911   1.811   5.322
 1809SOL    HW1 6326   2.865   1.777   5.404
 1809SOL    HW2 6327   2.898   1.910   5.315
 1810SOL     OW 6328   0.465   0.662   4.613
 1810SOL    HW1 6329   0.420   0.725   4.676
 1810SOL    HW2 6330   0.408   0.581   4.600
 1811SOL     OW 6331   4.746   4.714   1.459
 1811SOL    HW1 6332   4.783   4.625   1.485
 1811SOL    HW2 6333   4.653   4.723   1.494
 1812SOL     OW 6334   4.635   0.114   5.988
 1812SOL    HW1 6335   4.570   0.169   5.936
 1812SOL    HW2 6336   4.607   0.018   5.984
 1813SOL     OW 6337   4.668   4.314   2.271
 1813SOL    HW1 6338   4.684   4.279   2.179
 1813SOL    HW2 6339   4.592   4.378   2.270
 1814SOL     OW 6340   6.666   6.904   0.410
 1814SOL    HW1 6341   6.599   6.963   0.455
 1814SOL    HW2 6342   6.670   6.816   0.456
 1815SOL     OW 6343   5.747   5.770   2.503
 1815SOL    HW1 6344   5.760   5.681   2.458
 1815SOL    HW2 6345   5.674   5.763   2.571
 1816SOL     OW 6346   4.144   6.330   5.618
 1816SOL    HW1 6347   4.123   6.342   5.521
 1816SOL    HW2 6348   4.211   6.258   5.629
 1817SOL     OW 6349   2.551   2.083   2.843
 1817SOL    HW1 6350   2.567   1.986   2.861
 1817SOL    HW2 6351   2.637   2.127   2.819
 1818SOL     OW 6352   1.864   6.457   0.338
 1818SOL    HW1 6353   1.925   6.514   0.394
 1818SOL    HW2 6354   1.814   6.394   0.397
 1819SOL     OW 6355   1.512   5.128   2.202
 1819SOL    HW1 6356   1.524   5.095   2.108
 1819SOL    HW2 6357   1.485   5.052   2.261
 1820SOL     OW 6358   4.139   0.358   2.639
 1820SOL    HW1 6359   4.127   0.421   2.563
 1820SOL    HW2 6360   4.183   0.406   2.715
 1821SOL     OW 6361   3.311   1.040   1.982
 1821SOL    HW1 6362   3.299   0.960   2.041
 1821SOL    HW2 6363   3.236   1.104   1.997
 1822SOL     OW 6364   0.673   3.433   1.726
 1822SOL    HW1 6365   0.728   3.516   1.727
 1822SOL    HW2 6366   0.680   3.388   1.815
 1823SOL     OW 6367   3.618   6.226   2.699
 1823SOL    HW1 6368   3.679   6.163   2.747
 1823SOL    HW2 6369   3.644   6.230   2.602
 1824SOL     OW 6370   3.946   4.121   0.724
 1824SOL    HW1 6371   3.970   4.079   0.636
 1824SOL    HW2 6372   3.881   4.062   0.772
 1825SOL     OW 6373   0.335   2.816   4.938
 1825SOL    HW1 6374   0.281   2.768   5.007
 1825SOL    HW2 6375   0.279   2.833   4.857
 1826SOL     OW 6376   3.789   1.624   0.983
 1826SOL    HW1 6377   3.731   1.654   1.059
 1826SOL    HW2 6378   3.831   1.704   0.940
 1827SOL     OW 6379   4.936   5.223   0.998
 1827SOL    HW1 6380   4.857   5.162   1.008
 1827SOL    HW2 6381   5.020   5.173   1.019
 1828SOL     OW 6382   1.465   3.534   6.204
 1828SOL    HW1 6383   1.394   3.601   6.184
 1828SOL    HW2 6384   1.491   3.486   6.120
 1829SOL     OW 6385   3.668   0.882   3.132
 1829SOL    HW1 6386   3.605   0.813   3.165
 1829SOL    HW2 6387   3.738   0.839   3.075
 1830SOL     OW 6388   6.142   6.585   4.974
 1830SOL    HW1 6389   6.121   6.622   5.064
 1830SOL    HW2 6390   6.164   6.488   4.982
 1831SOL     OW 6391   5.145   5.933   3.060
 1831SOL    HW1 6392   5.050   5.957   3.039
 1831SOL    HW2 6393   5.178   5.990   3.136
 1832SOL     OW 6394   2.938   3.893   0.569
 1832SOL    HW1 6395   2.879   3.818   0.539
 1832SOL    HW2 6396   2.902   3.980   0.535
 1833SOL     OW 6397   4.769   0.055   1.120
 1833SOL    HW1 6398   4.841   0.020   1.061
 1833SOL    HW2 6399   4.793   0.147   1.152
 1834SOL     OW 6400   3.136   2.737   0.987
 1834SOL    HW1 6401   3.042   2.754   0.959
 1834SOL    HW2 6402   3.137   2.679   1.069
 1835SOL     OW 6403   1.239   5.481   0.933
 1835SOL    HW1 6404   1.251   5.574   0.968
 1835SOL    HW2 6405   1.324   5.430   0.943
 1836SOL     OW 6406   4.923   1.140   2.337
 1836SOL    HW1 6407   4.932   1.145   2.238
 1836SOL    HW2 6408   4.827   1.158   2.362
 1837SOL     OW 6409   1.795   1.004   5.436
 1837SOL    HW1 6410   1.765   0.910   5.421
 1837SOL    HW2 6411   1.811   1.049   5.348
 1838SOL     OW 6412   6.338   0.916   6.649
 1838SOL    HW1 6413   6.280   0.946   6.725
 1838SOL    HW2 6414   6.327   0.817   6.636
 1839SOL     OW 6415   6.305   1.635   6.349
 1839SOL    HW1 6416   6.374   1.677   6.407
 1839SOL    HW2 6417   6.266   1.704   6.288
 1840SOL     OW 6418   4.017   7.026   3.272
 1840SOL    HW1 6419   4.078   0.055   3.217
 1840SOL    HW2 6420   3.996   0.047   3.357
 1841SOL     OW 6421   2.370   0.460   2.162
 1841SOL    HW1 6422   2.378   0.404   2.244
 1841SOL    HW2 6423   2.312   0.539   2.182
 1842SOL     OW 6424   1.988   4.911   0.918
 1842SOL    HW1 6425   1.964   5.007   0.904
 1842SOL    HW2 6426   1.951   4.856   0.844
 1843SOL     OW 6427   4.146   1.192   4.610
 1843SOL    HW1 6428   4.097   1.250   4.676
 1843SOL    HW2 6429   4.240   1.178   4.641
 1844SOL     OW 6430   4.556   2.238   5.543
 1844SOL    HW1 6431   4.534   2.322   5.591
 1844SOL    HW2 6432   4.479   2.174   5.550
 1845SOL     OW 6433   2.904   0.663   3.645
 1845SOL    HW1 6434   2.915   0.636   3.740
 1845SOL    HW2 6435   2.850   0.593   3.597
 1846SOL     OW 6436   4.646   0.820   3.132
 1846SOL    HW1 6437   4.654   0.723   3.152
 1846SOL    HW2 6438   4.642   0.834   3.033
 1847SOL     OW 6439   1.697   0.795   4.841
 1847SOL    HW1 6440   1.714   0.698   4.824
 1847SOL    HW2 6441   1.599   0.814   4.832
 1848SOL     OW 6442   2.839   5.834   3.997
 1848SOL    HW1 6443   2.843   5.734   3.988
 1848SOL    HW2 6444   2.883   5.876   3.918
 1849SOL     OW 6445   4.923   3.173   2.178
 1849SOL    HW1 6446   4.846   3.122   2.142
 1849SOL    HW2 6447   5.005   3.153   2.123
 1850SOL     OW 6448   4.868   1.796   2.368
 1850SOL    HW1 6449   4.855   1.805   2.270
 1850SOL    HW2 6450   4.927   1.717   2.387
 1851SOL     OW 6451   0.245   3.207   6.323
 1851SOL    HW1 6452   0.345   3.219   6.323
 1851SOL    HW2 6453   0.209   3.236   6.234
 1852SOL     OW 6454   0.388   4.780   1.567
 1852SOL    HW1 6455   0.292   4.768   1.541
 1852SOL    HW2 6456   0.444   4.709   1.524
 1853SOL     OW 6457   6.851   2.296   4.242
 1853SOL    HW1 6458   6.911   2.261   4.314
 1853SOL    HW2 6459   6.814   2.384   4.270
 1854SOL     OW 6460   0.895   5.832   3.363
 1854SOL    HW1 6461   0.980   5.817   3.311
 1854SOL    HW2 6462   0.873   5.930   3.364
 1855SOL     OW 6463   5.466   3.332   4.441
 1855SOL    HW1 6464   5.522   3.397   4.391
 1855SOL    HW2 6465   5.511   3.307   4.526
 1856SOL     OW 6466   4.050   3.238   6.709
 1856SOL    HW1 6467   4.033   3.329   6.745
 1856SOL    HW2 6468   3.966   3.202   6.667
 1857SOL     OW 6469   5.763   1.200   0.684
 1857SOL    HW1 6470   5.666   1.201   0.707
 1857SOL    HW2 6471   5.776   1.160   0.593
 1858SOL     OW 6472   4.879   2.322   4.093
 1858SOL    HW1 6473   4.785   2.322   4.126
 1858SOL    HW2 6474   4.936   2.374   4.156
 1859SOL     OW 6475   5.211   1.854   4.617
 1859SOL    HW1 6476   5.183   1.858   4.521
 1859SOL    HW2 6477   5.177   1.770   4.658
 1860SOL     OW 6478   0.896   2.092   4.830
 1860SOL    HW1 6479   0.834   2.020   4.858
 1860SOL    HW2 6480   0.921   2.079   4.734
 1861SOL     OW 6481   5.732   0.159   2.998
 1861SOL    HW1 6482   5.802   0.113   2.944
 1861SOL    HW2 6483   5.718   0.110   3.084
 1862SOL     OW 6484   1.777   0.045   6.799
 1862SOL    HW1 6485   1.692   0.045   6.851
 1862SOL    HW2 6486   1.855   0.053   6.862
 1863SOL     OW 6487   0.220   2.795   1.250
 1863SOL    HW1 6488   0.291   2.725   1.259
 1863SOL    HW2 6489   0.262   2.886   1.253
 1864SOL     OW 6490   3.048   5.500   4.275
 1864SOL    HW1 6491   3.089   5.410   4.289
 1864SOL    HW2 6492   2.951   5.496   4.296
 1865SOL     OW 6493   3.991   1.232   1.347
 1865SOL    HW1 6494   4.079   1.274   1.368
 1865SOL    HW2 6495   3.940   1.291   1.284
 1866SOL     OW 6496   6.372   3.976   4.473
 1866SOL    HW1 6497   6.321   3.894   4.502
 1866SOL    HW2 6498   6.322   4.058   4.502
 1867SOL     OW 6499   2.692   2.752   1.424
 1867SOL    HW1 6500   2.604   2.718   1.388
 1867SOL    HW2 6501   2.745   2.676   1.460
 1868SOL     OW 6502   4.753   4.112   5.131
 1868SOL    HW1 6503   4.799   4.035   5.176
 1868SOL    HW2 6504   4.795   4.197   5.161
 1869SOL     OW 6505   5.006   2.476   4.273
 1869SOL    HW1 6506   4.956   2.556   4.306
 1869SOL    HW2 6507   5.091   2.466   4.324
 1870SOL     OW 6508   1.037   3.058   4.098
 1870SOL    HW1 6509   1.125   3.105   4.086
 1870SOL    HW2 6510   1.008   3.021   4.010
 1871SOL     OW 6511   6.969   6.449   0.377
 1871SOL    HW1 6512   0.016   6.401   0.426
 1871SOL    HW2 6513   6.930   6.387   0.308
 1872SOL     OW 6514   3.112   2.705   0.625
 1872SOL    HW1 6515   3.014   2.686   0.623
 1872SOL    HW2 6516   3.163   2.619   0.630
 1873SOL     OW 6517   6.095   1.053   6.842
 1873SOL    HW1 6518   6.009   1.028   6.886
 1873SOL    HW2 6519   6.172   1.026   6.900
 1874SOL     OW 6520   0.741   0.614   6.695
 1874SOL    HW1 6521   0.767   0.637   6.789
 1874SOL    HW2 6522   0.696   0.525   6.694
 1875SOL     OW 6523   6.579   6.105   0.339
 1875SOL    HW1 6524   6.588   6.129   0.435
 1875SOL    HW2 6525   6.611   6.011   0.325
 1876SOL     OW 6526   5.965   6.390   5.906
 1876SOL    HW1 6527   5.980   6.356   5.813
 1876SOL    HW2 6528   5.998   6.484   5.912
 1877SOL     OW 6529   6.860   1.038   2.452
 1877SOL    HW1 6530   6.957   1.018   2.450
 1877SOL    HW2 6531   6.835   1.076   2.542
 1878SOL     OW 6532   0.211   3.897   3.576
 1878SOL    HW1 6533   0.229   3.837   3.654
 1878SOL    HW2 6534   0.247   3.855   3.493
 1879SOL     OW 6535   2.608   5.341   4.846
 1879SOL    HW1 6536   2.693   5.289   4.836
 1879SOL    HW2 6537   2.611   5.421   4.787
 1880SOL     OW 6538   0.030   2.182   3.399
 1880SOL    HW1 6539   0.044   2.084   3.410
 1880SOL    HW2 6540   0.086   2.215   3.322
 1881SOL     OW 6541   0.711   2.031   3.306
 1881SOL    HW1 6542   0.751   2.119   3.333
 1881SOL    HW2 6543   0.638   2.046   3.239
 1882SOL     OW 6544   1.215   5.856   0.206
 1882SOL    HW1 6545   1.147   5.926   0.184
 1882SOL    HW2 6546   1.181   5.800   0.281
 1883SOL     OW 6547   1.552   3.453   2.879
 1883SOL    HW1 6548   1.555   3.545   2.918
 1883SOL    HW2 6549   1.472   3.404   2.913
 1884SOL     OW 6550   4.321   1.043   0.998
 1884SOL    HW1 6551   4.354   0.998   0.915
 1884SOL    HW2 6552   4.379   1.121   1.020
 1885SOL     OW 6553   6.590   2.179   0.838
 1885SOL    HW1 6554   6.577   2.082   0.856
 1885SOL    HW2 6555   6.503   2.219   0.808
 1886SOL     OW 6556   1.704   1.616   0.013
 1886SOL    HW1 6557   1.693   1.571   0.102
 1886SOL    HW2 6558   1.792   1.664   0.010
 1887SOL     OW 6559   0.387   4.422   5.812
 1887SOL    HW1 6560   0.358   4.361   5.738
 1887SOL    HW2 6561   0.441   4.370   5.879
 1888SOL     OW 6562   1.831   1.646   5.654
 1888SOL    HW1 6563   1.920   1.627   5.612
 1888SOL    HW2 6564   1.798   1.735   5.623
 1889SOL     OW 6565   4.497   3.492   0.151
 1889SOL    HW1 6566   4.592   3.460   0.150
 1889SOL    HW2 6567   4.490   3.575   0.207
 1890SOL     OW 6568   1.518   5.646   6.190
 1890SOL    HW1 6569   1.442   5.590   6.157
 1890SOL    HW2 6570   1.498   5.678   6.282
 1891SOL     OW 6571   5.852   3.311   5.401
 1891SOL    HW1 6572   5.942   3.323   5.442
 1891SOL    HW2 6573   5.796   3.252   5.459
 1892SOL     OW 6574   4.010   6.572   1.732
 1892SOL    HW1 6575   3.938   6.557   1.665
 1892SOL    HW2 6576   4.070   6.646   1.701
 1893SOL     OW 6577   3.582   2.147   4.595
 1893SOL    HW1 6578   3.654   2.181   4.534
 1893SOL    HW2 6579   3.494   2.154   4.548
 1894SOL     OW 6580   4.078   3.769   1.448
 1894SOL    HW1 6581   4.133   3.814   1.519
 1894SOL    HW2 6582   4.125   3.777   1.360
 1895SOL     OW 6583   6.200   0.782   2.083
 1895SOL    HW1 6584   6.287   0.803   2.038
 1895SOL    HW2 6585   6.124   0.807   2.023
 1896SOL     OW 6586   6.564   1.181   4.158
 1896SOL    HW1 6587   6.630   1.231   4.213
 1896SOL    HW2 6588   6.533   1.239   4.082
 1897SOL     OW 6589   6.737   5.670   3.296
 1897SOL    HW1 6590   6.757   5.738   3.367
 1897SOL    HW2 6591   6.653   5.621   3.320
 1898SOL     OW 6592   4.301   6.032   1.528
 1898SOL    HW1 6593   4.240   6.090   1.581
 1898SOL    HW2 6594   4.391   6.076   1.523
 1899SOL     OW 6595   0.308   3.794   2.715
 1899SOL    HW1 6596   0.293   3.890   2.739
 1899SOL    HW2 6597   0.221   3.745   2.720
 1900SOL     OW 6598   1.071   0.133   6.337
 1900SOL    HW1 6599   1.008   0.056   6.348
 1900SOL    HW2 6600   1.130   0.140   6.418
 1901SOL     OW 6601   2.332   1.467   0.443
 1901SOL    HW1 6602   2.282   1.526   0.380
 1901SOL    HW2 6603   2.388   1.403   0.391
 1902SOL     OW 6604   1.372   2.124   4.827
 1902SOL    HW1 6605   1.332   2.033   4.838
 1902SOL    HW2 6606   1.357   2.156   4.734
 1903SOL     OW 6607   6.789   3.996   3.186
 1903SOL    HW1 6608   6.751   3.953   3.104
 1903SOL    HW2 6609   6.739   3.965   3.267
 1904SOL     OW 6610   7.023   6.938   4.454
 1904SOL    HW1 6611   7.011   6.842   4.479
 1904SOL    HW2 6612   7.019   6.995   4.536
 1905SOL     OW 6613   6.887   2.435   3.889
 1905SOL    HW1 6614   6.850   2.528   3.882
 1905SOL    HW2 6615   6.983   2.436   3.861
 1906SOL     OW 6616   2.651   0.290   5.706
 1906SOL    HW1 6617   2.676   0.208   5.654
 1906SOL    HW2 6618   2.595   0.350   5.650
 1907SOL     OW 6619   2.904   0.080   3.666
 1907SOL    HW1 6620   2.888   7.022   3.717
 1907SOL    HW2 6621   2.913   0.157   3.729
 1908SOL     OW 6622   4.346   1.479   5.946
 1908SOL    HW1 6623   4.419   1.428   5.991
 1908SOL    HW2 6624   4.354   1.576   5.968
 1909SOL     OW 6625   2.197   4.692   4.587
 1909SOL    HW1 6626   2.288   4.651   4.588
 1909SOL    HW2 6627   2.148   4.664   4.504
 1910SOL     OW 6628   5.421   2.649   6.680
 1910SOL    HW1 6629   5.448   2.554   6.663
 1910SOL    HW2 6630   5.393   2.691   6.594
 1911SOL     OW 6631   6.637   2.047   5.560
 1911SOL    HW1 6632   6.713   2.089   5.610
 1911SOL    HW2 6633   6.595   1.976   5.616
 1912SOL     OW 6634   3.698   6.449   2.390
 1912SOL    HW1 6635   3.626   6.492   2.444
 1912SOL    HW2 6636   3.690   6.349   2.396
 1913SOL     OW 6637   1.928   6.648   5.240
 1913SOL    HW1 6638   1.991   6.662   5.317
 1913SOL    HW2 6639   1.948   6.560   5.196
 1914SOL     OW 6640   1.939   2.718   6.491
 1914SOL    HW1 6641   1.867   2.755   6.549
 1914SOL    HW2 6642   1.901   2.692   6.403
 1915SOL     OW 6643   4.048   1.181   5.729
 1915SOL    HW1 6644   4.115   1.253   5.713
 1915SOL    HW2 6645   4.085   1.116   5.796
 1916SOL     OW 6646   4.437   5.685   0.886
 1916SOL    HW1 6647   4.442   5.774   0.839
 1916SOL    HW2 6648   4.425   5.613   0.818
 1917SOL     OW 6649   3.819   3.272   4.386
 1917SOL    HW1 6650   3.835   3.173   4.381
 1917SOL    HW2 6651   3.731   3.289   4.431
 1918SOL     OW 6652   6.350   6.835   6.017
 1918SOL    HW1 6653   6.354   6.765   5.946
 1918SOL    HW2 6654   6.261   6.834   6.061
 1919SOL     OW 6655   1.562   6.236   1.887
 1919SOL    HW1 6656   1.521   6.274   1.804
 1919SOL    HW2 6657   1.504   6.256   1.966
 1920SOL     OW 6658   0.277   4.181   3.579
 1920SOL    HW1 6659   0.244   4.087   3.585
 1920SOL    HW2 6660   0.317   4.197   3.489
 1921SOL     OW 6661   0.446   5.133   0.025
 1921SOL    HW1 6662   0.405   5.063   6.992
 1921SOL    HW2 6663   0.492   5.201   6.995
 1922SOL     OW 6664   4.331   3.084   1.174
 1922SOL    HW1 6665   4.387   3.006   1.145
 1922SOL    HW2 6666   4.325   3.086   1.273
 1923SOL     OW 6667   3.267   1.145   0.234
 1923SOL    HW1 6668   3.300   1.215   0.170
 1923SOL    HW2 6669   3.280   1.055   0.193
 1924SOL     OW 6670   6.170   4.430   1.864
 1924SOL    HW1 6671   6.228   4.367   1.916
 1924SOL    HW2 6672   6.162   4.517   1.913
 1925SOL     OW 6673   2.900   3.527   1.755
 1925SOL    HW1 6674   2.810   3.504   1.716
 1925SOL    HW2 6675   2.887   3.588   1.833
 1926SOL     OW 6676   1.478   0.356   4.740
 1926SOL    HW1 6677   1.399   0.366   4.799
 1926SOL    HW2 6678   1.450   0.315   4.653
 1927SOL     OW 6679   3.237   4.412   6.385
 1927SOL    HW1 6680   3.147   4.441   6.354
 1927SOL    HW2 6681   3.298   4.492   6.389
 1928SOL     OW 6682   6.407   3.409   5.898
 1928SOL    HW1 6683   6.456   3.396   5.985
 1928SOL    HW2 6684   6.461   3.469   5.839
 1929SOL     OW 6685   0.951   5.468   1.734
 1929SOL    HW1 6686   1.034   5.426   1.697
 1929SOL    HW2 6687   0.953   5.566   1.717
 1930SOL     OW 6688   5.745   4.374   0.244
 1930SOL    HW1 6689   5.727   4.300   0.179
 1930SOL    HW2 6690   5.771   4.457   0.195
 1931SOL     OW 6691   0.047   3.652   2.777
 1931SOL    HW1 6692   7.016   3.648   2.859
 1931SOL    HW2 6693   7.023   3.613   2.699
 1932SOL     OW 6694   5.161   3.580   2.954
 1932SOL    HW1 6695   5.191   3.492   2.990
 1932SOL    HW2 6696   5.124   3.568   2.862
 1933SOL     OW 6697   2.676   5.234   0.862
 1933SOL    HW1 6698   2.642   5.155   0.912
 1933SOL    HW2 6699   2.713   5.301   0.927
 1934SOL     OW 6700   1.425   0.113   5.389
 1934SOL    HW1 6701   1.396   0.082   5.479
 1934SOL    HW2 6702   1.522   0.139   5.393
 1935SOL     OW 6703   3.029   6.867   4.795
 1935SOL    HW1 6704   3.093   6.913   4.733
 1935SOL    HW2 6705   2.968   6.808   4.742
 1936SOL     OW 6706   5.894   5.405   4.701
 1936SOL    HW1 6707   5.909   5.344   4.779
 1936SOL    HW2 6708   5.950   5.487   4.711
 1937SOL     OW 6709   4.186   0.183   2.400
 1937SOL    HW1 6710   4.246   0.250   2.357
 1937SOL    HW2 6711   4.236   0.136   2.474
 1938SOL     OW 6712   4.035   1.954   3.328
 1938SOL    HW1 6713   4.060   2.042   3.288
 1938SOL    HW2 6714   3.988   1.899   3.259
 1939SOL     OW 6715   1.271   0.035   4.037
 1939SOL    HW1 6716   1.196   0.097   4.061
 1939SOL    HW2 6717   1.238   6.991   3.975
 1940SOL     OW 6718   5.285   5.359   6.767
 1940SOL    HW1 6719   5.327   5.286   6.821
 1940SOL    HW2 6720   5.320   5.356   6.674
 1941SOL     OW 6721   6.624   4.014   2.740
 1941SOL    HW1 6722   6.627   3.938   2.675
 1941SOL    HW2 6723   6.657   3.982   2.829
 1942SOL     OW 6724   6.479   6.655   2.700
 1942SOL    HW1 6725   6.392   6.695   2.672
 1942SOL    HW2 6726   6.516   6.600   2.625
 1943SOL     OW 6727   3.224   5.947   1.882
 1943SOL    HW1 6728   3.287   5.956   1.959
 1943SOL    HW2 6729   3.274   5.916   1.801
 1944SOL     OW 6730   5.337   2.340   6.128
 1944SOL    HW1 6731   5.429   2.338   6.165
 1944SOL    HW2 6732   5.298   2.248   6.126
 1945SOL     OW 6733   4.549   5.577   3.411
 1945SOL    HW1 6734   4.598   5.490   3.412
 1945SOL    HW2 6735   4.512   5.593   3.320
 1946SOL     OW 6736   0.391   1.013   0.577
 1946SOL    HW1 6737   0.455   1.066   0.522
 1946SOL    HW2 6738   0.313   0.985   0.521
 1947SOL     OW 6739   5.454   6.698   4.225
 1947SOL    HW1 6740   5.466   6.684   4.127
 1947SOL    HW2 6741   5.370   6.751   4.241
 1948SOL     OW 6742   6.587   5.623   3.546
 1948SOL    HW1 6743   6.533   5.573   3.614
 1948SOL    HW2 6744   6.531   5.696   3.507
 1949SOL     OW 6745   3.931   4.525   5.802
 1949SOL    HW1 6746   3.946   4.616   5.765
 1949SOL    HW2 6747   3.837   4.517   5.835
 1950SOL     OW 6748   3.938   3.784   1.013
 1950SOL    HW1 6749   3.897   3.746   1.096
 1950SOL    HW2 6750   4.002   3.718   0.974
 1951SOL     OW 6751   6.792   2.765   0.454
 1951SOL    HW1 6752   6.815   2.703   0.529
 1951SOL    HW2 6753   6.740   2.843   0.489
 1952SOL     OW 6754   3.547   2.397   6.948
 1952SOL    HW1 6755   3.480   2.364   6.881
 1952SOL    HW2 6756   3.537   2.495   6.961
 1953SOL     OW 6757   6.231   2.048   6.419
 1953SOL    HW1 6758   6.255   2.099   6.337
 1953SOL    HW2 6759   6.134   2.058   6.438
 1954SOL     OW 6760   5.577   1.446   4.585
 1954SOL    HW1 6761   5.488   1.407   4.610
 1954SOL    HW2 6762   5.598   1.421   4.490
 1955SOL     OW 6763   1.514   0.173   2.601
 1955SOL    HW1 6764   1.497   0.101   2.668
 1955SOL    HW2 6765   1.431   0.191   2.549
 1956SOL     OW 6766   6.042   6.577   2.609
 1956SOL    HW1 6767   6.071   6.483   2.629
 1956SOL    HW2 6768   6.057   6.596   2.512
 1957SOL     OW 6769   6.476   5.076   5.087
 1957SOL    HW1 6770   6.526   5.027   5.016
 1957SOL    HW2 6771   6.478   5.023   5.172
 1958SOL     OW 6772   6.141   2.789   3.954
 1958SOL    HW1 6773   6.153   2.769   3.856
 1958SOL    HW2 6774   6.175   2.713   4.008
 1959SOL     OW 6775   0.483   2.314   6.179
 1959SOL    HW1 6776   0.535   2.350   6.257
 1959SOL    HW2 6777   0.542   2.312   6.098
 1960SOL     OW 6778   6.376   4.913   1.058
 1960SOL    HW1 6779   6.358   4.815   1.062
 1960SOL    HW2 6780   6.452   4.936   1.119
 1961SOL     OW 6781   5.627   4.601   4.422
 1961SOL    HW1 6782   5.587   4.598   4.514
 1961SOL    HW2 6783   5.564   4.649   4.360
 1962SOL     OW 6784   1.760   5.961   3.269
 1962SOL    HW1 6785   1.681   5.905   3.292
 1962SOL    HW2 6786   1.739   6.019   3.190
 1963SOL     OW 6787   0.373   0.763   1.955
 1963SOL    HW1 6788   0.378   0.736   1.858
 1963SOL    HW2 6789   0.417   0.852   1.967
 1964SOL     OW 6790   4.486   2.774   1.410
 1964SOL    HW1 6791   4.518   2.679   1.413
 1964SOL    HW2 6792   4.387   2.776   1.403
 1965SOL     OW 6793   0.820   3.231   2.718
 1965SOL    HW1 6794   0.859   3.186   2.798
 1965SOL    HW2 6795   0.809   3.328   2.735
 1966SOL     OW 6796   0.135   5.200   5.018
 1966SOL    HW1 6797   0.184   5.253   4.949
 1966SOL    HW2 6798   0.058   5.152   4.976
 1967SOL     OW 6799   4.340   2.091   5.692
 1967SOL    HW1 6800   4.259   2.036   5.716
 1967SOL    HW2 6801   4.339   2.176   5.745
 1968SOL     OW 6802   2.949   6.088   0.104
 1968SOL    HW1 6803   2.960   5.991   0.127
 1968SOL    HW2 6804   2.854   6.115   0.119
 1969SOL     OW 6805   0.640   1.311   1.554
 1969SOL    HW1 6806   0.726   1.264   1.572
 1969SOL    HW2 6807   0.580   1.302   1.633
 1970SOL     OW 6808   2.228   1.363   5.978
 1970SOL    HW1 6809   2.305   1.324   5.927
 1970SOL    HW2 6810   2.142   1.336   5.935
 1971SOL     OW 6811   6.659   6.541   6.088
 1971SOL    HW1 6812   6.619   6.579   6.171
 1971SOL    HW2 6813   6.638   6.444   6.081
 1972SOL     OW 6814   6.916   2.321   3.099
 1972SOL    HW1 6815   7.014   2.303   3.108
 1972SOL    HW2 6816   6.903   2.410   3.054
 1973SOL     OW 6817   2.693   3.697   1.492
 1973SOL    HW1 6818   2.652   3.701   1.401
 1973SOL    HW2 6819   2.644   3.759   1.553
 1974SOL     OW 6820   6.241   6.338   3.927
 1974SOL    HW1 6821   6.159   6.392   3.946
 1974SOL    HW2 6822   6.261   6.279   4.005
 1975SOL     OW 6823   2.574   1.436   3.396
 1975SOL    HW1 6824   2.543   1.345   3.426
 1975SOL    HW2 6825   2.506   1.475   3.333
 1976SOL     OW 6826   0.763   5.765   0.078
 1976SOL    HW1 6827   0.823   5.713   0.139
 1976SOL    HW2 6828   0.792   5.861   0.077
 1977SOL     OW 6829   1.425   2.329   3.694
 1977SOL    HW1 6830   1.515   2.327   3.650
 1977SOL    HW2 6831   1.372   2.250   3.667
 1978SOL     OW 6832   1.464   0.224   4.008
 1978SOL    HW1 6833   1.411   0.139   4.012
 1978SOL    HW2 6834   1.490   0.251   4.100
 1979SOL     OW 6835   6.509   3.906   4.845
 1979SOL    HW1 6836   6.410   3.914   4.837
 1979SOL    HW2 6837   6.533   3.811   4.867
 1980SOL     OW 6838   3.157   0.909   0.131
 1980SOL    HW1 6839   3.196   0.845   0.065
 1980SOL    HW2 6840   3.155   0.866   0.221
 1981SOL     OW 6841   5.762   2.413   2.205
 1981SOL    HW1 6842   5.801   2.497   2.167
 1981SOL    HW2 6843   5.823   2.377   2.276
 1982SOL     OW 6844   5.988   4.268   5.788
 1982SOL    HW1 6845   5.946   4.179   5.803
 1982SOL    HW2 6846   5.958   4.331   5.860
 1983SOL     OW 6847   0.886   2.344   2.470
 1983SOL    HW1 6848   0.944   2.411   2.517
 1983SOL    HW2 6849   0.945   2.277   2.424
 1984SOL     OW 6850   5.635   0.582   5.315
 1984SOL    HW1 6851   5.600   0.529   5.238
 1984SOL    HW2 6852   5.682   0.521   5.379
 1985SOL     OW 6853   1.235   0.453   2.066
 1985SOL    HW1 6854   1.331   0.479   2.071
 1985SOL    HW2 6855   1.224   0.361   2.105
 1986SOL     OW 6856   1.298   0.693   0.330
 1986SOL    HW1 6857   1.366   0.731   0.267
 1986SOL    HW2 6858   1.333   0.700   0.423
 1987SOL     OW 6859   1.705   3.096   2.161
 1987SOL    HW1 6860   1.769   3.023   2.182
 1987SOL    HW2 6861   1.754   3.182   2.151
 1988SOL     OW 6862   4.719   4.590   0.724
 1988SOL    HW1 6863   4.803   4.569   0.774
 1988SOL    HW2 6864   4.643   4.541   0.766
 1989SOL     OW 6865   2.773   6.939   5.218
 1989SOL    HW1 6866   2.795   6.844   5.193
 1989SOL    HW2 6867   2.687   6.941   5.268
 1990SOL     OW 6868   3.547   0.095   1.005
 1990SOL    HW1 6869   3.495   0.179   1.021
 1990SOL    HW2 6870   3.519   0.026   1.072
 1991SOL     OW 6871   4.222   5.276   6.356
 1991SOL    HW1 6872   4.306   5.327   6.339
 1991SOL    HW2 6873   4.244   5.179   6.368
 1992SOL     OW 6874   1.799   6.691   6.935
 1992SOL    HW1 6875   1.704   6.660   6.940
 1992SOL    HW2 6876   1.860   6.617   6.963
 1993SOL     OW 6877   4.187   3.397   5.362
 1993SOL    HW1 6878   4.276   3.421   5.400
 1993SOL    HW2 6879   4.120   3.389   5.436
 1994SOL     OW 6880   1.623   2.527   1.421
 1994SOL    HW1 6881   1.665   2.567   1.340
 1994SOL    HW2 6882   1.593   2.601   1.483
 1995SOL     OW 6883   6.262   2.710   1.517
 1995SOL    HW1 6884   6.338   2.773   1.501
 1995SOL    HW2 6885   6.258   2.688   1.615
 1996SOL     OW 6886   2.977   3.726   0.781
 1996SOL    HW1 6887   3.029   3.757   0.861
 1996SOL    HW2 6888   2.967   3.802   0.716
 1997SOL     OW 6889   5.121   0.420   5.679
 1997SOL    HW1 6890   5.121   0.325   5.646
 1997SOL    HW2 6891   5.214   0.455   5.679
 1998SOL     OW 6892   3.120   3.794   5.356
 1998SOL    HW1 6893   3.091   3.820   5.264
 1998SOL    HW2 6894   3.205   3.742   5.351
 1999SOL     OW 6895   2.994   6.985   1.936
 1999SOL    HW1 6896   3.002   6.978   2.035
 1999SOL    HW2 6897   3.001   0.055   1.909
 2000SOL     OW 6898   3.797   2.003   5.822
 2000SOL    HW1 6899   3.700   1.990   5.802
 2000SOL    HW2 6900   3.849   1.993   5.738
 2001SOL     OW 6901   3.392   2.132   1.845
 2001SOL    HW1 6902   3.489   2.154   1.834
 2001SOL    HW2 6903   3.338   2.192   1.785
 2002SOL     OW 6904   0.750   5.580   6.072
 2002SOL    HW1 6905   0.723   5.613   5.982
 2002SOL    HW2 6906   0.669   5.571   6.130
 2003SOL     OW 6907   5.163   6.999   3.394
 2003SOL    HW1 6908   5.232   0.020   3.448
 2003SOL    HW2 6909   5.085   6.976   3.453
 2004SOL     OW 6910   5.021   1.021   5.093
 2004SOL    HW1 6911   4.979   0.931   5.079
 2004SOL    HW2 6912   5.008   1.050   5.188
 2005SOL     OW 6913   1.151   5.386   0.108
 2005SOL    HW1 6914   1.224   5.454   0.098
 2005SOL    HW2 6915   1.085   5.397   0.033
 2006SOL     OW 6916   5.141   4.125   4.054
 2006SOL    HW1 6917   5.128   4.154   4.149
 2006SOL    HW2 6918   5.177   4.031   4.052
 2007SOL     OW 6919   4.722   5.954   0.786
 2007SOL    HW1 6920   4.677   6.041   0.770
 2007SOL    HW2 6921   4.731   5.904   0.700
 2008SOL     OW 6922   0.698   5.277   3.264
 2008SOL    HW1 6923   0.652   5.324   3.340
 2008SOL    HW2 6924   0.757   5.342   3.216
 2009SOL     OW 6925   6.984   0.258   1.368
 2009SOL    HW1 6926   6.885   0.253   1.377
 2009SOL    HW2 6927   7.008   0.277   1.273
 2010SOL     OW 6928   1.384   1.387   0.785
 2010SOL    HW1 6929   1.398   1.290   0.805
 2010SOL    HW2 6930   1.287   1.403   0.768
 2011SOL     OW 6931   6.594   1.842   4.726
 2011SOL    HW1 6932   6.548   1.815   4.810
 2011SOL    HW2 6933   6.636   1.932   4.738
 2012SOL     OW 6934   1.115   3.309   1.333
 2012SOL    HW1 6935   1.109   3.279   1.428
 2012SOL    HW2 6936   1.202   3.358   1.319
 2013SOL     OW 6937   5.428   0.548   3.253
 2013SOL    HW1 6938   5.473   0.584   3.171
 2013SOL    HW2 6939   5.346   0.601   3.273
 2014SOL     OW 6940   1.379   4.917   3.018
 2014SOL    HW1 6941   1.298   4.861   3.030
 2014SOL    HW2 6942   1.455   4.860   2.985
 2015SOL     OW 6943   2.762   1.331   6.618
 2015SOL    HW1 6944   2.676   1.357   6.576
 2015SOL    HW2 6945   2.838   1.374   6.569
 2016SOL     OW 6946   0.761   5.497   5.594
 2016SOL    HW1 6947   0.737   5.401   5.586
 2016SOL    HW2 6948   0.860   5.508   5.594
 2017SOL     OW 6949   3.426   6.155   4.323
 2017SOL    HW1 6950   3.442   6.067   4.277
 2017SOL    HW2 6951   3.349   6.146   4.386
 2018SOL     OW 6952   6.121   5.755   6.310
 2018SOL    HW1 6953   6.175   5.820   6.255
 2018SOL    HW2 6954   6.174   5.672   6.324
 2019SOL     OW 6955   4.787   2.779   2.241
 2019SOL    HW1 6956   4.755   2.816   2.153
 2019SOL    HW2 6957   4.860   2.713   2.224
 2020SOL     OW 6958   1.366   4.750   4.878
 2020SOL    HW1 6959   1.267   4.763   4.875
 2020SOL    HW2 6960   1.403   4.749   4.785
 2021SOL     OW 6961   2.409   6.505   3.278
 2021SOL    HW1 6962   2.457   6.568   3.339
 2021SOL    HW2 6963   2.455   6.416   3.279
 2022SOL     OW 6964   2.136   3.550   2.533
 2022SOL    HW1 6965   2.235   3.557   2.542
 2022SOL    HW2 6966   2.111   3.458   2.501
 2023SOL     OW 6967   0.105   1.670   0.336
 2023SOL    HW1 6968   0.150   1.582   0.322
 2023SOL    HW2 6969   0.006   1.659   0.326
 2024SOL     OW 6970   0.247   0.560   2.627
 2024SOL    HW1 6971   0.222   0.579   2.722
 2024SOL    HW2 6972   0.201   0.625   2.567
 2025SOL     OW 6973   1.410   2.741   2.041
 2025SOL    HW1 6974   1.443   2.826   2.001
 2025SOL    HW2 6975   1.484   2.673   2.039
 2026SOL     OW 6976   1.667   2.251   6.005
 2026SOL    HW1 6977   1.568   2.239   6.011
 2026SOL    HW2 6978   1.706   2.254   6.097
 2027SOL     OW 6979   1.755   1.539   1.205
 2027SOL    HW1 6980   1.727   1.576   1.293
 2027SOL    HW2 6981   1.681   1.484   1.166
 2028SOL     OW 6982   3.360   1.341   6.436
 2028SOL    HW1 6983   3.325   1.414   6.495
 2028SOL    HW2 6984   3.371   1.376   6.343
 2029SOL     OW 6985   0.186   0.520   0.547
 2029SOL    HW1 6986   0.166   0.515   0.449
 2029SOL    HW2 6987   0.130   0.454   0.596
 2030SOL     OW 6988   2.262   1.195   3.671
 2030SOL    HW1 6989   2.213   1.277   3.701
 2030SOL    HW2 6990   2.348   1.187   3.722
 2031SOL     OW 6991   5.012   6.106   2.106
 2031SOL    HW1 6992   5.104   6.144   2.113
 2031SOL    HW2 6993   4.946   6.173   2.138
 2032SOL     OW 6994   4.280   6.441   1.749
 2032SOL    HW1 6995   4.190   6.484   1.733
 2032SOL    HW2 6996   4.352   6.505   1.723
 2033SOL     OW 6997   3.569   5.144   6.528
 2033SOL    HW1 6998   3.594   5.122   6.623
 2033SOL    HW2 6999   3.478   5.184   6.525
 2034SOL     OW 7000   2.965   0.066   4.496
 2034SOL    HW1 7001   2.903   0.015   4.436
 2034SOL    HW2 7002   3.051   0.015   4.505
 2035SOL     OW 7003   0.533   0.843   2.415
 2035SOL    HW1 7004   0.562   0.832   2.320
 2035SOL    HW2 7005   0.445   0.892   2.417
 2036SOL     OW 7006   0.554   6.045   3.546
 2036SOL    HW1 7007   0.631   6.095   3.506
 2036SOL    HW2 7008   0.468   6.084   3.514
 2037SOL     OW 7009   6.928   2.235   6.100
 2037SOL    HW1 7010   7.017   2.281   6.094
 2037SOL    HW2 7011   6.931   2.167   6.174
 2038SOL     OW 7012   1.159   1.312   6.657
 2038SOL    HW1 7013   1.145   1.389   6.718
 2038SOL    HW2 7014   1.140   1.227   6.707
 2039SOL     OW 7015   0.295   4.847   2.413
 2039SOL    HW1 7016   0.301   4.875   2.317
 2039SOL    HW2 7017   0.199   4.838   2.439
 2040SOL     OW 7018   3.148   3.174   5.271
 2040SOL    HW1 7019   3.139   3.223   5.358
 2040SOL    HW2 7020   3.192   3.086   5.286
 2041SOL     OW 7021   6.414   5.765   6.424
 2041SOL    HW1 7022   6.395   5.671   6.395
 2041SOL    HW2 7023   6.504   5.792   6.389
 2042SOL     OW 7024   5.976   5.733   6.899
 2042SOL    HW1 7025   5.894   5.777   6.935
 2042SOL    HW2 7026   5.987   5.756   6.802
 2043SOL     OW 7027   6.614   4.124   2.409
 2043SOL    HW1 7028   6.573   4.033   2.402
 2043SOL    HW2 7029   6.554   4.184   2.463
 2044SOL     OW 7030   4.954   0.148   1.915
 2044SOL    HW1 7031   5.001   0.191   1.992
 2044SOL    HW2 7032   4.875   0.203   1.889
 2045SOL     OW 7033   2.072   4.410   5.170
 2045SOL    HW1 7034   2.000   4.476   5.189
 2045SOL    HW2 7035   2.034   4.332   5.120
 2046SOL     OW 7036   6.763   0.446   4.373
 2046SOL    HW1 7037   6.783   0.364   4.319
 2046SOL    HW2 7038   6.765   0.423   4.470
 2047SOL     OW 7039   4.230   2.134   0.133
 2047SOL    HW1 7040   4.205   2.105   0.225
 2047SOL    HW2 7041   4.249   2.053   0.076
 2048SOL     OW 7042   2.596   5.589   0.185
 2048SOL    HW1 7043   2.530   5.584   0.111
 2048SOL    HW2 7044   2.689   5.597   0.148
 2049SOL     OW 7045   4.132   1.803   6.303
 2049SOL    HW1 7046   4.063   1.804   6.375
 2049SOL    HW2 7047   4.207   1.864   6.328
 2050SOL     OW 7048   6.162   2.120   3.755
 2050SOL    HW1 7049   6.102   2.070   3.817
 2050SOL    HW2 7050   6.116   2.133   3.667
 2051SOL     OW 7051   0.028   4.800   0.417
 2051SOL    HW1 7052   0.126   4.796   0.437
 2051SOL    HW2 7053   7.004   4.803   0.503
 2052SOL     OW 7054   0.569   4.121   0.521
 2052SOL    HW1 7055   0.650   4.124   0.580
 2052SOL    HW2 7056   0.490   4.157   0.571
 2053SOL     OW 7057   6.230   0.981   0.268
 2053SOL    HW1 7058   6.274   0.973   0.179
 2053SOL    HW2 7059   6.143   0.930   0.267
 2054SOL     OW 7060   4.703   2.789   1.790
 2054SOL    HW1 7061   4.782   2.743   1.831
 2054SOL    HW2 7062   4.688   2.876   1.836
 2055SOL     OW 7063   5.937   2.813   3.039
 2055SOL    HW1 7064   5.872   2.741   3.016
 2055SOL    HW2 7065   5.934   2.885   2.969
 2056SOL     OW 7066   2.516   1.087   3.104
 2056SOL    HW1 7067   2.608   1.089   3.143
 2056SOL    HW2 7068   2.458   1.153   3.150
 2057SOL     OW 7069   5.539   2.253   3.928
 2057SOL    HW1 7070   5.629   2.281   3.895
 2057SOL    HW2 7071   5.542   2.242   4.027
 2058SOL     OW 7072   1.272   1.645   3.163
 2058SOL    HW1 7073   1.299   1.588   3.241
 2058SOL    HW2 7074   1.269   1.589   3.080
 2059SOL     OW 7075   2.845   6.258   6.245
 2059SOL    HW1 7076   2.774   6.295   6.186
 2059SOL    HW2 7077   2.916   6.327   6.260
 2060SOL     OW 7078   6.846   3.841   0.830
 2060SOL    HW1 7079   6.826   3.758   0.883
 2060SOL    HW2 7080   6.823   3.826   0.734
 2061SOL     OW 7081   0.761   1.656   3.063
 2061SOL    HW1 7082   0.735   1.626   3.155
 2061SOL    HW2 7083   0.682   1.649   3.002
 2062SOL     OW 7084   5.752   6.994   3.213
 2062SOL    HW1 7085   5.681   6.924   3.218
 2062SOL    HW2 7086   5.750   0.023   3.296
 2063SOL     OW 7087   1.280   0.786   6.282
 2063SOL    HW1 7088   1.312   0.831   6.365
 2063SOL    HW2 7089   1.331   0.821   6.204
 2064SOL     OW 7090   0.597   1.422   5.788
 2064SOL    HW1 7091   0.584   1.324   5.771
 2064SOL    HW2 7092   0.512   1.471   5.769
 2065SOL     OW 7093   6.584   3.627   2.856
 2065SOL    HW1 7094   6.601   3.558   2.786
 2065SOL    HW2 7095   6.569   3.582   2.944
 2066SOL     OW 7096   0.780   6.194   3.861
 2066SOL    HW1 7097   0.850   6.250   3.906
 2066SOL    HW2 7098   0.721   6.153   3.930
 2067SOL     OW 7099   6.511   6.139   0.607
 2067SOL    HW1 7100   6.522   6.154   0.705
 2067SOL    HW2 7101   6.475   6.222   0.564
 2068SOL     OW 7102   0.840   1.441   5.613
 2068SOL    HW1 7103   0.875   1.397   5.696
 2068SOL    HW2 7104   0.897   1.520   5.591
 2069SOL     OW 7105   0.746   2.799   3.370
 2069SOL    HW1 7106   0.794   2.869   3.422
 2069SOL    HW2 7107   0.808   2.722   3.352
 2070SOL     OW 7108   1.891   0.637   2.706
 2070SOL    HW1 7109   1.913   0.652   2.610
 2070SOL    HW2 7110   1.792   0.626   2.717
 2071SOL     OW 7111   6.852   5.570   5.372
 2071SOL    HW1 7112   6.756   5.599   5.377
 2071SOL    HW2 7113   6.910   5.644   5.408
 2072SOL     OW 7114   4.536   6.577   1.666
 2072SOL    HW1 7115   4.553   6.650   1.600
 2072SOL    HW2 7116   4.505   6.617   1.753
 2073SOL     OW 7117   3.486   0.283   4.299
 2073SOL    HW1 7118   3.388   0.294   4.279
 2073SOL    HW2 7119   3.510   0.337   4.379
 2074SOL     OW 7120   0.753   3.450   0.750
 2074SOL    HW1 7121   0.822   3.431   0.821
 2074SOL    HW2 7122   0.662   3.451   0.791
 2075SOL     OW 7123   5.397   2.991   1.864
 2075SOL    HW1 7124   5.413   2.898   1.898
 2075SOL    HW2 7125   5.403   2.991   1.764
 2076SOL     OW 7126   4.987   7.011   6.660
 2076SOL    HW1 7127   5.041   0.032   6.729
 2076SOL    HW2 7128   5.018   0.012   6.569
 2077SOL     OW 7129   4.675   2.378   2.547
 2077SOL    HW1 7130   4.624   2.304   2.590
 2077SOL    HW2 7131   4.655   2.379   2.449
 2078SOL     OW 7132   1.490   6.426   6.475
 2078SOL    HW1 7133   1.561   6.449   6.541
 2078SOL    HW2 7134   1.492   6.493   6.400
 2079SOL     OW 7135   5.649   1.304   3.506
 2079SOL    HW1 7136   5.705   1.361   3.567
 2079SOL    HW2 7137   5.643   1.212   3.543
 2080SOL     OW 7138   1.420   0.858   4.636
 2080SOL    HW1 7139   1.496   0.793   4.629
 2080SOL    HW2 7140   1.362   0.851   4.555
 2081SOL     OW 7141   1.914   5.603   4.842
 2081SOL    HW1 7142   1.861   5.657   4.907
 2081SOL    HW2 7143   2.004   5.583   4.881
 2082SOL     OW 7144   6.803   0.478   2.891
 2082SOL    HW1 7145   6.894   0.518   2.898
 2082SOL    HW2 7146   6.786   0.418   2.969
 2083SOL     OW 7147   4.512   4.841   6.763
 2083SOL    HW1 7148   4.414   4.820   6.758
 2083SOL    HW2 7149   4.558   4.807   6.681
 2084SOL     OW 7150   6.819   3.825   3.575
 2084SOL    HW1 7151   6.850   3.909   3.620
 2084SOL    HW2 7152   6.770   3.768   3.641
 2085SOL     OW 7153   5.034   1.303   6.697
 2085SOL    HW1 7154   4.996   1.216   6.729
 2085SOL    HW2 7155   5.081   1.348   6.773
 2086SOL     OW 7156   3.160   6.711   5.516
 2086SOL    HW1 7157   3.172   6.763   5.431
 2086SOL    HW2 7158   3.248   6.677   5.546
 2087SOL     OW 7159   5.282   6.953   2.164
 2087SOL    HW1 7160   5.271   6.891   2.241
 2087SOL    HW2 7161   5.204   6.945   2.102
 2088SOL     OW 7162   2.793   6.508   0.591
 2088SOL    HW1 7163   2.756   6.452   0.517
 2088SOL    HW2 7164   2.853   6.452   0.648
 2089SOL     OW 7165   5.214   2.174   6.553
 2089SOL    HW1 7166   5.122   2.143   6.531
 2089SOL    HW2 7167   5.280   2.120   6.501
 2090SOL     OW 7168   3.834   3.920   5.320
 2090SOL    HW1 7169   3.755   3.862   5.301
 2090SOL    HW2 7170   3.885   3.936   5.235
 2091SOL     OW 7171   6.590   5.498   6.884
 2091SOL    HW1 7172   6.542   5.425   6.933
 2091SOL    HW2 7173   6.564   5.496   6.787
 2092SOL     OW 7174   3.921   5.055   6.583
 2092SOL    HW1 7175   4.010   5.100   6.590
 2092SOL    HW2 7176   3.882   5.071   6.492
 2093SOL     OW 7177   2.451   2.626   1.659
 2093SOL    HW1 7178   2.541   2.603   1.696
 2093SOL    HW2 7179   2.435   2.575   1.574
 2094SOL     OW 7180   5.795   1.783   0.956
 2094SOL    HW1 7181   5.818   1.832   1.040
 2094SOL    HW2 7182   5.860   1.807   0.884
 2095SOL     OW 7183   5.420   0.179   4.946
 2095SOL    HW1 7184   5.469   0.112   5.002
 2095SOL    HW2 7185   5.483   0.253   4.922
 2096SOL     OW 7186   4.454   4.495   2.629
 2096SOL    HW1 7187   4.359   4.508   2.602
 2096SOL    HW2 7188   4.462   4.504   2.729
 2097SOL     OW 7189   1.571   3.044   6.998
 2097SOL    HW1 7190   1.559   2.969   6.933
 2097SOL    HW2 7191   1.648   3.100   6.970
 2098SOL     OW 7192   4.073   5.110   3.328
 2098SOL    HW1 7193   4.059   5.098   3.426
 2098SOL    HW2 7194   3.990   5.083   3.279
 2099SOL     OW 7195   2.688   3.199   5.322
 2099SOL    HW1 7196   2.736   3.115   5.346
 2099SOL    HW2 7197   2.595   3.177   5.291
 2100SOL     OW 7198   3.935   3.371   5.488
 2100SOL    HW1 7199   3.907   3.310   5.415
 2100SOL    HW2 7200   3.881   3.352   5.570
 2101SOL     OW 7201   1.710   6.194   2.929
 2101SOL    HW1 7202   1.769   6.236   2.998
 2101SOL    HW2 7203   1.750   6.108   2.899
 2102SOL     OW 7204   6.418   4.957   2.236
 2102SOL    HW1 7205   6.503   4.912   2.211
 2102SOL    HW2 7206   6.365   4.978   2.154
 2103SOL     OW 7207   3.089   3.673   6.207
 2103SOL    HW1 7208   3.081   3.592   6.265
 2103SOL    HW2 7209   3.142   3.650   6.125
 2104SOL     OW 7210   1.005   3.468   0.142
 2104SOL    HW1 7211   0.972   3.384   0.185
 2104SOL    HW2 7212   0.957   3.482   0.055
 2105SOL     OW 7213   5.085   5.632   4.336
 2105SOL    HW1 7214   5.094   5.617   4.435
 2105SOL    HW2 7215   5.093   5.729   4.316
 2106SOL     OW 7216   5.018   4.220   0.786
 2106SOL    HW1 7217   5.000   4.239   0.690
 2106SOL    HW2 7218   5.108   4.179   0.796
 2107SOL     OW 7219   4.776   3.149   5.474
 2107SOL    HW1 7220   4.816   3.058   5.488
 2107SOL    HW2 7221   4.799   3.182   5.383
 2108SOL     OW 7222   6.966   6.260   5.276
 2108SOL    HW1 7223   7.016   6.283   5.360
 2108SOL    HW2 7224   6.976   6.334   5.210
 2109SOL     OW 7225   4.632   6.263   2.936
 2109SOL    HW1 7226   4.582   6.203   2.873
 2109SOL    HW2 7227   4.571   6.291   3.010
 2110SOL     OW 7228   2.567   2.582   6.083
 2110SOL    HW1 7229   2.580   2.487   6.111
 2110SOL    HW2 7230   2.652   2.632   6.097
 2111SOL     OW 7231   1.484   1.819   0.060
 2111SOL    HW1 7232   1.515   1.726   0.081
 2111SOL    HW2 7233   1.551   1.865   0.003
 2112SOL     OW 7234   5.095   2.444   0.587
 2112SOL    HW1 7235   5.015   2.491   0.623
 2112SOL    HW2 7236   5.067   2.365   0.533
 2113SOL     OW 7237   0.903   0.182   5.461
 2113SOL    HW1 7238   0.884   0.166   5.558
 2113SOL    HW2 7239   0.835   0.244   5.423
 2114SOL     OW 7240   1.616   3.030   0.804
 2114SOL    HW1 7241   1.696   3.008   0.748
 2114SOL    HW2 7242   1.584   3.122   0.781
 2115SOL     OW 7243   2.132   3.584   2.830
 2115SOL    HW1 7244   2.036   3.588   2.802
 2115SOL    HW2 7245   2.191   3.596   2.750
 2116SOL     OW 7246   0.183   4.886   3.218
 2116SOL    HW1 7247   0.120   4.922   3.287
 2116SOL    HW2 7248   0.148   4.800   3.182
 2117SOL     OW 7249   6.769   4.410   1.566
 2117SOL    HW1 7250   6.734   4.347   1.496
 2117SOL    HW2 7251   6.776   4.363   1.653
 2118SOL     OW 7252   6.478   3.356   1.667
 2118SOL    HW1 7253   6.547   3.292   1.633
 2118SOL    HW2 7254   6.507   3.392   1.755
 2119SOL     OW 7255   2.674   5.793   1.190
 2119SOL    HW1 7256   2.615   5.722   1.150
 2119SOL    HW2 7257   2.629   5.832   1.270
 2120SOL     OW 7258   0.484   4.844   4.010
 2120SOL    HW1 7259   0.556   4.774   4.003
 2120SOL    HW2 7260   0.398   4.807   3.973
 2121SOL     OW 7261   1.023   4.219   5.431
 2121SOL    HW1 7262   0.934   4.180   5.458
 2121SOL    HW2 7263   1.055   4.175   5.348
 2122SOL     OW 7264   5.581   4.080   6.297
 2122SOL    HW1 7265   5.657   4.144   6.314
 2122SOL    HW2 7266   5.544   4.097   6.206
 2123SOL     OW 7267   6.822   5.616   1.903
 2123SOL    HW1 7268   6.745   5.667   1.942
 2123SOL    HW2 7269   6.829   5.636   1.805
 2124SOL     OW 7270   2.787   1.809   1.837
 2124SOL    HW1 7271   2.743   1.891   1.801
 2124SOL    HW2 7272   2.885   1.813   1.818
 2125SOL     OW 7273   2.002   0.588   1.359
 2125SOL    HW1 7274   2.097   0.618   1.346
 2125SOL    HW2 7275   1.991   0.496   1.321
 2126SOL     OW 7276   3.975   0.660   0.169
 2126SOL    HW1 7277   4.008   0.722   0.098
 2126SOL    HW2 7278   3.959   0.712   0.253
 2127SOL     OW 7279   6.580   2.966   4.534
 2127SOL    HW1 7280   6.652   2.922   4.480
 2127SOL    HW2 7281   6.621   3.035   4.593
 2128SOL     OW 7282   6.304   3.506   3.783
 2128SOL    HW1 7283   6.318   3.537   3.688
 2128SOL    HW2 7284   6.393   3.488   3.825
 2129SOL     OW 7285   4.294   3.324   5.641
 2129SOL    HW1 7286   4.270   3.278   5.726
 2129SOL    HW2 7287   4.392   3.341   5.639
 2130SOL     OW 7288   3.259   0.837   2.153
 2130SOL    HW1 7289   3.335   0.780   2.184
 2130SOL    HW2 7290   3.175   0.783   2.152
 2131SOL     OW 7291   6.554   0.145   0.260
 2131SOL    HW1 7292   6.524   0.050   0.251
 2131SOL    HW2 7293   6.637   0.160   0.208
 2132SOL     OW 7294   4.002   2.145   1.398
 2132SOL    HW1 7295   4.028   2.118   1.491
 2132SOL    HW2 7296   3.904   2.129   1.385
 2133SOL     OW 7297   2.702   3.193   6.372
 2133SOL    HW1 7298   2.779   3.247   6.406
 2133SOL    HW2 7299   2.616   3.236   6.400
 2134SOL     OW 7300   0.339   2.922   7.019
 2134SOL    HW1 7301   0.248   2.886   6.999
 2134SOL    HW2 7302   0.375   2.970   6.939
 2135SOL     OW 7303   0.409   3.883   4.231
 2135SOL    HW1 7304   0.493   3.828   4.234
 2135SOL    HW2 7305   0.338   3.839   4.286
 2136SOL     OW 7306   1.781   3.986   2.688
 2136SOL    HW1 7307   1.740   4.075   2.666
 2136SOL    HW2 7308   1.711   3.915   2.681
 2137SOL     OW 7309   2.845   5.477   5.343
 2137SOL    HW1 7310   2.776   5.501   5.412
 2137SOL    HW2 7311   2.879   5.560   5.299
 2138SOL     OW 7312   6.428   6.617   2.975
 2138SOL    HW1 7313   6.484   6.684   3.024
 2138SOL    HW2 7314   6.444   6.626   2.877
 2139SOL     OW 7315   4.355   0.701   3.704
 2139SOL    HW1 7316   4.382   0.749   3.788
 2139SOL    HW2 7317   4.413   0.621   3.691
 2140SOL     OW 7318   3.264   0.422   4.068
 2140SOL    HW1 7319   3.332   0.486   4.031
 2140SOL    HW2 7320   3.272   0.334   4.021
 2141SOL     OW 7321   6.523   3.024   2.509
 2141SOL    HW1 7322   6.573   2.937   2.512
 2141SOL    HW2 7323   6.570   3.088   2.449
 2142SOL     OW 7324   1.504   1.260   3.439
 2142SOL    HW1 7325   1.513   1.199   3.518
 2142SOL    HW2 7326   1.480   1.352   3.470
 2143SOL     OW 7327   2.934   4.943   1.225
 2143SOL    HW1 7328   3.027   4.946   1.264
 2143SOL    HW2 7329   2.939   4.955   1.126
 2144SOL     OW 7330   0.614   5.511   4.212
 2144SOL    HW1 7331   0.710   5.489   4.228
 2144SOL    HW2 7332   0.558   5.430   4.231
 2145SOL     OW 7333   4.109   6.368   4.305
 2145SOL    HW1 7334   4.137   6.279   4.340
 2145SOL    HW2 7335   4.023   6.395   4.348
 2146SOL     OW 7336   2.366   3.230   0.887
 2146SOL    HW1 7337   2.463   3.208   0.875
 2146SOL    HW2 7338   2.331   3.184   0.968
 2147SOL     OW 7339   6.041   1.574   6.410
 2147SOL    HW1 7340   6.141   1.577   6.419
 2147SOL    HW2 7341   6.002   1.658   6.447
 2148SOL     OW 7342   6.191   3.429   6.394
 2148SOL    HW1 7343   6.261   3.358   6.390
 2148SOL    HW2 7344   6.230   3.517   6.369
 2149SOL     OW 7345   2.633   1.890   0.843
 2149SOL    HW1 7346   2.618   1.817   0.775
 2149SOL    HW2 7347   2.546   1.909   0.890
 2150SOL     OW 7348   2.419   2.679   2.326
 2150SOL    HW1 7349   2.475   2.603   2.293
 2150SOL    HW2 7350   2.436   2.693   2.423
 2151SOL     OW 7351   1.980   6.803   6.125
 2151SOL    HW1 7352   2.006   6.880   6.067
 2151SOL    HW2 7353   1.957   6.836   6.216
 2152SOL     OW 7354   3.871   4.810   2.281
 2152SOL    HW1 7355   3.922   4.817   2.367
 2152SOL    HW2 7356   3.785   4.762   2.298
 2153SOL     OW 7357   4.231   1.728   2.552
 2153SOL    HW1 7358   4.153   1.719   2.615
 2153SOL    HW2 7359   4.231   1.820   2.513
 2154SOL     OW 7360   4.682   0.461   4.611
 2154SOL    HW1 7361   4.703   0.369   4.643
 2154SOL    HW2 7362   4.766   0.509   4.588
 2155SOL     OW 7363   4.201   0.101   0.885
 2155SOL    HW1 7364   4.291   0.060   0.895
 2155SOL    HW2 7365   4.134   0.049   0.938
 2156SOL     OW 7366   0.258   1.379   4.933
 2156SOL    HW1 7367   0.176   1.435   4.950
 2156SOL    HW2 7368   0.307   1.365   5.019
 2157SOL     OW 7369   5.937   6.582   3.056
 2157SOL    HW1 7370   5.861   6.598   3.119
 2157SOL    HW2 7371   5.932   6.489   3.019
 2158SOL     OW 7372   3.841   5.956   0.953
 2158SOL    HW1 7373   3.837   6.025   1.025
 2158SOL    HW2 7374   3.854   5.865   0.994
 2159SOL     OW 7375   1.519   1.066   4.790
 2159SOL    HW1 7376   1.488   0.994   4.728
 2159SOL    HW2 7377   1.595   1.116   4.748
 2160SOL     OW 7378   4.890   4.275   6.971
 2160SOL    HW1 7379   4.852   4.303   6.883
 2160SOL    HW2 7380   4.869   4.178   6.987
 2161SOL     OW 7381   5.846   4.600   2.116
 2161SOL    HW1 7382   5.834   4.500   2.111
 2161SOL    HW2 7383   5.830   4.630   2.210
 2162SOL     OW 7384   3.550   0.243   2.149
 2162SOL    HW1 7385   3.516   0.326   2.193
 2162SOL    HW2 7386   3.481   0.208   2.085
 2163SOL     OW 7387   1.597   4.594   0.704
 2163SOL    HW1 7388   1.686   4.596   0.659
 2163SOL    HW2 7389   1.568   4.499   0.718
 2164SOL     OW 7390   1.981   1.912   6.572
 2164SOL    HW1 7391   2.015   1.827   6.612
 2164SOL    HW2 7392   1.931   1.892   6.488
 2165SOL     OW 7393   6.885   2.314   3.564
 2165SOL    HW1 7394   6.924   2.274   3.481
 2165SOL    HW2 7395   6.946   2.294   3.642
 2166SOL     OW 7396   1.243   3.302   4.302
 2166SOL    HW1 7397   1.252   3.227   4.368
 2166SOL    HW2 7398   1.147   3.310   4.274
 2167SOL     OW 7399   1.908   2.253   3.826
 2167SOL    HW1 7400   1.961   2.335   3.803
 2167SOL    HW2 7401   1.821   2.280   3.868
 2168SOL     OW 7402   0.928   1.895   3.244
 2168SOL    HW1 7403   0.933   1.894   3.144
 2168SOL    HW2 7404   0.840   1.932   3.272
 2169SOL     OW 7405   5.492   2.050   0.225
 2169SOL    HW1 7406   5.560   2.098   0.281
 2169SOL    HW2 7407   5.528   1.960   0.199
 2170SOL     OW 7408   6.639   4.101   4.974
 2170SOL    HW1 7409   6.715   4.119   4.911
 2170SOL    HW2 7410   6.578   4.033   4.934
 2171SOL     OW 7411   0.417   5.809   1.506
 2171SOL    HW1 7412   0.452   5.847   1.591
 2171SOL    HW2 7413   0.482   5.827   1.432
 2172SOL     OW 7414   2.225   2.083   6.576
 2172SOL    HW1 7415   2.144   2.025   6.587
 2172SOL    HW2 7416   2.269   2.063   6.489
 2173SOL     OW 7417   4.416   0.323   5.533
 2173SOL    HW1 7418   4.378   0.404   5.488
 2173SOL    HW2 7419   4.343   0.257   5.549
 2174SOL     OW 7420   6.717   5.436   4.907
 2174SOL    HW1 7421   6.752   5.529   4.915
 2174SOL    HW2 7422   6.641   5.423   4.970
 2175SOL     OW 7423   1.427   3.061   4.277
 2175SOL    HW1 7424   1.348   3.067   4.338
 2175SOL    HW2 7425   1.483   3.144   4.288
 2176SOL     OW 7426   5.895   2.124   0.938
 2176SOL    HW1 7427   5.801   2.114   0.973
 2176SOL    HW2 7428   5.919   2.043   0.885
 2177SOL     OW 7429   7.003   1.379   2.645
 2177SOL    HW1 7430   7.014   1.460   2.703
 2177SOL    HW2 7431   6.933   1.319   2.684
 2178SOL     OW 7432   1.452   1.646   2.307
 2178SOL    HW1 7433   1.360   1.681   2.291
 2178SOL    HW2 7434   1.469   1.566   2.249
 2179SOL     OW 7435   1.993   4.909   5.930
 2179SOL    HW1 7436   1.951   4.891   6.019
 2179SOL    HW2 7437   1.995   5.007   5.913
 2180SOL     OW 7438   1.434   2.562   2.433
 2180SOL    HW1 7439   1.438   2.639   2.371
 2180SOL    HW2 7440   1.527   2.539   2.464
 2181SOL     OW 7441   4.606   4.844   4.223
 2181SOL    HW1 7442   4.679   4.888   4.275
 2181SOL    HW2 7443   4.630   4.748   4.207
 2182SOL     OW 7444   1.898   4.151   3.524
 2182SOL    HW1 7445   1.849   4.097   3.593
 2182SOL    HW2 7446   1.958   4.216   3.570
 2183SOL     OW 7447   2.428   4.065   6.987
 2183SOL    HW1 7448   2.448   4.137   0.028
 2183SOL    HW2 7449   2.466   4.091   6.899
 2184SOL     OW 7450   4.346   0.687   6.234
 2184SOL    HW1 7451   4.406   0.653   6.162
 2184SOL    HW2 7452   4.385   0.770   6.274
 2185SOL     OW 7453   0.756   0.756   0.577
 2185SOL    HW1 7454   0.810   0.802   0.506
 2185SOL    HW2 7455   0.692   0.693   0.534
 2186SOL     OW 7456   6.561   5.520   0.132
 2186SOL    HW1 7457   6.557   5.563   0.042
 2186SOL    HW2 7458   6.516   5.578   0.200
 2187SOL     OW 7459   6.930   5.967   2.466
 2187SOL    HW1 7460   6.905   6.062   2.487
 2187SOL    HW2 7461   6.997   5.966   2.392
 2188SOL     OW 7462   0.470   5.616   5.054
 2188SOL    HW1 7463   0.374   5.607   5.030
 2188SOL    HW2 7464   0.500   5.533   5.102
 2189SOL     OW 7465   2.226   7.023   1.843
 2189SOL    HW1 7466   2.323   0.006   1.861
 2189SOL    HW2 7467   2.182   0.087   1.848
 2190SOL     OW 7468   6.408   3.667   1.851
 2190SOL    HW1 7469   6.469   3.591   1.873
 2190SOL    HW2 7470   6.362   3.648   1.764
 2191SOL     OW 7471   2.527   2.196   5.954
 2191SOL    HW1 7472   2.552   2.232   6.044
 2191SOL    HW2 7473   2.511   2.272   5.891
 2192SOL     OW 7474   5.173   1.091   2.470
 2192SOL    HW1 7475   5.163   1.165   2.537
 2192SOL    HW2 7476   5.101   1.100   2.401
 2193SOL     OW 7477   6.105   6.950   6.705
 2193SOL    HW1 7478   6.105   6.982   6.799
 2193SOL    HW2 7479   6.193   6.908   6.684
 2194SOL     OW 7480   1.982   4.225   6.333
 2194SOL    HW1 7481   2.055   4.162   6.360
 2194SOL    HW2 7482   2.009   4.275   6.250
 2195SOL     OW 7483   6.820   6.800   5.235
 2195SOL    HW1 7484   6.756   6.874   5.253
 2195SOL    HW2 7485   6.878   6.824   5.157
 2196SOL     OW 7486   3.494   0.390   4.768
 2196SOL    HW1 7487   3.547   0.466   4.806
 2196SOL    HW2 7488   3.518   0.305   4.816
 2197SOL     OW 7489   2.678   3.629   6.393
 2197SOL    HW1 7490   2.743   3.698   6.424
 2197SOL    HW2 7491   2.684   3.620   6.293
 2198SOL     OW 7492   5.447   0.341   1.242
 2198SOL    HW1 7493   5.357   0.373   1.272
 2198SOL    HW2 7494   5.504   0.323   1.322
 2199SOL     OW 7495   5.056   6.102   3.678
 2199SOL    HW1 7496   5.012   6.169   3.737
 2199SOL    HW2 7497   4.988   6.063   3.615
 2200SOL     OW 7498   2.079   1.977   4.215
 2200SOL    HW1 7499   2.093   2.076   4.205
 2200SOL    HW2 7500   1.989   1.953   4.179
 2201SOL     OW 7501   6.233   2.919   3.183
 2201SOL    HW1 7502   6.164   2.986   3.156
 2201SOL    HW2 7503   6.241   2.918   3.283
 2202SOL     OW 7504   3.659   5.687   2.348
 2202SOL    HW1 7505   3.571   5.727   2.325
 2202SOL    HW2 7506   3.732   5.740   2.304
 2203SOL     OW 7507   2.061   3.364   1.214
 2203SOL    HW1 7508   1.977   3.405   1.180
 2203SOL    HW2 7509   2.138   3.391   1.156
 2204SOL     OW 7510   4.824   1.789   1.047
 2204SOL    HW1 7511   4.844   1.691   1.048
 2204SOL    HW2 7512   4.748   1.808   1.110
 2205SOL     OW 7513   0.855   6.443   6.613
 2205SOL    HW1 7514   0.914   6.465   6.535
 2205SOL    HW2 7515   0.864   6.513   6.683
 2206SOL     OW 7516   3.497   5.163   5.739
 2206SOL    HW1 7517   3.583   5.201   5.774
 2206SOL    HW2 7518   3.430   5.159   5.814
 2207SOL     OW 7519   2.720   5.158   6.431
 2207SOL    HW1 7520   2.653   5.231   6.423
 2207SOL    HW2 7521   2.710   5.095   6.354
 2208SOL     OW 7522   1.472   5.145   3.075
 2208SOL    HW1 7523   1.497   5.152   3.171
 2208SOL    HW2 7524   1.422   5.060   3.060
 2209SOL     OW 7525   1.551   0.268   5.656
 2209SOL    HW1 7526   1.470   0.241   5.708
 2209SOL    HW2 7527   1.632   0.259   5.713
 2210SOL     OW 7528   0.409   4.176   4.199
 2210SOL    HW1 7529   0.364   4.193   4.112
 2210SOL    HW2 7530   0.429   4.078   4.208
 2211SOL     OW 7531   6.444   0.560   0.465
 2211SOL    HW1 7532   6.518   0.614   0.505
 2211SOL    HW2 7533   6.460   0.550   0.367
 2212SOL     OW 7534   2.598   6.335   0.505
 2212SOL    HW1 7535   2.515   6.373   0.546
 2212SOL    HW2 7536   2.575   6.293   0.417
 2213SOL     OW 7537   3.400   1.330   5.141
 2213SOL    HW1 7538   3.311   1.345   5.100
 2213SOL    HW2 7539   3.458   1.410   5.126
 2214SOL     OW 7540   3.035   4.024   4.850
 2214SOL    HW1 7541   3.035   3.939   4.799
 2214SOL    HW2 7542   3.095   4.091   4.804
 2215SOL     OW 7543   5.589   1.544   0.186
 2215SOL    HW1 7544   5.594   1.479   0.262
 2215SOL    HW2 7545   5.588   1.495   0.099
 2216SOL     OW 7546   1.481   0.866   6.970
 2216SOL    HW1 7547   1.459   0.896   0.036
 2216SOL    HW2 7548   1.539   0.785   6.973
 2217SOL     OW 7549   3.875   6.933   2.403
 2217SOL    HW1 7550   3.887   6.946   2.501
 2217SOL    HW2 7551   3.869   6.836   2.382
 2218SOL     OW 7552   6.618   5.227   0.000
 2218SOL    HW1 7553   6.704   5.265   0.033
 2218SOL    HW2 7554   6.544   5.253   0.063
 2219SOL     OW 7555   5.609   1.491   0.577
 2219SOL    HW1 7556   5.665   1.552   0.521
 2219SOL    HW2 7557   5.653   1.479   0.667
 2220SOL     OW 7558   2.148   6.132   5.355
 2220SOL    HW1 7559   2.236   6.139   5.402
 2220SOL    HW2 7560   2.163   6.133   5.257
 2221SOL     OW 7561   5.884   1.519   5.669
 2221SOL    HW1 7562   5.844   1.572   5.595
 2221SOL    HW2 7563   5.967   1.473   5.637
 2222SOL     OW 7564   5.655   0.670   0.807
 2222SOL    HW1 7565   5.711   0.610   0.864
 2222SOL    HW2 7566   5.558   0.654   0.827
 2223SOL     OW 7567   5.586   1.355   5.846
 2223SOL    HW1 7568   5.608   1.318   5.755
 2223SOL    HW2 7569   5.671   1.370   5.897
 2224SOL     OW 7570   6.524   3.736   0.750
 2224SOL    HW1 7571   6.586   3.685   0.691
 2224SOL    HW2 7572   6.568   3.753   0.838
 2225SOL     OW 7573   6.222   6.939   4.151
 2225SOL    HW1 7574   6.231   6.985   4.239
 2225SOL    HW2 7575   6.219   7.007   4.078
 2226SOL     OW 7576   3.799   5.997   0.690
 2226SOL    HW1 7577   3.786   5.948   0.776
 2226SOL    HW2 7578   3.711   6.005   0.642
 2227SOL     OW 7579   5.660   2.859   0.135
 2227SOL    HW1 7580   5.691   2.922   0.064
 2227SOL    HW2 7581   5.733   2.842   0.200
 2228SOL     OW 7582   4.470   5.425   1.307
 2228SOL    HW1 7583   4.392   5.486   1.296
 2228SOL    HW2 7584   4.529   5.432   1.226
 2229SOL     OW 7585   4.416   2.529   5.433
 2229SOL    HW1 7586   4.467   2.496   5.512
 2229SOL    HW2 7587   4.391   2.625   5.447
 2230SOL     OW 7588   6.310   6.130   0.320
 2230SOL    HW1 7589   6.406   6.108   0.340
 2230SOL    HW2 7590   6.279   6.204   0.379
 2231SOL     OW 7591   0.228   1.240   1.589
 2231SOL    HW1 7592   0.239   1.338   1.569
 2231SOL    HW2 7593   0.184   1.195   1.511
 2232SOL     OW 7594   0.667   1.808   4.656
 2232SOL    HW1 7595   0.645   1.713   4.633
 2232SOL    HW2 7596   0.601   1.869   4.611
 2233SOL     OW 7597   2.245   3.070   0.499
 2233SOL    HW1 7598   2.234   3.157   0.546
 2233SOL    HW2 7599   2.159   3.046   0.453
 2234SOL     OW 7600   4.410   1.728   1.108
 2234SOL    HW1 7601   4.397   1.652   1.044
 2234SOL    HW2 7602   4.329   1.787   1.105
 2235SOL     OW 7603   3.092   0.441   1.588
 2235SOL    HW1 7604   2.994   0.424   1.583
 2235SOL    HW2 7605   3.112   0.495   1.670
 2236SOL     OW 7606   2.182   4.033   6.385
 2236SOL    HW1 7607   2.183   4.030   6.285
 2236SOL    HW2 7608   2.095   3.997   6.419
 2237SOL     OW 7609   6.140   4.173   4.054
 2237SOL    HW1 7610   6.148   4.272   4.059
 2237SOL    HW2 7611   6.211   4.130   4.110
 2238SOL     OW 7612   4.275   5.410   1.751
 2238SOL    HW1 7613   4.249   5.377   1.660
 2238SOL    HW2 7614   4.194   5.422   1.808
 2239SOL     OW 7615   3.720   4.949   4.127
 2239SOL    HW1 7616   3.717   4.920   4.223
 2239SOL    HW2 7617   3.641   5.006   4.107
 2240SOL     OW 7618   3.522   5.562   3.519
 2240SOL    HW1 7619   3.529   5.662   3.517
 2240SOL    HW2 7620   3.446   5.533   3.462
 2241SOL     OW 7621   0.387   5.697   3.157
 2241SOL    HW1 7622   0.432   5.625   3.209
 2241SOL    HW2 7623   0.387   5.674   3.060
 2242SOL     OW 7624   5.549   3.196   2.832
 2242SOL    HW1 7625   5.557   3.292   2.860
 2242SOL    HW2 7626   5.539   3.191   2.733
 2243SOL     OW 7627   1.737   6.886   5.734
 2243SOL    HW1 7628   1.761   6.908   5.640
 2243SOL    HW2 7629   1.776   6.797   5.759
 2244SOL     OW 7630   2.513   6.518   1.563
 2244SOL    HW1 7631   2.610   6.535   1.541
 2244SOL    HW2 7632   2.480   6.442   1.508
 2245SOL     OW 7633   0.651   1.799   1.380
 2245SOL    HW1 7634   0.551   1.809   1.379
 2245SOL    HW2 7635   0.681   1.758   1.294
 2246SOL     OW 7636   1.676   0.705   4.527
 2246SOL    HW1 7637   1.695   0.656   4.612
 2246SOL    HW2 7638   1.695   0.802   4.539
 2247SOL     OW 7639   3.375   2.882   3.510
 2247SOL    HW1 7640   3.431   2.838   3.440
 2247SOL    HW2 7641   3.409   2.859   3.601
 2248SOL     OW 7642   6.433   3.975   5.376
 2248SOL    HW1 7643   6.430   3.893   5.320
 2248SOL    HW2 7644   6.436   3.950   5.472
 2249SOL     OW 7645   5.647   6.513   3.950
 2249SOL    HW1 7646   5.633   6.429   3.898
 2249SOL    HW2 7647   5.735   6.510   3.996
 2250SOL     OW 7648   3.202   3.509   5.285
 2250SOL    HW1 7649   3.244   3.420   5.302
 2250SOL    HW2 7650   3.115   3.515   5.333
 2251SOL     OW 7651   5.082   0.412   6.819
 2251SOL    HW1 7652   5.166   0.460   6.792
 2251SOL    HW2 7653   5.025   0.397   6.738
 2252SOL     OW 7654   4.183   2.277   2.662
 2252SOL    HW1 7655   4.183   2.178   2.650
 2252SOL    HW2 7656   4.236   2.320   2.589
 2253SOL     OW 7657   0.014   4.227   0.056
 2253SOL    HW1 7658   6.952   4.259   0.089
 2253SOL    HW2 7659   0.039   4.274   6.999
 2254SOL     OW 7660   3.475   2.868   4.823
 2254SOL    HW1 7661   3.562   2.831   4.854
 2254SOL    HW2 7662   3.478   2.884   4.725
 2255SOL     OW 7663   4.008   3.273   5.801
 2255SOL    HW1 7664   3.909   3.290   5.798
 2255SOL    HW2 7665   4.034   3.216   5.723
 2256SOL     OW 7666   4.619   6.140   2.515
 2256SOL    HW1 7667   4.606   6.235   2.486
 2256SOL    HW2 7668   4.717   6.121   2.523
 2257SOL     OW 7669   0.008   2.055   4.130
 2257SOL    HW1 7670   0.033   2.128   4.066
 2257SOL    HW2 7671   6.937   2.036   4.122
 2258SOL     OW 7672   1.379   5.088   4.146
 2258SOL    HW1 7673   1.398   5.172   4.198
 2258SOL    HW2 7674   1.441   5.082   4.068
 2259SOL     OW 7675   5.189   3.367   5.918
 2259SOL    HW1 7676   5.229   3.449   5.958
 2259SOL    HW2 7677   5.096   3.355   5.952
 2260SOL     OW 7678   0.589   4.610   1.454
 2260SOL    HW1 7679   0.547   4.519   1.452
 2260SOL    HW2 7680   0.688   4.603   1.442
 2261SOL     OW 7681   5.574   5.016   0.288
 2261SOL    HW1 7682   5.520   5.088   0.331
 2261SOL    HW2 7683   5.647   4.987   0.351
 2262SOL     OW 7684   6.028   0.799   3.477
 2262SOL    HW1 7685   6.045   0.835   3.569
 2262SOL    HW2 7686   6.078   0.854   3.410
 2263SOL     OW 7687   3.067   6.010   6.844
 2263SOL    HW1 7688   3.025   6.080   6.788
 2263SOL    HW2 7689   3.103   6.051   6.928
 2264SOL     OW 7690   2.960   5.194   0.044
 2264SOL    HW1 7691   3.003   5.256   0.109
 2264SOL    HW2 7692   2.956   5.237   6.981
 2265SOL     OW 7693   1.530   0.612   4.050
 2265SOL    HW1 7694   1.617   0.657   4.028
 2265SOL    HW2 7695   1.501   0.639   4.142
 2266SOL     OW 7696   5.111   2.025   0.187
 2266SOL    HW1 7697   5.124   2.034   0.088
 2266SOL    HW2 7698   5.019   1.989   0.205
 2267SOL     OW 7699   4.808   2.146   4.830
 2267SOL    HW1 7700   4.894   2.096   4.837
 2267SOL    HW2 7701   4.825   2.234   4.785
 2268SOL     OW 7702   6.524   4.241   0.170
 2268SOL    HW1 7703   6.552   4.285   0.085
 2268SOL    HW2 7704   6.530   4.141   0.159
 2269SOL     OW 7705   6.976   4.717   5.487
 2269SOL    HW1 7706   6.995   4.791   5.422
 2269SOL    HW2 7707   7.001   4.747   5.579
 2270SOL     OW 7708   2.775   2.862   5.668
 2270SOL    HW1 7709   2.732   2.902   5.749
 2270SOL    HW2 7710   2.823   2.778   5.695
 2271SOL     OW 7711   5.436   4.174   0.234
 2271SOL    HW1 7712   5.403   4.088   0.273
 2271SOL    HW2 7713   5.443   4.243   0.307
 2272SOL     OW 7714   6.334   2.383   6.327
 2272SOL    HW1 7715   6.352   2.451   6.257
 2272SOL    HW2 7716   6.269   2.315   6.291
 2273SOL     OW 7717   1.930   2.002   2.204
 2273SOL    HW1 7718   2.019   1.979   2.165
 2273SOL    HW2 7719   1.883   1.919   2.233
 2274SOL     OW 7720   0.861   2.041   6.092
 2274SOL    HW1 7721   0.895   2.125   6.050
 2274SOL    HW2 7722   0.771   2.059   6.133
 2275SOL     OW 7723   6.478   6.604   4.313
 2275SOL    HW1 7724   6.480   6.508   4.340
 2275SOL    HW2 7725   6.433   6.614   4.225
 2276SOL     OW 7726   2.239   5.833   1.417
 2276SOL    HW1 7727   2.335   5.855   1.439
 2276SOL    HW2 7728   2.237   5.768   1.341
 2277SOL     OW 7729   4.043   3.656   4.640
 2277SOL    HW1 7730   4.013   3.638   4.734
 2277SOL    HW2 7731   4.018   3.579   4.581
 2278SOL     OW 7732   6.252   4.827   4.565
 2278SOL    HW1 7733   6.294   4.883   4.637
 2278SOL    HW2 7734   6.310   4.829   4.483
 2279SOL     OW 7735   5.878   6.770   5.544
 2279SOL    HW1 7736   5.858   6.706   5.470
 2279SOL    HW2 7737   5.824   6.853   5.531
 2280SOL     OW 7738   6.963   6.661   4.516
 2280SOL    HW1 7739   6.993   6.646   4.421
 2280SOL    HW2 7740   6.864   6.654   4.521
 2281SOL     OW 7741   3.296   1.411   1.818
 2281SOL    HW1 7742   3.362   1.485   1.830
 2281SOL    HW2 7743   3.325   1.352   1.742
 2282SOL     OW 7744   5.991   0.063   5.503
 2282SOL    HW1 7745   5.990   0.076   5.602
 2282SOL    HW2 7746   5.897   0.057   5.469
 2283SOL     OW 7747   0.892   5.241   1.173
 2283SOL    HW1 7748   0.846   5.261   1.086
 2283SOL    HW2 7749   0.842   5.285   1.248
 2284SOL     OW 7750   1.414   2.704   0.217
 2284SOL    HW1 7751   1.500   2.724   0.264
 2284SOL    HW2 7752   1.344   2.770   0.245
 2285SOL     OW 7753   1.982   2.615   1.298
 2285SOL    HW1 7754   2.026   2.555   1.232
 2285SOL    HW2 7755   1.994   2.579   1.390
 2286SOL     OW 7756   5.778   0.284   3.723
 2286SOL    HW1 7757   5.870   0.269   3.757
 2286SOL    HW2 7758   5.747   0.375   3.750
 2287SOL     OW 7759   2.154   0.063   3.405
 2287SOL    HW1 7760   2.094   0.080   3.483
 2287SOL    HW2 7761   2.191   6.997   3.412
 2288SOL     OW 7762   6.015   5.010   4.486
 2288SOL    HW1 7763   5.944   5.078   4.508
 2288SOL    HW2 7764   6.021   4.944   4.561
 2289SOL     OW 7765   0.975   4.824   1.308
 2289SOL    HW1 7766   0.918   4.779   1.377
 2289SOL    HW2 7767   0.918   4.851   1.230
 2290SOL     OW 7768   0.838   3.878   0.521
 2290SOL    HW1 7769   0.867   3.965   0.482
 2290SOL    HW2 7770   0.870   3.803   0.463
 2291SOL     OW 7771   2.245   2.724   5.789
 2291SOL    HW1 7772   2.242   2.651   5.720
 2291SOL    HW2 7773   2.338   2.757   5.799
 2292SOL     OW 7774   0.336   2.558   4.721
 2292SOL    HW1 7775   0.334   2.532   4.817
 2292SOL    HW2 7776   0.275   2.636   4.706
 2293SOL     OW 7777   4.674   5.983   1.936
 2293SOL    HW1 7778   4.674   5.945   2.028
 2293SOL    HW2 7779   4.584   6.021   1.915
 2294SOL     OW 7780   3.171   0.249   0.118
 2294SOL    HW1 7781   3.082   0.293   0.132
 2294SOL    HW2 7782   3.168   0.157   0.158
 2295SOL     OW 7783   0.487   2.050   3.073
 2295SOL    HW1 7784   0.418   2.102   3.022
 2295SOL    HW2 7785   0.450   2.023   3.162
 2296SOL     OW 7786   4.708   5.347   0.831
 2296SOL    HW1 7787   4.805   5.372   0.824
 2296SOL    HW2 7788   4.699   5.248   0.827
 2297SOL     OW 7789   3.977   4.372   5.287
 2297SOL    HW1 7790   3.995   4.273   5.289
 2297SOL    HW2 7791   4.038   4.415   5.220
 2298SOL     OW 7792   3.861   2.919   1.572
 2298SOL    HW1 7793   3.824   2.899   1.481
 2298SOL    HW2 7794   3.831   3.010   1.601
 2299SOL     OW 7795   4.919   6.306   5.338
 2299SOL    HW1 7796   4.946   6.223   5.388
 2299SOL    HW2 7797   4.905   6.283   5.242
 2300SOL     OW 7798   2.227   5.425   2.256
 2300SOL    HW1 7799   2.227   5.409   2.158
 2300SOL    HW2 7800   2.187   5.515   2.275
 2301SOL     OW 7801   3.300   2.995   3.044
 2301SOL    HW1 7802   3.256   3.006   2.955
 2301SOL    HW2 7803   3.231   3.001   3.117
 2302SOL     OW 7804   3.799   0.149   0.942
 2302SOL    HW1 7805   3.793   0.249   0.944
 2302SOL    HW2 7806   3.716   0.110   0.983
 2303SOL     OW 7807   2.039   3.048   6.021
 2303SOL    HW1 7808   2.037   2.954   5.986
 2303SOL    HW2 7809   2.118   3.096   5.986
 2304SOL     OW 7810   4.597   6.898   3.809
 2304SOL    HW1 7811   4.531   6.824   3.807
 2304SOL    HW2 7812   4.621   6.924   3.715
 2305SOL     OW 7813   2.601   6.772   3.097
 2305SOL    HW1 7814   2.614   6.848   3.032
 2305SOL    HW2 7815   2.538   6.705   3.057
 2306SOL     OW 7816   3.108   5.213   2.510
 2306SOL    HW1 7817   3.030   5.205   2.447
 2306SOL    HW2 7818   3.102   5.142   2.580
 2307SOL     OW 7819   6.922   4.221   2.400
 2307SOL    HW1 7820   6.845   4.157   2.392
 2307SOL    HW2 7821   6.922   4.283   2.321
 2308SOL     OW 7822   1.223   6.020   0.518
 2308SOL    HW1 7823   1.142   5.999   0.573
 2308SOL    HW2 7824   1.289   5.945   0.526
 2309SOL     OW 7825   1.449   0.185   6.508
 2309SOL    HW1 7826   1.458   0.154   6.413
 2309SOL    HW2 7827   1.366   0.239   6.518
 2310SOL     OW 7828   4.986   6.261   1.330
 2310SOL    HW1 7829   4.974   6.355   1.298
 2310SOL    HW2 7830   4.919   6.202   1.284
 2311SOL     OW 7831   2.137   6.090   2.129
 2311SOL    HW1 7832   2.137   6.034   2.211
 2311SOL    HW2 7833   2.042   6.114   2.105
 2312SOL     OW 7834   3.842   6.584   4.225
 2312SOL    HW1 7835   3.850   6.550   4.318
 2312SOL    HW2 7836   3.759   6.639   4.216
 2313SOL     OW 7837   5.042   5.392   1.699
 2313SOL    HW1 7838   5.052   5.445   1.615
 2313SOL    HW2 7839   5.102   5.312   1.696
 2314SOL     OW 7840   5.785   6.950   5.165
 2314SOL    HW1 7841   5.803   6.884   5.093
 2314SOL    HW2 7842   5.768   0.014   5.125
 2315SOL     OW 7843   4.569   3.285   5.367
 2315SOL    HW1 7844   4.517   3.200   5.361
 2315SOL    HW2 7845   4.587   3.307   5.463
 2316SOL     OW 7846   3.043   0.753   4.420
 2316SOL    HW1 7847   2.967   0.703   4.378
 2316SOL    HW2 7848   3.014   0.847   4.439
 2317SOL     OW 7849   0.187   6.406   3.505
 2317SOL    HW1 7850   0.286   6.409   3.522
 2317SOL    HW2 7851   0.167   6.338   3.435
 2318SOL     OW 7852   2.324   2.906   4.544
 2318SOL    HW1 7853   2.335   2.811   4.570
 2318SOL    HW2 7854   2.319   2.963   4.626
 2319SOL     OW 7855   2.385   5.242   4.219
 2319SOL    HW1 7856   2.342   5.327   4.251
 2319SOL    HW2 7857   2.484   5.256   4.211
 2320SOL     OW 7858   0.449   3.061   4.859
 2320SOL    HW1 7859   0.444   2.973   4.908
 2320SOL    HW2 7860   0.357   3.092   4.836
 2321SOL     OW 7861   2.158   6.533   7.008
 2321SOL    HW1 7862   2.162   6.556   6.911
 2321SOL    HW2 7863   2.078   6.475   7.025
 2322SOL     OW 7864   1.545   2.961   4.042
 2322SOL    HW1 7865   1.518   3.014   3.963
 2322SOL    HW2 7866   1.506   3.001   4.125
 2323SOL     OW 7867   3.488   5.218   1.646
 2323SOL    HW1 7868   3.501   5.316   1.633
 2323SOL    HW2 7869   3.481   5.198   1.744
 2324SOL     OW 7870   6.638   6.139   0.831
 2324SOL    HW1 7871   6.719   6.190   0.858
 2324SOL    HW2 7872   6.598   6.095   0.912
 2325SOL     OW 7873   1.200   4.657   1.367
 2325SOL    HW1 7874   1.182   4.641   1.465
 2325SOL    HW2 7875   1.124   4.708   1.327
 2326SOL     OW 7876   4.050   5.563   6.262
 2326SOL    HW1 7877   4.119   5.496   6.291
 2326SOL    HW2 7878   3.978   5.515   6.211
 2327SOL     OW 7879   6.423   2.230   4.118
 2327SOL    HW1 7880   6.461   2.238   4.210
 2327SOL    HW2 7881   6.497   2.221   4.051
 2328SOL     OW 7882   2.072   2.046   3.020
 2328SOL    HW1 7883   2.108   2.132   2.986
 2328SOL    HW2 7884   1.974   2.055   3.038
 2329SOL     OW 7885   1.177   4.692   4.570
 2329SOL    HW1 7886   1.132   4.746   4.499
 2329SOL    HW2 7887   1.269   4.728   4.585
 2330SOL     OW 7888   1.236   3.668   1.563
 2330SOL    HW1 7889   1.276   3.757   1.582
 2330SOL    HW2 7890   1.174   3.675   1.484
 2331SOL     OW 7891   3.815   5.695   6.660
 2331SOL    HW1 7892   3.874   5.700   6.579
 2331SOL    HW2 7893   3.810   5.600   6.691
 2332SOL     OW 7894   5.270   1.602   5.657
 2332SOL    HW1 7895   5.355   1.625   5.704
 2332SOL    HW2 7896   5.219   1.687   5.638
 2333SOL     OW 7897   6.983   4.698   2.831
 2333SOL    HW1 7898   6.951   4.636   2.904
 2333SOL    HW2 7899   0.050   4.675   2.807
 2334SOL     OW 7900   2.095   0.515   0.512
 2334SOL    HW1 7901   2.182   0.483   0.474
 2334SOL    HW2 7902   2.105   0.609   0.544
 2335SOL     OW 7903   6.890   0.763   2.913
 2335SOL    HW1 7904   6.810   0.711   2.943
 2335SOL    HW2 7905   6.929   0.812   2.990
 2336SOL     OW 7906   4.730   2.723   4.910
 2336SOL    HW1 7907   4.745   2.660   4.834
 2336SOL    HW2 7908   4.639   2.708   4.949
 2337SOL     OW 7909   4.389   1.229   1.904
 2337SOL    HW1 7910   4.433   1.286   1.974
 2337SOL    HW2 7911   4.388   1.134   1.934
 2338SOL     OW 7912   0.990   2.338   5.511
 2338SOL    HW1 7913   1.076   2.289   5.524
 2338SOL    HW2 7914   0.915   2.284   5.547
 2339SOL     OW 7915   3.361   3.696   4.559
 2339SOL    HW1 7916   3.284   3.639   4.528
 2339SOL    HW2 7917   3.328   3.764   4.625
 2340SOL     OW 7918   6.211   4.506   0.606
 2340SOL    HW1 7919   6.137   4.506   0.538
 2340SOL    HW2 7920   6.250   4.414   0.613
 2341SOL     OW 7921   4.236   4.598   1.306
 2341SOL    HW1 7922   4.153   4.638   1.265
 2341SOL    HW2 7923   4.316   4.649   1.276
 2342SOL     OW 7924   0.005   0.148   5.401
 2342SOL    HW1 7925   0.004   0.059   5.357
 2342SOL    HW2 7926   6.943   0.164   5.446
 2343SOL     OW 7927   2.596   5.560   2.831
 2343SOL    HW1 7928   2.647   5.488   2.785
 2343SOL    HW2 7929   2.605   5.646   2.780
 2344SOL     OW 7930   1.883   6.440   0.040
 2344SOL    HW1 7931   1.898   6.345   0.013
 2344SOL    HW2 7932   1.886   6.447   0.139
 2345SOL     OW 7933   3.590   5.504   4.508
 2345SOL    HW1 7934   3.628   5.588   4.470
 2345SOL    HW2 7935   3.605   5.503   4.607
 2346SOL     OW 7936   4.406   3.063   5.397
 2346SOL    HW1 7937   4.433   2.986   5.339
 2346SOL    HW2 7938   4.428   3.043   5.492
 2347SOL     OW 7939   2.539   3.100   1.648
 2347SOL    HW1 7940   2.625   3.142   1.676
 2347SOL    HW2 7941   2.532   3.009   1.688
 2348SOL     OW 7942   2.589   6.759   3.852
 2348SOL    HW1 7943   2.682   6.795   3.843
 2348SOL    HW2 7944   2.529   6.803   3.785
 2349SOL     OW 7945   0.740   3.998   6.277
 2349SOL    HW1 7946   0.647   3.977   6.306
 2349SOL    HW2 7947   0.778   3.920   6.227
 2350SOL     OW 7948   4.792   6.686   6.472
 2350SOL    HW1 7949   4.830   6.731   6.553
 2350SOL    HW2 7950   4.727   6.748   6.427
 2351SOL     OW 7951   2.917   5.194   3.683
 2351SOL    HW1 7952   2.992   5.147   3.636
 2351SOL    HW2 7953   2.845   5.128   3.705
 2352SOL     OW 7954   0.712   5.385   1.940
 2352SOL    HW1 7955   0.783   5.446   1.975
 2352SOL    HW2 7956   0.698   5.404   1.843
 2353SOL     OW 7957   2.911   4.478   5.718
 2353SOL    HW1 7958   2.927   4.380   5.704
 2353SOL    HW2 7959   2.834   4.508   5.663
 2354SOL     OW 7960   3.051   1.605   5.855
 2354SOL    HW1 7961   3.082   1.668   5.783
 2354SOL    HW2 7962   3.008   1.525   5.812
 2355SOL     OW 7963   2.447   5.458   0.388
 2355SOL    HW1 7964   2.526   5.504   0.349
 2355SOL    HW2 7965   2.477   5.384   0.448
 2356SOL     OW 7966   1.505   3.684   0.098
 2356SOL    HW1 7967   1.448   3.605   0.121
 2356SOL    HW2 7968   1.458   3.768   0.123
 2357SOL     OW 7969   4.543   6.443   3.115
 2357SOL    HW1 7970   4.642   6.447   3.128
 2357SOL    HW2 7971   4.503   6.533   3.129
 2358SOL     OW 7972   4.096   5.031   5.263
 2358SOL    HW1 7973   4.088   4.933   5.277
 2358SOL    HW2 7974   4.005   5.070   5.247
 2359SOL     OW 7975   6.716   0.974   6.116
 2359SOL    HW1 7976   6.710   0.875   6.127
 2359SOL    HW2 7977   6.653   1.019   6.179
 2360SOL     OW 7978   5.599   4.626   0.034
 2360SOL    HW1 7979   5.666   4.675   7.005
 2360SOL    HW2 7980   5.619   4.528   0.032
 2361SOL     OW 7981   2.329   0.582   4.890
 2361SOL    HW1 7982   2.329   0.676   4.856
 2361SOL    HW2 7983   2.421   0.557   4.920
 2362SOL     OW 7984   2.525   0.236   5.261
 2362SOL    HW1 7985   2.440   0.280   5.234
 2362SOL    HW2 7986   2.512   0.192   5.350
 2363SOL     OW 7987   4.250   2.173   5.164
 2363SOL    HW1 7988   4.244   2.129   5.074
 2363SOL    HW2 7989   4.254   2.104   5.235
 2364SOL     OW 7990   0.868   1.737   2.178
 2364SOL    HW1 7991   0.845   1.642   2.155
 2364SOL    HW2 7992   0.960   1.741   2.216
 2365SOL     OW 7993   6.424   3.033   6.712
 2365SOL    HW1 7994   6.342   3.073   6.671
 2365SOL    HW2 7995   6.504   3.087   6.685
 2366SOL     OW 7996   1.507   5.208   6.093
 2366SOL    HW1 7997   1.579   5.272   6.066
 2366SOL    HW2 7998   1.528   5.117   6.057
 2367SOL     OW 7999   3.104   4.830   0.449
 2367SOL    HW1 8000   3.118   4.864   0.542
 2367SOL    HW2 8001   3.131   4.900   0.383
 2368SOL     OW 8002   4.743   0.172   2.945
 2368SOL    HW1 8003   4.795   0.120   3.013
 2368SOL    HW2 8004   4.780   0.153   2.854
 2369SOL     OW 8005   1.052   2.605   5.946
 2369SOL    HW1 8006   1.151   2.599   5.935
 2369SOL    HW2 8007   1.020   2.531   6.004
 2370SOL     OW 8008   5.143   3.641   0.079
 2370SOL    HW1 8009   5.128   3.657   0.176
 2370SOL    HW2 8010   5.102   3.554   0.052
 2371SOL     OW 8011   0.593   6.776   2.040
 2371SOL    HW1 8012   0.589   6.789   1.941
 2371SOL    HW2 8013   0.678   6.729   2.065
 2372SOL     OW 8014   6.691   2.523   1.709
 2372SOL    HW1 8015   6.715   2.430   1.682
 2372SOL    HW2 8016   6.612   2.520   1.771
 2373SOL     OW 8017   0.586   1.144   0.420
 2373SOL    HW1 8018   0.551   1.142   0.326
 2373SOL    HW2 8019   0.649   1.067   0.433
 2374SOL     OW 8020   6.129   1.207   3.540
 2374SOL    HW1 8021   6.088   1.271   3.475
 2374SOL    HW2 8022   6.218   1.241   3.568
 2375SOL     OW 8023   2.762   6.923   4.727
 2375SOL    HW1 8024   2.718   6.852   4.783
 2375SOL    HW2 8025   2.826   6.974   4.784
 2376SOL     OW 8026   6.200   2.471   4.360
 2376SOL    HW1 8027   6.258   2.509   4.432
 2376SOL    HW2 8028   6.205   2.371   4.363
 2377SOL     OW 8029   3.504   3.983   3.016
 2377SOL    HW1 8030   3.484   4.053   3.084
 2377SOL    HW2 8031   3.430   3.978   2.949
 2378SOL     OW 8032   5.168   2.692   6.791
 2378SOL    HW1 8033   5.254   2.683   6.740
 2378SOL    HW2 8034   5.094   2.711   6.727
 2379SOL     OW 8035   5.430   2.428   0.204
 2379SOL    HW1 8036   5.411   2.368   0.126
 2379SOL    HW2 8037   5.388   2.517   0.189
 2380SOL     OW 8038   0.497   0.323   5.000
 2380SOL    HW1 8039   0.415   0.281   5.038
 2380SOL    HW2 8040   0.483   0.343   4.903
 2381SOL     OW 8041   1.719   3.647   4.294
 2381SOL    HW1 8042   1.719   3.554   4.330
 2381SOL    HW2 8043   1.772   3.706   4.354
 2382SOL     OW 8044   2.320   4.341   3.552
 2382SOL    HW1 8045   2.238   4.394   3.533
 2382SOL    HW2 8046   2.350   4.294   3.469
 2383SOL     OW 8047   6.143   6.784   0.826
 2383SOL    HW1 8048   6.113   6.850   0.756
 2383SOL    HW2 8049   6.191   6.833   0.899
 2384SOL     OW 8050   6.424   6.932   2.287
 2384SOL    HW1 8051   6.471   6.862   2.232
 2384SOL    HW2 8052   6.328   6.935   2.261
 2385SOL     OW 8053   0.536   6.751   1.180
 2385SOL    HW1 8054   0.578   6.777   1.267
 2385SOL    HW2 8055   0.524   6.652   1.176
 2386SOL     OW 8056   5.144   5.376   4.051
 2386SOL    HW1 8057   5.233   5.413   4.022
 2386SOL    HW2 8058   5.139   5.279   4.027
 2387SOL     OW 8059   0.950   1.157   3.587
 2387SOL    HW1 8060   0.977   1.068   3.551
 2387SOL    HW2 8061   1.014   1.227   3.554
 2388SOL     OW 8062   1.872   2.259   3.515
 2388SOL    HW1 8063   1.877   2.213   3.604
 2388SOL    HW2 8064   1.787   2.310   3.509
 2389SOL     OW 8065   4.968   3.903   2.950
 2389SOL    HW1 8066   4.966   3.833   3.021
 2389SOL    HW2 8067   4.932   3.989   2.987
 2390SOL     OW 8068   3.680   4.091   3.400
 2390SOL    HW1 8069   3.643   4.147   3.475
 2390SOL    HW2 8070   3.766   4.049   3.430
 2391SOL     OW 8071   4.777   4.813   5.730
 2391SOL    HW1 8072   4.744   4.743   5.793
 2391SOL    HW2 8073   4.698   4.863   5.692
 2392SOL     OW 8074   3.807   6.895   5.358
 2392SOL    HW1 8075   3.869   6.830   5.401
 2392SOL    HW2 8076   3.851   6.935   5.278
 2393SOL     OW 8077   4.920   4.074   6.204
 2393SOL    HW1 8078   4.896   4.096   6.299
 2393SOL    HW2 8079   4.872   3.990   6.176
 2394SOL     OW 8080   2.039   3.272   4.252
 2394SOL    HW1 8081   2.050   3.173   4.244
 2394SOL    HW2 8082   2.037   3.297   4.349
 2395SOL     OW 8083   6.588   2.823   6.493
 2395SOL    HW1 8084   6.505   2.811   6.548
 2395SOL    HW2 8085   6.654   2.879   6.543
 2396SOL     OW 8086   4.130   5.393   1.350
 2396SOL    HW1 8087   4.171   5.483   1.366
 2396SOL    HW2 8088   4.167   5.328   1.416
 2397SOL     OW 8089   0.412   3.845   6.932
 2397SOL    HW1 8090   0.372   3.810   7.016
 2397SOL    HW2 8091   0.512   3.843   6.938
 2398SOL     OW 8092   3.137   3.755   6.691
 2398SOL    HW1 8093   3.201   3.782   6.762
 2398SOL    HW2 8094   3.122   3.832   6.628
 2399SOL     OW 8095   4.654   1.217   2.386
 2399SOL    HW1 8096   4.634   1.315   2.381
 2399SOL    HW2 8097   4.658   1.189   2.482
 2400SOL     OW 8098   3.575   4.986   0.097
 2400SOL    HW1 8099   3.611   5.048   0.167
 2400SOL    HW2 8100   3.643   4.975   0.025
 2401SOL     OW 8101   3.954   6.743   6.799
 2401SOL    HW1 8102   3.874   6.799   6.819
 2401SOL    HW2 8103   3.946   6.656   6.848
 2402SOL     OW 8104   0.448   0.681   3.799
 2402SOL    HW1 8105   0.438   0.716   3.706
 2402SOL    HW2 8106   0.529   0.721   3.841
 2403SOL     OW 8107   2.341   2.571   0.967
 2403SOL    HW1 8108   2.313   2.536   0.877
 2403SOL    HW2 8109   2.437   2.550   0.982
 2404SOL     OW 8110   4.875   1.094   0.971
 2404SOL    HW1 8111   4.957   1.039   0.988
 2404SOL    HW2 8112   4.902   1.181   0.930
 2405SOL     OW 8113   3.726   3.598   2.876
 2405SOL    HW1 8114   3.820   3.598   2.843
 2405SOL    HW2 8115   3.685   3.508   2.860
 2406SOL     OW 8116   2.741   6.478   3.249
 2406SOL    HW1 8117   2.723   6.576   3.262
 2406SOL    HW2 8118   2.720   6.452   3.155
 2407SOL     OW 8119   5.175   2.325   2.701
 2407SOL    HW1 8120   5.212   2.401   2.754
 2407SOL    HW2 8121   5.077   2.340   2.684
 2408SOL     OW 8122   4.579   4.757   3.705
 2408SOL    HW1 8123   4.506   4.822   3.686
 2408SOL    HW2 8124   4.542   4.678   3.754
 2409SOL     OW 8125   1.336   3.231   1.972
 2409SOL    HW1 8126   1.259   3.287   2.002
 2409SOL    HW2 8127   1.413   3.291   1.947
 2410SOL     OW 8128   5.117   2.777   6.258
 2410SOL    HW1 8129   5.132   2.760   6.161
 2410SOL    HW2 8130   5.032   2.733   6.287
 2411SOL     OW 8131   4.224   5.388   5.924
 2411SOL    HW1 8132   4.162   5.351   5.855
 2411SOL    HW2 8133   4.298   5.438   5.879
 2412SOL     OW 8134   4.168   4.858   1.022
 2412SOL    HW1 8135   4.195   4.899   0.935
 2412SOL    HW2 8136   4.222   4.899   1.096
 2413SOL     OW 8137   6.280   2.285   0.376
 2413SOL    HW1 8138   6.253   2.336   0.458
 2413SOL    HW2 8139   6.248   2.191   0.383
 2414SOL     OW 8140   4.953   3.815   2.379
 2414SOL    HW1 8141   4.911   3.888   2.434
 2414SOL    HW2 8142   4.912   3.816   2.287
 2415SOL     OW 8143   0.173   0.059   1.719
 2415SOL    HW1 8144   0.091   0.048   1.662
 2415SOL    HW2 8145   0.149   0.109   1.802
 2416SOL     OW 8146   3.895   2.135   5.141
 2416SOL    HW1 8147   3.921   2.202   5.211
 2416SOL    HW2 8148   3.966   2.065   5.134
 2417SOL     OW 8149   3.953   3.629   6.078
 2417SOL    HW1 8150   3.908   3.716   6.058
 2417SOL    HW2 8151   4.021   3.644   6.151
 2418SOL     OW 8152   3.411   4.179   3.878
 2418SOL    HW1 8153   3.385   4.134   3.964
 2418SOL    HW2 8154   3.510   4.184   3.872
 2419SOL     OW 8155   0.795   5.847   4.687
 2419SOL    HW1 8156   0.790   5.947   4.680
 2419SOL    HW2 8157   0.824   5.822   4.780
 2420SOL     OW 8158   3.346   1.568   1.497
 2420SOL    HW1 8159   3.372   1.501   1.428
 2420SOL    HW2 8160   3.261   1.612   1.469
 2421SOL     OW 8161   3.139   1.186   5.339
 2421SOL    HW1 8162   3.134   1.244   5.258
 2421SOL    HW2 8163   3.090   1.230   5.415
 2422SOL     OW 8164   5.945   0.352   1.470
 2422SOL    HW1 8165   5.922   0.256   1.454
 2422SOL    HW2 8166   5.935   0.372   1.568
 2423SOL     OW 8167   1.437   6.657   3.942
 2423SOL    HW1 8168   1.514   6.612   3.987
 2423SOL    HW2 8169   1.444   6.756   3.957
 2424SOL     OW 8170   6.252   6.541   6.149
 2424SOL    HW1 8171   6.186   6.535   6.074
 2424SOL    HW2 8172   6.318   6.466   6.141
 2425SOL     OW 8173   6.407   0.377   3.971
 2425SOL    HW1 8174   6.345   0.386   4.049
 2425SOL    HW2 8175   6.498   0.352   4.004
 2426SOL     OW 8176   1.169   5.693   4.454
 2426SOL    HW1 8177   1.180   5.754   4.375
 2426SOL    HW2 8178   1.219   5.608   4.438
 2427SOL     OW 8179   5.584   5.278   6.314
 2427SOL    HW1 8180   5.529   5.266   6.231
 2427SOL    HW2 8181   5.615   5.373   6.320
 2428SOL     OW 8182   6.236   0.403   3.432
 2428SOL    HW1 8183   6.307   0.344   3.393
 2428SOL    HW2 8184   6.200   0.361   3.516
 2429SOL     OW 8185   6.406   5.376   4.097
 2429SOL    HW1 8186   6.489   5.418   4.134
 2429SOL    HW2 8187   6.326   5.411   4.145
 2430SOL     OW 8188   6.262   1.587   1.282
 2430SOL    HW1 8189   6.258   1.569   1.380
 2430SOL    HW2 8190   6.358   1.591   1.253
 2431SOL     OW 8191   4.359   0.760   2.158
 2431SOL    HW1 8192   4.335   0.781   2.253
 2431SOL    HW2 8193   4.394   0.842   2.113
 2432SOL     OW 8194   3.060   6.725   3.157
 2432SOL    HW1 8195   3.100   6.652   3.212
 2432SOL    HW2 8196   3.000   6.781   3.215
 2433SOL     OW 8197   3.280   0.532   1.390
 2433SOL    HW1 8198   3.218   0.520   1.468
 2433SOL    HW2 8199   3.321   0.445   1.365
 2434SOL     OW 8200   4.178   0.923   5.008
 2434SOL    HW1 8201   4.079   0.906   5.001
 2434SOL    HW2 8202   4.201   1.006   4.957
 2435SOL     OW 8203   4.298   4.422   6.009
 2435SOL    HW1 8204   4.257   4.389   5.924
 2435SOL    HW2 8205   4.329   4.516   5.998
 2436SOL     OW 8206   1.837   6.449   1.819
 2436SOL    HW1 8207   1.864   6.488   1.731
 2436SOL    HW2 8208   1.807   6.355   1.806
 2437SOL     OW 8209   4.573   5.933   0.405
 2437SOL    HW1 8210   4.565   5.878   0.322
 2437SOL    HW2 8211   4.622   5.881   0.475
 2438SOL     OW 8212   3.761   1.081   5.822
 2438SOL    HW1 8213   3.836   1.139   5.788
 2438SOL    HW2 8214   3.798   0.995   5.856
 2439SOL     OW 8215   0.621   4.275   6.329
 2439SOL    HW1 8216   0.704   4.299   6.379
 2439SOL    HW2 8217   0.613   4.175   6.324
 2440SOL     OW 8218   5.344   6.060   5.968
 2440SOL    HW1 8219   5.246   6.043   5.973
 2440SOL    HW2 8220   5.362   6.130   5.898
 2441SOL     OW 8221   0.295   0.203   0.260
 2441SOL    HW1 8222   0.263   0.164   0.174
 2441SOL    HW2 8223   0.227   0.186   0.332
 2442SOL     OW 8224   6.593   4.602   4.483
 2442SOL    HW1 8225   6.504   4.593   4.439
 2442SOL    HW2 8226   6.649   4.522   4.462
 2443SOL     OW 8227   4.417   6.211   5.791
 2443SOL    HW1 8228   4.367   6.213   5.878
 2443SOL    HW2 8229   4.370   6.149   5.727
 2444SOL     OW 8230   3.275   4.311   5.969
 2444SOL    HW1 8231   3.232   4.388   6.015
 2444SOL    HW2 8232   3.313   4.341   5.882
 2445SOL     OW 8233   0.079   1.098   2.012
 2445SOL    HW1 8234   0.143   1.072   1.940
 2445SOL    HW2 8235   0.016   1.022   2.028
 2446SOL     OW 8236   0.484   4.342   3.693
 2446SOL    HW1 8237   0.401   4.290   3.673
 2446SOL    HW2 8238   0.547   4.336   3.616
 2447SOL     OW 8239   2.776   2.287   0.715
 2447SOL    HW1 8240   2.865   2.309   0.755
 2447SOL    HW2 8241   2.736   2.370   0.675
 2448SOL     OW 8242   0.095   0.972   5.059
 2448SOL    HW1 8243   0.094   0.973   4.959
 2448SOL    HW2 8244   0.142   0.890   5.092
 2449SOL     OW 8245   0.532   4.996   1.141
 2449SOL    HW1 8246   0.457   5.061   1.132
 2449SOL    HW2 8247   0.505   4.921   1.202
 2450SOL     OW 8248   2.534   4.710   3.310
 2450SOL    HW1 8249   2.440   4.744   3.308
 2450SOL    HW2 8250   2.572   4.711   3.217
 2451SOL     OW 8251   0.628   0.011   3.723
 2451SOL    HW1 8252   0.586   6.973   3.787
 2451SOL    HW2 8253   0.563   0.084   3.702
 2452SOL     OW 8254   1.669   2.853   2.965
 2452SOL    HW1 8255   1.705   2.945   2.958
 2452SOL    HW2 8256   1.687   2.804   2.879
 2453SOL     OW 8257   6.230   3.777   0.718
 2453SOL    HW1 8258   6.177   3.703   0.761
 2453SOL    HW2 8259   6.327   3.764   0.740
 2454SOL     OW 8260   3.308   1.210   0.680
 2454SOL    HW1 8261   3.387   1.162   0.645
 2454SOL    HW2 8262   3.236   1.212   0.610
 2455SOL     OW 8263   5.644   6.423   0.658
 2455SOL    HW1 8264   5.635   6.381   0.748
 2455SOL    HW2 8265   5.555   6.457   0.627
 2456SOL     OW 8266   5.822   6.845   0.645
 2456SOL    HW1 8267   5.908   6.883   0.612
 2456SOL    HW2 8268   5.760   6.919   0.672
 2457SOL     OW 8269   6.819   6.099   0.608
 2457SOL    HW1 8270   6.739   6.123   0.663
 2457SOL    HW2 8271   6.805   6.007   0.569
 2458SOL     OW 8272   2.884   5.722   3.553
 2458SOL    HW1 8273   2.916   5.738   3.460
 2458SOL    HW2 8274   2.923   5.636   3.588
 2459SOL     OW 8275   2.629   6.938   0.389
 2459SOL    HW1 8276   2.646   6.932   0.488
 2459SOL    HW2 8277   2.676   7.019   0.353
 2460SOL     OW 8278   2.249   0.273   1.425
 2460SOL    HW1 8279   2.346   0.292   1.439
 2460SOL    HW2 8280   2.234   0.240   1.331
 2461SOL     OW 8281   4.783   0.618   2.825
 2461SOL    HW1 8282   4.859   0.595   2.763
 2461SOL    HW2 8283   4.801   0.707   2.867
 2462SOL     OW 8284   2.398   5.732   7.001
 2462SOL    HW1 8285   2.419   5.654   6.942
 2462SOL    HW2 8286   2.407   5.816   6.949
 2463SOL     OW 8287   5.724   2.621   4.467
 2463SOL    HW1 8288   5.658   2.639   4.393
 2463SOL    HW2 8289   5.788   2.550   4.438
 2464SOL     OW 8290   1.376   4.752   1.550
 2464SOL    HW1 8291   1.332   4.739   1.461
 2464SOL    HW2 8292   1.472   4.726   1.544
 2465SOL     OW 8293   0.003   5.327   1.155
 2465SOL    HW1 8294   7.002   5.263   1.083
 2465SOL    HW2 8295   0.007   5.279   1.243
 2466SOL     OW 8296   3.399   0.676   1.679
 2466SOL    HW1 8297   3.434   0.705   1.590
 2466SOL    HW2 8298   3.334   0.744   1.713
 2467SOL     OW 8299   5.666   1.308   5.556
 2467SOL    HW1 8300   5.700   1.397   5.527
 2467SOL    HW2 8301   5.728   1.236   5.525
 2468SOL     OW 8302   6.361   5.894   2.005
 2468SOL    HW1 8303   6.429   5.858   1.942
 2468SOL    HW2 8304   6.403   5.911   2.094
 2469SOL     OW 8305   3.508   4.809   5.308
 2469SOL    HW1 8306   3.441   4.736   5.322
 2469SOL    HW2 8307   3.523   4.857   5.395
 2470SOL     OW 8308   3.066   3.974   6.540
 2470SOL    HW1 8309   3.151   3.984   6.488
 2470SOL    HW2 8310   3.037   4.064   6.574
 2471SOL     OW 8311   2.303   6.698   1.528
 2471SOL    HW1 8312   2.310   6.797   1.539
 2471SOL    HW2 8313   2.391   6.656   1.550
 2472SOL     OW 8314   5.843   1.434   4.894
 2472SOL    HW1 8315   5.754   1.452   4.937
 2472SOL    HW2 8316   5.846   1.476   4.804
 2473SOL     OW 8317   2.154   4.120   4.437
 2473SOL    HW1 8318   2.208   4.174   4.373
 2473SOL    HW2 8319   2.188   4.137   4.530
 2474SOL     OW 8320   6.787   5.399   0.270
 2474SOL    HW1 8321   6.794   5.330   0.342
 2474SOL    HW2 8322   6.693   5.403   0.235
 2475SOL     OW 8323   4.650   1.721   0.748
 2475SOL    HW1 8324   4.641   1.729   0.848
 2475SOL    HW2 8325   4.680   1.808   0.710
 2476SOL     OW 8326   0.154   2.538   3.336
 2476SOL    HW1 8327   0.135   2.606   3.265
 2476SOL    HW2 8328   0.088   2.549   3.410
 2477SOL     OW 8329   6.411   0.257   2.138
 2477SOL    HW1 8330   6.473   0.210   2.202
 2477SOL    HW2 8331   6.459   0.273   2.052
 2478SOL     OW 8332   5.267   6.676   3.078
 2478SOL    HW1 8333   5.251   6.623   2.994
 2478SOL    HW2 8334   5.191   6.661   3.141
 2479SOL     OW 8335   0.554   3.434   1.443
 2479SOL    HW1 8336   0.590   3.342   1.423
 2479SOL    HW2 8337   0.589   3.464   1.531
 2480SOL     OW 8338   6.636   2.887   1.021
 2480SOL    HW1 8339   6.695   2.963   1.050
 2480SOL    HW2 8340   6.649   2.810   1.083
 2481SOL     OW 8341   3.486   6.191   0.183
 2481SOL    HW1 8342   3.524   6.191   0.091
 2481SOL    HW2 8343   3.402   6.137   0.185
 2482SOL     OW 8344   4.473   2.942   5.650
 2482SOL    HW1 8345   4.557   2.888   5.646
 2482SOL    HW2 8346   4.474   2.999   5.733
 2483SOL     OW 8347   2.056   1.330   0.787
 2483SOL    HW1 8348   1.995   1.319   0.865
 2483SOL    HW2 8349   2.146   1.362   0.818
 2484SOL     OW 8350   1.976   0.825   0.691
 2484SOL    HW1 8351   2.073   0.833   0.668
 2484SOL    HW2 8352   1.936   0.916   0.700
 2485SOL     OW 8353   4.855   5.264   2.936
 2485SOL    HW1 8354   4.883   5.169   2.946
 2485SOL    HW2 8355   4.937   5.322   2.933
 2486SOL     OW 8356   2.596   6.075   2.552
 2486SOL    HW1 8357   2.500   6.092   2.578
 2486SOL    HW2 8358   2.648   6.050   2.633
 2487SOL     OW 8359   3.855   6.245   0.608
 2487SOL    HW1 8360   3.840   6.146   0.613
 2487SOL    HW2 8361   3.878   6.280   0.699
 2488SOL     OW 8362   2.653   4.098   1.491
 2488SOL    HW1 8363   2.726   4.104   1.423
 2488SOL    HW2 8364   2.693   4.094   1.583
 2489SOL     OW 8365   2.564   4.945   4.157
 2489SOL    HW1 8366   2.560   5.010   4.081
 2489SOL    HW2 8367   2.609   4.861   4.127
 2490SOL     OW 8368   6.149   5.049   1.101
 2490SOL    HW1 8369   6.083   4.975   1.085
 2490SOL    HW2 8370   6.242   5.011   1.105
 2491SOL     OW 8371   2.784   6.010   3.039
 2491SOL    HW1 8372   2.879   6.038   3.046
 2491SOL    HW2 8373   2.777   5.911   3.045
 2492SOL     OW 8374   3.918   3.390   6.461
 2492SOL    HW1 8375   3.859   3.418   6.386
 2492SOL    HW2 8376   3.891   3.439   6.544
 2493SOL     OW 8377   6.087   0.193   3.119
 2493SOL    HW1 8378   6.055   0.276   3.164
 2493SOL    HW2 8379   6.130   0.217   3.032
 2494SOL     OW 8380   5.264   3.235   2.515
 2494SOL    HW1 8381   5.181   3.210   2.566
 2494SOL    HW2 8382   5.238   3.290   2.435
 2495SOL     OW 8383   5.169   0.776   5.271
 2495SOL    HW1 8384   5.237   0.726   5.218
 2495SOL    HW2 8385   5.078   0.739   5.252
 2496SOL     OW 8386   0.864   5.054   0.318
 2496SOL    HW1 8387   0.846   5.116   0.394
 2496SOL    HW2 8388   0.778   5.020   0.282
 2497SOL     OW 8389   0.430   1.667   6.916
 2497SOL    HW1 8390   0.376   1.744   6.950
 2497SOL    HW2 8391   0.380   1.582   6.932
 2498SOL     OW 8392   2.213   2.678   3.507
 2498SOL    HW1 8393   2.116   2.663   3.484
 2498SOL    HW2 8394   2.231   2.776   3.510
 2499SOL     OW 8395   5.468   0.541   4.426
 2499SOL    HW1 8396   5.512   0.629   4.446
 2499SOL    HW2 8397   5.506   0.504   4.341
 2500SOL     OW 8398   4.436   4.003   5.496
 2500SOL    HW1 8399   4.510   4.065   5.520
 2500SOL    HW2 8400   4.475   3.920   5.454
 2501SOL     OW 8401   6.215   4.720   0.003
 2501SOL    HW1 8402   6.148   4.694   6.960
 2501SOL    HW2 8403   6.283   4.647   0.013
 2502SOL     OW 8404   2.983   6.353   3.598
 2502SOL    HW1 8405   2.960   6.340   3.501
 2502SOL    HW2 8406   3.057   6.420   3.606
 2503SOL     OW 8407   3.933   5.804   5.816
 2503SOL    HW1 8408   3.965   5.877   5.877
 2503SOL    HW2 8409   3.885   5.844   5.738
 2504SOL     OW 8410   2.594   5.294   5.130
 2504SOL    HW1 8411   2.613   5.306   5.033
 2504SOL    HW2 8412   2.598   5.383   5.176
 2505SOL     OW 8413   3.680   5.788   4.688
 2505SOL    HW1 8414   3.686   5.886   4.666
 2505SOL    HW2 8415   3.631   5.741   4.615
 2506SOL     OW 8416   0.090   3.516   6.270
 2506SOL    HW1 8417   0.086   3.528   6.369
 2506SOL    HW2 8418   0.131   3.598   6.229
 2507SOL     OW 8419   5.876   5.197   0.237
 2507SOL    HW1 8420   5.874   5.162   0.144
 2507SOL    HW2 8421   5.783   5.200   0.274
 2508SOL     OW 8422   2.613   2.461   1.970
 2508SOL    HW1 8423   2.703   2.436   2.004
 2508SOL    HW2 8424   2.620   2.489   1.874
 2509SOL     OW 8425   5.455   1.590   2.143
 2509SOL    HW1 8426   5.371   1.538   2.155
 2509SOL    HW2 8427   5.527   1.552   2.201
 2510SOL     OW 8428   2.651   4.542   0.178
 2510SOL    HW1 8429   2.616   4.475   0.244
 2510SOL    HW2 8430   2.650   4.633   0.218
 2511SOL     OW 8431   1.433   1.651   5.037
 2511SOL    HW1 8432   1.375   1.642   4.957
 2511SOL    HW2 8433   1.528   1.631   5.012
 2512SOL     OW 8434   5.477   4.539   4.668
 2512SOL    HW1 8435   5.406   4.476   4.639
 2512SOL    HW2 8436   5.532   4.496   4.741
 2513SOL     OW 8437   0.701   2.302   6.035
 2513SOL    HW1 8438   0.761   2.369   6.080
 2513SOL    HW2 8439   0.711   2.311   5.936
 2514SOL     OW 8440   0.154   2.501   4.305
 2514SOL    HW1 8441   0.170   2.599   4.300
 2514SOL    HW2 8442   0.227   2.458   4.360
 2515SOL     OW 8443   1.297   6.806   0.765
 2515SOL    HW1 8444   1.212   6.784   0.716
 2515SOL    HW2 8445   1.280   6.804   0.863
 2516SOL     OW 8446   5.865   5.353   2.990
 2516SOL    HW1 8447   5.925   5.344   2.910
 2516SOL    HW2 8448   5.835   5.262   3.019
 2517SOL     OW 8449   2.301   4.416   6.320
 2517SOL    HW1 8450   2.308   4.473   6.401
 2517SOL    HW2 8451   2.337   4.325   6.340
 2518SOL     OW 8452   2.119   3.090   6.972
 2518SOL    HW1 8453   2.051   3.065   0.014
 2518SOL    HW2 8454   2.074   3.103   6.883
 2519SOL     OW 8455   4.326   4.935   4.217
 2519SOL    HW1 8456   4.329   5.014   4.155
 2519SOL    HW2 8457   4.419   4.905   4.237
 2520SOL     OW 8458   1.347   2.849   0.767
 2520SOL    HW1 8459   1.356   2.949   0.772
 2520SOL    HW2 8460   1.437   2.807   0.773
 2521SOL     OW 8461   0.952   6.993   6.037
 2521SOL    HW1 8462   1.023   0.032   6.060
 2521SOL    HW2 8463   0.888   6.984   6.114
 2522SOL     OW 8464   1.348   2.694   4.721
 2522SOL    HW1 8465   1.297   2.619   4.765
 2522SOL    HW2 8466   1.443   2.692   4.753
 2523SOL     OW 8467   0.019   3.170   1.066
 2523SOL    HW1 8468   7.025   3.185   0.969
 2523SOL    HW2 8469   0.079   3.091   1.075
 2524SOL     OW 8470   0.466   6.226   3.987
 2524SOL    HW1 8471   0.502   6.301   4.042
 2524SOL    HW2 8472   0.491   6.139   4.029
 2525SOL     OW 8473   1.264   3.852   4.374
 2525SOL    HW1 8474   1.270   3.752   4.375
 2525SOL    HW2 8475   1.216   3.882   4.292
 2526SOL     OW 8476   0.693   3.185   5.265
 2526SOL    HW1 8477   0.752   3.145   5.335
 2526SOL    HW2 8478   0.637   3.113   5.223
 2527SOL     OW 8479   6.199   6.707   5.412
 2527SOL    HW1 8480   6.157   6.742   5.329
 2527SOL    HW2 8481   6.162   6.617   5.433
 2528SOL     OW 8482   5.464   4.639   0.994
 2528SOL    HW1 8483   5.561   4.615   1.000
 2528SOL    HW2 8484   5.433   4.633   0.900
 2529SOL     OW 8485   4.792   4.852   6.124
 2529SOL    HW1 8486   4.820   4.807   6.209
 2529SOL    HW2 8487   4.692   4.855   6.119
 2530SOL     OW 8488   1.191   6.517   3.858
 2530SOL    HW1 8489   1.241   6.444   3.812
 2530SOL    HW2 8490   1.256   6.576   3.907
 2531SOL     OW 8491   5.745   6.519   5.040
 2531SOL    HW1 8492   5.650   6.504   5.013
 2531SOL    HW2 8493   5.806   6.490   4.966
 2532SOL     OW 8494   0.488   5.725   0.746
 2532SOL    HW1 8495   0.480   5.628   0.721
 2532SOL    HW2 8496   0.406   5.753   0.795
 2533SOL     OW 8497   5.219   6.524   4.840
 2533SOL    HW1 8498   5.252   6.454   4.777
 2533SOL    HW2 8499   5.123   6.506   4.862
 2534SOL     OW 8500   2.469   0.608   3.220
 2534SOL    HW1 8501   2.500   0.516   3.242
 2534SOL    HW2 8502   2.548   0.668   3.206
 2535SOL     OW 8503   1.847   1.927   5.935
 2535SOL    HW1 8504   1.913   1.913   5.861
 2535SOL    HW2 8505   1.764   1.874   5.915
 2536SOL     OW 8506   6.628   1.848   3.761
 2536SOL    HW1 8507   6.678   1.908   3.698
 2536SOL    HW2 8508   6.553   1.900   3.803
 2537SOL     OW 8509   4.984   6.565   0.525
 2537SOL    HW1 8510   4.922   6.520   0.461
 2537SOL    HW2 8511   4.933   6.600   0.603
 2538SOL     OW 8512   1.731   4.760   4.854
 2538SOL    HW1 8513   1.764   4.764   4.760
 2538SOL    HW2 8514   1.709   4.665   4.878
 2539SOL     OW 8515   4.363   6.959   5.418
 2539SOL    HW1 8516   4.332   6.915   5.333
 2539SOL    HW2 8517   4.462   6.968   5.416
 2540SOL     OW 8518   5.579   1.044   1.338
 2540SOL    HW1 8519   5.671   1.047   1.299
 2540SOL    HW2 8520   5.513   1.020   1.267
 2541SOL     OW 8521   1.605   0.444   5.367
 2541SOL    HW1 8522   1.647   0.353   5.374
 2541SOL    HW2 8523   1.622   0.481   5.276
 2542SOL     OW 8524   4.207   2.135   4.455
 2542SOL    HW1 8525   4.185   2.039   4.474
 2542SOL    HW2 8526   4.181   2.191   4.533
 2543SOL     OW 8527   1.312   0.421   3.044
 2543SOL    HW1 8528   1.319   0.518   3.067
 2543SOL    HW2 8529   1.284   0.411   2.948
 2544SOL     OW 8530   0.592   4.897   2.031
 2544SOL    HW1 8531   0.644   4.981   2.047
 2544SOL    HW2 8532   0.549   4.901   1.941
 2545SOL     OW 8533   2.159   1.937   1.230
 2545SOL    HW1 8534   2.124   2.006   1.294
 2545SOL    HW2 8535   2.086   1.872   1.207
 2546SOL     OW 8536   7.007   3.485   1.465
 2546SOL    HW1 8537   0.020   3.449   1.381
 2546SOL    HW2 8538   6.921   3.531   1.444
 2547SOL     OW 8539   5.333   5.309   0.975
 2547SOL    HW1 8540   5.281   5.357   0.905
 2547SOL    HW2 8541   5.272   5.248   1.026
 2548SOL     OW 8542   1.894   0.355   4.820
 2548SOL    HW1 8543   1.894   0.415   4.899
 2548SOL    HW2 8544   1.988   0.339   4.790
 2549SOL     OW 8545   2.189   2.788   1.626
 2549SOL    HW1 8546   2.116   2.722   1.645
 2549SOL    HW2 8547   2.278   2.743   1.638
 2550SOL     OW 8548   5.771   0.146   6.781
 2550SOL    HW1 8549   5.721   0.115   6.862
 2550SOL    HW2 8550   5.818   0.068   6.739
 2551SOL     OW 8551   3.345   4.618   0.143
 2551SOL    HW1 8552   3.419   4.683   0.129
 2551SOL    HW2 8553   3.382   4.527   0.162
 2552SOL     OW 8554   2.379   5.448   6.523
 2552SOL    HW1 8555   2.338   5.413   6.607
 2552SOL    HW2 8556   2.363   5.547   6.517
 2553SOL     OW 8557   3.779   2.576   6.143
 2553SOL    HW1 8558   3.811   2.644   6.208
 2553SOL    HW2 8559   3.852   2.511   6.124
 2554SOL     OW 8560   1.943   6.222   6.719
 2554SOL    HW1 8561   1.870   6.169   6.677
 2554SOL    HW2 8562   1.953   6.196   6.815
 2555SOL     OW 8563   6.416   6.038   6.471
 2555SOL    HW1 8564   6.391   5.941   6.466
 2555SOL    HW2 8565   6.339   6.091   6.507
 2556SOL     OW 8566   3.974   6.995   0.864
 2556SOL    HW1 8567   3.911   0.021   0.922
 2556SOL    HW2 8568   4.010   0.027   0.792
 2557SOL     OW 8569   3.138   1.109   6.958
 2557SOL    HW1 8570   3.124   1.046   0.008
 2557SOL    HW2 8571   3.191   1.188   6.990
 2558SOL     OW 8572   4.899   3.819   6.093
 2558SOL    HW1 8573   4.997   3.833   6.084
 2558SOL    HW2 8574   4.851   3.865   6.018
 2559SOL     OW 8575   6.848   3.493   3.533
 2559SOL    HW1 8576   6.910   3.569   3.512
 2559SOL    HW2 8577   6.902   3.408   3.541
 2560SOL     OW 8578   4.977   3.636   3.619
 2560SOL    HW1 8579   4.948   3.552   3.574
 2560SOL    HW2 8580   4.952   3.633   3.716
 2561SOL     OW 8581   3.871   1.311   3.341
 2561SOL    HW1 8582   3.808   1.385   3.320
 2561SOL    HW2 8583   3.820   1.230   3.371
 2562SOL     OW 8584   3.219   6.214   3.379
 2562SOL    HW1 8585   3.253   6.123   3.403
 2562SOL    HW2 8586   3.159   6.247   3.452
 2563SOL     OW 8587   3.624   1.588   6.337
 2563SOL    HW1 8588   3.542   1.540   6.304
 2563SOL    HW2 8589   3.632   1.676   6.291
 2564SOL     OW 8590   2.329   6.934   0.530
 2564SOL    HW1 8591   2.361   6.839   0.529
 2564SOL    HW2 8592   2.330   6.970   0.436
 2565SOL     OW 8593   0.524   1.243   6.424
 2565SOL    HW1 8594   0.431   1.218   6.449
 2565SOL    HW2 8595   0.577   1.262   6.506
 2566SOL     OW 8596   2.844   6.263   1.622
 2566SOL    HW1 8597   2.887   6.181   1.661
 2566SOL    HW2 8598   2.812   6.243   1.530
 2567SOL     OW 8599   2.156   1.328   1.227
 2567SOL    HW1 8600   2.097   1.363   1.154
 2567SOL    HW2 8601   2.134   1.232   1.244
 2568SOL     OW 8602   2.968   6.778   1.031
 2568SOL    HW1 8603   2.882   6.728   1.024
 2568SOL    HW2 8604   2.950   6.873   1.057
 2569SOL     OW 8605   3.103   2.075   1.418
 2569SOL    HW1 8606   3.044   2.144   1.376
 2569SOL    HW2 8607   3.075   2.060   1.513
 2570SOL     OW 8608   5.569   5.891   6.027
 2570SOL    HW1 8609   5.576   5.862   6.123
 2570SOL    HW2 8610   5.513   5.974   6.022
 2571SOL     OW 8611   3.716   2.890   4.950
 2571SOL    HW1 8612   3.715   2.846   5.040
 2571SOL    HW2 8613   3.664   2.975   4.955
 2572SOL     OW 8614   2.509   5.972   1.309
 2572SOL    HW1 8615   2.434   6.005   1.252
 2572SOL    HW2 8616   2.496   6.003   1.403
 2573SOL     OW 8617   6.440   2.072   3.790
 2573SOL    HW1 8618   6.496   2.143   3.747
 2573SOL    HW2 8619   6.345   2.083   3.761
 2574SOL     OW 8620   6.422   3.013   0.919
 2574SOL    HW1 8621   6.493   2.967   0.974
 2574SOL    HW2 8622   6.456   3.029   0.827
 2575SOL     OW 8623   5.178   3.736   1.129
 2575SOL    HW1 8624   5.106   3.757   1.195
 2575SOL    HW2 8625   5.194   3.637   1.128
 2576SOL     OW 8626   3.632   6.903   3.603
 2576SOL    HW1 8627   3.605   6.932   3.511
 2576SOL    HW2 8628   3.729   6.922   3.617
 2577SOL     OW 8629   4.160   0.614   3.979
 2577SOL    HW1 8630   4.067   0.588   3.953
 2577SOL    HW2 8631   4.156   0.683   4.052
 2578SOL     OW 8632   5.258   3.090   5.069
 2578SOL    HW1 8633   5.171   3.135   5.047
 2578SOL    HW2 8634   5.239   3.005   5.119
 2579SOL     OW 8635   0.941   1.503   5.337
 2579SOL    HW1 8636   1.012   1.565   5.370
 2579SOL    HW2 8637   0.858   1.515   5.391
 2580SOL     OW 8638   1.938   2.877   5.448
 2580SOL    HW1 8639   1.924   2.922   5.360
 2580SOL    HW2 8640   2.033   2.887   5.476
 2581SOL     OW 8641   5.630   4.908   1.868
 2581SOL    HW1 8642   5.724   4.875   1.872
 2581SOL    HW2 8643   5.579   4.874   1.947
 2582SOL     OW 8644   2.260   4.795   3.020
 2582SOL    HW1 8645   2.323   4.718   3.031
 2582SOL    HW2 8646   2.178   4.779   3.074
 2583SOL     OW 8647   1.402   0.789   1.161
 2583SOL    HW1 8648   1.429   0.738   1.079
 2583SOL    HW2 8649   1.369   0.725   1.231
 2584SOL     OW 8650   4.036   6.624   0.694
 2584SOL    HW1 8651   4.055   6.535   0.735
 2584SOL    HW2 8652   3.989   6.681   0.761
 2585SOL     OW 8653   3.182   0.632   0.755
 2585SOL    HW1 8654   3.239   0.704   0.715
 2585SOL    HW2 8655   3.130   0.669   0.832
 2586SOL     OW 8656   5.498   1.145   5.370
 2586SOL    HW1 8657   5.532   1.194   5.450
 2586SOL    HW2 8658   5.486   1.208   5.294
 2587SOL     OW 8659   6.795   0.137   4.405
 2587SOL    HW1 8660   6.890   0.166   4.406
 2587SOL    HW2 8661   6.783   0.063   4.338
 2588SOL     OW 8662   5.321   0.084   0.768
 2588SOL    HW1 8663   5.380   0.108   0.845
 2588SOL    HW2 8664   5.239   0.140   0.769
 2589SOL     OW 8665   7.021   6.795   5.052
 2589SOL    HW1 8666   7.002   6.720   4.988
 2589SOL    HW2 8667   7.010   6.882   5.005
 2590SOL     OW 8668   3.913   0.247   2.726
 2590SOL    HW1 8669   3.888   0.323   2.786
 2590SOL    HW2 8670   4.003   0.264   2.686
 2591SOL     OW 8671   6.132   6.296   1.427
 2591SOL    HW1 8672   6.103   6.341   1.343
 2591SOL    HW2 8673   6.180   6.211   1.404
 2592SOL     OW 8674   2.784   6.301   1.877
 2592SOL    HW1 8675   2.804   6.301   1.779
 2592SOL    HW2 8676   2.863   6.267   1.928
 2593SOL     OW 8677   3.997   0.052   2.232
 2593SOL    HW1 8678   4.048   0.112   2.294
 2593SOL    HW2 8679   3.939   7.017   2.285
 2594SOL     OW 8680   0.725   6.457   5.948
 2594SOL    HW1 8681   0.661   6.467   6.025
 2594SOL    HW2 8682   0.708   6.529   5.881
 2595SOL     OW 8683   0.459   2.245   5.818
 2595SOL    HW1 8684   0.454   2.323   5.757
 2595SOL    HW2 8685   0.396   2.257   5.894
 2596SOL     OW 8686   3.671   2.619   1.709
 2596SOL    HW1 8687   3.642   2.532   1.749
 2596SOL    HW2 8688   3.666   2.691   1.778
 2597SOL     OW 8689   2.080   4.016   1.061
 2597SOL    HW1 8690   2.117   4.031   0.969
 2597SOL    HW2 8691   2.025   3.933   1.061
 2598SOL     OW 8692   5.919   2.813   4.656
 2598SOL    HW1 8693   5.890   2.725   4.616
 2598SOL    HW2 8694   5.946   2.875   4.583
 2599SOL     OW 8695   3.996   5.861   6.965
 2599SOL    HW1 8696   3.972   5.787   0.001
 2599SOL    HW2 8697   3.936   5.939   6.982
 2600SOL     OW 8698   4.985   3.649   4.285
 2600SOL    HW1 8699   5.083   3.632   4.290
 2600SOL    HW2 8700   4.945   3.596   4.210
 2601SOL     OW 8701   3.347   2.280   6.530
 2601SOL    HW1 8702   3.371   2.376   6.514
 2601SOL    HW2 8703   3.431   2.226   6.539
 2602SOL     OW 8704   6.837   4.517   3.336
 2602SOL    HW1 8705   6.797   4.606   3.315
 2602SOL    HW2 8706   6.925   4.530   3.381
 2603SOL     OW 8707   2.318   2.152   1.320
 2603SOL    HW1 8708   2.279   2.217   1.255
 2603SOL    HW2 8709   2.337   2.066   1.273
 2604SOL     OW 8710   5.046   1.159   1.228
 2604SOL    HW1 8711   4.998   1.184   1.313
 2604SOL    HW2 8712   5.040   1.060   1.214
 2605SOL     OW 8713   3.984   4.786   3.326
 2605SOL    HW1 8714   4.025   4.797   3.416
 2605SOL    HW2 8715   3.888   4.814   3.329
 2606SOL     OW 8716   6.900   4.863   0.646
 2606SOL    HW1 8717   6.817   4.848   0.593
 2606SOL    HW2 8718   6.895   4.813   0.732
 2607SOL     OW 8719   0.577   2.052   5.172
 2607SOL    HW1 8720   0.639   1.997   5.116
 2607SOL    HW2 8721   0.534   2.122   5.115
 2608SOL     OW 8722   4.834   6.332   2.750
 2608SOL    HW1 8723   4.792   6.394   2.684
 2608SOL    HW2 8724   4.774   6.323   2.830
 2609SOL     OW 8725   0.650   2.409   1.377
 2609SOL    HW1 8726   0.649   2.352   1.459
 2609SOL    HW2 8727   0.670   2.352   1.297
 2610SOL     OW 8728   6.789   5.225   4.416
 2610SOL    HW1 8729   6.809   5.303   4.476
 2610SOL    HW2 8730   6.823   5.141   4.459
 2611SOL     OW 8731   6.404   6.813   1.123
 2611SOL    HW1 8732   6.448   6.855   1.043
 2611SOL    HW2 8733   6.312   6.850   1.134
 2612SOL     OW 8734   6.681   6.454   5.250
 2612SOL    HW1 8735   6.749   6.489   5.313
 2612SOL    HW2 8736   6.713   6.368   5.210
 2613SOL     OW 8737   3.247   6.336   2.483
 2613SOL    HW1 8738   3.296   6.249   2.491
 2613SOL    HW2 8739   3.298   6.407   2.532
 2614SOL     OW 8740   6.333   5.976   5.954
 2614SOL    HW1 8741   6.238   6.005   5.971
 2614SOL    HW2 8742   6.386   5.985   6.038
 2615SOL     OW 8743   6.148   4.927   3.258
 2615SOL    HW1 8744   6.160   4.986   3.178
 2615SOL    HW2 8745   6.136   4.833   3.228
 2616SOL     OW 8746   3.843   3.018   4.021
 2616SOL    HW1 8747   3.895   3.073   4.087
 2616SOL    HW2 8748   3.762   2.980   4.064
 2617SOL     OW 8749   3.214   5.856   1.196
 2617SOL    HW1 8750   3.262   5.898   1.119
 2617SOL    HW2 8751   3.116   5.850   1.175
 2618SOL     OW 8752   0.508   6.807   3.916
 2618SOL    HW1 8753   0.529   6.813   4.014
 2618SOL    HW2 8754   0.573   6.745   3.873
 2619SOL     OW 8755   3.295   1.345   2.677
 2619SOL    HW1 8756   3.285   1.248   2.699
 2619SOL    HW2 8757   3.335   1.394   2.755
 2620SOL     OW 8758   0.868   5.749   3.625
 2620SOL    HW1 8759   0.843   5.653   3.634
 2620SOL    HW2 8760   0.907   5.765   3.535
 2621SOL     OW 8761   1.518   5.976   3.504
 2621SOL    HW1 8762   1.579   6.045   3.465
 2621SOL    HW2 8763   1.528   5.891   3.452
 2622SOL     OW 8764   2.144   2.638   6.650
 2622SOL    HW1 8765   2.058   2.646   6.600
 2622SOL    HW2 8766   2.125   2.636   6.748
 2623SOL     OW 8767   3.960   1.676   4.753
 2623SOL    HW1 8768   4.034   1.651   4.689
 2623SOL    HW2 8769   3.898   1.741   4.709
 2624SOL     OW 8770   6.718   3.038   4.049
 2624SOL    HW1 8771   6.695   2.945   4.075
 2624SOL    HW2 8772   6.817   3.045   4.035
 2625SOL     OW 8773   2.200   2.949   5.204
 2625SOL    HW1 8774   2.287   2.925   5.162
 2625SOL    HW2 8775   2.216   2.984   5.297
 2626SOL     OW 8776   0.717   6.666   3.793
 2626SOL    HW1 8777   0.662   6.602   3.739
 2626SOL    HW2 8778   0.749   6.620   3.876
 2627SOL     OW 8779   0.481   0.907   4.171
 2627SOL    HW1 8780   0.533   0.891   4.087
 2627SOL    HW2 8781   0.530   0.869   4.249
 2628SOL     OW 8782   3.640   5.851   6.758
 2628SOL    HW1 8783   3.636   5.839   6.857
 2628SOL    HW2 8784   3.722   5.805   6.722
 2629SOL     OW 8785   3.617   3.926   2.121
 2629SOL    HW1 8786   3.602   3.844   2.065
 2629SOL    HW2 8787   3.678   3.904   2.197
 2630SOL     OW 8788   3.800   2.105   2.348
 2630SOL    HW1 8789   3.770   2.146   2.262
 2630SOL    HW2 8790   3.749   2.021   2.364
 2631SOL     OW 8791   4.298   6.813   3.641
 2631SOL    HW1 8792   4.292   6.910   3.666
 2631SOL    HW2 8793   4.343   6.762   3.714
 2632SOL     OW 8794   2.925   1.960   5.843
 2632SOL    HW1 8795   2.825   1.966   5.843
 2632SOL    HW2 8796   2.960   1.985   5.753
 2633SOL     OW 8797   6.506   2.504   6.093
 2633SOL    HW1 8798   6.536   2.595   6.063
 2633SOL    HW2 8799   6.574   2.436   6.065
 2634SOL     OW 8800   2.142   4.018   3.460
 2634SOL    HW1 8801   2.059   4.063   3.429
 2634SOL    HW2 8802   2.222   4.068   3.427
 2635SOL     OW 8803   5.603   5.848   4.044
 2635SOL    HW1 8804   5.676   5.781   4.048
 2635SOL    HW2 8805   5.525   5.817   4.099
 2636SOL     OW 8806   5.515   0.397   5.974
 2636SOL    HW1 8807   5.573   0.477   5.990
 2636SOL    HW2 8808   5.550   0.320   6.028
 2637SOL     OW 8809   6.474   0.892   3.491
 2637SOL    HW1 8810   6.408   0.818   3.494
 2637SOL    HW2 8811   6.530   0.891   3.574
 2638SOL     OW 8812   6.711   6.932   3.036
 2638SOL    HW1 8813   6.773   6.945   2.959
 2638SOL    HW2 8814   6.707   6.834   3.059
 2639SOL     OW 8815   6.817   6.568   1.802
 2639SOL    HW1 8816   6.723   6.546   1.775
 2639SOL    HW2 8817   6.881   6.531   1.735
 2640SOL     OW 8818   6.909   6.378   5.616
 2640SOL    HW1 8819   6.965   6.399   5.696
 2640SOL    HW2 8820   6.882   6.463   5.571
 2641SOL     OW 8821   5.916   2.784   1.554
 2641SOL    HW1 8822   5.843   2.848   1.529
 2641SOL    HW2 8823   5.949   2.738   1.471
 2642SOL     OW 8824   4.934   0.436   4.865
 2642SOL    HW1 8825   4.922   0.467   4.771
 2642SOL    HW2 8826   4.859   0.470   4.921
 2643SOL     OW 8827   0.888   4.753   3.097
 2643SOL    HW1 8828   0.848   4.801   3.018
 2643SOL    HW2 8829   0.826   4.760   3.175
 2644SOL     OW 8830   0.380   4.294   5.191
 2644SOL    HW1 8831   0.419   4.285   5.282
 2644SOL    HW2 8832   0.329   4.211   5.168
 2645SOL     OW 8833   4.653   6.626   5.191
 2645SOL    HW1 8834   4.614   6.543   5.151
 2645SOL    HW2 8835   4.741   6.646   5.147
 2646SOL     OW 8836   6.144   6.633   6.570
 2646SOL    HW1 8837   6.167   6.730   6.578
 2646SOL    HW2 8838   6.227   6.579   6.561
 2647SOL     OW 8839   5.462   0.928   0.856
 2647SOL    HW1 8840   5.481   1.026   0.846
 2647SOL    HW2 8841   5.500   0.896   0.942
 2648SOL     OW 8842   6.934   6.792   3.993
 2648SOL    HW1 8843   6.978   6.817   3.906
 2648SOL    HW2 8844   6.965   6.855   4.065
 2649SOL     OW 8845   4.156   2.054   6.234
 2649SOL    HW1 8846   4.118   1.973   6.279
 2649SOL    HW2 8847   4.196   2.115   6.303
 2650SOL     OW 8848   0.750   4.000   3.948
 2650SOL    HW1 8849   0.828   3.989   4.010
 2650SOL    HW2 8850   0.685   4.064   3.988
 2651SOL     OW 8851   1.608   1.803   0.635
 2651SOL    HW1 8852   1.689   1.857   0.656
 2651SOL    HW2 8853   1.527   1.848   0.673
 2652SOL     OW 8854   2.906   3.707   3.371
 2652SOL    HW1 8855   2.984   3.686   3.313
 2652SOL    HW2 8856   2.878   3.802   3.357
 2653SOL     OW 8857   5.153   6.921   4.997
 2653SOL    HW1 8858   5.245   6.892   5.023
 2653SOL    HW2 8859   5.143   7.019   5.014
 2654SOL     OW 8860   4.569   3.233   0.130
 2654SOL    HW1 8861   4.501   3.263   0.197
 2654SOL    HW2 8862   4.576   3.300   0.057
 2655SOL     OW 8863   4.811   4.523   4.490
 2655SOL    HW1 8864   4.728   4.576   4.506
 2655SOL    HW2 8865   4.875   4.576   4.434
 2656SOL     OW 8866   4.114   4.794   4.268
 2656SOL    HW1 8867   4.091   4.733   4.192
 2656SOL    HW2 8868   4.202   4.838   4.250
 2657SOL     OW 8869   2.730   4.506   6.520
 2657SOL    HW1 8870   2.819   4.548   6.536
 2657SOL    HW2 8871   2.701   4.524   6.426
 2658SOL     OW 8872   5.398   4.241   6.768
 2658SOL    HW1 8873   5.341   4.268   6.846
 2658SOL    HW2 8874   5.388   4.143   6.751
 2659SOL     OW 8875   5.919   2.446   4.410
 2659SOL    HW1 8876   6.017   2.461   4.402
 2659SOL    HW2 8877   5.891   2.373   4.347
 2660SOL     OW 8878   0.743   1.911   0.770
 2660SOL    HW1 8879   0.727   2.003   0.735
 2660SOL    HW2 8880   0.660   1.876   0.812
 2661SOL     OW 8881   2.399   6.499   2.052
 2661SOL    HW1 8882   2.355   6.567   2.111
 2661SOL    HW2 8883   2.448   6.545   1.979
 2662SOL     OW 8884   4.331   0.159   4.665
 2662SOL    HW1 8885   4.283   0.223   4.726
 2662SOL    HW2 8886   4.420   0.135   4.705
 2663SOL     OW 8887   2.621   4.989   1.010
 2663SOL    HW1 8888   2.624   5.018   1.105
 2663SOL    HW2 8889   2.565   4.906   1.002
 2664SOL     OW 8890   3.948   3.660   3.434
 2664SOL    HW1 8891   4.000   3.708   3.364
 2664SOL    HW2 8892   3.854   3.696   3.436
 2665SOL     OW 8893   3.367   1.819   4.939
 2665SOL    HW1 8894   3.446   1.763   4.963
 2665SOL    HW2 8895   3.285   1.761   4.933
 2666SOL     OW 8896   5.013   3.531   1.347
 2666SOL    HW1 8897   5.051   3.439   1.345
 2666SOL    HW2 8898   4.958   3.542   1.430
 2667SOL     OW 8899   1.503   5.969   4.751
 2667SOL    HW1 8900   1.489   6.067   4.737
 2667SOL    HW2 8901   1.478   5.919   4.668
 2668SOL     OW 8902   6.391   3.104   3.633
 2668SOL    HW1 8903   6.462   3.089   3.701
 2668SOL    HW2 8904   6.307   3.134   3.677
 2669SOL     OW 8905   2.833   4.778   5.490
 2669SOL    HW1 8906   2.827   4.867   5.534
 2669SOL    HW2 8907   2.928   4.758   5.467
 2670SOL     OW 8908   6.097   1.191   6.303
 2670SOL    HW1 8909   6.163   1.116   6.304
 2670SOL    HW2 8910   6.008   1.158   6.334
 2671SOL     OW 8911   3.126   5.016   0.253
 2671SOL    HW1 8912   3.055   5.084   0.234
 2671SOL    HW2 8913   3.211   5.044   0.208
 2672SOL     OW 8914   0.788   5.423   6.645
 2672SOL    HW1 8915   0.772   5.334   6.689
 2672SOL    HW2 8916   0.745   5.423   6.555
 2673SOL     OW 8917   5.324   2.589   3.995
 2673SOL    HW1 8918   5.274   2.673   4.016
 2673SOL    HW2 8919   5.421   2.603   4.017
 2674SOL     OW 8920   2.300   4.297   4.280
 2674SOL    HW1 8921   2.340   4.345   4.202
 2674SOL    HW2 8922   2.314   4.350   4.363
 2675SOL     OW 8923   0.706   4.456   5.508
 2675SOL    HW1 8924   0.753   4.458   5.420
 2675SOL    HW2 8925   0.770   4.480   5.581
 2676SOL     OW 8926   4.299   0.840   2.952
 2676SOL    HW1 8927   4.347   0.852   2.866
 2676SOL    HW2 8928   4.357   0.870   3.028
 2677SOL     OW 8929   3.501   5.261   1.227
 2677SOL    HW1 8930   3.488   5.189   1.295
 2677SOL    HW2 8931   3.574   5.322   1.257
 2678SOL     OW 8932   0.217   4.299   0.842
 2678SOL    HW1 8933   0.164   4.231   0.893
 2678SOL    HW2 8934   0.221   4.384   0.895
 2679SOL     OW 8935   4.539   5.434   1.022
 2679SOL    HW1 8936   4.614   5.409   0.962
 2679SOL    HW2 8937   4.498   5.520   0.991
 2680SOL     OW 8938   1.451   1.539   1.016
 2680SOL    HW1 8939   1.442   1.453   0.965
 2680SOL    HW2 8940   1.441   1.616   0.954
 2681SOL     OW 8941   1.396   2.397   4.157
 2681SOL    HW1 8942   1.337   2.371   4.233
 2681SOL    HW2 8943   1.394   2.326   4.087
 2682SOL     OW 8944   5.443   3.203   2.274
 2682SOL    HW1 8945   5.384   3.126   2.297
 2682SOL    HW2 8946   5.386   3.279   2.241
 2683SOL     OW 8947   1.621   3.577   0.372
 2683SOL    HW1 8948   1.670   3.490   0.379
 2683SOL    HW2 8949   1.654   3.628   0.293
 2684SOL     OW 8950   4.055   4.881   3.011
 2684SOL    HW1 8951   4.120   4.957   3.016
 2684SOL    HW2 8952   4.055   4.831   3.099
 2685SOL     OW 8953   6.836   6.604   5.418
 2685SOL    HW1 8954   6.802   6.632   5.508
 2685SOL    HW2 8955   6.832   6.682   5.355
 2686SOL     OW 8956   1.712   2.280   5.011
 2686SOL    HW1 8957   1.624   2.327   5.014
 2686SOL    HW2 8958   1.778   2.330   5.067
 2687SOL     OW 8959   4.505   4.506   2.905
 2687SOL    HW1 8960   4.602   4.508   2.879
 2687SOL    HW2 8961   4.496   4.536   3.000
 2688SOL     OW 8962   4.333   5.696   6.311
 2688SOL    HW1 8963   4.295   5.713   6.220
 2688SOL    HW2 8964   4.281   5.748   6.379
 2689SOL     OW 8965   2.528   2.045   3.474
 2689SOL    HW1 8966   2.464   2.100   3.420
 2689SOL    HW2 8967   2.525   2.073   3.569
 2690SOL     OW 8968   3.086   3.283   3.614
 2690SOL    HW1 8969   3.041   3.297   3.702
 2690SOL    HW2 8970   3.182   3.313   3.620
 2691SOL     OW 8971   1.683   5.576   2.307
 2691SOL    HW1 8972   1.609   5.525   2.350
 2691SOL    HW2 8973   1.646   5.645   2.246
 2692SOL     OW 8974   5.094   5.909   4.230
 2692SOL    HW1 8975   5.023   5.893   4.161
 2692SOL    HW2 8976   5.051   5.931   4.318
 2693SOL     OW 8977   1.990   4.258   2.827
 2693SOL    HW1 8978   1.913   4.221   2.879
 2693SOL    HW2 8979   2.016   4.192   2.755
 2694SOL     OW 8980   3.567   0.808   2.774
 2694SOL    HW1 8981   3.532   0.762   2.692
 2694SOL    HW2 8982   3.663   0.832   2.760
 2695SOL     OW 8983   5.228   1.630   2.579
 2695SOL    HW1 8984   5.315   1.589   2.605
 2695SOL    HW2 8985   5.215   1.715   2.630
 2696SOL     OW 8986   3.279   2.846   5.234
 2696SOL    HW1 8987   3.258   2.760   5.187
 2696SOL    HW2 8988   3.355   2.832   5.297
 2697SOL     OW 8989   4.941   1.937   3.915
 2697SOL    HW1 8990   4.977   2.016   3.965
 2697SOL    HW2 8991   4.889   1.879   3.978
 2698SOL     OW 8992   2.286   5.446   0.799
 2698SOL    HW1 8993   2.272   5.376   0.868
 2698SOL    HW2 8994   2.213   5.515   0.807
 2699SOL     OW 8995   3.426   5.710   0.508
 2699SOL    HW1 8996   3.340   5.736   0.463
 2699SOL    HW2 8997   3.406   5.651   0.586
 2700SOL     OW 8998   2.115   3.226   2.134
 2700SOL    HW1 8999   2.172   3.300   2.099
 2700SOL    HW2 9000   2.113   3.150   2.069
 2701SOL     OW 9001   3.920   0.102   6.397
 2701SOL    HW1 9002   4.009   0.147   6.412
 2701SOL    HW2 9003   3.914   0.071   6.303
 2702SOL     OW 9004   0.140   1.507   3.773
 2702SOL    HW1 9005   0.152   1.596   3.818
 2702SOL    HW2 9006   0.043   1.492   3.754
 2703SOL     OW 9007   2.174   1.143   2.597
 2703SOL    HW1 9008   2.197   1.121   2.502
 2703SOL    HW2 9009   2.245   1.108   2.658
 2704SOL     OW 9010   0.943   5.330   0.560
 2704SOL    HW1 9011   1.013   5.330   0.489
 2704SOL    HW2 9012   0.986   5.338   0.650
 2705SOL     OW 9013   1.009   5.420   4.028
 2705SOL    HW1 9014   1.015   5.413   4.127
 2705SOL    HW2 9015   1.101   5.437   3.990
 2706SOL     OW 9016   0.379   0.864   1.535
 2706SOL    HW1 9017   0.450   0.906   1.478
 2706SOL    HW2 9018   0.293   0.913   1.523
 2707SOL     OW 9019   2.434   1.053   5.732
 2707SOL    HW1 9020   2.517   1.087   5.689
 2707SOL    HW2 9021   2.436   1.074   5.830
 2708SOL     OW 9022   1.757   2.931   1.458
 2708SOL    HW1 9023   1.711   2.939   1.547
 2708SOL    HW2 9024   1.748   2.837   1.425
 2709SOL     OW 9025   5.690   6.356   1.117
 2709SOL    HW1 9026   5.620   6.423   1.142
 2709SOL    HW2 9027   5.692   6.283   1.185
 2710SOL     OW 9028   6.659   3.110   2.951
 2710SOL    HW1 9029   6.587   3.065   3.005
 2710SOL    HW2 9030   6.735   3.047   2.938
 2711SOL     OW 9031   3.154   0.591   2.942
 2711SOL    HW1 9032   3.198   0.504   2.964
 2711SOL    HW2 9033   3.083   0.576   2.873
 2712SOL     OW 9034   4.100   5.265   0.785
 2712SOL    HW1 9035   4.198   5.280   0.788
 2712SOL    HW2 9036   4.054   5.324   0.851
 2713SOL     OW 9037   1.680   2.572   4.446
 2713SOL    HW1 9038   1.628   2.656   4.436
 2713SOL    HW2 9039   1.667   2.515   4.364
 2714SOL     OW 9040   4.739   2.339   0.182
 2714SOL    HW1 9041   4.815   2.401   0.202
 2714SOL    HW2 9042   4.661   2.362   0.240
 2715SOL     OW 9043   5.907   0.000   0.225
 2715SOL    HW1 9044   6.004   7.005   0.213
 2715SOL    HW2 9045   5.898   0.085   0.277
 2716SOL     OW 9046   6.105   5.307   2.031
 2716SOL    HW1 9047   6.163   5.235   1.992
 2716SOL    HW2 9048   6.150   5.345   2.112
 2717SOL     OW 9049   1.197   5.334   1.974
 2717SOL    HW1 9050   1.286   5.354   2.015
 2717SOL    HW2 9051   1.209   5.270   1.898
 2718SOL     OW 9052   2.101   3.579   4.493
 2718SOL    HW1 9053   2.134   3.606   4.584
 2718SOL    HW2 9054   2.178   3.574   4.430
 2719SOL     OW 9055   4.994   4.863   1.553
 2719SOL    HW1 9056   4.997   4.902   1.461
 2719SOL    HW2 9057   5.077   4.809   1.570
 2720SOL     OW 9058   1.941   5.962   3.529
 2720SOL    HW1 9059   1.937   5.975   3.629
 2720SOL    HW2 9060   1.907   5.872   3.506
 2721SOL     OW 9061   2.796   0.148   5.385
 2721SOL    HW1 9062   2.854   0.227   5.366
 2721SOL    HW2 9063   2.781   0.096   5.300
 2722SOL     OW 9064   6.495   5.370   2.810
 2722SOL    HW1 9065   6.563   5.397   2.878
 2722SOL    HW2 9066   6.490   5.270   2.805
 2723SOL     OW 9067   1.693   0.254   6.270
 2723SOL    HW1 9068   1.762   0.308   6.222
 2723SOL    HW2 9069   1.730   0.221   6.356
 2724SOL     OW 9070   3.480   6.740   6.023
 2724SOL    HW1 9071   3.456   6.732   6.119
 2724SOL    HW2 9072   3.509   6.833   6.003
 2725SOL     OW 9073   6.179   5.041   3.011
 2725SOL    HW1 9074   6.214   5.109   2.948
 2725SOL    HW2 9075   6.126   4.972   2.961
 2726SOL     OW 9076   6.125   4.345   0.995
 2726SOL    HW1 9077   6.219   4.325   1.025
 2726SOL    HW2 9078   6.062   4.285   1.044
 2727SOL     OW 9079   0.224   4.815   2.753
 2727SOL    HW1 9080   0.319   4.786   2.767
 2727SOL    HW2 9081   0.199   4.799   2.657
 2728SOL     OW 9082   3.204   0.362   5.570
 2728SOL    HW1 9083   3.228   0.266   5.556
 2728SOL    HW2 9084   3.116   0.367   5.619
 2729SOL     OW 9085   6.878   5.964   1.408
 2729SOL    HW1 9086   6.931   6.047   1.426
 2729SOL    HW2 9087   6.927   5.906   1.344
 2730SOL     OW 9088   1.604   6.441   0.780
 2730SOL    HW1 9089   1.585   6.539   0.782
 2730SOL    HW2 9090   1.650   6.416   0.866
 2731SOL     OW 9091   3.681   3.705   1.451
 2731SOL    HW1 9092   3.599   3.761   1.442
 2731SOL    HW2 9093   3.728   3.728   1.537
 2732SOL     OW 9094   6.147   3.122   2.509
 2732SOL    HW1 9095   6.233   3.081   2.538
 2732SOL    HW2 9096   6.113   3.075   2.428
 2733SOL     OW 9097   0.234   6.961   5.047
 2733SOL    HW1 9098   0.158   6.896   5.047
 2733SOL    HW2 9099   0.309   6.925   5.102
 2734SOL     OW 9100   1.983   5.156   2.397
 2734SOL    HW1 9101   2.043   5.209   2.457
 2734SOL    HW2 9102   1.889   5.188   2.406
 2735SOL     OW 9103   0.781   3.535   2.674
 2735SOL    HW1 9104   0.808   3.567   2.583
 2735SOL    HW2 9105   0.685   3.508   2.672
 2736SOL     OW 9106   5.012   0.587   3.706
 2736SOL    HW1 9107   5.075   0.511   3.689
 2736SOL    HW2 9108   5.021   0.617   3.801
 2737SOL     OW 9109   3.182   3.387   5.844
 2737SOL    HW1 9110   3.156   3.339   5.927
 2737SOL    HW2 9111   3.274   3.358   5.817
 2738SOL     OW 9112   5.192   5.370   4.369
 2738SOL    HW1 9113   5.191   5.398   4.465
 2738SOL    HW2 9114   5.151   5.442   4.312
 2739SOL     OW 9115   6.363   4.793   0.370
 2739SOL    HW1 9116   6.411   4.874   0.338
 2739SOL    HW2 9117   6.366   4.789   0.470
 2740SOL     OW 9118   5.487   2.398   2.231
 2740SOL    HW1 9119   5.585   2.407   2.217
 2740SOL    HW2 9120   5.464   2.427   2.325
 2741SOL     OW 9121   0.037   1.816   6.435
 2741SOL    HW1 9122   0.099   1.816   6.513
 2741SOL    HW2 9123   0.087   1.789   6.352
 2742SOL     OW 9124   1.661   5.402   6.305
 2742SOL    HW1 9125   1.590   5.399   6.375
 2742SOL    HW2 9126   1.642   5.477   6.241
 2743SOL     OW 9127   6.301   5.370   1.577
 2743SOL    HW1 9128   6.227   5.437   1.573
 2743SOL    HW2 9129   6.302   5.316   1.492
 2744SOL     OW 9130   3.592   3.016   6.869
 2744SOL    HW1 9131   3.568   3.088   6.803
 2744SOL    HW2 9132   3.509   2.987   6.917
 2745SOL     OW 9133   1.549   7.002   6.936
 2745SOL    HW1 9134   1.481   6.961   6.997
 2745SOL    HW2 9135   1.593   6.930   6.882
 2746SOL     OW 9136   2.131   2.620   4.344
 2746SOL    HW1 9137   2.141   2.593   4.440
 2746SOL    HW2 9138   2.194   2.694   4.324
 2747SOL     OW 9139   5.447   4.090   5.129
 2747SOL    HW1 9140   5.422   4.024   5.199
 2747SOL    HW2 9141   5.452   4.044   5.040
 2748SOL     OW 9142   3.581   1.347   1.451
 2748SOL    HW1 9143   3.585   1.359   1.351
 2748SOL    HW2 9144   3.674   1.352   1.488
 2749SOL     OW 9145   5.711   4.635   3.869
 2749SOL    HW1 9146   5.726   4.542   3.904
 2749SOL    HW2 9147   5.770   4.699   3.919
 2750SOL     OW 9148   0.575   5.523   1.715
 2750SOL    HW1 9149   0.477   5.539   1.703
 2750SOL    HW2 9150   0.615   5.596   1.770
 2751SOL     OW 9151   1.908   0.094   0.540
 2751SOL    HW1 9152   1.882   0.187   0.515
 2751SOL    HW2 9153   1.894   0.033   0.462
 2752SOL     OW 9154   5.579   5.581   5.199
 2752SOL    HW1 9155   5.513   5.652   5.223
 2752SOL    HW2 9156   5.532   5.494   5.185
 2753SOL     OW 9157   1.682   6.863   6.061
 2753SOL    HW1 9158   1.763   6.814   6.031
 2753SOL    HW2 9159   1.636   6.904   5.982
 2754SOL     OW 9160   6.540   0.529   4.224
 2754SOL    HW1 9161   6.616   0.499   4.281
 2754SOL    HW2 9162   6.576   0.586   4.150
 2755SOL     OW 9163   2.793   6.647   2.935
 2755SOL    HW1 9164   2.791   6.550   2.956
 2755SOL    HW2 9165   2.738   6.697   3.001
 2756SOL     OW 9166   5.916   3.922   4.194
 2756SOL    HW1 9167   5.942   3.946   4.100
 2756SOL    HW2 9168   5.988   3.865   4.234
 2757SOL     OW 9169   2.765   1.826   6.910
 2757SOL    HW1 9170   2.706   1.760   6.864
 2757SOL    HW2 9171   2.739   1.919   6.883
 2758SOL     OW 9172   5.330   6.074   3.764
 2758SOL    HW1 9173   5.404   6.007   3.758
 2758SOL    HW2 9174   5.259   6.052   3.697
 2759SOL     OW 9175   3.542   5.260   5.067
 2759SOL    HW1 9176   3.444   5.279   5.060
 2759SOL    HW2 9177   3.556   5.162   5.080
 2760SOL     OW 9178   6.539   5.091   2.796
 2760SOL    HW1 9179   6.460   5.035   2.773
 2760SOL    HW2 9180   6.622   5.036   2.787
 2761SOL     OW 9181   1.994   3.772   3.712
 2761SOL    HW1 9182   1.898   3.801   3.707
 2761SOL    HW2 9183   2.010   3.728   3.801
 2762SOL     OW 9184   1.214   2.366   6.595
 2762SOL    HW1 9185   1.136   2.426   6.616
 2762SOL    HW2 9186   1.299   2.415   6.611
 2763SOL     OW 9187   5.264   1.960   5.845
 2763SOL    HW1 9188   5.240   1.901   5.923
 2763SOL    HW2 9189   5.210   1.933   5.766
 2764SOL     OW 9190   0.011   5.258   2.828
 2764SOL    HW1 9191   0.106   5.227   2.820
 2764SOL    HW2 9192   0.008   5.357   2.816
 2765SOL     OW 9193   0.213   0.453   0.882
 2765SOL    HW1 9194   0.149   0.423   0.812
 2765SOL    HW2 9195   0.273   0.377   0.908
 2766SOL     OW 9196   4.190   0.791   0.018
 2766SOL    HW1 9197   4.192   0.699   0.057
 2766SOL    HW2 9198   4.283   0.819   7.021
 2767SOL     OW 9199   5.981   6.088   6.729
 2767SOL    HW1 9200   6.065   6.087   6.782
 2767SOL    HW2 9201   5.978   6.171   6.672
 2768SOL     OW 9202   4.227   1.081   0.066
 2768SOL    HW1 9203   4.185   0.991   0.047
 2768SOL    HW2 9204   4.326   1.072   0.065
 2769SOL     OW 9205   2.114   4.349   6.133
 2769SOL    HW1 9206   2.113   4.400   6.048
 2769SOL    HW2 9207   2.180   4.389   6.196
 2770SOL     OW 9208   3.874   5.970   6.260
 2770SOL    HW1 9209   3.947   5.996   6.323
 2770SOL    HW2 9210   3.808   6.045   6.252
 2771SOL     OW 9211   5.471   6.918   4.761
 2771SOL    HW1 9212   5.554   6.972   4.750
 2771SOL    HW2 9213   5.391   6.972   4.733
 2772SOL     OW 9214   3.244   1.357   2.229
 2772SOL    HW1 9215   3.178   1.355   2.304
 2772SOL    HW2 9216   3.197   1.340   2.142
 2773SOL     OW 9217   0.217   2.898   3.958
 2773SOL    HW1 9218   0.256   2.984   3.928
 2773SOL    HW2 9219   0.284   2.824   3.948
 2774SOL     OW 9220   5.179   3.296   2.799
 2774SOL    HW1 9221   5.116   3.297   2.877
 2774SOL    HW2 9222   5.199   3.201   2.774
 2775SOL     OW 9223   6.671   3.630   3.739
 2775SOL    HW1 9224   6.625   3.566   3.801
 2775SOL    HW2 9225   6.710   3.580   3.662
 2776SOL     OW 9226   5.230   4.995   6.238
 2776SOL    HW1 9227   5.230   5.066   6.309
 2776SOL    HW2 9228   5.157   4.929   6.257
 2777SOL     OW 9229   2.388   1.644   6.273
 2777SOL    HW1 9230   2.370   1.546   6.279
 2777SOL    HW2 9231   2.435   1.675   6.355
 2778SOL     OW 9232   1.992   6.063   6.411
 2778SOL    HW1 9233   1.980   5.964   6.407
 2778SOL    HW2 9234   1.942   6.099   6.490
 2779SOL     OW 9235   5.596   6.636   2.062
 2779SOL    HW1 9236   5.509   6.675   2.031
 2779SOL    HW2 9237   5.590   6.536   2.059
 2780SOL     OW 9238   6.881   7.009   6.062
 2780SOL    HW1 9239   6.940   6.929   6.048
 2780SOL    HW2 9240   6.880   0.038   5.979
 2781SOL     OW 9241   5.781   0.505   2.819
 2781SOL    HW1 9242   5.868   0.457   2.831
 2781SOL    HW2 9243   5.726   0.460   2.749
 2782SOL     OW 9244   4.393   1.392   5.510
 2782SOL    HW1 9245   4.390   1.305   5.461
 2782SOL    HW2 9246   4.487   1.423   5.520
 2783SOL     OW 9247   6.086   3.669   1.366
 2783SOL    HW1 9248   6.010   3.606   1.383
 2783SOL    HW2 9249   6.067   3.757   1.410
 2784SOL     OW 9250   2.953   1.803   2.286
 2784SOL    HW1 9251   2.879   1.791   2.219
 2784SOL    HW2 9252   3.039   1.815   2.237
 2785SOL     OW 9253   5.105   2.294   0.870
 2785SOL    HW1 9254   5.161   2.212   0.883
 2785SOL    HW2 9255   5.114   2.353   0.949
 2786SOL     OW 9256   6.527   5.688   1.249
 2786SOL    HW1 9257   6.558   5.782   1.266
 2786SOL    HW2 9258   6.553   5.630   1.326
 2787SOL     OW 9259   6.496   5.826   5.784
 2787SOL    HW1 9260   6.432   5.891   5.825
 2787SOL    HW2 9261   6.554   5.874   5.718
 2788SOL     OW 9262   3.120   6.196   6.448
 2788SOL    HW1 9263   3.077   6.239   6.527
 2788SOL    HW2 9264   3.098   6.099   6.447
 2789SOL     OW 9265   1.628   2.626   3.682
 2789SOL    HW1 9266   1.605   2.690   3.607
 2789SOL    HW2 9267   1.545   2.581   3.713
 2790SOL     OW 9268   3.159   4.833   0.740
 2790SOL    HW1 9269   3.120   4.858   0.829
 2790SOL    HW2 9270   3.241   4.887   0.723
 2791SOL     OW 9271   0.344   4.309   2.325
 2791SOL    HW1 9272   0.377   4.403   2.327
 2791SOL    HW2 9273   0.299   4.291   2.237
 2792SOL     OW 9274   3.209   1.091   4.165
 2792SOL    HW1 9275   3.242   0.999   4.147
 2792SOL    HW2 9276   3.283   1.157   4.148
 2793SOL     OW 9277   5.028   3.921   1.762
 2793SOL    HW1 9278   5.057   3.905   1.668
 2793SOL    HW2 9279   5.107   3.914   1.823
 2794SOL     OW 9280   0.096   1.640   5.951
 2794SOL    HW1 9281   0.079   1.734   5.922
 2794SOL    HW2 9282   0.008   1.596   5.973
 2795SOL     OW 9283   0.635   5.048   0.875
 2795SOL    HW1 9284   0.720   5.011   0.836
 2795SOL    HW2 9285   0.617   5.004   0.963
 2796SOL     OW 9286   0.528   5.257   4.341
 2796SOL    HW1 9287   0.563   5.170   4.307
 2796SOL    HW2 9288   0.428   5.251   4.349
 2797SOL     OW 9289   5.266   5.406   5.845
 2797SOL    HW1 9290   5.286   5.484   5.786
 2797SOL    HW2 9291   5.185   5.426   5.901
 2798SOL     OW 9292   7.024   5.729   2.634
 2798SOL    HW1 9293   6.978   5.811   2.600
 2798SOL    HW2 9294   0.017   5.668   2.558
 2799SOL     OW 9295   5.004   5.584   5.627
 2799SOL    HW1 9296   5.101   5.578   5.647
 2799SOL    HW2 9297   4.975   5.504   5.574
 2800SOL     OW 9298   5.852   0.808   6.510
 2800SOL    HW1 9299   5.860   0.721   6.462
 2800SOL    HW2 9300   5.895   0.802   6.600
 2801SOL     OW 9301   1.582   5.548   5.792
 2801SOL    HW1 9302   1.487   5.516   5.790
 2801SOL    HW2 9303   1.602   5.589   5.881
 2802SOL     OW 9304   6.802   6.068   5.407
 2802SOL    HW1 9305   6.706   6.048   5.387
 2802SOL    HW2 9306   6.834   6.140   5.345
 2803SOL     OW 9307   3.322   4.444   5.645
 2803SOL    HW1 9308   3.410   4.489   5.631
 2803SOL    HW2 9309   3.333   4.346   5.629
 2804SOL     OW 9310   0.281   3.396   4.048
 2804SOL    HW1 9311   0.313   3.434   4.135
 2804SOL    HW2 9312   0.360   3.361   3.997
 2805SOL     OW 9313   5.545   3.872   2.372
 2805SOL    HW1 9314   5.641   3.841   2.373
 2805SOL    HW2 9315   5.485   3.794   2.391
 2806SOL     OW 9316   1.509   4.758   6.950
 2806SOL    HW1 9317   1.485   4.785   0.017
 2806SOL    HW2 9318   1.586   4.694   6.953
 2807SOL     OW 9319   3.669   0.554   3.066
 2807SOL    HW1 9320   3.583   0.605   3.071
 2807SOL    HW2 9321   3.692   0.519   3.157
 2808SOL     OW 9322   5.887   6.159   0.942
 2808SOL    HW1 9323   5.796   6.134   0.974
 2808SOL    HW2 9324   5.880   6.235   0.877
 2809SOL     OW 9325   5.694   2.943   1.854
 2809SOL    HW1 9326   5.644   2.861   1.829
 2809SOL    HW2 9327   5.638   3.000   1.914
 2810SOL     OW 9328   2.424   5.339   2.625
 2810SOL    HW1 9329   2.426   5.323   2.724
 2810SOL    HW2 9330   2.455   5.432   2.606
 2811SOL     OW 9331   0.895   1.134   2.531
 2811SOL    HW1 9332   0.986   1.165   2.505
 2811SOL    HW2 9333   0.902   1.058   2.595
 2812SOL     OW 9334   6.697   3.140   0.575
 2812SOL    HW1 9335   6.750   3.130   0.491
 2812SOL    HW2 9336   6.636   3.219   0.566
 2813SOL     OW 9337   0.300   1.625   0.778
 2813SOL    HW1 9338   0.387   1.656   0.817
 2813SOL    HW2 9339   0.290   1.661   0.685
 2814SOL     OW 9340   3.363   4.118   5.626
 2814SOL    HW1 9341   3.374   4.091   5.722
 2814SOL    HW2 9342   3.278   4.079   5.590
 2815SOL     OW 9343   0.461   6.148   5.760
 2815SOL    HW1 9344   0.559   6.165   5.755
 2815SOL    HW2 9345   0.430   6.107   5.674
 2816SOL     OW 9346   0.034   5.860   4.862
 2816SOL    HW1 9347   6.965   5.832   4.860
 2816SOL    HW2 9348   0.083   5.808   4.932
 2817SOL     OW 9349   3.709   1.394   2.095
 2817SOL    HW1 9350   3.678   1.374   2.002
 2817SOL    HW2 9351   3.632   1.392   2.158
 2818SOL     OW 9352   0.329   1.195   0.830
 2818SOL    HW1 9353   0.312   1.188   0.731
 2818SOL    HW2 9354   0.307   1.287   0.861
 2819SOL     OW 9355   1.539   0.390   0.999
 2819SOL    HW1 9356   1.486   0.327   0.942
 2819SOL    HW2 9357   1.553   0.350   1.089
 2820SOL     OW 9358   1.282   1.960   2.039
 2820SOL    HW1 9359   1.360   2.021   2.032
 2820SOL    HW2 9360   1.234   1.957   1.952
 2821SOL     OW 9361   3.301   5.151   5.934
 2821SOL    HW1 9362   3.226   5.215   5.920
 2821SOL    HW2 9363   3.276   5.086   6.006
 2822SOL     OW 9364   3.624   2.771   0.180
 2822SOL    HW1 9365   3.649   2.866   0.163
 2822SOL    HW2 9366   3.694   2.728   0.238
 2823SOL     OW 9367   5.337   0.997   0.119
 2823SOL    HW1 9368   5.359   1.046   0.203
 2823SOL    HW2 9369   5.325   1.062   0.044
 2824SOL     OW 9370   1.484   3.457   5.203
 2824SOL    HW1 9371   1.477   3.460   5.303
 2824SOL    HW2 9372   1.478   3.549   5.166
 2825SOL     OW 9373   5.260   0.571   6.635
 2825SOL    HW1 9374   5.310   0.623   6.704
 2825SOL    HW2 9375   5.286   0.602   6.543
 2826SOL     OW 9376   1.569   3.220   6.286
 2826SOL    HW1 9377   1.616   3.147   6.335
 2826SOL    HW2 9378   1.528   3.183   6.202
 2827SOL     OW 9379   0.533   0.682   6.376
 2827SOL    HW1 9380   0.461   0.707   6.312
 2827SOL    HW2 9381   0.603   0.753   6.378
 2828SOL     OW 9382   1.739   3.673   1.694
 2828SOL    HW1 9383   1.779   3.718   1.614
 2828SOL    HW2 9384   1.649   3.712   1.713
 2829SOL     OW 9385   3.570   3.744   3.077
 2829SOL    HW1 9386   3.639   3.701   3.020
 2829SOL    HW2 9387   3.572   3.843   3.062
 2830SOL     OW 9388   3.433   4.314   5.311
 2830SOL    HW1 9389   3.531   4.298   5.309
 2830SOL    HW2 9390   3.388   4.255   5.244
 2831SOL     OW 9391   6.962   1.881   2.581
 2831SOL    HW1 9392   6.999   1.788   2.589
 2831SOL    HW2 9393   7.013   1.931   2.511
 2832SOL     OW 9394   0.689   3.189   1.415
 2832SOL    HW1 9395   0.752   3.183   1.338
 2832SOL    HW2 9396   0.734   3.151   1.497
 2833SOL     OW 9397   2.307   1.392   2.419
 2833SOL    HW1 9398   2.385   1.364   2.477
 2833SOL    HW2 9399   2.314   1.345   2.331
 2834SOL     OW 9400   4.903   6.100   5.011
 2834SOL    HW1 9401   4.894   6.055   4.922
 2834SOL    HW2 9402   4.860   6.191   5.007
 2835SOL     OW 9403   1.280   6.324   0.161
 2835SOL    HW1 9404   1.285   6.422   0.182
 2835SOL    HW2 9405   1.300   6.310   0.064
 2836SOL     OW 9406   3.590   6.263   3.219
 2836SOL    HW1 9407   3.671   6.222   3.176
 2836SOL    HW2 9408   3.578   6.227   3.311
 2837SOL     OW 9409   5.678   4.166   2.136
 2837SOL    HW1 9410   5.728   4.113   2.204
 2837SOL    HW2 9411   5.739   4.235   2.097
 2838SOL     OW 9412   4.959   4.151   6.700
 2838SOL    HW1 9413   5.025   4.095   6.649
 2838SOL    HW2 9414   4.946   4.112   6.791
 2839SOL     OW 9415   6.723   2.194   3.238
 2839SOL    HW1 9416   6.792   2.241   3.183
 2839SOL    HW2 9417   6.760   2.108   3.271
 2840SOL     OW 9418   1.383   5.502   2.974
 2840SOL    HW1 9419   1.347   5.424   3.026
 2840SOL    HW2 9420   1.475   5.481   2.942
 2841SOL     OW 9421   6.171   2.455   0.596
 2841SOL    HW1 9422   6.197   2.550   0.578
 2841SOL    HW2 9423   6.101   2.453   0.668
 2842SOL     OW 9424   1.388   5.659   5.131
 2842SOL    HW1 9425   1.415   5.754   5.117
 2842SOL    HW2 9426   1.465   5.599   5.112
 2843SOL     OW 9427   2.624   2.458   2.604
 2843SOL    HW1 9428   2.609   2.491   2.511
 2843SOL    HW2 9429   2.699   2.392   2.605
 2844SOL     OW 9430   5.089   4.528   1.664
 2844SOL    HW1 9431   5.131   4.439   1.646
 2844SOL    HW2 9432   5.149   4.600   1.631
 2845SOL     OW 9433   5.158   2.636   3.763
 2845SOL    HW1 9434   5.213   2.613   3.843
 2845SOL    HW2 9435   5.091   2.563   3.748
 2846SOL     OW 9436   3.550   0.677   0.080
 2846SOL    HW1 9437   3.611   0.715   0.149
 2846SOL    HW2 9438   3.564   0.725   7.020
 2847SOL     OW 9439   4.822   4.105   2.091
 2847SOL    HW1 9440   4.762   4.173   2.049
 2847SOL    HW2 9441   4.883   4.067   2.022
 2848SOL     OW 9442   1.243   2.245   5.524
 2848SOL    HW1 9443   1.255   2.154   5.483
 2848SOL    HW2 9444   1.255   2.315   5.453
 2849SOL     OW 9445   3.512   1.088   1.695
 2849SOL    HW1 9446   3.560   1.139   1.767
 2849SOL    HW2 9447   3.432   1.140   1.666
 2850SOL     OW 9448   1.966   6.906   3.630
 2850SOL    HW1 9449   1.960   7.005   3.636
 2850SOL    HW2 9450   2.048   6.874   3.676
 2851SOL     OW 9451   4.030   3.472   6.939
 2851SOL    HW1 9452   3.953   3.445   6.997
 2851SOL    HW2 9453   4.113   3.477   6.995
 2852SOL     OW 9454   6.434   4.513   0.296
 2852SOL    HW1 9455   6.428   4.611   0.317
 2852SOL    HW2 9456   6.521   4.477   0.330
 2853SOL     OW 9457   0.214   3.120   6.794
 2853SOL    HW1 9458   0.201   3.076   6.883
 2853SOL    HW2 9459   0.130   3.166   6.766
 2854SOL     OW 9460   3.682   1.128   6.398
 2854SOL    HW1 9461   3.721   1.046   6.355
 2854SOL    HW2 9462   3.704   1.128   6.495
 2855SOL     OW 9463   0.968   2.361   4.177
 2855SOL    HW1 9464   1.018   2.446   4.192
 2855SOL    HW2 9465   1.033   2.285   4.169
 2856SOL     OW 9466   1.328   2.563   2.920
 2856SOL    HW1 9467   1.319   2.652   2.876
 2856SOL    HW2 9468   1.419   2.525   2.901
 2857SOL     OW 9469   0.419   3.314   0.610
 2857SOL    HW1 9470   0.420   3.376   0.688
 2857SOL    HW2 9471   0.413   3.220   0.642
 2858SOL     OW 9472   5.804   6.155   2.787
 2858SOL    HW1 9473   5.724   6.190   2.738
 2858SOL    HW2 9474   5.866   6.110   2.723
 2859SOL     OW 9475   5.245   5.304   0.563
 2859SOL    HW1 9476   5.288   5.368   0.626
 2859SOL    HW2 9477   5.235   5.215   0.608
 2860SOL     OW 9478   1.870   6.527   2.091
 2860SOL    HW1 9479   1.842   6.502   1.998
 2860SOL    HW2 9480   1.955   6.480   2.114
 2861SOL     OW 9481   3.085   5.254   5.496
 2861SOL    HW1 9482   3.159   5.263   5.429
 2861SOL    HW2 9483   3.005   5.213   5.453
 2862SOL     OW 9484   4.548   2.581   1.748
 2862SOL    HW1 9485   4.458   2.606   1.714
 2862SOL    HW2 9486   4.610   2.660   1.738
 2863SOL     OW 9487   5.235   0.896   6.209
 2863SOL    HW1 9488   5.292   0.945   6.143
 2863SOL    HW2 9489   5.155   0.857   6.161
 2864SOL     OW 9490   4.494   2.870   1.143
 2864SOL    HW1 9491   4.430   2.812   1.091
 2864SOL    HW2 9492   4.498   2.838   1.238
 2865SOL     OW 9493   4.478   6.473   4.216
 2865SOL    HW1 9494   4.411   6.472   4.289
 2865SOL    HW2 9495   4.534   6.390   4.221
 2866SOL     OW 9496   5.782   3.870   0.198
 2866SOL    HW1 9497   5.747   3.788   0.244
 2866SOL    HW2 9498   5.774   3.859   0.099
 2867SOL     OW 9499   6.306   6.568   2.139
 2867SOL    HW1 9500   6.285   6.505   2.214
 2867SOL    HW2 9501   6.225   6.623   2.118
 2868SOL     OW 9502   0.891   0.971   5.759
 2868SOL    HW1 9503   0.928   0.909   5.829
 2868SOL    HW2 9504   0.799   0.999   5.785
 2869SOL     OW 9505   6.141   0.103   3.971
 2869SOL    HW1 9506   6.058   0.049   3.961
 2869SOL    HW2 9507   6.175   0.130   3.881
 2870SOL     OW 9508   0.735   1.770   0.034
 2870SOL    HW1 9509   0.781   1.854   0.064
 2870SOL    HW2 9510   0.768   1.744   6.970
 2871SOL     OW 9511   6.562   0.987   0.478
 2871SOL    HW1 9512   6.588   1.016   0.570
 2871SOL    HW2 9513   6.481   1.037   0.448
 2872SOL     OW 9514   2.866   1.381   1.217
 2872SOL    HW1 9515   2.816   1.431   1.288
 2872SOL    HW2 9516   2.822   1.397   1.128
 2873SOL     OW 9517   0.067   5.473   1.748
 2873SOL    HW1 9518   0.100   5.384   1.717
 2873SOL    HW2 9519   0.073   5.477   1.848
 2874SOL     OW 9520   4.124   0.114   2.940
 2874SOL    HW1 9521   4.139   0.101   2.842
 2874SOL    HW2 9522   4.189   0.180   2.975
 2875SOL     OW 9523   3.322   6.817   2.767
 2875SOL    HW1 9524   3.255   6.840   2.837
 2875SOL    HW2 9525   3.403   6.776   2.809
 2876SOL     OW 9526   1.194   6.600   1.851
 2876SOL    HW1 9527   1.189   6.545   1.934
 2876SOL    HW2 9528   1.120   6.667   1.851
 2877SOL     OW 9529   2.014   1.643   6.644
 2877SOL    HW1 9530   2.049   1.607   6.557
 2877SOL    HW2 9531   1.994   1.567   6.706
 2878SOL     OW 9532   2.940   3.401   4.355
 2878SOL    HW1 9533   2.894   3.402   4.444
 2878SOL    HW2 9534   2.973   3.309   4.337
 2879SOL     OW 9535   4.423   5.251   6.072
 2879SOL    HW1 9536   4.450   5.302   6.154
 2879SOL    HW2 9537   4.351   5.300   6.024
 2880SOL     OW 9538   1.032   1.693   3.924
 2880SOL    HW1 9539   1.115   1.748   3.918
 2880SOL    HW2 9540   1.002   1.687   4.019
 2881SOL     OW 9541   3.353   5.763   0.078
 2881SOL    HW1 9542   3.329   5.839   0.138
 2881SOL    HW2 9543   3.287   5.758   0.003
 2882SOL     OW 9544   6.077   6.419   1.187
 2882SOL    HW1 9545   6.161   6.465   1.158
 2882SOL    HW2 9546   6.050   6.352   1.117
 2883SOL     OW 9547   6.461   6.607   3.578
 2883SOL    HW1 9548   6.546   6.650   3.546
 2883SOL    HW2 9549   6.482   6.541   3.651
 2884SOL     OW 9550   6.770   4.943   2.171
 2884SOL    HW1 9551   6.819   4.967   2.087
 2884SOL    HW2 9552   6.706   4.868   2.151
 2885SOL     OW 9553   1.434   2.008   4.417
 2885SOL    HW1 9554   1.524   2.037   4.450
 2885SOL    HW2 9555   1.442   1.919   4.373
 2886SOL     OW 9556   2.984   4.648   6.836
 2886SOL    HW1 9557   2.907   4.612   6.889
 2886SOL    HW2 9558   3.001   4.743   6.861
 2887SOL     OW 9559   0.004   6.522   3.905
 2887SOL    HW1 9560   0.087   6.469   3.894
 2887SOL    HW2 9561   0.024   6.619   3.891
 2888SOL     OW 9562   0.059   5.316   6.884
 2888SOL    HW1 9563   7.014   5.384   6.898
 2888SOL    HW2 9564   0.107   5.335   6.798
 2889SOL     OW 9565   3.162   6.251   2.927
 2889SOL    HW1 9566   3.257   6.249   2.896
 2889SOL    HW2 9567   3.133   6.345   2.943
 2890SOL     OW 9568   2.611   6.003   0.993
 2890SOL    HW1 9569   2.603   5.974   1.088
 2890SOL    HW2 9570   2.556   5.943   0.935
 2891SOL     OW 9571   0.873   3.597   2.915
 2891SOL    HW1 9572   0.822   3.555   2.990
 2891SOL    HW2 9573   0.838   3.561   2.828
 2892SOL     OW 9574   6.162   3.066   0.863
 2892SOL    HW1 9575   6.125   3.020   0.943
 2892SOL    HW2 9576   6.261   3.051   0.859
 2893SOL     OW 9577   1.800   5.682   4.530
 2893SOL    HW1 9578   1.814   5.707   4.626
 2893SOL    HW2 9579   1.867   5.613   4.503
 2894SOL     OW 9580   2.086   4.546   2.254
 2894SOL    HW1 9581   2.118   4.452   2.244
 2894SOL    HW2 9582   2.164   4.608   2.255
 2895SOL     OW 9583   3.481   0.855   6.298
 2895SOL    HW1 9584   3.440   0.935   6.256
 2895SOL    HW2 9585   3.416   0.812   6.361
 2896SOL     OW 9586   5.728   0.400   6.311
 2896SOL    HW1 9587   5.770   0.444   6.390
 2896SOL    HW2 9588   5.739   0.301   6.318
 2897SOL     OW 9589   4.103   4.827   2.736
 2897SOL    HW1 9590   4.062   4.867   2.818
 2897SOL    HW2 9591   4.177   4.765   2.763
 2898SOL     OW 9592   5.632   4.175   3.636
 2898SOL    HW1 9593   5.612   4.219   3.549
 2898SOL    HW2 9594   5.553   4.184   3.697
 2899SOL     OW 9595   6.339   2.322   1.631
 2899SOL    HW1 9596   6.390   2.367   1.704
 2899SOL    HW2 9597   6.326   2.386   1.555
 2900SOL     OW 9598   3.679   5.156   0.285
 2900SOL    HW1 9599   3.756   5.209   0.249
 2900SOL    HW2 9600   3.713   5.094   0.356
 2901SOL     OW 9601   1.338   4.993   3.394
 2901SOL    HW1 9602   1.271   5.009   3.321
 2901SOL    HW2 9603   1.381   4.904   3.381
 2902SOL     OW 9604   0.226   6.049   3.615
 2902SOL    HW1 9605   0.176   6.040   3.529
 2902SOL    HW2 9606   0.242   5.958   3.654
 2903SOL     OW 9607   4.528   6.136   0.719
 2903SOL    HW1 9608   4.518   6.188   0.804
 2903SOL    HW2 9609   4.550   6.198   0.644
 2904SOL     OW 9610   3.059   4.829   5.124
 2904SOL    HW1 9611   3.030   4.741   5.088
 2904SOL    HW2 9612   3.098   4.816   5.215
 2905SOL     OW 9613   1.410   3.994   3.409
 2905SOL    HW1 9614   1.480   3.924   3.395
 2905SOL    HW2 9615   1.392   4.002   3.507
 2906SOL     OW 9616   5.199   6.303   2.443
 2906SOL    HW1 9617   5.290   6.262   2.454
 2906SOL    HW2 9618   5.130   6.243   2.485
 2907SOL     OW 9619   0.842   1.135   4.104
 2907SOL    HW1 9620   0.848   1.144   4.004
 2907SOL    HW2 9621   0.746   1.142   4.132
 2908SOL     OW 9622   5.331   0.044   3.828
 2908SOL    HW1 9623   5.424   0.052   3.794
 2908SOL    HW2 9624   5.330   7.012   3.908
 2909SOL     OW 9625   1.225   6.451   3.020
 2909SOL    HW1 9626   1.282   6.394   2.960
 2909SOL    HW2 9627   1.248   6.432   3.116
 2910SOL     OW 9628   6.880   0.971   3.775
 2910SOL    HW1 9629   6.899   1.039   3.705
 2910SOL    HW2 9630   6.852   1.016   3.860
 2911SOL     OW 9631   1.118   4.556   3.751
 2911SOL    HW1 9632   1.028   4.513   3.741
 2911SOL    HW2 9633   1.131   4.586   3.845
 2912SOL     OW 9634   0.244   6.670   6.983
 2912SOL    HW1 9635   0.170   6.681   0.021
 2912SOL    HW2 9636   0.207   6.638   6.895
 2913SOL     OW 9637   2.609   4.591   2.614
 2913SOL    HW1 9638   2.611   4.685   2.649
 2913SOL    HW2 9639   2.678   4.580   2.543
 2914SOL     OW 9640   5.189   5.234   1.382
 2914SOL    HW1 9641   5.280   5.275   1.370
 2914SOL    HW2 9642   5.121   5.307   1.391
 2915SOL     OW 9643   2.804   2.300   3.415
 2915SOL    HW1 9644   2.782   2.217   3.467
 2915SOL    HW2 9645   2.893   2.291   3.372
 2916SOL     OW 9646   1.963   5.395   0.321
 2916SOL    HW1 9647   1.864   5.378   0.319
 2916SOL    HW2 9648   1.994   5.396   0.416
 2917SOL     OW 9649   3.047   0.358   3.577
 2917SOL    HW1 9650   3.061   0.335   3.673
 2917SOL    HW2 9651   2.950   0.372   3.560
 2918SOL     OW 9652   6.136   3.413   0.402
 2918SOL    HW1 9653   6.110   3.492   0.348
 2918SOL    HW2 9654   6.090   3.332   0.367
 2919SOL     OW 9655   6.666   6.343   3.482
 2919SOL    HW1 9656   6.693   6.399   3.404
 2919SOL    HW2 9657   6.748   6.317   3.534
 2920SOL     OW 9658   2.445   0.863   2.166
 2920SOL    HW1 9659   2.453   0.831   2.072
 2920SOL    HW2 9660   2.437   0.963   2.167
 2921SOL     OW 9661   0.069   0.375   5.574
 2921SOL    HW1 9662   7.015   0.434   5.568
 2921SOL    HW2 9663   0.081   0.327   5.488
 2922SOL     OW 9664   4.159   0.350   2.072
 2922SOL    HW1 9665   4.081   0.395   2.029
 2922SOL    HW2 9666   4.151   0.356   2.171
 2923SOL     OW 9667   6.551   5.102   4.257
 2923SOL    HW1 9668   6.634   5.062   4.217
 2923SOL    HW2 9669   6.577   5.163   4.331
 2924SOL     OW 9670   6.551   1.666   5.122
 2924SOL    HW1 9671   6.495   1.702   5.047
 2924SOL    HW2 9672   6.611   1.738   5.157
 2925SOL     OW 9673   5.295   1.437   6.606
 2925SOL    HW1 9674   5.313   1.526   6.648
 2925SOL    HW2 9675   5.222   1.391   6.655
 2926SOL     OW 9676   6.584   2.289   5.434
 2926SOL    HW1 9677   6.662   2.302   5.372
 2926SOL    HW2 9678   6.586   2.196   5.471
 2927SOL     OW 9679   2.049   3.510   0.749
 2927SOL    HW1 9680   2.109   3.513   0.828
 2927SOL    HW2 9681   1.954   3.517   0.778
 2928SOL     OW 9682   6.606   1.725   0.105
 2928SOL    HW1 9683   6.643   1.817   0.120
 2928SOL    HW2 9684   6.524   1.731   0.049
 2929SOL     OW 9685   1.499   2.527   4.997
 2929SOL    HW1 9686   1.560   2.579   4.938
 2929SOL    HW2 9687   1.454   2.455   4.944
 2930SOL     OW 9688   6.184   5.902   5.362
 2930SOL    HW1 9689   6.193   5.894   5.263
 2930SOL    HW2 9690   6.202   5.813   5.404
 2931SOL     OW 9691   4.306   5.093   0.505
 2931SOL    HW1 9692   4.291   5.191   0.513
 2931SOL    HW2 9693   4.397   5.076   0.468
 2932SOL     OW 9694   6.475   5.241   1.941
 2932SOL    HW1 9695   6.411   5.164   1.948
 2932SOL    HW2 9696   6.490   5.279   2.033
 2933SOL     OW 9697   0.484   0.376   1.865
 2933SOL    HW1 9698   0.387   0.370   1.889
 2933SOL    HW2 9699   0.527   0.448   1.920
 2934SOL     OW 9700   4.706   2.901   1.500
 2934SOL    HW1 9701   4.724   2.858   1.588
 2934SOL    HW2 9702   4.617   2.871   1.465
 2935SOL     OW 9703   1.007   2.551   6.673
 2935SOL    HW1 9704   1.002   2.634   6.617
 2935SOL    HW2 9705   1.046   2.573   6.762
 2936SOL     OW 9706   4.074   6.916   0.568
 2936SOL    HW1 9707   4.035   6.824   0.573
 2936SOL    HW2 9708   4.007   6.978   0.528
 2937SOL     OW 9709   4.469   4.750   1.178
 2937SOL    HW1 9710   4.394   4.809   1.208
 2937SOL    HW2 9711   4.555   4.784   1.214
 2938SOL     OW 9712   6.249   5.680   6.923
 2938SOL    HW1 9713   6.151   5.697   6.936
 2938SOL    HW2 9714   6.264   5.650   6.828
 2939SOL     OW 9715   0.723   0.315   1.375
 2939SOL    HW1 9716   0.696   0.302   1.470
 2939SOL    HW2 9717   0.676   0.395   1.337
 2940SOL     OW 9718   5.651   5.663   4.452
 2940SOL    HW1 9719   5.628   5.624   4.541
 2940SOL    HW2 9720   5.747   5.647   4.432
 2941SOL     OW 9721   2.411   2.356   3.079
 2941SOL    HW1 9722   2.422   2.417   3.001
 2941SOL    HW2 9723   2.484   2.373   3.146
 2942SOL     OW 9724   3.403   2.716   0.341
 2942SOL    HW1 9725   3.366   2.624   0.325
 2942SOL    HW2 9726   3.464   2.741   0.266
 2943SOL     OW 9727   6.255   4.422   3.755
 2943SOL    HW1 9728   6.180   4.477   3.792
 2943SOL    HW2 9729   6.327   4.483   3.722
 2944SOL     OW 9730   2.662   6.281   3.645
 2944SOL    HW1 9731   2.627   6.222   3.572
 2944SOL    HW2 9732   2.758   6.261   3.661
 2945SOL     OW 9733   5.161   3.821   1.532
 2945SOL    HW1 9734   5.154   3.728   1.569
 2945SOL    HW2 9735   5.121   3.823   1.440
 2946SOL     OW 9736   1.635   4.078   5.661
 2946SOL    HW1 9737   1.582   4.134   5.724
 2946SOL    HW2 9738   1.583   4.062   5.578
 2947SOL     OW 9739   0.272   5.852   0.189
 2947SOL    HW1 9740   0.210   5.785   0.229
 2947SOL    HW2 9741   0.285   5.832   0.092
 2948SOL     OW 9742   6.491   4.460   3.401
 2948SOL    HW1 9743   6.573   4.515   3.412
 2948SOL    HW2 9744   6.499   4.376   3.456
 2949SOL     OW 9745   0.756   6.241   6.375
 2949SOL    HW1 9746   0.760   6.327   6.425
 2949SOL    HW2 9747   0.849   6.205   6.363
 2950SOL     OW 9748   5.782   5.097   3.132
 2950SOL    HW1 9749   5.695   5.143   3.151
 2950SOL    HW2 9750   5.839   5.099   3.214
 2951SOL     OW 9751   5.438   1.227   2.032
 2951SOL    HW1 9752   5.458   1.129   2.039
 2951SOL    HW2 9753   5.524   1.278   2.029
 2952SOL     OW 9754   6.211   0.219   4.785
 2952SOL    HW1 9755   6.263   0.262   4.710
 2952SOL    HW2 9756   6.153   0.288   4.828
 2953SOL     OW 9757   6.610   4.407   2.991
 2953SOL    HW1 9758   6.661   4.355   3.059
 2953SOL    HW2 9759   6.623   4.366   2.901
 2954SOL     OW 9760   6.957   4.578   6.450
 2954SOL    HW1 9761   0.016   4.626   6.468
 2954SOL    HW2 9762   6.954   4.550   6.354
 2955SOL     OW 9763   1.165   4.309   0.237
 2955SOL    HW1 9764   1.133   4.384   0.179
 2955SOL    HW2 9765   1.262   4.291   0.218
 2956SOL     OW 9766   0.269   5.458   4.052
 2956SOL    HW1 9767   0.180   5.477   4.012
 2956SOL    HW2 9768   0.298   5.535   4.108
 2957SOL     OW 9769   4.099   4.915   1.488
 2957SOL    HW1 9770   4.050   4.989   1.441
 2957SOL    HW2 9771   4.035   4.863   1.545
 2958SOL     OW 9772   2.249   5.216   3.278
 2958SOL    HW1 9773   2.300   5.293   3.238
 2958SOL    HW2 9774   2.252   5.223   3.378
 2959SOL     OW 9775   5.213   2.562   2.811
 2959SOL    HW1 9776   5.218   2.572   2.911
 2959SOL    HW2 9777   5.198   2.651   2.769
 2960SOL     OW 9778   3.446   0.264   0.204
 2960SOL    HW1 9779   3.405   0.270   0.295
 2960SOL    HW2 9780   3.373   0.262   0.135
 2961SOL     OW 9781   6.082   4.800   2.915
 2961SOL    HW1 9782   6.135   4.775   2.835
 2961SOL    HW2 9783   6.071   4.720   2.975
 2962SOL     OW 9784   5.129   6.537   3.270
 2962SOL    HW1 9785   5.119   6.462   3.205
 2962SOL    HW2 9786   5.048   6.541   3.329
 2963SOL     OW 9787   1.341   0.938   6.535
 2963SOL    HW1 9788   1.361   1.016   6.595
 2963SOL    HW2 9789   1.397   0.860   6.561
 2964SOL     OW 9790   0.781   2.699   6.194
 2964SOL    HW1 9791   0.736   2.772   6.143
 2964SOL    HW2 9792   0.771   2.716   6.292
 2965SOL     OW 9793   1.309   0.173   4.283
 2965SOL    HW1 9794   1.405   0.202   4.275
 2965SOL    HW2 9795   1.262   0.192   4.197
 2966SOL     OW 9796   4.671   5.503   4.028
 2966SOL    HW1 9797   4.731   5.451   3.966
 2966SOL    HW2 9798   4.663   5.454   4.115
 2967SOL     OW 9799   5.851   1.407   5.914
 2967SOL    HW1 9800   5.872   1.467   5.991
 2967SOL    HW2 9801   5.860   1.458   5.828
 2968SOL     OW 9802   2.038   3.162   0.835
 2968SOL    HW1 9803   2.063   3.140   0.929
 2968SOL    HW2 9804   2.102   3.230   0.799
 2969SOL     OW 9805   5.065   3.997   4.775
 2969SOL    HW1 9806   5.006   3.930   4.821
 2969SOL    HW2 9807   5.012   4.050   4.710
 2970SOL     OW 9808   2.828   2.950   5.420
 2970SOL    HW1 9809   2.809   2.944   5.518
 2970SOL    HW2 9810   2.925   2.933   5.404
 2971SOL     OW 9811   5.986   4.066   0.248
 2971SOL    HW1 9812   6.035   4.081   0.334
 2971SOL    HW2 9813   5.900   4.019   0.266
 2972SOL     OW 9814   5.660   5.232   0.029
 2972SOL    HW1 9815   5.572   5.192   0.004
 2972SOL    HW2 9816   5.647   5.326   0.061
 2973SOL     OW 9817   4.936   6.652   2.513
 2973SOL    HW1 9818   4.926   6.748   2.539
 2973SOL    HW2 9819   5.017   6.614   2.557
 2974SOL     OW 9820   5.904   4.382   3.254
 2974SOL    HW1 9821   5.942   4.375   3.346
 2974SOL    HW2 9822   5.853   4.299   3.232
 2975SOL     OW 9823   4.843   4.528   4.125
 2975SOL    HW1 9824   4.891   4.546   4.210
 2975SOL    HW2 9825   4.852   4.607   4.064
 2976SOL     OW 9826   5.043   1.882   3.018
 2976SOL    HW1 9827   5.137   1.861   2.990
 2976SOL    HW2 9828   4.983   1.872   2.939
 2977SOL     OW 9829   0.959   0.515   2.008
 2977SOL    HW1 9830   1.052   0.489   2.034
 2977SOL    HW2 9831   0.897   0.498   2.085
 2978SOL     OW 9832   4.112   4.333   7.016
 2978SOL    HW1 9833   4.066   4.245   0.001
 2978SOL    HW2 9834   4.196   4.334   0.044
 2979SOL     OW 9835   3.249   1.498   4.275
 2979SOL    HW1 9836   3.247   1.470   4.179
 2979SOL    HW2 9837   3.227   1.420   4.334
 2980SOL     OW 9838   2.310   4.742   6.135
 2980SOL    HW1 9839   2.369   4.666   6.109
 2980SOL    HW2 9840   2.245   4.712   6.204
 2981SOL     OW 9841   2.266   1.858   0.031
 2981SOL    HW1 9842   2.359   1.887   0.053
 2981SOL    HW2 9843   2.258   1.846   6.958
 2982SOL     OW 9844   2.141   6.555   2.613
 2982SOL    HW1 9845   2.171   6.547   2.518
 2982SOL    HW2 9846   2.207   6.611   2.663
 2983SOL     OW 9847   0.059   2.585   0.447
 2983SOL    HW1 9848   6.995   2.593   0.488
 2983SOL    HW2 9849   0.091   2.491   0.458
 2984SOL     OW 9850   6.112   5.078   6.212
 2984SOL    HW1 9851   6.099   5.023   6.129
 2984SOL    HW2 9852   6.056   5.041   6.286
 2985SOL     OW 9853   0.576   1.310   4.506
 2985SOL    HW1 9854   0.536   1.228   4.548
 2985SOL    HW2 9855   0.656   1.284   4.452
 2986SOL     OW 9856   3.257   4.117   2.547
 2986SOL    HW1 9857   3.276   4.215   2.545
 2986SOL    HW2 9858   3.329   4.068   2.497
 2987SOL     OW 9859   1.894   1.741   4.260
 2987SOL    HW1 9860   1.800   1.733   4.227
 2987SOL    HW2 9861   1.954   1.684   4.204
 2988SOL     OW 9862   1.811   0.110   1.742
 2988SOL    HW1 9863   1.843   0.053   1.666
 2988SOL    HW2 9864   1.736   0.064   1.789
 2989SOL     OW 9865   5.241   4.188   5.340
 2989SOL    HW1 9866   5.291   4.111   5.380
 2989SOL    HW2 9867   5.177   4.153   5.271
 2990SOL     OW 9868   5.191   2.059   4.437
 2990SOL    HW1 9869   5.222   2.038   4.530
 2990SOL    HW2 9870   5.229   2.146   4.407
 2991SOL     OW 9871   6.509   3.771   6.986
 2991SOL    HW1 9872   6.478   3.790   0.052
 2991SOL    HW2 9873   6.442   3.806   6.921
 2992SOL     OW 9874   0.916   4.604   4.749
 2992SOL    HW1 9875   0.826   4.575   4.716
 2992SOL    HW2 9876   0.981   4.603   4.672
 2993SOL     OW 9877   6.951   5.037   0.313
 2993SOL    HW1 9878   6.995   4.967   0.369
 2993SOL    HW2 9879   7.011   5.063   0.237
 2994SOL     OW 9880   4.795   6.016   6.925
 2994SOL    HW1 9881   4.769   5.925   6.893
 2994SOL    HW2 9882   4.732   6.045   6.998
 2995SOL     OW 9883   4.806   0.177   0.224
 2995SOL    HW1 9884   4.758   0.095   0.255
 2995SOL    HW2 9885   4.866   0.154   0.148
 2996SOL     OW 9886   1.335   1.645   4.584
 2996SOL    HW1 9887   1.299   1.557   4.615
 2996SOL    HW2 9888   1.419   1.666   4.634
 2997SOL     OW 9889   4.370   0.546   3.263
 2997SOL    HW1 9890   4.349   0.638   3.297
 2997SOL    HW2 9891   4.469   0.532   3.261
 2998SOL     OW 9892   3.430   0.224   3.712
 2998SOL    HW1 9893   3.416   0.165   3.633
 2998SOL    HW2 9894   3.527   0.242   3.724
 2999SOL     OW 9895   2.815   4.763   6.220
 2999SOL    HW1 9896   2.809   4.831   6.293
 2999SOL    HW2 9897   2.899   4.710   6.231
 3000SOL     OW 9898   2.647   4.012   6.350
 3000SOL    HW1 9899   2.594   3.975   6.273
 3000SOL    HW2 9900   2.693   3.937   6.397
 3001SOL     OW 9901   6.003   2.182   0.096
 3001SOL    HW1 9902   6.034   2.269   0.059
 3001SOL    HW2 9903   6.026   2.108   0.033
 3002SOL     OW 9904   3.118   1.318   0.825
 3002SOL    HW1 9905   3.196   1.264   0.794
 3002SOL    HW2 9906   3.072   1.271   0.900
 3003SOL     OW 9907   1.188   6.262   1.204
 3003SOL    HW1 9908   1.266   6.260   1.142
 3003SOL    HW2 9909   1.103   6.251   1.153
 3004SOL     OW 9910   1.544   4.918   3.714
 3004SOL    HW1 9911   1.589   4.887   3.631
 3004SOL    HW2 9912   1.539   4.843   3.780
 3005SOL     OW 9913   0.957   3.315   5.679
 3005SOL    HW1 9914   1.011   3.259   5.741
 3005SOL    HW2 9915   1.017   3.364   5.616
 3006SOL     OW 9916   5.253   1.039   5.380
 3006SOL    HW1 9917   5.261   0.947   5.342
 3006SOL    HW2 9918   5.344   1.079   5.388
 3007SOL     OW 9919   4.419   5.522   0.151
 3007SOL    HW1 9920   4.517   5.541   0.152
 3007SOL    HW2 9921   4.400   5.450   0.084
 3008SOL     OW 9922   3.686   2.633   6.469
 3008SOL    HW1 9923   3.661   2.702   6.538
 3008SOL    HW2 9924   3.603   2.594   6.430
 3009SOL     OW 9925   0.153   2.249   3.162
 3009SOL    HW1 9926   0.209   2.214   3.088
 3009SOL    HW2 9927   0.197   2.329   3.203
 3010SOL     OW 9928   3.437   5.884   5.126
 3010SOL    HW1 9929   3.530   5.849   5.117
 3010SOL    HW2 9930   3.438   5.972   5.172
 3011SOL     OW 9931   6.626   0.045   1.638
 3011SOL    HW1 9932   6.703   0.098   1.604
 3011SOL    HW2 9933   6.660   6.990   1.684
 3012SOL     OW 9934   2.454   3.816   0.071
 3012SOL    HW1 9935   2.511   3.833   0.152
 3012SOL    HW2 9936   2.457   3.896   0.011
 3013SOL     OW 9937   6.274   5.280   3.240
 3013SOL    HW1 9938   6.250   5.301   3.145
 3013SOL    HW2 9939   6.352   5.217   3.243
 3014SOL     OW 9940   4.894   1.539   6.666
 3014SOL    HW1 9941   4.980   1.488   6.657
 3014SOL    HW2 9942   4.823   1.479   6.701
 3015SOL     OW 9943   2.496   1.419   0.708
 3015SOL    HW1 9944   2.500   1.507   0.754
 3015SOL    HW2 9945   2.506   1.433   0.609
 3016SOL     OW 9946   3.375   6.902   3.999
 3016SOL    HW1 9947   3.467   6.870   3.979
 3016SOL    HW2 9948   3.345   6.863   4.086
 3017SOL     OW 9949   6.069   4.574   2.320
 3017SOL    HW1 9950   5.972   4.594   2.303
 3017SOL    HW2 9951   6.112   4.655   2.360
 3018SOL     OW 9952   3.792   6.970   6.842
 3018SOL    HW1 9953   3.719   7.015   6.893
 3018SOL    HW2 9954   3.813   7.023   6.760
 3019SOL     OW 9955   0.898   0.016   0.367
 3019SOL    HW1 9956   0.806   0.031   0.329
 3019SOL    HW2 9957   0.891   6.990   0.451
 3020SOL     OW 9958   4.397   3.279   0.349
 3020SOL    HW1 9959   4.425   3.226   0.428
 3020SOL    HW2 9960   4.432   3.373   0.357
 3021SOL     OW 9961   2.315   6.745   4.561
 3021SOL    HW1 9962   2.383   6.780   4.497
 3021SOL    HW2 9963   2.223   6.768   4.528
 3022SOL     OW 9964   3.929   5.869   4.126
 3022SOL    HW1 9965   3.848   5.850   4.070
 3022SOL    HW2 9966   3.954   5.965   4.116
 3023SOL     OW 9967   3.873   7.003   2.692
 3023SOL    HW1 9968   3.896   0.067   2.729
 3023SOL    HW2 9969   3.795   6.966   2.742
 3024SOL     OW 9970   6.248   5.642   5.521
 3024SOL    HW1 9971   6.237   5.707   5.596
 3024SOL    HW2 9972   6.323   5.579   5.542
 3025SOL     OW 9973   4.116   6.220   1.360
 3025SOL    HW1 9974   4.159   6.310   1.365
 3025SOL    HW2 9975   4.187   6.149   1.364
 3026SOL     OW 9976   0.148   0.991   6.433
 3026SOL    HW1 9977   0.164   1.062   6.364
 3026SOL    HW2 9978   0.052   0.965   6.433
 3027SOL     OW 9979   3.965   1.545   2.120
 3027SOL    HW1 9980   4.030   1.473   2.095
 3027SOL    HW2 9981   3.876   1.524   2.080
 3028SOL     OW 9982   1.799   3.882   6.104
 3028SOL    HW1 9983   1.895   3.883   6.132
 3028SOL    HW2 9984   1.792   3.917   6.010
 3029SOL     OW 9985   0.780   2.287   3.467
 3029SOL    HW1 9986   0.711   2.349   3.431
 3029SOL    HW2 9987   0.849   2.339   3.517
 3030SOL     OW 9988   1.402   4.124   0.805
 3030SOL    HW1 9989   1.457   4.113   0.888
 3030SOL    HW2 9990   1.405   4.039   0.752
 3031SOL     OW 9991   1.377   4.961   1.270
 3031SOL    HW1 9992   1.441   5.034   1.294
 3031SOL    HW2 9993   1.296   5.000   1.227
 3032SOL     OW 9994   1.827   5.938   2.849
 3032SOL    HW1 9995   1.753   5.886   2.806
 3032SOL    HW2 9996   1.872   5.994   2.780
 3033SOL     OW 9997   6.004   1.986   3.334
 3033SOL    HW1 9998   6.030   1.932   3.253
 3033SOL    HW2 9999   5.990   1.925   3.412
 3034SOL     OW10000   0.989   5.881   3.868
 3034SOL    HW110001   0.890   5.869   3.880
 3034SOL    HW210002   1.013   5.857   3.774
 3035SOL     OW10003   1.045   3.210   6.368
 3035SOL    HW110004   1.065   3.267   6.288
 3035SOL    HW210005   1.020   3.268   6.445
 3036SOL     OW10006   0.964   1.717   5.662
 3036SOL    HW110007   1.007   1.685   5.746
 3036SOL    HW210008   1.029   1.771   5.609
 3037SOL     OW10009   7.012   4.977   5.345
 3037SOL    HW110010   0.053   4.948   5.278
 3037SOL    HW210011   6.948   5.042   5.302
 3038SOL     OW10012   5.452   4.589   6.259
 3038SOL    HW110013   5.464   4.672   6.205
 3038SOL    HW210014   5.430   4.512   6.199
 3039SOL     OW10015   0.046   2.934   6.949
 3039SOL    HW110016   6.980   2.930   6.912
 3039SOL    HW210017   0.048   2.997   0.000
 3040SOL     OW10018   3.146   4.626   5.723
 3040SOL    HW110019   3.054   4.590   5.709
 3040SOL    HW210020   3.214   4.560   5.692
 3041SOL     OW10021   0.896   4.428   5.982
 3041SOL    HW110022   0.896   4.512   6.037
 3041SOL    HW210023   0.811   4.378   5.997
 3042SOL     OW10024   6.441   5.605   2.297
 3042SOL    HW110025   6.390   5.535   2.247
 3042SOL    HW210026   6.537   5.604   2.268
 3043SOL     OW10027   3.235   3.318   0.380
 3043SOL    HW110028   3.332   3.316   0.355
 3043SOL    HW210029   3.226   3.345   0.476
 3044SOL     OW10030   2.699   4.574   5.561
 3044SOL    HW110031   2.656   4.520   5.488
 3044SOL    HW210032   2.751   4.649   5.520
 3045SOL     OW10033   4.644   6.960   3.183
 3045SOL    HW110034   4.734   6.948   3.142
 3045SOL    HW210035   4.634   0.028   3.214
 3046SOL     OW10036   3.994   6.041   6.698
 3046SOL    HW110037   3.980   5.959   6.754
 3046SOL    HW210038   4.058   6.101   6.745
 3047SOL     OW10039   6.099   6.929   0.598
 3047SOL    HW110040   6.111   0.001   0.593
 3047SOL    HW210041   6.171   6.883   0.547
 3048SOL     OW10042   4.272   2.473   1.014
 3048SOL    HW110043   4.355   2.526   0.997
 3048SOL    HW210044   4.277   2.431   1.105
 3049SOL     OW10045   1.119   0.855   3.715
 3049SOL    HW110046   1.146   0.949   3.692
 3049SOL    HW210047   1.192   0.812   3.767
 3050SOL     OW10048   2.202   2.452   1.495
 3050SOL    HW110049   2.226   2.491   1.406
 3050SOL    HW210050   2.274   2.391   1.526
 3051SOL     OW10051   2.707   6.967   6.228
 3051SOL    HW110052   2.708   6.867   6.227
 3051SOL    HW210053   2.672   6.999   6.316
 3052SOL     OW10054   5.549   5.943   2.257
 3052SOL    HW110055   5.642   5.973   2.274
 3052SOL    HW210056   5.530   5.860   2.310
 3053SOL     OW10057   0.979   4.305   1.100
 3053SOL    HW110058   0.924   4.237   1.149
 3053SOL    HW210059   1.061   4.260   1.063
 3054SOL     OW10060   5.767   0.904   2.958
 3054SOL    HW110061   5.790   0.843   3.034
 3054SOL    HW210062   5.715   0.852   2.890
 3055SOL     OW10063   5.793   6.715   5.820
 3055SOL    HW110064   5.869   6.689   5.879
 3055SOL    HW210065   5.826   6.733   5.728
 3056SOL     OW10066   6.244   1.720   5.892
 3056SOL    HW110067   6.276   1.713   5.797
 3056SOL    HW210068   6.145   1.709   5.894
 3057SOL     OW10069   5.527   5.899   3.775
 3057SOL    HW110070   5.563   5.853   3.856
 3057SOL    HW210071   5.601   5.911   3.708
 3058SOL     OW10072   6.422   4.051   1.255
 3058SOL    HW110073   6.455   3.962   1.224
 3058SOL    HW210074   6.346   4.080   1.198
 3059SOL     OW10075   2.531   1.648   4.364
 3059SOL    HW110076   2.474   1.726   4.390
 3059SOL    HW210077   2.533   1.640   4.264
 3060SOL     OW10078   2.924   5.312   6.585
 3060SOL    HW110079   2.886   5.232   6.538
 3060SOL    HW210080   2.991   5.357   6.526
 3061SOL     OW10081   5.982   5.429   5.983
 3061SOL    HW110082   5.895   5.381   5.976
 3061SOL    HW210083   5.967   5.527   5.972
 3062SOL     OW10084   3.845   5.720   1.083
 3062SOL    HW110085   3.937   5.681   1.096
 3062SOL    HW210086   3.802   5.733   1.173
 3063SOL     OW10087   1.024   4.317   0.485
 3063SOL    HW110088   1.072   4.309   0.397
 3063SOL    HW210089   0.948   4.381   0.476
 3064SOL     OW10090   4.521   2.985   6.995
 3064SOL    HW110091   4.539   3.049   0.043
 3064SOL    HW210092   4.455   3.026   6.932
 3065SOL     OW10093   1.181   1.645   6.666
 3065SOL    HW110094   1.274   1.620   6.639
 3065SOL    HW210095   1.182   1.685   6.758
 3066SOL     OW10096   4.748   5.283   6.075
 3066SOL    HW110097   4.715   5.205   6.022
 3066SOL    HW210098   4.688   5.361   6.061
 3067SOL     OW10099   2.355   2.055   0.734
 3067SOL    HW110100   2.373   2.039   0.637
 3067SOL    HW210101   2.414   2.129   0.768
 3068SOL     OW10102   0.341   1.214   1.197
 3068SOL    HW110103   0.299   1.236   1.109
 3068SOL    HW210104   0.390   1.294   1.232
 3069SOL     OW10105   6.230   6.721   3.497
 3069SOL    HW110106   6.312   6.676   3.532
 3069SOL    HW210107   6.244   6.747   3.402
 3070SOL     OW10108   2.698   1.153   6.991
 3070SOL    HW110109   2.763   1.198   0.026
 3070SOL    HW210110   2.738   1.144   6.901
 3071SOL     OW10111   6.805   4.636   3.748
 3071SOL    HW110112   6.829   4.637   3.650
 3071SOL    HW210113   6.706   4.631   3.758
 3072SOL     OW10114   1.739   5.843   0.392
 3072SOL    HW110115   1.766   5.825   0.487
 3072SOL    HW210116   1.821   5.861   0.337
 3073SOL     OW10117   0.412   4.387   1.447
 3073SOL    HW110118   0.367   4.396   1.536
 3073SOL    HW210119   0.479   4.313   1.450
 3074SOL     OW10120   1.199   4.197   1.459
 3074SOL    HW110121   1.236   4.264   1.524
 3074SOL    HW210122   1.198   4.238   1.367
 3075SOL     OW10123   2.669   5.156   3.947
 3075SOL    HW110124   2.594   5.154   3.881
 3075SOL    HW210125   2.694   5.251   3.966
 3076SOL     OW10126   6.639   1.148   4.526
 3076SOL    HW110127   6.621   1.206   4.606
 3076SOL    HW210128   6.720   1.183   4.478
 3077SOL     OW10129   6.088   3.258   2.006
 3077SOL    HW110130   6.083   3.357   2.000
 3077SOL    HW210131   6.168   3.232   2.061
 3078SOL     OW10132   6.718   2.916   2.339
 3078SOL    HW110133   6.638   2.920   2.279
 3078SOL    HW210134   6.767   2.830   2.324
 3079SOL     OW10135   2.891   2.259   4.341
 3079SOL    HW110136   2.888   2.175   4.394
 3079SOL    HW210137   2.984   2.274   4.307
 3080SOL     OW10138   4.534   4.032   1.712
 3080SOL    HW110139   4.486   4.100   1.766
 3080SOL    HW210140   4.600   4.077   1.652
 3081SOL     OW10141   0.889   4.693   6.913
 3081SOL    HW110142   0.989   4.685   6.907
 3081SOL    HW210143   0.849   4.601   6.917
 3082SOL     OW10144   2.871   5.547   4.646
 3082SOL    HW110145   2.950   5.606   4.663
 3082SOL    HW210146   2.826   5.526   4.733
 3083SOL     OW10147   3.284   5.397   2.629
 3083SOL    HW110148   3.199   5.344   2.629
 3083SOL    HW210149   3.281   5.465   2.556
 3084SOL     OW10150   0.197   4.143   2.481
 3084SOL    HW110151   0.101   4.163   2.464
 3084SOL    HW210152   0.254   4.188   2.413
 3085SOL     OW10153   4.955   4.805   1.069
 3085SOL    HW110154   5.026   4.754   1.117
 3085SOL    HW210155   4.977   4.811   0.972
 3086SOL     OW10156   4.780   1.258   6.964
 3086SOL    HW110157   4.741   1.304   6.884
 3086SOL    HW210158   4.827   1.324   7.021
 3087SOL     OW10159   2.153   6.527   2.337
 3087SOL    HW110160   2.137   6.481   2.250
 3087SOL    HW210161   2.145   6.626   2.326
 3088SOL     OW10162   1.243   3.010   5.553
 3088SOL    HW110163   1.273   3.066   5.630
 3088SOL    HW210164   1.299   2.927   5.550
 3089SOL     OW10165   4.547   1.471   5.195
 3089SOL    HW110166   4.646   1.467   5.187
 3089SOL    HW210167   4.522   1.525   5.275
 3090SOL     OW10168   1.695   1.047   1.843
 3090SOL    HW110169   1.774   1.072   1.900
 3090SOL    HW210170   1.719   1.059   1.747
 3091SOL     OW10171   1.173   1.097   0.495
 3091SOL    HW110172   1.101   1.159   0.525
 3091SOL    HW210173   1.148   1.056   0.407
 3092SOL     OW10174   5.125   6.576   1.537
 3092SOL    HW110175   5.122   6.665   1.583
 3092SOL    HW210176   5.127   6.504   1.606
 3093SOL     OW10177   5.626   6.193   5.619
 3093SOL    HW110178   5.553   6.176   5.552
 3093SOL    HW210179   5.672   6.107   5.641
 3094SOL     OW10180   3.010   0.525   4.132
 3094SOL    HW110181   3.017   0.541   4.231
 3094SOL    HW210182   3.091   0.476   4.100
 3095SOL     OW10183   2.180   3.219   5.523
 3095SOL    HW110184   2.246   3.179   5.460
 3095SOL    HW210185   2.114   3.275   5.472
 3096SOL     OW10186   0.511   4.030   4.811
 3096SOL    HW110187   0.447   4.107   4.807
 3096SOL    HW210188   0.519   3.989   4.721
 3097SOL     OW10189   5.651   2.842   0.493
 3097SOL    HW110190   5.634   2.835   0.591
 3097SOL    HW210191   5.581   2.790   0.443
 3098SOL     OW10192   1.508   2.994   1.968
 3098SOL    HW110193   1.566   3.019   2.045
 3098SOL    HW210194   1.442   3.067   1.952
 3099SOL     OW10195   0.887   6.066   3.661
 3099SOL    HW110196   0.859   5.970   3.656
 3099SOL    HW210197   0.838   6.111   3.736
 3100SOL     OW10198   6.874   6.759   2.571
 3100SOL    HW110199   6.961   6.757   2.523
 3100SOL    HW210200   6.799   6.759   2.504
 3101SOL     OW10201   4.622   6.519   6.043
 3101SOL    HW110202   4.629   6.516   6.143
 3101SOL    HW210203   4.704   6.561   6.005
 3102SOL     OW10204   6.620   5.818   0.293
 3102SOL    HW110205   6.545   5.762   0.330
 3102SOL    HW210206   6.596   5.849   0.201
 3103SOL     OW10207   5.150   0.881   0.921
 3103SOL    HW110208   5.114   0.807   0.864
 3103SOL    HW210209   5.247   0.892   0.904
 3104SOL     OW10210   4.306   0.001   6.897
 3104SOL    HW110211   4.361   6.978   6.830
 3104SOL    HW210212   4.243   6.965   6.941
 3105SOL     OW10213   4.734   3.304   1.161
 3105SOL    HW110214   4.639   3.281   1.145
 3105SOL    HW210215   4.769   3.247   1.236
 3106SOL     OW10216   5.541   0.142   5.490
 3106SOL    HW110217   5.445   0.130   5.465
 3106SOL    HW210218   5.548   0.211   5.562
 3107SOL     OW10219   4.385   1.642   4.263
 3107SOL    HW110220   4.401   1.740   4.263
 3107SOL    HW210221   4.472   1.594   4.267
 3108SOL     OW10222   2.126   5.197   4.757
 3108SOL    HW110223   2.099   5.101   4.767
 3108SOL    HW210224   2.187   5.223   4.831
 3109SOL     OW10225   6.264   0.390   4.538
 3109SOL    HW110226   6.342   0.411   4.480
 3109SOL    HW210227   6.264   0.450   4.618
 3110SOL     OW10228   2.299   4.236   3.268
 3110SOL    HW110229   2.218   4.294   3.279
 3110SOL    HW210230   2.342   4.256   3.180
 3111SOL     OW10231   6.415   4.857   3.562
 3111SOL    HW110232   6.345   4.922   3.593
 3111SOL    HW210233   6.481   4.905   3.505
 3112SOL     OW10234   3.140   3.466   6.613
 3112SOL    HW110235   3.195   3.399   6.563
 3112SOL    HW210236   3.190   3.552   6.619
 3113SOL     OW10237   3.299   5.756   2.684
 3113SOL    HW110238   3.395   5.737   2.666
 3113SOL    HW210239   3.290   5.848   2.721
 3114SOL     OW10240   4.010   1.207   0.176
 3114SOL    HW110241   3.992   1.148   0.255
 3114SOL    HW210242   4.086   1.169   0.123
 3115SOL     OW10243   3.784   4.708   5.340
 3115SOL    HW110244   3.687   4.733   5.346
 3115SOL    HW210245   3.806   4.643   5.413
 3116SOL     OW10246   0.620   2.042   0.521
 3116SOL    HW110247   0.667   1.964   0.481
 3116SOL    HW210248   0.558   2.082   0.454
 3117SOL     OW10249   4.915   2.854   5.502
 3117SOL    HW110250   4.894   2.812   5.414
 3117SOL    HW210251   5.003   2.902   5.495
 3118SOL     OW10252   1.322   0.264   2.328
 3118SOL    HW110253   1.278   0.227   2.247
 3118SOL    HW210254   1.407   0.309   2.303
 3119SOL     OW10255   3.057   2.631   5.476
 3119SOL    HW110256   3.134   2.590   5.427
 3119SOL    HW210257   3.057   2.730   5.463
 3120SOL     OW10258   2.989   0.611   5.981
 3120SOL    HW110259   3.065   0.674   5.993
 3120SOL    HW210260   2.953   0.620   5.888
 3121SOL     OW10261   5.455   1.733   4.346
 3121SOL    HW110262   5.423   1.737   4.251
 3121SOL    HW210263   5.521   1.807   4.361
 3122SOL     OW10264   4.389   4.754   5.073
 3122SOL    HW110265   4.292   4.775   5.062
 3122SOL    HW210266   4.404   4.656   5.060
 3123SOL     OW10267   1.765   0.709   3.792
 3123SOL    HW110268   1.752   0.611   3.776
 3123SOL    HW210269   1.694   0.760   3.743
 3124SOL     OW10270   5.276   6.876   4.020
 3124SOL    HW110271   5.213   6.799   4.010
 3124SOL    HW210272   5.370   6.843   4.013
 3125SOL     OW10273   0.797   2.944   5.373
 3125SOL    HW110274   0.864   2.914   5.441
 3125SOL    HW210275   0.798   2.883   5.295
 3126SOL     OW10276   5.499   4.816   6.427
 3126SOL    HW110277   5.540   4.894   6.474
 3126SOL    HW210278   5.493   4.835   6.329
 3127SOL     OW10279   1.496   2.769   5.162
 3127SOL    HW110280   1.524   2.706   5.090
 3127SOL    HW210281   1.520   2.731   5.251
 3128SOL     OW10282   3.731   0.670   0.406
 3128SOL    HW110283   3.744   0.679   0.504
 3128SOL    HW210284   3.787   0.594   0.372
 3129SOL     OW10285   4.935   3.445   1.069
 3129SOL    HW110286   4.862   3.379   1.088
 3129SOL    HW210287   4.971   3.479   1.156
 3130SOL     OW10288   1.452   4.151   1.327
 3130SOL    HW110289   1.363   4.166   1.371
 3130SOL    HW210290   1.504   4.237   1.326
 3131SOL     OW10291   0.079   3.260   2.397
 3131SOL    HW110292   0.077   3.199   2.476
 3131SOL    HW210293   0.173   3.286   2.376
 3132SOL     OW10294   4.134   5.129   6.927
 3132SOL    HW110295   4.171   5.121   6.835
 3132SOL    HW210296   4.209   5.129   6.994
 3133SOL     OW10297   3.675   1.476   3.274
 3133SOL    HW110298   3.678   1.527   3.188
 3133SOL    HW210299   3.642   1.536   3.347
 3134SOL     OW10300   3.806   5.063   1.800
 3134SOL    HW110301   3.817   4.966   1.818
 3134SOL    HW210302   3.879   5.115   1.844
 3135SOL     OW10303   5.212   6.558   6.460
 3135SOL    HW110304   5.303   6.549   6.420
 3135SOL    HW210305   5.194   6.479   6.519
 3136SOL     OW10306   5.819   0.409   1.750
 3136SOL    HW110307   5.789   0.503   1.761
 3136SOL    HW210308   5.882   0.385   1.824
 3137SOL     OW10309   6.615   6.817   2.459
 3137SOL    HW110310   6.541   6.822   2.526
 3137SOL    HW210311   6.578   6.827   2.367
 3138SOL     OW10312   6.347   5.387   3.484
 3138SOL    HW110313   6.347   5.356   3.389
 3138SOL    HW210314   6.441   5.389   3.518
 3139SOL     OW10315   3.298   4.899   1.596
 3139SOL    HW110316   3.302   4.805   1.628
 3139SOL    HW210317   3.381   4.948   1.625
 3140SOL     OW10318   6.965   5.824   5.439
 3140SOL    HW110319   0.023   5.856   5.481
 3140SOL    HW210320   6.914   5.902   5.403
 3141SOL     OW10321   6.982   0.697   6.673
 3141SOL    HW110322   7.021   0.758   6.742
 3141SOL    HW210323   0.028   0.643   6.632
 3142SOL     OW10324   3.742   1.276   2.749
 3142SOL    HW110325   3.670   1.225   2.796
 3142SOL    HW210326   3.828   1.265   2.798
 3143SOL     OW10327   6.206   2.035   6.685
 3143SOL    HW110328   6.180   2.130   6.702
 3143SOL    HW210329   6.245   2.027   6.593
 3144SOL     OW10330   4.078   3.671   0.150
 3144SOL    HW110331   4.089   3.571   0.153
 3144SOL    HW210332   4.149   3.710   0.091
 3145SOL     OW10333   1.886   6.601   2.691
 3145SOL    HW110334   1.978   6.580   2.658
 3145SOL    HW210335   1.820   6.585   2.617
 3146SOL     OW10336   0.614   0.811   5.088
 3146SOL    HW110337   0.708   0.792   5.061
 3146SOL    HW210338   0.551   0.777   5.018
 3147SOL     OW10339   3.323   5.282   6.551
 3147SOL    HW110340   3.316   5.335   6.467
 3147SOL    HW210341   3.400   5.316   6.606
 3148SOL     OW10342   0.269   0.522   3.924
 3148SOL    HW110343   0.256   0.448   3.858
 3148SOL    HW210344   0.346   0.579   3.895
 3149SOL     OW10345   3.193   1.506   6.873
 3149SOL    HW110346   3.288   1.522   6.846
 3149SOL    HW210347   3.139   1.587   6.853
 3150SOL     OW10348   6.597   5.666   5.375
 3150SOL    HW110349   6.540   5.651   5.295
 3150SOL    HW210350   6.558   5.617   5.454
 3151SOL     OW10351   0.103   2.092   5.903
 3151SOL    HW110352   0.094   2.141   5.817
 3151SOL    HW210353   0.188   2.119   5.948
 3152SOL     OW10354   1.063   4.516   0.073
 3152SOL    HW110355   1.121   4.562   0.005
 3152SOL    HW210356   0.980   4.484   0.029
 3153SOL     OW10357   5.891   5.099   7.003
 3153SOL    HW110358   5.800   5.135   7.019
 3153SOL    HW210359   5.885   5.014   6.950
 3154SOL     OW10360   5.931   0.883   1.120
 3154SOL    HW110361   5.868   0.822   1.168
 3154SOL    HW210362   5.975   0.833   1.046
 3155SOL     OW10363   6.641   4.310   0.411
 3155SOL    HW110364   6.580   4.280   0.484
 3155SOL    HW210365   6.623   4.257   0.329
 3156SOL     OW10366   3.223   3.858   2.006
 3156SOL    HW110367   3.172   3.878   2.090
 3156SOL    HW210368   3.219   3.760   1.987
 3157SOL     OW10369   1.721   1.821   5.423
 3157SOL    HW110370   1.809   1.812   5.375
 3157SOL    HW210371   1.659   1.750   5.391
 3158SOL     OW10372   3.155   1.655   4.915
 3158SOL    HW110373   3.119   1.649   5.008
 3158SOL    HW210374   3.080   1.670   4.850
 3159SOL     OW10375   5.675   0.414   6.703
 3159SOL    HW110376   5.684   0.319   6.731
 3159SOL    HW210377   5.675   0.473   6.784
 3160SOL     OW10378   1.861   6.906   5.478
 3160SOL    HW110379   1.890   6.962   5.400
 3160SOL    HW210380   1.904   6.816   5.471
 3161SOL     OW10381   2.075   2.460   2.731
 3161SOL    HW110382   2.070   2.544   2.678
 3161SOL    HW210383   2.169   2.445   2.761
 3162SOL     OW10384   1.772   5.821   0.660
 3162SOL    HW110385   1.714   5.837   0.740
 3162SOL    HW210386   1.865   5.852   0.680
 3163SOL     OW10387   3.171   3.422   0.053
 3163SOL    HW110388   3.117   3.498   0.016
 3163SOL    HW210389   3.199   3.362   7.005
 3164SOL     OW10390   3.561   5.691   2.631
 3164SOL    HW110391   3.601   5.666   2.543
 3164SOL    HW210392   3.632   5.690   2.702
 3165SOL     OW10393   0.975   5.652   1.349
 3165SOL    HW110394   0.960   5.673   1.252
 3165SOL    HW210395   1.030   5.569   1.357
 3166SOL     OW10396   4.529   1.358   4.518
 3166SOL    HW110397   4.580   1.439   4.547
 3166SOL    HW210398   4.592   1.283   4.498
 3167SOL     OW10399   5.653   4.502   0.661
 3167SOL    HW110400   5.645   4.594   0.623
 3167SOL    HW210401   5.699   4.506   0.750
 3168SOL     OW10402   5.434   2.322   0.967
 3168SOL    HW110403   5.396   2.230   0.956
 3168SOL    HW210404   5.445   2.365   0.878
 3169SOL     OW10405   1.948   4.080   3.205
 3169SOL    HW110406   1.878   4.023   3.248
 3169SOL    HW210407   2.028   4.025   3.183
 3170SOL     OW10408   4.240   6.047   2.900
 3170SOL    HW110409   4.149   6.067   2.865
 3170SOL    HW210410   4.292   5.996   2.831
 3171SOL     OW10411   5.876   2.230   1.769
 3171SOL    HW110412   5.968   2.224   1.807
 3171SOL    HW210413   5.879   2.213   1.671
 3172SOL     OW10414   0.374   5.541   0.190
 3172SOL    HW110415   0.387   5.443   0.208
 3172SOL    HW210416   0.279   5.565   0.210
 3173SOL     OW10417   3.358   2.785   6.505
 3173SOL    HW110418   3.438   2.807   6.561
 3173SOL    HW210419   3.312   2.869   6.477
 3174SOL     OW10420   2.299   2.941   6.115
 3174SOL    HW110421   2.317   3.010   6.185
 3174SOL    HW210422   2.221   2.969   6.060
 3175SOL     OW10423   5.957   1.452   1.645
 3175SOL    HW110424   5.892   1.526   1.627
 3175SOL    HW210425   5.958   1.389   1.568
 3176SOL     OW10426   0.698   3.053   5.592
 3176SOL    HW110427   0.720   3.012   5.504
 3176SOL    HW210428   0.616   3.010   5.629
 3177SOL     OW10429   5.274   4.418   4.031
 3177SOL    HW110430   5.365   4.456   4.020
 3177SOL    HW210431   5.208   4.492   4.043
 3178SOL     OW10432   5.992   2.530   0.296
 3178SOL    HW110433   5.905   2.507   0.341
 3178SOL    HW210434   6.061   2.550   0.366
 3179SOL     OW10435   1.694   1.303   1.435
 3179SOL    HW110436   1.638   1.345   1.364
 3179SOL    HW210437   1.667   1.336   1.525
 3180SOL     OW10438   5.480   6.778   0.521
 3180SOL    HW110439   5.386   6.760   0.492
 3180SOL    HW210440   5.544   6.724   0.465
 3181SOL     OW10441   6.815   2.055   3.877
 3181SOL    HW110442   6.801   1.966   3.920
 3181SOL    HW210443   6.745   2.119   3.910
 3182SOL     OW10444   2.869   0.782   6.489
 3182SOL    HW110445   2.786   0.735   6.457
 3182SOL    HW210446   2.877   0.771   6.588
 3183SOL     OW10447   4.285   4.626   2.005
 3183SOL    HW110448   4.378   4.623   2.042
 3183SOL    HW210449   4.221   4.653   2.076
 3184SOL     OW10450   0.324   1.774   2.532
 3184SOL    HW110451   0.356   1.815   2.618
 3184SOL    HW210452   0.376   1.813   2.455
 3185SOL     OW10453   5.487   6.504   6.381
 3185SOL    HW110454   5.533   6.416   6.373
 3185SOL    HW210455   5.530   6.558   6.453
 3186SOL     OW10456   2.753   1.468   0.203
 3186SOL    HW110457   2.760   1.484   0.301
 3186SOL    HW210458   2.817   1.396   0.176
 3187SOL     OW10459   3.550   5.240   2.299
 3187SOL    HW110460   3.450   5.245   2.308
 3187SOL    HW210461   3.574   5.189   2.216
 3188SOL     OW10462   2.216   5.913   4.453
 3188SOL    HW110463   2.241   5.820   4.427
 3188SOL    HW210464   2.149   5.949   4.388
 3189SOL     OW10465   1.844   1.578   0.466
 3189SOL    HW110466   1.789   1.606   0.545
 3189SOL    HW210467   1.908   1.507   0.494
 3190SOL     OW10468   0.023   5.883   6.763
 3190SOL    HW110469   0.111   5.930   6.773
 3190SOL    HW210470   0.008   5.822   6.841
 3191SOL     OW10471   4.411   5.102   1.612
 3191SOL    HW110472   4.480   5.115   1.683
 3191SOL    HW210473   4.375   5.009   1.618
 3192SOL     OW10474   0.172   2.685   0.782
 3192SOL    HW110475   0.188   2.706   0.685
 3192SOL    HW210476   0.104   2.613   0.790
 3193SOL     OW10477   3.962   1.680   5.032
 3193SOL    HW110478   4.018   1.598   5.047
 3193SOL    HW210479   3.951   1.695   4.933
 3194SOL     OW10480   0.581   1.435   5.510
 3194SOL    HW110481   0.667   1.439   5.561
 3194SOL    HW210482   0.564   1.341   5.482
 3195SOL     OW10483   0.872   1.257   1.336
 3195SOL    HW110484   0.876   1.331   1.269
 3195SOL    HW210485   0.929   1.181   1.307
 3196SOL     OW10486   6.681   0.664   6.736
 3196SOL    HW110487   6.757   0.604   6.710
 3196SOL    HW210488   6.681   0.745   6.679
 3197SOL     OW10489   2.491   7.011   5.501
 3197SOL    HW110490   2.579   7.010   5.549
 3197SOL    HW210491   2.448   0.074   5.511
 3198SOL     OW10492   6.423   2.655   3.279
 3198SOL    HW110493   6.407   2.707   3.195
 3198SOL    HW210494   6.389   2.562   3.267
 3199SOL     OW10495   5.440   4.752   2.889
 3199SOL    HW110496   5.407   4.829   2.944
 3199SOL    HW210497   5.527   4.719   2.927
 3200SOL     OW10498   5.651   2.710   2.902
 3200SOL    HW110499   5.619   2.631   2.849
 3200SOL    HW210500   5.580   2.737   2.968
 3201SOL     OW10501   6.487   4.867   3.063
 3201SOL    HW110502   6.393   4.835   3.065
 3201SOL    HW210503   6.491   4.963   3.093
 3202SOL     OW10504   0.831   5.094   0.602
 3202SOL    HW110505   0.875   5.184   0.603
 3202SOL    HW210506   0.887   5.028   0.652
 3203SOL     OW10507   5.628   1.736   1.271
 3203SOL    HW110508   5.660   1.674   1.343
 3203SOL    HW210509   5.700   1.801   1.249
 3204SOL     OW10510   3.545   0.711   3.329
 3204SOL    HW110511   3.456   0.755   3.337
 3204SOL    HW210512   3.541   0.620   3.372
 3205SOL     OW10513   5.060   2.907   5.843
 3205SOL    HW110514   5.093   3.001   5.834
 3205SOL    HW210515   4.962   2.907   5.862
 3206SOL     OW10516   1.953   3.779   1.080
 3206SOL    HW110517   1.929   3.692   1.124
 3206SOL    HW210518   1.902   3.789   0.995
 3207SOL     OW10519   1.501   0.788   6.685
 3207SOL    HW110520   1.464   0.698   6.710
 3207SOL    HW210521   1.504   0.847   6.766
 3208SOL     OW10522   5.371   6.267   6.293
 3208SOL    HW110523   5.354   6.366   6.285
 3208SOL    HW210524   5.455   6.244   6.244
 3209SOL     OW10525   3.094   5.227   4.678
 3209SOL    HW110526   3.079   5.212   4.580
 3209SOL    HW210527   3.006   5.241   4.724
 3210SOL     OW10528   1.105   5.054   1.219
 3210SOL    HW110529   1.029   5.114   1.196
 3210SOL    HW210530   1.071   4.961   1.233
 3211SOL     OW10531   2.063   4.285   0.608
 3211SOL    HW110532   2.073   4.191   0.577
 3211SOL    HW210533   2.150   4.333   0.597
 3212SOL     OW10534   3.475   6.856   2.555
 3212SOL    HW110535   3.406   6.860   2.628
 3212SOL    HW210536   3.431   6.875   2.467
 3213SOL     OW10537   1.399   0.521   6.731
 3213SOL    HW110538   1.415   0.495   6.635
 3213SOL    HW210539   1.339   0.453   6.774
 3214SOL     OW10540   4.919   5.552   2.601
 3214SOL    HW110541   4.872   5.495   2.669
 3214SOL    HW210542   4.857   5.570   2.525
 3215SOL     OW10543   0.437   3.726   0.630
 3215SOL    HW110544   0.481   3.655   0.574
 3215SOL    HW210545   0.342   3.736   0.601
 3216SOL     OW10546   5.566   5.365   0.897
 3216SOL    HW110547   5.471   5.359   0.927
 3216SOL    HW210548   5.590   5.284   0.843
 3217SOL     OW10549   0.262   5.129   2.749
 3217SOL    HW110550   0.233   5.035   2.771
 3217SOL    HW210551   0.304   5.130   2.659
 3218SOL     OW10552   5.537   2.483   3.244
 3218SOL    HW110553   5.607   2.418   3.271
 3218SOL    HW210554   5.543   2.565   3.301
 3219SOL     OW10555   6.951   0.657   4.354
 3219SOL    HW110556   6.882   0.585   4.362
 3219SOL    HW210557   6.908   0.746   4.371
 3220SOL     OW10558   0.298   5.721   6.270
 3220SOL    HW110559   0.204   5.710   6.237
 3220SOL    HW210560   0.298   5.728   6.369
 3221SOL     OW10561   3.408   0.236   2.441
 3221SOL    HW110562   3.503   0.206   2.440
 3221SOL    HW210563   3.394   0.300   2.517
 3222SOL     OW10564   2.703   1.489   2.684
 3222SOL    HW110565   2.756   1.552   2.627
 3222SOL    HW210566   2.762   1.448   2.753
 3223SOL     OW10567   2.487   6.752   0.151
 3223SOL    HW110568   2.571   6.698   0.159
 3223SOL    HW210569   2.477   6.808   0.233
 3224SOL     OW10570   4.970   2.737   5.095
 3224SOL    HW110571   4.991   2.655   5.043
 3224SOL    HW210572   4.871   2.747   5.104
 3225SOL     OW10573   4.537   1.654   5.456
 3225SOL    HW110574   4.446   1.689   5.479
 3225SOL    HW210575   4.573   1.602   5.533
 3226SOL     OW10576   2.304   1.104   2.127
 3226SOL    HW110577   2.212   1.102   2.167
 3226SOL    HW210578   2.322   1.196   2.090
 3227SOL     OW10579   3.388   3.537   6.830
 3227SOL    HW110580   3.472   3.519   6.780
 3227SOL    HW210581   3.407   3.541   6.928
 3228SOL     OW10582   6.690   3.663   1.011
 3228SOL    HW110583   6.768   3.705   1.057
 3228SOL    HW210584   6.699   3.563   1.014
 3229SOL     OW10585   3.934   0.829   5.848
 3229SOL    HW110586   3.945   0.737   5.811
 3229SOL    HW210587   4.021   0.878   5.841
 3230SOL     OW10588   2.179   5.620   6.018
 3230SOL    HW110589   2.278   5.627   6.026
 3230SOL    HW210590   2.153   5.614   5.921
 3231SOL     OW10591   2.701   0.531   2.560
 3231SOL    HW110592   2.763   0.499   2.488
 3231SOL    HW210593   2.627   0.583   2.519
 3232SOL     OW10594   4.043   6.094   4.166
 3232SOL    HW110595   4.117   6.077   4.230
 3232SOL    HW210596   4.058   6.180   4.118
 3233SOL     OW10597   6.809   2.473   0.237
 3233SOL    HW110598   6.859   2.434   0.160
 3233SOL    HW210599   6.769   2.561   0.210
 3234SOL     OW10600   0.819   2.818   0.252
 3234SOL    HW110601   0.759   2.740   0.234
 3234SOL    HW210602   0.832   2.870   0.168
 3235SOL     OW10603   6.450   0.238   1.784
 3235SOL    HW110604   6.491   0.182   1.713
 3235SOL    HW210605   6.521   0.279   1.841
 3236SOL     OW10606   0.803   4.087   0.734
 3236SOL    HW110607   0.902   4.087   0.722
 3236SOL    HW210608   0.766   4.000   0.702
 3237SOL     OW10609   5.829   1.259   2.651
 3237SOL    HW110610   5.814   1.339   2.710
 3237SOL    HW210611   5.905   1.205   2.687
 3238SOL     OW10612   5.929   5.544   0.113
 3238SOL    HW110613   5.929   5.602   0.031
 3238SOL    HW210614   5.840   5.499   0.121
 3239SOL     OW10615   0.435   0.816   3.012
 3239SOL    HW110616   0.416   0.838   2.917
 3239SOL    HW210617   0.357   0.842   3.069
 3240SOL     OW10618   6.969   0.310   6.213
 3240SOL    HW110619   0.014   0.241   6.204
 3240SOL    HW210620   6.896   0.276   6.273
 3241SOL     OW10621   4.919   1.542   5.626
 3241SOL    HW110622   4.966   1.630   5.631
 3241SOL    HW210623   4.943   1.486   5.705
 3242SOL     OW10624   4.474   3.688   6.115
 3242SOL    HW110625   4.451   3.741   6.196
 3242SOL    HW210626   4.567   3.653   6.123
 3243SOL     OW10627   4.277   5.119   0.187
 3243SOL    HW110628   4.330   5.074   0.259
 3243SOL    HW210629   4.309   5.213   0.175
 3244SOL     OW10630   5.465   6.144   6.874
 3244SOL    HW110631   5.516   6.074   6.824
 3244SOL    HW210632   5.529   6.201   6.925
 3245SOL     OW10633   4.819   1.619   4.383
 3245SOL    HW110634   4.887   1.554   4.346
 3245SOL    HW210635   4.820   1.703   4.329
 3246SOL     OW10636   6.868   6.949   2.809
 3246SOL    HW110637   6.790   6.980   2.755
 3246SOL    HW210638   6.882   6.851   2.795
 3247SOL     OW10639   5.851   4.345   2.032
 3247SOL    HW110640   5.930   4.286   2.050
 3247SOL    HW210641   5.822   4.333   1.937
 3248SOL     OW10642   5.613   2.440   2.579
 3248SOL    HW110643   5.524   2.486   2.580
 3248SOL    HW210644   5.654   2.449   2.488
 3249SOL     OW10645   3.373   3.949   3.499
 3249SOL    HW110646   3.283   3.980   3.530
 3249SOL    HW210647   3.361   3.878   3.430
 3250SOL     OW10648   5.526   0.191   2.473
 3250SOL    HW110649   5.615   0.182   2.428
 3250SOL    HW210650   5.540   0.222   2.567
 3251SOL     OW10651   3.681   0.966   3.928
 3251SOL    HW110652   3.673   1.028   4.005
 3251SOL    HW210653   3.761   0.906   3.942
 3252SOL     OW10654   2.980   0.762   2.429
 3252SOL    HW110655   2.897   0.771   2.485
 3252SOL    HW210656   3.056   0.809   2.474
 3253SOL     OW10657   4.233   3.738   0.451
 3253SOL    HW110658   4.164   3.731   0.378
 3253SOL    HW210659   4.189   3.764   0.537
 3254SOL     OW10660   5.151   6.412   6.912
 3254SOL    HW110661   5.233   6.467   6.895
 3254SOL    HW210662   5.091   6.417   6.832
 3255SOL     OW10663   4.660   6.494   1.305
 3255SOL    HW110664   4.594   6.568   1.290
 3255SOL    HW210665   4.752   6.528   1.287
 3256SOL     OW10666   3.659   1.768   1.178
 3256SOL    HW110667   3.666   1.711   1.259
 3256SOL    HW210668   3.583   1.832   1.188
 3257SOL     OW10669   1.643   1.445   1.657
 3257SOL    HW110670   1.546   1.459   1.637
 3257SOL    HW210671   1.664   1.484   1.747
 3258SOL     OW10672   4.145   5.514   3.533
 3258SOL    HW110673   4.097   5.587   3.484
 3258SOL    HW210674   4.094   5.492   3.617
 3259SOL     OW10675   4.807   5.047   4.282
 3259SOL    HW110676   4.830   5.033   4.378
 3259SOL    HW210677   4.890   5.069   4.231
 3260SOL     OW10678   1.673   3.300   1.645
 3260SOL    HW110679   1.702   3.307   1.741
 3260SOL    HW210680   1.754   3.298   1.587
 3261SOL     OW10681   5.352   0.860   1.297
 3261SOL    HW110682   5.279   0.813   1.246
 3261SOL    HW210683   5.346   0.836   1.394
 3262SOL     OW10684   3.968   2.141   2.026
 3262SOL    HW110685   4.032   2.189   1.965
 3262SOL    HW210686   3.879   2.186   2.023
 3263SOL     OW10687   3.243   1.627   2.967
 3263SOL    HW110688   3.301   1.561   2.918
 3263SOL    HW210689   3.238   1.602   3.064
 3264SOL     OW10690   2.501   5.683   0.814
 3264SOL    HW110691   2.456   5.595   0.798
 3264SOL    HW210692   2.432   5.756   0.814
 3265SOL     OW10693   5.436   0.011   6.532
 3265SOL    HW110694   5.482   7.024   6.444
 3265SOL    HW210695   5.399   6.951   6.565
 3266SOL     OW10696   2.892   5.006   6.707
 3266SOL    HW110697   2.811   5.064   6.714
 3266SOL    HW210698   2.923   4.982   6.799
 3267SOL     OW10699   3.233   6.741   2.314
 3267SOL    HW110700   3.181   6.769   2.395
 3267SOL    HW210701   3.175   6.685   2.255
 3268SOL     OW10702   2.250   4.180   1.231
 3268SOL    HW110703   2.337   4.145   1.266
 3268SOL    HW210704   2.194   4.103   1.200
 3269SOL     OW10705   6.610   5.773   1.974
 3269SOL    HW110706   6.603   5.700   2.043
 3269SOL    HW210707   6.631   5.859   2.019
 3270SOL     OW10708   1.573   3.636   6.588
 3270SOL    HW110709   1.658   3.642   6.641
 3270SOL    HW210710   1.587   3.576   6.509
 3271SOL     OW10711   6.997   2.947   1.374
 3271SOL    HW110712   0.058   2.904   1.350
 3271SOL    HW210713   7.005   2.988   1.466
 3272SOL     OW10714   2.946   4.331   6.155
 3272SOL    HW110715   2.859   4.296   6.187
 3272SOL    HW210716   3.020   4.270   6.184
 3273SOL     OW10717   6.406   4.903   6.989
 3273SOL    HW110718   6.325   4.846   7.002
 3273SOL    HW210719   6.381   4.983   6.933
 3274SOL     OW10720   5.921   0.529   0.538
 3274SOL    HW110721   5.831   0.573   0.536
 3274SOL    HW210722   5.924   0.463   0.613
 3275SOL     OW10723   4.907   1.014   7.023
 3275SOL    HW110724   4.882   1.006   0.092
 3275SOL    HW210725   4.871   1.100   6.986
 3276SOL     OW10726   4.469   6.448   6.542
 3276SOL    HW110727   4.542   6.381   6.531
 3276SOL    HW210728   4.457   6.498   6.456
 3277SOL     OW10729   3.603   0.828   1.214
 3277SOL    HW110730   3.675   0.898   1.220
 3277SOL    HW210731   3.576   0.817   1.118
 3278SOL     OW10732   1.328   0.732   5.850
 3278SOL    HW110733   1.310   0.821   5.807
 3278SOL    HW210734   1.247   0.704   5.902
 3279SOL     OW10735   5.624   0.229   0.471
 3279SOL    HW110736   5.607   0.196   0.378
 3279SOL    HW210737   5.607   0.154   0.535
 3280SOL     OW10738   5.006   4.931   5.223
 3280SOL    HW110739   4.953   4.853   5.190
 3280SOL    HW210740   5.036   4.986   5.145
 3281SOL     OW10741   0.911   4.996   0.853
 3281SOL    HW110742   0.980   4.925   0.865
 3281SOL    HW210743   0.956   5.084   0.841
 3282SOL     OW10744   6.782   5.074   5.192
 3282SOL    HW110745   6.792   5.150   5.256
 3282SOL    HW210746   6.695   5.027   5.210
 3283SOL     OW10747   3.338   1.386   1.282
 3283SOL    HW110748   3.280   1.442   1.223
 3283SOL    HW210749   3.432   1.388   1.249
 3284SOL     OW10750   1.370   6.009   5.487
 3284SOL    HW110751   1.446   6.017   5.423
 3284SOL    HW210752   1.349   5.912   5.503
 3285SOL     OW10753   4.536   2.151   4.773
 3285SOL    HW110754   4.520   2.154   4.675
 3285SOL    HW210755   4.632   2.128   4.791
 3286SOL     OW10756   3.371   2.767   1.742
 3286SOL    HW110757   3.357   2.668   1.737
 3286SOL    HW210758   3.434   2.788   1.817
 3287SOL     OW10759   0.445   6.947   0.180
 3287SOL    HW110760   0.409   6.995   0.100
 3287SOL    HW210761   0.368   6.918   0.238
 3288SOL     OW10762   1.856   6.863   0.407
 3288SOL    HW110763   1.942   6.818   0.430
 3288SOL    HW210764   1.852   6.880   0.308
 3289SOL     OW10765   2.821   1.552   6.140
 3289SOL    HW110766   2.876   1.633   6.120
 3289SOL    HW210767   2.749   1.543   6.071
 3290SOL     OW10768   6.620   5.101   0.606
 3290SOL    HW110769   6.638   5.005   0.584
 3290SOL    HW210770   6.538   5.108   0.662
 3291SOL     OW10771   2.096   1.592   6.013
 3291SOL    HW110772   2.167   1.521   6.006
 3291SOL    HW210773   2.008   1.549   6.033
 3292SOL     OW10774   0.002   1.124   0.575
 3292SOL    HW110775   6.949   1.173   0.541
 3292SOL    HW210776   0.084   1.181   0.564
 3293SOL     OW10777   6.475   4.502   1.594
 3293SOL    HW110778   6.563   4.456   1.586
 3293SOL    HW210779   6.479   4.569   1.669
 3294SOL     OW10780   5.296   2.853   6.448
 3294SOL    HW110781   5.384   2.889   6.419
 3294SOL    HW210782   5.235   2.844   6.370
 3295SOL     OW10783   0.881   2.992   1.902
 3295SOL    HW110784   0.885   2.893   1.899
 3295SOL    HW210785   0.970   3.029   1.928
 3296SOL     OW10786   1.133   0.734   2.862
 3296SOL    HW110787   1.091   0.813   2.817
 3296SOL    HW210788   1.069   0.697   2.930
 3297SOL     OW10789   2.761   1.312   5.389
 3297SOL    HW110790   2.812   1.268   5.315
 3297SOL    HW210791   2.691   1.372   5.350
 3298SOL     OW10792   6.846   2.680   5.715
 3298SOL    HW110793   6.796   2.650   5.634
 3298SOL    HW210794   6.843   2.780   5.722
 3299SOL     OW10795   3.801   6.051   2.815
 3299SOL    HW110796   3.883   6.097   2.785
 3299SOL    HW210797   3.809   5.953   2.797
 3300SOL     OW10798   1.269   0.368   6.021
 3300SOL    HW110799   1.324   0.373   6.104
 3300SOL    HW210800   1.230   0.458   6.001
 3301SOL     OW10801   1.900   2.927   3.631
 3301SOL    HW110802   1.846   2.919   3.547
 3301SOL    HW210803   1.989   2.968   3.609
 3302SOL     OW10804   0.612   4.634   5.217
 3302SOL    HW110805   0.661   4.694   5.281
 3302SOL    HW210806   0.577   4.688   5.141
 3303SOL     OW10807   3.014   3.579   0.296
 3303SOL    HW110808   2.999   3.647   0.224
 3303SOL    HW210809   3.084   3.613   0.359
 3304SOL     OW10810   1.848   5.168   6.271
 3304SOL    HW110811   1.770   5.230   6.276
 3304SOL    HW210812   1.923   5.213   6.222
 3305SOL     OW10813   2.548   1.599   2.203
 3305SOL    HW110814   2.637   1.562   2.233
 3305SOL    HW210815   2.490   1.616   2.283
 3306SOL     OW10816   1.377   5.074   4.479
 3306SOL    HW110817   1.433   5.102   4.401
 3306SOL    HW210818   1.367   5.150   4.543
 3307SOL     OW10819   0.958   6.821   5.789
 3307SOL    HW110820   1.048   6.821   5.745
 3307SOL    HW210821   0.967   6.852   5.883
 3308SOL     OW10822   3.275   5.461   1.471
 3308SOL    HW110823   3.367   5.461   1.510
 3308SOL    HW210824   3.222   5.385   1.509
 3309SOL     OW10825   6.912   4.928   3.832
 3309SOL    HW110826   6.992   4.961   3.881
 3309SOL    HW210827   6.875   4.847   3.879
 3310SOL     OW10828   6.719   4.310   4.739
 3310SOL    HW110829   6.794   4.347   4.684
 3310SOL    HW210830   6.650   4.381   4.752
 3311SOL     OW10831   3.307   4.222   0.541
 3311SOL    HW110832   3.308   4.128   0.574
 3311SOL    HW210833   3.280   4.283   0.616
 3312SOL     OW10834   3.938   3.799   5.789
 3312SOL    HW110835   4.006   3.743   5.742
 3312SOL    HW210836   3.984   3.871   5.842
 3313SOL     OW10837   1.166   6.877   3.859
 3313SOL    HW110838   1.066   6.867   3.854
 3313SOL    HW210839   1.208   6.834   3.779
 3314SOL     OW10840   2.540   1.312   2.556
 3314SOL    HW110841   2.593   1.272   2.480
 3314SOL    HW210842   2.599   1.376   2.606
 3315SOL     OW10843   0.284   3.950   4.600
 3315SOL    HW110844   0.223   3.971   4.524
 3315SOL    HW210845   0.231   3.941   4.684
 3316SOL     OW10846   4.339   0.921   5.244
 3316SOL    HW110847   4.434   0.890   5.241
 3316SOL    HW210848   4.298   0.912   5.153
 3317SOL     OW10849   4.996   2.600   2.209
 3317SOL    HW110850   4.989   2.586   2.308
 3317SOL    HW210851   4.987   2.512   2.162
 3318SOL     OW10852   1.789   1.583   0.799
 3318SOL    HW110853   1.846   1.501   0.802
 3318SOL    HW210854   1.727   1.583   0.877
 3319SOL     OW10855   5.646   1.193   3.848
 3319SOL    HW110856   5.546   1.196   3.846
 3319SOL    HW210857   5.676   1.098   3.850
 3320SOL     OW10858   5.800   1.184   0.398
 3320SOL    HW110859   5.856   1.242   0.340
 3320SOL    HW210860   5.747   1.121   0.341
 3321SOL     OW10861   5.540   1.810   0.557
 3321SOL    HW110862   5.561   1.908   0.556
 3321SOL    HW210863   5.450   1.796   0.516
 3322SOL     OW10864   6.691   2.699   1.467
 3322SOL    HW110865   6.691   2.628   1.538
 3322SOL    HW210866   6.677   2.788   1.509
 3323SOL     OW10867   2.311   2.906   0.230
 3323SOL    HW110868   2.221   2.881   0.266
 3323SOL    HW210869   2.360   2.823   0.201
 3324SOL     OW10870   3.978   4.891   6.346
 3324SOL    HW110871   3.884   4.861   6.363
 3324SOL    HW210872   4.042   4.819   6.372
 3325SOL     OW10873   0.076   4.025   0.223
 3325SOL    HW110874   0.060   4.113   0.179
 3325SOL    HW210875   0.168   4.024   0.262
 3326SOL     OW10876   4.820   1.766   1.654
 3326SOL    HW110877   4.849   1.856   1.686
 3326SOL    HW210878   4.774   1.717   1.729
 3327SOL     OW10879   3.115   5.415   1.893
 3327SOL    HW110880   3.195   5.393   1.949
 3327SOL    HW210881   3.137   5.491   1.831
 3328SOL     OW10882   3.828   1.924   0.784
 3328SOL    HW110883   3.883   1.844   0.756
 3328SOL    HW210884   3.770   1.952   0.708
 3329SOL     OW10885   5.756   0.387   5.525
 3329SOL    HW110886   5.838   0.336   5.551
 3329SOL    HW210887   5.719   0.435   5.604
 3330SOL     OW10888   6.239   3.680   1.611
 3330SOL    HW110889   6.189   3.754   1.566
 3330SOL    HW210890   6.305   3.640   1.547
 3331SOL     OW10891   2.319   3.268   1.605
 3331SOL    HW110892   2.336   3.354   1.654
 3331SOL    HW210893   2.395   3.206   1.620
 3332SOL     OW10894   5.726   5.934   0.218
 3332SOL    HW110895   5.752   6.031   0.210
 3332SOL    HW210896   5.774   5.893   0.295
 3333SOL     OW10897   3.612   5.897   6.395
 3333SOL    HW110898   3.688   5.833   6.409
 3333SOL    HW210899   3.610   5.926   6.299
 3334SOL     OW10900   3.256   3.729   1.348
 3334SOL    HW110901   3.172   3.783   1.343
 3334SOL    HW210902   3.252   3.668   1.427
 3335SOL     OW10903   4.746   5.150   5.562
 3335SOL    HW110904   4.767   5.233   5.510
 3335SOL    HW210905   4.831   5.108   5.593
 3336SOL     OW10906   2.927   5.473   4.920
 3336SOL    HW110907   2.904   5.377   4.933
 3336SOL    HW210908   3.026   5.484   4.914
 3337SOL     OW10909   3.128   3.011   2.196
 3337SOL    HW110910   3.041   2.968   2.219
 3337SOL    HW210911   3.200   2.975   2.256
 3338SOL     OW10912   5.865   2.961   0.980
 3338SOL    HW110913   5.786   2.929   1.032
 3338SOL    HW210914   5.940   2.981   1.044
 3339SOL     OW10915   6.562   0.397   6.581
 3339SOL    HW110916   6.480   0.344   6.560
 3339SOL    HW210917   6.632   0.379   6.512
 3340SOL     OW10918   3.705   0.323   1.237
 3340SOL    HW110919   3.711   0.338   1.138
 3340SOL    HW210920   3.664   0.403   1.280
 3341SOL     OW10921   1.407   6.163   3.960
 3341SOL    HW110922   1.467   6.091   3.993
 3341SOL    HW210923   1.315   6.127   3.948
 3342SOL     OW10924   2.746   6.691   4.428
 3342SOL    HW110925   2.760   6.680   4.526
 3342SOL    HW210926   2.791   6.617   4.378
 3343SOL     OW10927   4.691   3.125   0.734
 3343SOL    HW110928   4.607   3.125   0.680
 3343SOL    HW210929   4.672   3.086   0.825
 3344SOL     OW10930   6.280   3.698   4.510
 3344SOL    HW110931   6.294   3.618   4.452
 3344SOL    HW210932   6.229   3.671   4.592
 3345SOL     OW10933   1.434   3.739   5.467
 3345SOL    HW110934   1.348   3.717   5.422
 3345SOL    HW210935   1.467   3.828   5.435
 3346SOL     OW10936   1.645   1.010   0.977
 3346SOL    HW110937   1.624   0.923   0.932
 3346SOL    HW210938   1.736   1.004   1.019
 3347SOL     OW10939   0.656   4.404   3.491
 3347SOL    HW110940   0.711   4.476   3.450
 3347SOL    HW210941   0.644   4.329   3.426
 3348SOL     OW10942   3.122   3.030   3.222
 3348SOL    HW110943   3.079   2.940   3.227
 3348SOL    HW210944   3.153   3.057   3.314
 3349SOL     OW10945   0.988   4.851   4.461
 3349SOL    HW110946   0.890   4.833   4.475
 3349SOL    HW210947   0.998   4.927   4.397
 3350SOL     OW10948   1.129   2.120   6.498
 3350SOL    HW110949   1.148   2.189   6.568
 3350SOL    HW210950   1.033   2.125   6.472
 3351SOL     OW10951   5.499   6.940   2.591
 3351SOL    HW110952   5.422   6.972   2.647
 3351SOL    HW210953   5.528   7.015   2.531
 3352SOL     OW10954   0.233   3.388   0.425
 3352SOL    HW110955   0.231   3.485   0.401
 3352SOL    HW210956   0.294   3.375   0.503
 3353SOL     OW10957   1.423   6.107   2.190
 3353SOL    HW110958   1.507   6.158   2.205
 3353SOL    HW210959   1.361   6.121   2.268
 3354SOL     OW10960   5.474   2.652   4.375
 3354SOL    HW110961   5.443   2.747   4.373
 3354SOL    HW210962   5.395   2.591   4.373
 3355SOL     OW10963   1.368   1.458   6.922
 3355SOL    HW110964   1.291   1.488   6.979
 3355SOL    HW210965   1.421   1.538   6.893
 3356SOL     OW10966   2.081   3.544   6.388
 3356SOL    HW110967   2.051   3.550   6.293
 3356SOL    HW210968   2.180   3.558   6.393
 3357SOL     OW10969   2.721   4.805   1.848
 3357SOL    HW110970   2.789   4.751   1.898
 3357SOL    HW210971   2.746   4.902   1.852
 3358SOL     OW10972   4.805   0.260   1.303
 3358SOL    HW110973   4.770   0.304   1.221
 3358SOL    HW210974   4.905   0.256   1.298
 3359SOL     OW10975   6.656   0.280   4.036
 3359SOL    HW110976   6.652   0.196   4.089
 3359SOL    HW210977   6.747   0.321   4.045
 3360SOL     OW10978   0.026   0.956   0.243
 3360SOL    HW110979   0.086   0.909   0.307
 3360SOL    HW210980   7.017   0.891   0.176
 3361SOL     OW10981   0.401   5.247   2.264
 3361SOL    HW110982   0.475   5.306   2.234
 3361SOL    HW210983   0.420   5.215   2.357
 3362SOL     OW10984   4.103   1.599   4.161
 3362SOL    HW110985   4.188   1.598   4.215
 3362SOL    HW210986   4.124   1.572   4.067
 3363SOL     OW10987   0.769   0.062   6.986
 3363SOL    HW110988   0.721   7.010   6.947
 3363SOL    HW210989   0.865   0.037   7.002
 3364SOL     OW10990   1.230   4.169   4.388
 3364SOL    HW110991   1.262   4.075   4.384
 3364SOL    HW210992   1.151   4.175   4.449
 3365SOL     OW10993   0.334   2.455   4.999
 3365SOL    HW110994   0.349   2.508   5.083
 3365SOL    HW210995   0.252   2.399   5.009
 3366SOL     OW10996   6.135   0.438   5.968
 3366SOL    HW110997   6.189   0.514   5.932
 3366SOL    HW210998   6.048   0.472   6.003
 3367SOL     OW10999   2.074   3.046   1.572
 3367SOL    HW111000   2.120   2.960   1.593
 3367SOL    HW211001   2.138   3.122   1.586
 3368SOL     OW11002   0.699   5.787   6.355
 3368SOL    HW111003   0.709   5.827   6.447
 3368SOL    HW211004   0.756   5.838   6.291
 3369SOL     OW11005   3.574   2.251   6.035
 3369SOL    HW111006   3.662   2.203   6.032
 3369SOL    HW211007   3.579   2.332   5.977
 3370SOL     OW11008   6.806   6.161   5.789
 3370SOL    HW111009   6.806   6.237   5.724
 3370SOL    HW211010   6.778   6.077   5.742
 3371SOL     OW11011   0.632   4.323   2.458
 3371SOL    HW111012   0.658   4.381   2.380
 3371SOL    HW211013   0.532   4.318   2.463
 3372SOL     OW11014   1.172   1.705   1.788
 3372SOL    HW111015   1.109   1.655   1.729
 3372SOL    HW211016   1.215   1.642   1.852
 3373SOL     OW11017   6.189   1.264   3.201
 3373SOL    HW111018   6.111   1.321   3.227
 3373SOL    HW211019   6.180   1.240   3.104
 3374SOL     OW11020   2.573   5.387   4.521
 3374SOL    HW111021   2.474   5.384   4.509
 3374SOL    HW211022   2.599   5.469   4.571
 3375SOL     OW11023   4.535   4.980   5.681
 3375SOL    HW111024   4.599   5.031   5.624
 3375SOL    HW211025   4.548   5.005   5.777
 3376SOL     OW11026   4.004   3.529   2.829
 3376SOL    HW111027   4.041   3.519   2.921
 3376SOL    HW211028   4.065   3.587   2.775
 3377SOL     OW11029   0.084   6.089   4.324
 3377SOL    HW111030   0.131   6.003   4.303
 3377SOL    HW211031   0.070   6.141   4.240
 3378SOL     OW11032   6.219   0.588   0.656
 3378SOL    HW111033   6.299   0.614   0.602
 3378SOL    HW211034   6.140   0.576   0.596
 3379SOL     OW11035   6.862   5.134   6.012
 3379SOL    HW111036   6.874   5.118   5.914
 3379SOL    HW211037   6.873   5.049   6.062
 3380SOL     OW11038   6.093   6.135   6.052
 3380SOL    HW111039   6.094   6.125   6.151
 3380SOL    HW211040   6.073   6.230   6.029
 3381SOL     OW11041   1.160   2.659   0.837
 3381SOL    HW111042   1.241   2.718   0.836
 3381SOL    HW211043   1.186   2.568   0.870
 3382SOL     OW11044   1.078   0.842   0.385
 3382SOL    HW111045   1.026   0.765   0.349
 3382SOL    HW211046   1.176   0.824   0.373
 3383SOL     OW11047   4.470   5.607   3.149
 3383SOL    HW111048   4.402   5.610   3.076
 3383SOL    HW211049   4.561   5.595   3.111
 3384SOL     OW11050   2.905   3.231   5.135
 3384SOL    HW111051   2.822   3.231   5.191
 3384SOL    HW211052   2.983   3.200   5.190
 3385SOL     OW11053   0.308   3.744   3.779
 3385SOL    HW111054   0.381   3.686   3.741
 3385SOL    HW211055   0.330   3.767   3.874
 3386SOL     OW11056   6.890   3.588   6.074
 3386SOL    HW111057   6.892   3.488   6.067
 3386SOL    HW211058   6.925   3.616   6.163
 3387SOL     OW11059   3.050   0.836   2.893
 3387SOL    HW111060   3.017   0.804   2.804
 3387SOL    HW211061   3.072   0.757   2.951
 3388SOL     OW11062   6.343   3.164   1.815
 3388SOL    HW111063   6.246   3.149   1.796
 3388SOL    HW211064   6.380   3.229   1.749
 3389SOL     OW11065   4.734   4.976   4.890
 3389SOL    HW111066   4.714   4.907   4.960
 3389SOL    HW211067   4.791   5.048   4.928
 3390SOL     OW11068   5.610   4.831   5.943
 3390SOL    HW111069   5.586   4.920   5.906
 3390SOL    HW211070   5.710   4.823   5.949
 3391SOL     OW11071   5.539   2.785   4.628
 3391SOL    HW111072   5.588   2.719   4.570
 3391SOL    HW211073   5.549   2.877   4.590
 3392SOL     OW11074   2.747   0.439   3.555
 3392SOL    HW111075   2.675   0.447   3.487
 3392SOL    HW211076   2.705   0.424   3.645
 3393SOL     OW11077   0.314   6.344   0.630
 3393SOL    HW111078   0.342   6.379   0.540
 3393SOL    HW211079   0.224   6.302   0.622
 3394SOL     OW11080   6.065   3.313   0.926
 3394SOL    HW111081   6.034   3.294   1.019
 3394SOL    HW211082   6.117   3.235   0.892
 3395SOL     OW11083   6.129   3.171   3.690
 3395SOL    HW111084   6.045   3.139   3.645
 3395SOL    HW211085   6.133   3.133   3.783
 3396SOL     OW11086   6.244   2.079   3.422
 3396SOL    HW111087   6.287   2.000   3.465
 3396SOL    HW211088   6.152   2.055   3.391
 3397SOL     OW11089   2.999   1.378   5.540
 3397SOL    HW111090   2.924   1.409   5.482
 3397SOL    HW211091   2.977   1.397   5.636
 3398SOL     OW11092   1.642   6.891   4.001
 3398SOL    HW111093   1.653   6.869   3.904
 3398SOL    HW211094   1.670   6.812   4.056
 3399SOL     OW11095   5.354   4.767   5.059
 3399SOL    HW111096   5.261   4.740   5.035
 3399SOL    HW211097   5.410   4.769   4.976
 3400SOL     OW11098   4.448   1.819   5.677
 3400SOL    HW111099   4.454   1.919   5.683
 3400SOL    HW211100   4.357   1.793   5.643
 3401SOL     OW11101   6.763   3.654   1.373
 3401SOL    HW111102   6.796   3.734   1.323
 3401SOL    HW211103   6.781   3.571   1.320
 3402SOL     OW11104   4.327   6.464   0.730
 3402SOL    HW111105   4.293   6.538   0.788
 3402SOL    HW211106   4.427   6.463   0.734
 3403SOL     OW11107   3.952   0.261   5.024
 3403SOL    HW111108   3.875   0.215   4.981
 3403SOL    HW211109   3.919   0.328   5.091
 3404SOL     OW11110   5.478   1.913   6.657
 3404SOL    HW111111   5.426   1.832   6.629
 3404SOL    HW211112   5.486   1.914   6.757
 3405SOL     OW11113   6.333   4.072   4.212
 3405SOL    HW111114   6.301   4.026   4.295
 3405SOL    HW211115   6.431   4.056   4.201
 3406SOL     OW11116   0.669   4.075   2.305
 3406SOL    HW111117   0.652   4.148   2.371
 3406SOL    HW211118   0.712   4.114   2.223
 3407SOL     OW11119   1.384   5.306   6.978
 3407SOL    HW111120   1.390   5.269   6.885
 3407SOL    HW211121   1.292   5.292   7.014
 3408SOL     OW11122   5.091   4.392   4.865
 3408SOL    HW111123   4.999   4.413   4.831
 3408SOL    HW211124   5.153   4.379   4.788
 3409SOL     OW11125   3.455   6.434   6.197
 3409SOL    HW111126   3.472   6.496   6.275
 3409SOL    HW211127   3.412   6.350   6.231
 3410SOL     OW11128   6.540   5.966   0.096
 3410SOL    HW111129   6.553   6.041   0.161
 3410SOL    HW211130   6.513   6.004   0.007
 3411SOL     OW11131   0.595   2.715   2.186
 3411SOL    HW111132   0.580   2.765   2.100
 3411SOL    HW211133   0.681   2.666   2.181
 3412SOL     OW11134   4.509   2.627   6.329
 3412SOL    HW111135   4.474   2.721   6.327
 3412SOL    HW211136   4.466   2.574   6.256
 3413SOL     OW11137   5.019   0.433   2.421
 3413SOL    HW111138   5.105   0.448   2.371
 3413SOL    HW211139   4.980   0.522   2.446
 3414SOL     OW11140   1.842   1.029   5.870
 3414SOL    HW111141   1.921   0.975   5.840
 3414SOL    HW211142   1.868   1.084   5.950
 3415SOL     OW11143   1.735   4.542   4.585
 3415SOL    HW111144   1.799   4.487   4.530
 3415SOL    HW211145   1.771   4.635   4.592
 3416SOL     OW11146   7.010   5.671   6.957
 3416SOL    HW111147   6.991   5.663   0.028
 3416SOL    HW211148   6.965   5.597   6.908
 3417SOL     OW11149   0.515   5.846   3.711
 3417SOL    HW111150   0.516   5.762   3.656
 3417SOL    HW211151   0.526   5.925   3.651
 3418SOL     OW11152   3.805   0.332   5.418
 3418SOL    HW111153   3.797   0.318   5.516
 3418SOL    HW211154   3.718   0.308   5.374
 3419SOL     OW11155   3.892   5.258   4.784
 3419SOL    HW111156   3.853   5.249   4.693
 3419SOL    HW211157   3.855   5.340   4.829
 3420SOL     OW11158   5.311   2.758   3.555
 3420SOL    HW111159   5.281   2.686   3.618
 3420SOL    HW211160   5.271   2.846   3.583
 3421SOL     OW11161   6.160   0.827   6.209
 3421SOL    HW111162   6.148   0.728   6.195
 3421SOL    HW211163   6.074   0.874   6.193
 3422SOL     OW11164   2.086   6.459   1.187
 3422SOL    HW111165   2.056   6.528   1.122
 3422SOL    HW211166   2.021   6.383   1.187
 3423SOL     OW11167   2.255   6.601   0.320
 3423SOL    HW111168   2.210   6.673   0.267
 3423SOL    HW211169   2.354   6.616   0.320
 3424SOL     OW11170   3.077   6.847   2.511
 3424SOL    HW111171   3.017   6.790   2.568
 3424SOL    HW211172   3.161   6.867   2.562
 3425SOL     OW11173   5.587   4.089   2.617
 3425SOL    HW111174   5.590   3.991   2.601
 3425SOL    HW211175   5.544   4.108   2.705
 3426SOL     OW11176   2.902   3.094   6.921
 3426SOL    HW111177   2.946   3.053   7.000
 3426SOL    HW211178   2.804   3.071   6.921
 3427SOL     OW11179   6.857   6.643   6.388
 3427SOL    HW111180   6.862   6.688   6.299
 3427SOL    HW211181   6.864   6.544   6.376
 3428SOL     OW11182   3.415   5.089   1.031
 3428SOL    HW111183   3.492   5.031   1.004
 3428SOL    HW211184   3.446   5.158   1.097
 3429SOL     OW11185   1.038   0.851   6.901
 3429SOL    HW111186   1.110   0.791   6.934
 3429SOL    HW211187   0.959   0.846   6.963
 3430SOL     OW11188   0.251   6.319   5.127
 3430SOL    HW111189   0.177   6.381   5.100
 3430SOL    HW211190   0.216   6.225   5.132
 3431SOL     OW11191   2.003   0.089   1.079
 3431SOL    HW111192   2.025   0.111   0.984
 3431SOL    HW211193   1.904   0.092   1.093
 3432SOL     OW11194   2.412   2.655   6.609
 3432SOL    HW111195   2.425   2.701   6.521
 3432SOL    HW211196   2.316   2.663   6.637
 3433SOL     OW11197   1.144   6.799   6.479
 3433SOL    HW111198   1.070   6.842   6.426
 3433SOL    HW211199   1.193   6.869   6.531
 3434SOL     OW11200   3.794   2.499   1.002
 3434SOL    HW111201   3.722   2.480   0.936
 3434SOL    HW211202   3.757   2.497   1.094
 3435SOL     OW11203   1.186   1.505   1.203
 3435SOL    HW111204   1.218   1.563   1.277
 3435SOL    HW211205   1.256   1.436   1.183
 3436SOL     OW11206   3.735   6.447   5.756
 3436SOL    HW111207   3.773   6.539   5.743
 3436SOL    HW211208   3.677   6.445   5.837
 3437SOL     OW11209   3.295   0.763   6.457
 3437SOL    HW111210   3.272   0.744   6.553
 3437SOL    HW211211   3.211   0.767   6.403
 3438SOL     OW11212   1.446   2.457   0.392
 3438SOL    HW111213   1.405   2.500   0.312
 3438SOL    HW211214   1.469   2.528   0.460
 3439SOL     OW11215   2.188   6.623   5.795
 3439SOL    HW111216   2.204   6.539   5.742
 3439SOL    HW211217   2.236   6.699   5.751
 3440SOL     OW11218   4.021   3.178   1.551
 3440SOL    HW111219   3.934   3.218   1.581
 3440SOL    HW211220   4.004   3.088   1.512
 3441SOL     OW11221   4.768   0.441   3.699
 3441SOL    HW111222   4.759   0.388   3.783
 3441SOL    HW211223   4.841   0.508   3.709
 3442SOL     OW11224   2.927   4.766   2.601
 3442SOL    HW111225   2.926   4.674   2.560
 3442SOL    HW211226   2.835   4.804   2.600
 3443SOL     OW11227   5.452   0.166   2.052
 3443SOL    HW111228   5.479   0.149   1.957
 3443SOL    HW211229   5.422   0.080   2.093
 3444SOL     OW11230   4.834   5.397   7.017
 3444SOL    HW111231   4.817   5.299   7.009
 3444SOL    HW211232   4.901   5.425   6.949
 3445SOL     OW11233   6.066   5.532   4.205
 3445SOL    HW111234   6.040   5.437   4.192
 3445SOL    HW211235   6.163   5.538   4.229
 3446SOL     OW11236   6.045   1.116   2.732
 3446SOL    HW111237   6.041   1.016   2.720
 3446SOL    HW211238   6.136   1.142   2.765
 3447SOL     OW11239   5.167   5.071   1.061
 3447SOL    HW111240   5.149   4.996   0.998
 3447SOL    HW211241   5.247   5.050   1.117
 3448SOL     OW11242   3.004   0.401   0.736
 3448SOL    HW111243   3.014   0.336   0.812
 3448SOL    HW211244   3.068   0.476   0.748
 3449SOL     OW11245   6.501   6.491   3.808
 3449SOL    HW111246   6.462   6.430   3.878
 3449SOL    HW211247   6.579   6.540   3.846
 3450SOL     OW11248   0.420   2.765   6.450
 3450SOL    HW111249   0.367   2.845   6.422
 3450SOL    HW211250   0.358   2.688   6.464
 3451SOL     OW11251   1.330   5.680   3.235
 3451SOL    HW111252   1.302   5.641   3.148
 3451SOL    HW211253   1.252   5.722   3.280
 3452SOL     OW11254   5.827   2.177   6.672
 3452SOL    HW111255   5.735   2.176   6.713
 3452SOL    HW211256   5.895   2.156   6.743
 3453SOL     OW11257   0.326   6.653   6.157
 3453SOL    HW111258   0.241   6.614   6.194
 3453SOL    HW211259   0.318   6.660   6.057
 3454SOL     OW11260   1.932   1.002   6.890
 3454SOL    HW111261   1.902   0.907   6.892
 3454SOL    HW211262   2.026   1.007   6.856
 3455SOL     OW11263   2.034   3.019   4.124
 3455SOL    HW111264   2.101   2.952   4.156
 3455SOL    HW211265   1.950   2.972   4.097
 3456SOL     OW11266   5.450   6.135   2.449
 3456SOL    HW111267   5.462   6.106   2.354
 3456SOL    HW211268   5.409   6.060   2.501
 3457SOL     OW11269   2.904   5.568   3.935
 3457SOL    HW111270   2.991   5.524   3.913
 3457SOL    HW211271   2.832   5.498   3.939
 3458SOL     OW11272   4.916   7.015   0.566
 3458SOL    HW111273   4.823   7.024   0.530
 3458SOL    HW211274   4.981   7.016   0.491
 3459SOL     OW11275   6.419   4.175   2.689
 3459SOL    HW111276   6.332   4.126   2.678
 3459SOL    HW211277   6.492   4.108   2.704
 3460SOL     OW11278   2.582   3.349   0.390
 3460SOL    HW111279   2.681   3.360   0.401
 3460SOL    HW211280   2.557   3.254   0.409
 3461SOL     OW11281   4.517   5.791   4.520
 3461SOL    HW111282   4.535   5.707   4.468
 3461SOL    HW211283   4.570   5.791   4.604
 3462SOL     OW11284   0.165   3.646   2.126
 3462SOL    HW111285   0.184   3.562   2.075
 3462SOL    HW211286   0.095   3.627   2.195
 3463SOL     OW11287   1.108   3.211   3.242
 3463SOL    HW111288   1.012   3.183   3.239
 3463SOL    HW211289   1.139   3.214   3.337
 3464SOL     OW11290   6.637   2.545   6.552
 3464SOL    HW111291   6.610   2.631   6.510
 3464SOL    HW211292   6.555   2.493   6.576
 3465SOL     OW11293   0.230   3.063   2.103
 3465SOL    HW111294   0.310   3.056   2.044
 3465SOL    HW211295   0.148   3.080   2.048
 3466SOL     OW11296   6.401   4.678   6.630
 3466SOL    HW111297   6.459   4.731   6.568
 3466SOL    HW211298   6.458   4.638   6.702
 3467SOL     OW11299   2.145   1.847   0.779
 3467SOL    HW111300   2.218   1.915   0.775
 3467SOL    HW211301   2.178   1.765   0.826
 3468SOL     OW11302   5.223   0.725   3.245
 3468SOL    HW111303   5.159   0.739   3.169
 3468SOL    HW211304   5.171   0.717   3.330
 3469SOL     OW11305   4.953   0.710   4.290
 3469SOL    HW111306   5.040   0.675   4.325
 3469SOL    HW211307   4.890   0.723   4.366
 3470SOL     OW11308   0.328   2.125   1.816
 3470SOL    HW111309   0.371   2.179   1.744
 3470SOL    HW211310   0.305   2.035   1.781
 3471SOL     OW11311   4.716   4.268   4.437
 3471SOL    HW111312   4.744   4.358   4.470
 3471SOL    HW211313   4.669   4.278   4.349
 3472SOL     OW11314   2.612   1.214   2.334
 3472SOL    HW111315   2.707   1.193   2.314
 3472SOL    HW211316   2.556   1.132   2.320
 3473SOL     OW11317   6.978   2.446   2.381
 3473SOL    HW111318   6.955   2.369   2.321
 3473SOL    HW211319   0.048   2.469   2.369
 3474SOL     OW11320   0.428   4.585   2.419
 3474SOL    HW111321   0.402   4.529   2.498
 3474SOL    HW211322   0.376   4.670   2.420
 3475SOL     OW11323   1.093   4.146   3.853
 3475SOL    HW111324   1.035   4.207   3.907
 3475SOL    HW211325   1.046   4.122   3.768
 3476SOL     OW11326   1.945   2.021   2.692
 3476SOL    HW111327   1.901   2.107   2.717
 3476SOL    HW211328   2.026   2.040   2.636
 3477SOL     OW11329   2.143   4.772   1.445
 3477SOL    HW111330   2.096   4.851   1.408
 3477SOL    HW211331   2.119   4.760   1.542
 3478SOL     OW11332   2.430   5.632   6.082
 3478SOL    HW111333   2.504   5.564   6.079
 3478SOL    HW211334   2.437   5.686   6.165
 3479SOL     OW11335   0.966   0.968   2.794
 3479SOL    HW111336   1.003   1.047   2.844
 3479SOL    HW211337   0.866   0.967   2.802
 3480SOL     OW11338   6.862   5.443   4.568
 3480SOL    HW111339   6.931   5.516   4.558
 3480SOL    HW211340   6.883   5.389   4.649
 3481SOL     OW11341   5.182   0.752   0.253
 3481SOL    HW111342   5.116   0.729   0.181
 3481SOL    HW211343   5.236   0.831   0.225
 3482SOL     OW11344   6.593   0.976   2.071
 3482SOL    HW111345   6.519   0.961   2.137
 3482SOL    HW211346   6.655   1.046   2.105
 3483SOL     OW11347   5.093   1.734   1.582
 3483SOL    HW111348   5.053   1.745   1.491
 3483SOL    HW211349   5.034   1.675   1.637
 3484SOL     OW11350   0.858   2.681   0.505
 3484SOL    HW111351   0.853   2.762   0.563
 3484SOL    HW211352   0.842   2.707   0.409
 3485SOL     OW11353   1.550   1.536   4.356
 3485SOL    HW111354   1.460   1.576   4.377
 3485SOL    HW211355   1.594   1.590   4.284
 3486SOL     OW11356   2.560   0.362   3.323
 3486SOL    HW111357   2.640   0.307   3.297
 3486SOL    HW211358   2.477   0.308   3.310
 3487SOL     OW11359   0.041   2.102   0.501
 3487SOL    HW111360   0.092   2.018   0.517
 3487SOL    HW211361   6.978   2.096   0.546
 3488SOL     OW11362   6.068   0.413   4.907
 3488SOL    HW111363   5.978   0.427   4.949
 3488SOL    HW211364   6.139   0.434   4.973
 3489SOL     OW11365   4.066   0.567   1.775
 3489SOL    HW111366   3.968   0.586   1.788
 3489SOL    HW211367   4.093   0.595   1.683
 3490SOL     OW11368   4.401   3.716   1.311
 3490SOL    HW111369   4.327   3.775   1.279
 3490SOL    HW211370   4.489   3.761   1.293
 3491SOL     OW11371   4.525   2.452   5.684
 3491SOL    HW111372   4.448   2.449   5.748
 3491SOL    HW211373   4.611   2.460   5.736
 3492SOL     OW11374   6.574   4.073   0.875
 3492SOL    HW111375   6.599   4.014   0.951
 3492SOL    HW211376   6.484   4.046   0.840
 3493SOL     OW11377   4.722   4.248   4.876
 3493SOL    HW111378   4.634   4.291   4.858
 3493SOL    HW211379   4.716   4.192   4.959
 3494SOL     OW11380   3.091   1.082   2.239
 3494SOL    HW111381   3.171   1.045   2.192
 3494SOL    HW211382   3.046   1.149   2.180
 3495SOL     OW11383   6.132   4.724   1.702
 3495SOL    HW111384   6.128   4.693   1.607
 3495SOL    HW211385   6.053   4.689   1.751
 3496SOL     OW11386   6.055   5.206   0.558
 3496SOL    HW111387   5.956   5.218   0.546
 3496SOL    HW211388   6.103   5.262   0.491
 3497SOL     OW11389   2.552   1.209   3.797
 3497SOL    HW111390   2.640   1.177   3.831
 3497SOL    HW211391   2.565   1.294   3.746
 3498SOL     OW11392   3.017   1.962   1.136
 3498SOL    HW111393   2.942   2.011   1.093
 3498SOL    HW211394   3.062   2.022   1.203
 3499SOL     OW11395   5.807   4.037   4.489
 3499SOL    HW111396   5.818   4.000   4.397
 3499SOL    HW211397   5.743   4.113   4.488
 3500SOL     OW11398   1.845   3.329   4.061
 3500SOL    HW111399   1.903   3.303   4.138
 3500SOL    HW211400   1.873   3.419   4.027
 3501SOL     OW11401   2.711   5.677   5.842
 3501SOL    HW111402   2.798   5.726   5.846
 3501SOL    HW211403   2.719   5.590   5.891
 3502SOL     OW11404   6.656   2.014   1.587
 3502SOL    HW111405   6.705   2.093   1.624
 3502SOL    HW211406   6.574   2.046   1.539
 3503SOL     OW11407   6.198   5.920   4.739
 3503SOL    HW111408   6.119   5.926   4.800
 3503SOL    HW211409   6.229   6.013   4.715
 3504SOL     OW11410   2.498   0.585   1.837
 3504SOL    HW111411   2.586   0.606   1.795
 3504SOL    HW211412   2.488   0.486   1.847
 3505SOL     OW11413   5.530   4.155   6.052
 3505SOL    HW111414   5.573   4.146   5.962
 3505SOL    HW211415   5.488   4.245   6.061
 3506SOL     OW11416   5.494   4.690   5.580
 3506SOL    HW111417   5.465   4.783   5.556
 3506SOL    HW211418   5.450   4.663   5.666
 3507SOL     OW11419   2.676   0.878   1.127
 3507SOL    HW111420   2.678   0.961   1.183
 3507SOL    HW211421   2.678   0.798   1.186
 3508SOL     OW11422   1.996   2.486   5.768
 3508SOL    HW111423   1.995   2.393   5.804
 3508SOL    HW211424   2.024   2.484   5.672
 3509SOL     OW11425   4.867   0.341   6.641
 3509SOL    HW111426   4.781   0.329   6.690
 3509SOL    HW211427   4.882   0.263   6.580
 3510SOL     OW11428   1.393   1.052   1.945
 3510SOL    HW111429   1.348   1.076   1.859
 3510SOL    HW211430   1.490   1.032   1.928
 3511SOL     OW11431   2.052   4.870   2.100
 3511SOL    HW111432   2.031   4.968   2.104
 3511SOL    HW211433   1.976   4.818   2.139
 3512SOL     OW11434   0.772   4.441   0.428
 3512SOL    HW111435   0.711   4.441   0.508
 3512SOL    HW211436   0.777   4.533   0.390
 3513SOL     OW11437   5.260   2.185   0.342
 3513SOL    HW111438   5.224   2.116   0.280
 3513SOL    HW211439   5.355   2.204   0.319
 3514SOL     OW11440   0.414   1.356   2.008
 3514SOL    HW111441   0.324   1.383   2.044
 3514SOL    HW211442   0.458   1.435   1.966
 3515SOL     OW11443   4.257   5.845   3.167
 3515SOL    HW111444   4.245   5.887   3.257
 3515SOL    HW211445   4.353   5.854   3.139
 3516SOL     OW11446   5.289   6.838   0.844
 3516SOL    HW111447   5.294   6.936   0.825
 3516SOL    HW211448   5.196   6.805   0.828
 3517SOL     OW11449   1.060   2.301   1.108
 3517SOL    HW111450   1.034   2.216   1.063
 3517SOL    HW211451   1.138   2.284   1.169
 3518SOL     OW11452   4.823   2.686   4.374
 3518SOL    HW111453   4.811   2.772   4.423
 3518SOL    HW211454   4.756   2.619   4.408
 3519SOL     OW11455   1.208   1.127   6.212
 3519SOL    HW111456   1.258   1.193   6.268
 3519SOL    HW211457   1.271   1.080   6.151
 3520SOL     OW11458   3.087   5.533   7.001
 3520SOL    HW111459   3.135   5.607   6.954
 3520SOL    HW211460   3.043   5.474   6.934
 3521SOL     OW11461   4.903   2.536   0.296
 3521SOL    HW111462   4.911   2.563   0.392
 3521SOL    HW211463   4.994   2.513   0.261
 3522SOL     OW11464   0.124   4.697   1.238
 3522SOL    HW111465   0.113   4.753   1.155
 3522SOL    HW211466   0.073   4.739   1.313
 3523SOL     OW11467   1.362   4.581   5.919
 3523SOL    HW111468   1.429   4.655   5.919
 3523SOL    HW211469   1.364   4.534   6.007
 3524SOL     OW11470   4.675   1.593   1.822
 3524SOL    HW111471   4.708   1.511   1.775
 3524SOL    HW211472   4.576   1.585   1.837
 3525SOL     OW11473   0.085   4.410   3.291
 3525SOL    HW111474   0.154   4.426   3.361
 3525SOL    HW211475   0.072   4.312   3.279
 3526SOL     OW11476   2.501   6.679   4.136
 3526SOL    HW111477   2.545   6.590   4.143
 3526SOL    HW211478   2.529   6.724   4.051
 3527SOL     OW11479   5.707   3.681   6.185
 3527SOL    HW111480   5.652   3.730   6.253
 3527SOL    HW211481   5.797   3.722   6.179
 3528SOL     OW11482   1.412   6.174   5.203
 3528SOL    HW111483   1.377   6.255   5.157
 3528SOL    HW211484   1.505   6.192   5.236
 3529SOL     OW11485   3.835   0.230   0.147
 3529SOL    HW111486   3.852   0.257   0.242
 3529SOL    HW211487   3.778   0.299   0.102
 3530SOL     OW11488   6.547   5.295   2.487
 3530SOL    HW111489   6.613   5.221   2.471
 3530SOL    HW211490   6.586   5.362   2.550
 3531SOL     OW11491   5.397   3.118   1.245
 3531SOL    HW111492   5.348   3.172   1.313
 3531SOL    HW211493   5.367   3.145   1.153
 3532SOL     OW11494   2.996   0.242   1.844
 3532SOL    HW111495   3.071   0.227   1.780
 3532SOL    HW211496   3.033   0.279   1.930
 3533SOL     OW11497   1.212   1.721   2.734
 3533SOL    HW111498   1.173   1.737   2.825
 3533SOL    HW211499   1.178   1.791   2.671
 3534SOL     OW11500   6.748   1.763   0.889
 3534SOL    HW111501   6.748   1.753   0.989
 3534SOL    HW211502   6.841   1.775   0.856
 3535SOL     OW11503   1.583   5.613   0.075
 3535SOL    HW111504   1.604   5.519   0.050
 3535SOL    HW211505   1.644   5.643   0.148
 3536SOL     OW11506   2.822   1.701   3.227
 3536SOL    HW111507   2.733   1.744   3.214
 3536SOL    HW211508   2.864   1.735   3.311
 3537SOL     OW11509   3.379   6.517   2.257
 3537SOL    HW111510   3.303   6.454   2.268
 3537SOL    HW211511   3.351   6.609   2.283
 3538SOL     OW11512   1.774   6.937   6.333
 3538SOL    HW111513   1.719   6.914   6.253
 3538SOL    HW211514   1.751   0.002   6.365
 3539SOL     OW11515   4.116   3.090   5.626
 3539SOL    HW111516   4.167   3.164   5.581
 3539SOL    HW211517   4.055   3.046   5.561
 3540SOL     OW11518   2.330   2.537   5.575
 3540SOL    HW111519   2.240   2.506   5.543
 3540SOL    HW211520   2.385   2.565   5.497
 3541SOL     OW11521   1.629   2.974   6.407
 3541SOL    HW111522   1.704   2.966   6.342
 3541SOL    HW211523   1.608   2.884   6.445
 3542SOL     OW11524   1.718   5.601   2.977
 3542SOL    HW111525   1.777   5.578   3.054
 3542SOL    HW211526   1.657   5.676   3.004
 3543SOL     OW11527   1.036   2.344   4.590
 3543SOL    HW111528   0.962   2.391   4.542
 3543SOL    HW211529   1.040   2.375   4.684
 3544SOL     OW11530   2.441   4.178   6.397
 3544SOL    HW111531   2.522   4.119   6.390
 3544SOL    HW211532   2.371   4.132   6.451
 3545SOL     OW11533   4.086   6.031   0.728
 3545SOL    HW111534   4.105   6.114   0.676
 3545SOL    HW211535   3.987   6.019   0.737
 3546SOL     OW11536   1.444   4.352   4.372
 3546SOL    HW111537   1.344   4.345   4.372
 3546SOL    HW211538   1.482   4.282   4.311
 3547SOL     OW11539   6.798   4.387   3.989
 3547SOL    HW111540   6.706   4.371   3.952
 3547SOL    HW211541   6.858   4.420   3.916
 3548SOL     OW11542   5.640   1.722   5.995
 3548SOL    HW111543   5.630   1.688   6.089
 3548SOL    HW211544   5.648   1.822   5.996
 3549SOL     OW11545   6.803   5.085   5.677
 3549SOL    HW111546   6.771   5.180   5.676
 3549SOL    HW211547   6.898   5.081   5.646
 3550SOL     OW11548   6.203   2.215   2.942
 3550SOL    HW111549   6.205   2.314   2.937
 3550SOL    HW211550   6.110   2.182   2.924
 3551SOL     OW11551   3.715   0.888   2.047
 3551SOL    HW111552   3.688   0.881   1.951
 3551SOL    HW211553   3.701   0.982   2.078
 3552SOL     OW11554   5.366   6.318   1.866
 3552SOL    HW111555   5.417   6.243   1.824
 3552SOL    HW211556   5.410   6.405   1.843
 3553SOL     OW11557   4.722   4.220   1.170
 3553SOL    HW111558   4.715   4.314   1.138
 3553SOL    HW211559   4.806   4.209   1.224
 3554SOL     OW11560   4.328   2.259   0.748
 3554SOL    HW111561   4.233   2.253   0.716
 3554SOL    HW211562   4.334   2.225   0.842
 3555SOL     OW11563   1.191   3.927   4.069
 3555SOL    HW111564   1.136   4.002   4.031
 3555SOL    HW211565   1.287   3.943   4.047
 3556SOL     OW11566   4.166   1.540   3.344
 3556SOL    HW111567   4.103   1.477   3.390
 3556SOL    HW211568   4.164   1.629   3.390
 3557SOL     OW11569   1.065   0.225   4.109
 3557SOL    HW111570   0.971   0.197   4.089
 3557SOL    HW211571   1.080   0.318   4.075
 3558SOL     OW11572   1.682   6.595   1.459
 3558SOL    HW111573   1.765   6.553   1.496
 3558SOL    HW211574   1.703   6.638   1.372
 3559SOL     OW11575   0.149   6.050   5.181
 3559SOL    HW111576   0.127   6.036   5.278
 3559SOL    HW211577   0.244   6.024   5.165
 3560SOL     OW11578   0.701   5.996   1.386
 3560SOL    HW111579   0.764   5.955   1.452
 3560SOL    HW211580   0.651   5.923   1.339
 3561SOL     OW11581   4.052   4.743   5.271
 3561SOL    HW111582   3.958   4.734   5.305
 3561SOL    HW211583   4.107   4.668   5.307
 3562SOL     OW11584   5.200   1.098   3.089
 3562SOL    HW111585   5.277   1.039   3.064
 3562SOL    HW211586   5.134   1.100   3.015
 3563SOL     OW11587   5.627   1.815   0.172
 3563SOL    HW111588   5.719   1.844   0.200
 3563SOL    HW211589   5.622   1.715   0.175
 3564SOL     OW11590   1.347   4.284   3.939
 3564SOL    HW111591   1.386   4.352   3.877
 3564SOL    HW211592   1.252   4.266   3.913
 3565SOL     OW11593   3.864   5.721   4.864
 3565SOL    HW111594   3.779   5.731   4.812
 3565SOL    HW211595   3.932   5.786   4.829
 3566SOL     OW11596   6.815   3.794   5.920
 3566SOL    HW111597   6.899   3.802   5.865
 3566SOL    HW211598   6.825   3.719   5.984
 3567SOL     OW11599   0.287   3.282   0.181
 3567SOL    HW111600   0.348   3.203   0.177
 3567SOL    HW211601   0.269   3.305   0.276
 3568SOL     OW11602   4.656   5.378   4.283
 3568SOL    HW111603   4.595   5.448   4.319
 3568SOL    HW211604   4.693   5.324   4.358
 3569SOL     OW11605   2.676   2.598   5.737
 3569SOL    HW111606   2.630   2.683   5.709
 3569SOL    HW211607   2.631   2.561   5.818
 3570SOL     OW11608   5.141   0.155   5.084
 3570SOL    HW111609   5.062   0.208   5.115
 3570SOL    HW211610   5.202   0.215   5.032
 3571SOL     OW11611   1.570   0.497   5.090
 3571SOL    HW111612   1.525   0.424   5.038
 3571SOL    HW211613   1.516   0.581   5.083
 3572SOL     OW11614   5.380   3.040   2.996
 3572SOL    HW111615   5.442   3.095   2.942
 3572SOL    HW211616   5.358   3.087   3.082
 3573SOL     OW11617   6.332   4.016   3.031
 3573SOL    HW111618   6.236   3.997   3.055
 3573SOL    HW211619   6.379   4.052   3.111
 3574SOL     OW11620   0.411   2.696   0.941
 3574SOL    HW111621   0.406   2.657   1.033
 3574SOL    HW211622   0.323   2.684   0.896
 3575SOL     OW11623   5.331   5.587   3.014
 3575SOL    HW111624   5.260   5.599   3.083
 3575SOL    HW211625   5.398   5.661   3.022
 3576SOL     OW11626   0.584   1.756   6.701
 3576SOL    HW111627   0.538   1.732   6.786
 3576SOL    HW211628   0.551   1.697   6.627
 3577SOL     OW11629   1.569   2.802   6.885
 3577SOL    HW111630   1.491   2.788   6.823
 3577SOL    HW211631   1.653   2.771   6.841
 3578SOL     OW11632   5.013   1.693   0.830
 3578SOL    HW111633   5.039   1.689   0.926
 3578SOL    HW211634   4.929   1.641   0.816
 3579SOL     OW11635   6.709   1.893   2.658
 3579SOL    HW111636   6.696   1.846   2.745
 3579SOL    HW211637   6.804   1.882   2.628
 3580SOL     OW11638   6.015   3.926   0.609
 3580SOL    HW111639   6.098   3.870   0.616
 3580SOL    HW211640   5.935   3.867   0.616
 3581SOL     OW11641   0.515   5.358   3.476
 3581SOL    HW111642   0.522   5.302   3.559
 3581SOL    HW211643   0.443   5.321   3.416
 3582SOL     OW11644   1.296   4.170   5.550
 3582SOL    HW111645   1.275   4.105   5.624
 3582SOL    HW211646   1.219   4.234   5.540
 3583SOL     OW11647   1.734   4.586   0.008
 3583SOL    HW111648   1.777   4.518   6.975
 3583SOL    HW211649   1.805   4.645   0.047
 3584SOL     OW11650   5.643   4.362   5.785
 3584SOL    HW111651   5.695   4.410   5.855
 3584SOL    HW211652   5.658   4.406   5.696
 3585SOL     OW11653   2.707   2.254   4.620
 3585SOL    HW111654   2.741   2.302   4.701
 3585SOL    HW211655   2.780   2.197   4.582
 3586SOL     OW11656   6.386   1.788   4.937
 3586SOL    HW111657   6.322   1.713   4.929
 3586SOL    HW211658   6.366   1.841   5.019
 3587SOL     OW11659   2.183   5.616   5.734
 3587SOL    HW111660   2.281   5.633   5.743
 3587SOL    HW211661   2.167   5.522   5.705
 3588SOL     OW11662   0.124   3.047   5.045
 3588SOL    HW111663   0.129   3.113   4.970
 3588SOL    HW211664   0.084   2.962   5.012
 3589SOL     OW11665   5.544   0.723   5.848
 3589SOL    HW111666   5.459   0.696   5.893
 3589SOL    HW211667   5.538   0.819   5.821
 3590SOL     OW11668   6.536   3.339   0.555
 3590SOL    HW111669   6.527   3.394   0.471
 3590SOL    HW211670   6.448   3.338   0.603
 3591SOL     OW11671   5.633   3.497   0.237
 3591SOL    HW111672   5.712   3.555   0.253
 3591SOL    HW211673   5.660   3.401   0.242
 3592SOL     OW11674   0.397   6.848   2.822
 3592SOL    HW111675   0.409   6.948   2.828
 3592SOL    HW211676   0.405   6.820   2.726
 3593SOL     OW11677   0.436   4.077   5.761
 3593SOL    HW111678   0.448   4.081   5.860
 3593SOL    HW211679   0.497   4.143   5.717
 3594SOL     OW11680   4.534   0.550   3.551
 3594SOL    HW111681   4.603   0.496   3.598
 3594SOL    HW211682   4.469   0.489   3.506
 3595SOL     OW11683   5.352   5.841   6.643
 3595SOL    HW111684   5.409   5.802   6.715
 3595SOL    HW211685   5.262   5.797   6.644
 3596SOL     OW11686   4.938   3.305   3.275
 3596SOL    HW111687   4.886   3.349   3.202
 3596SOL    HW211688   4.995   3.233   3.236
 3597SOL     OW11689   2.009   2.671   5.244
 3597SOL    HW111690   2.081   2.636   5.185
 3597SOL    HW211691   2.013   2.771   5.245
 3598SOL     OW11692   1.901   6.664   5.812
 3598SOL    HW111693   1.841   6.587   5.836
 3598SOL    HW211694   1.996   6.641   5.832
 3599SOL     OW11695   4.855   1.942   0.236
 3599SOL    HW111696   4.805   2.007   0.178
 3599SOL    HW211697   4.856   1.974   0.330
 3600SOL     OW11698   0.929   2.735   2.388
 3600SOL    HW111699   0.994   2.764   2.459
 3600SOL    HW211700   0.840   2.718   2.430
 3601SOL     OW11701   5.399   2.764   6.113
 3601SOL    HW111702   5.361   2.844   6.159
 3601SOL    HW211703   5.333   2.729   6.047
 3602SOL     OW11704   1.436   3.922   1.183
 3602SOL    HW111705   1.457   3.991   1.252
 3602SOL    HW211706   1.497   3.843   1.196
 3603SOL     OW11707   3.677   0.886   4.447
 3603SOL    HW111708   3.663   0.982   4.472
 3603SOL    HW211709   3.600   0.831   4.479
 3604SOL     OW11710   6.935   0.006   3.833
 3604SOL    HW111711   6.913   0.079   3.769
 3604SOL    HW211712   6.859   7.018   3.896
 3605SOL     OW11713   0.948   4.202   3.346
 3605SOL    HW111714   0.985   4.125   3.294
 3605SOL    HW211715   0.919   4.274   3.284
 3606SOL     OW11716   0.851   6.840   4.326
 3606SOL    HW111717   0.899   6.919   4.363
 3606SOL    HW211718   0.779   6.812   4.389
 3607SOL     OW11719   5.514   4.572   1.950
 3607SOL    HW111720   5.600   4.599   1.905
 3607SOL    HW211721   5.527   4.573   2.049
 3608SOL     OW11722   4.851   1.382   4.715
 3608SOL    HW111723   4.793   1.459   4.687
 3608SOL    HW211724   4.943   1.416   4.734
 3609SOL     OW11725   2.231   0.229   4.281
 3609SOL    HW111726   2.200   0.140   4.314
 3609SOL    HW211727   2.251   0.223   4.183
 3610SOL     OW11728   1.847   1.000   6.334
 3610SOL    HW111729   1.873   0.936   6.262
 3610SOL    HW211730   1.831   0.950   6.419
 3611SOL     OW11731   4.095   4.939   3.917
 3611SOL    HW111732   4.116   4.843   3.935
 3611SOL    HW211733   4.181   4.989   3.901
 3612SOL     OW11734   0.870   0.788   6.494
 3612SOL    HW111735   0.960   0.807   6.533
 3612SOL    HW211736   0.813   0.741   6.562
 3613SOL     OW11737   4.787   4.633   2.296
 3613SOL    HW111738   4.836   4.719   2.284
 3613SOL    HW211739   4.852   4.557   2.293
 3614SOL     OW11740   3.560   3.610   0.830
 3614SOL    HW111741   3.474   3.591   0.878
 3614SOL    HW211742   3.590   3.527   0.782
 3615SOL     OW11743   5.542   2.915   6.399
 3615SOL    HW111744   5.565   3.012   6.390
 3615SOL    HW211745   5.583   2.879   6.483
 3616SOL     OW11746   1.001   0.405   6.257
 3616SOL    HW111747   1.009   0.495   6.300
 3616SOL    HW211748   1.053   0.338   6.310
 3617SOL     OW11749   4.127   0.543   6.090
 3617SOL    HW111750   4.197   0.602   6.131
 3617SOL    HW211751   4.051   0.599   6.058
 3618SOL     OW11752   2.323   3.237   5.285
 3618SOL    HW111753   2.393   3.182   5.240
 3618SOL    HW211754   2.362   3.323   5.317
 3619SOL     OW11755   5.859   3.018   6.332
 3619SOL    HW111756   5.905   2.958   6.399
 3619SOL    HW211757   5.916   3.099   6.316
 3620SOL     OW11758   5.847   5.618   5.304
 3620SOL    HW111759   5.765   5.596   5.251
 3620SOL    HW211760   5.821   5.640   5.398
 3621SOL     OW11761   3.098   3.122   4.629
 3621SOL    HW111762   3.147   3.063   4.694
 3621SOL    HW211763   3.065   3.203   4.676
 3622SOL     OW11764   1.941   1.095   0.472
 3622SOL    HW111765   1.858   1.151   0.477
 3622SOL    HW211766   2.021   1.154   0.484
 3623SOL     OW11767   6.335   5.935   4.436
 3623SOL    HW111768   6.366   6.027   4.411
 3623SOL    HW211769   6.405   5.889   4.490
 3624SOL     OW11770   1.183   0.014   2.456
 3624SOL    HW111771   1.243   0.085   2.419
 3624SOL    HW211772   1.185   0.018   2.556
 3625SOL     OW11773   7.024   3.279   6.707
 3625SOL    HW111774   6.956   3.313   6.771
 3625SOL    HW211775   6.979   3.253   6.621
 3626SOL     OW11776   0.714   3.318   5.569
 3626SOL    HW111777   0.693   3.225   5.599
 3626SOL    HW211778   0.802   3.347   5.607
 3627SOL     OW11779   4.383   3.108   1.444
 3627SOL    HW111780   4.457   3.176   1.437
 3627SOL    HW211781   4.389   3.062   1.533
 3628SOL     OW11782   1.303   1.512   1.948
 3628SOL    HW111783   1.371   1.519   2.021
 3628SOL    HW211784   1.228   1.453   1.978
 3629SOL     OW11785   0.626   0.154   5.177
 3629SOL    HW111786   0.655   0.071   5.130
 3629SOL    HW211787   0.592   0.220   5.110
 3630SOL     OW11788   6.181   2.556   3.770
 3630SOL    HW111789   6.254   2.557   3.702
 3630SOL    HW211790   6.165   2.462   3.800
 3631SOL     OW11791   1.771   7.002   3.155
 3631SOL    HW111792   1.713   0.053   3.177
 3631SOL    HW211793   1.867   0.001   3.164
 3632SOL     OW11794   5.128   4.662   0.523
 3632SOL    HW111795   5.180   4.718   0.460
 3632SOL    HW211796   5.032   4.658   0.494
 3633SOL     OW11797   4.415   2.824   6.027
 3633SOL    HW111798   4.400   2.902   5.967
 3633SOL    HW211799   4.514   2.809   6.037
 3634SOL     OW11800   2.042   5.868   6.122
 3634SOL    HW111801   2.060   5.797   6.053
 3634SOL    HW211802   2.012   5.825   6.207
 3635SOL     OW11803   2.897   1.181   0.969
 3635SOL    HW111804   2.837   1.115   0.924
 3635SOL    HW211805   2.862   1.273   0.955
 3636SOL     OW11806   6.764   5.646   0.793
 3636SOL    HW111807   6.681   5.687   0.755
 3636SOL    HW211808   6.767   5.549   0.771
 3637SOL     OW11809   0.414   2.548   1.210
 3637SOL    HW111810   0.513   2.539   1.204
 3637SOL    HW211811   0.382   2.509   1.297
 3638SOL     OW11812   6.733   3.828   2.945
 3638SOL    HW111813   6.815   3.817   2.888
 3638SOL    HW211814   6.665   3.759   2.919
 3639SOL     OW11815   3.802   5.161   6.366
 3639SOL    HW111816   3.725   5.175   6.430
 3639SOL    HW211817   3.766   5.141   6.275
 3640SOL     OW11818   4.924   1.662   0.198
 3640SOL    HW111819   4.919   1.751   0.153
 3640SOL    HW211820   4.947   1.675   0.294
 3641SOL     OW11821   5.869   3.832   1.720
 3641SOL    HW111822   5.777   3.870   1.713
 3641SOL    HW211823   5.864   3.739   1.756
 3642SOL     OW11824   4.679   2.206   6.549
 3642SOL    HW111825   4.638   2.297   6.536
 3642SOL    HW211826   4.676   2.181   6.645
 3643SOL     OW11827   4.080   5.958   5.432
 3643SOL    HW111828   4.012   5.999   5.493
 3643SOL    HW211829   4.036   5.887   5.376
 3644SOL     OW11830   2.304   1.015   1.588
 3644SOL    HW111831   2.223   0.961   1.563
 3644SOL    HW211832   2.302   1.102   1.538
 3645SOL     OW11833   1.401   3.309   4.051
 3645SOL    HW111834   1.355   3.344   3.969
 3645SOL    HW211835   1.332   3.285   4.120
 3646SOL     OW11836   1.496   3.991   5.381
 3646SOL    HW111837   1.523   4.003   5.285
 3646SOL    HW211838   1.408   4.034   5.397
 3647SOL     OW11839   2.454   5.942   6.835
 3647SOL    HW111840   2.366   5.967   6.796
 3647SOL    HW211841   2.522   6.012   6.812
 3648SOL     OW11842   5.071   5.853   3.384
 3648SOL    HW111843   5.004   5.864   3.310
 3648SOL    HW211844   5.027   5.805   3.461
 3649SOL     OW11845   6.404   3.062   0.319
 3649SOL    HW111846   6.499   3.054   0.287
 3649SOL    HW211847   6.355   3.129   0.264
 3650SOL     OW11848   6.276   4.904   0.778
 3650SOL    HW111849   6.181   4.899   0.747
 3650SOL    HW211850   6.278   4.906   0.878
 3651SOL     OW11851   2.147   0.403   4.744
 3651SOL    HW111852   2.227   0.450   4.781
 3651SOL    HW211853   2.113   0.452   4.664
 3652SOL     OW11854   5.946   6.916   3.538
 3652SOL    HW111855   5.991   6.834   3.575
 3652SOL    HW211856   5.973   6.928   3.443
 3653SOL     OW11857   1.653   1.006   3.018
 3653SOL    HW111858   1.674   1.060   3.099
 3653SOL    HW211859   1.700   1.045   2.939
 3654SOL     OW11860   4.727   5.780   0.576
 3654SOL    HW111861   4.697   5.698   0.625
 3654SOL    HW211862   4.772   5.755   0.491
 3655SOL     OW11863   3.669   1.115   4.149
 3655SOL    HW111864   3.575   1.149   4.149
 3655SOL    HW211865   3.711   1.133   4.238
 3656SOL     OW11866   0.831   5.809   1.533
 3656SOL    HW111867   0.872   5.806   1.625
 3656SOL    HW211868   0.897   5.774   1.466
 3657SOL     OW11869   4.683   5.255   4.760
 3657SOL    HW111870   4.586   5.235   4.741
 3657SOL    HW211871   4.727   5.173   4.797
 3658SOL     OW11872   2.255   5.332   6.751
 3658SOL    HW111873   2.269   5.234   6.735
 3658SOL    HW211874   2.267   5.351   6.849
 3659SOL     OW11875   1.254   2.170   6.259
 3659SOL    HW111876   1.214   2.087   6.220
 3659SOL    HW211877   1.223   2.180   6.354
 3660SOL     OW11878   6.068   5.902   4.417
 3660SOL    HW111879   6.166   5.917   4.413
 3660SOL    HW211880   6.024   5.978   4.465
 3661SOL     OW11881   0.820   0.500   4.874
 3661SOL    HW111882   0.833   0.512   4.973
 3661SOL    HW211883   0.784   0.584   4.834
 3662SOL     OW11884   4.036   0.914   4.665
 3662SOL    HW111885   3.972   0.929   4.740
 3662SOL    HW211886   4.062   1.001   4.625
 3663SOL     OW11887   1.789   2.672   6.864
 3663SOL    HW111888   1.885   2.643   6.868
 3663SOL    HW211889   1.743   2.645   6.948
 3664SOL     OW11890   4.763   2.423   1.766
 3664SOL    HW111891   4.666   2.443   1.754
 3664SOL    HW211892   4.812   2.507   1.789
 3665SOL     OW11893   0.486   5.860   5.663
 3665SOL    HW111894   0.505   5.927   5.735
 3665SOL    HW211895   0.561   5.860   5.597
 3666SOL     OW11896   0.802   3.340   3.097
 3666SOL    HW111897   0.858   3.341   3.014
 3666SOL    HW211898   0.818   3.255   3.147
 3667SOL     OW11899   0.411   1.418   3.472
 3667SOL    HW111900   0.511   1.425   3.476
 3667SOL    HW211901   0.370   1.497   3.518
 3668SOL     OW11902   1.597   0.659   1.658
 3668SOL    HW111903   1.662   0.697   1.725
 3668SOL    HW211904   1.509   0.705   1.667
 3669SOL     OW11905   5.512   1.501   3.832
 3669SOL    HW111906   5.468   1.497   3.742
 3669SOL    HW211907   5.464   1.440   3.895
 3670SOL     OW11908   3.057   5.452   0.718
 3670SOL    HW111909   3.070   5.551   0.715
 3670SOL    HW211910   2.990   5.425   0.649
 3671SOL     OW11911   6.773   1.866   4.103
 3671SOL    HW111912   6.694   1.805   4.088
 3671SOL    HW211913   6.857   1.817   4.080
 3672SOL     OW11914   4.588   2.155   2.655
 3672SOL    HW111915   4.600   2.061   2.623
 3672SOL    HW211916   4.614   2.160   2.752
 3673SOL     OW11917   3.835   5.375   6.552
 3673SOL    HW111918   3.914   5.436   6.561
 3673SOL    HW211919   3.851   5.312   6.475
 3674SOL     OW11920   1.670   5.742   4.991
 3674SOL    HW111921   1.600   5.814   4.990
 3674SOL    HW211922   1.645   5.670   4.926
 3675SOL     OW11923   0.775   2.493   4.045
 3675SOL    HW111924   0.711   2.440   3.991
 3675SOL    HW211925   0.828   2.433   4.105
 3676SOL     OW11926   5.506   3.172   2.570
 3676SOL    HW111927   5.407   3.184   2.564
 3676SOL    HW211928   5.550   3.212   2.490
 3677SOL     OW11929   2.577   0.537   4.975
 3677SOL    HW111930   2.651   0.470   4.966
 3677SOL    HW211931   2.577   0.574   5.067
 3678SOL     OW11932   1.918   1.230   4.082
 3678SOL    HW111933   1.930   1.228   3.982
 3678SOL    HW211934   1.855   1.304   4.106
 3679SOL     OW11935   0.128   0.407   3.213
 3679SOL    HW111936   0.093   0.501   3.207
 3679SOL    HW211937   0.059   0.348   3.255
 3680SOL     OW11938   4.692   2.565   4.670
 3680SOL    HW111939   4.745   2.480   4.677
 3680SOL    HW211940   4.595   2.544   4.676
 3681SOL     OW11941   1.099   0.823   6.615
 3681SOL    HW111942   1.176   0.873   6.577
 3681SOL    HW211943   1.085   0.850   6.710
 3682SOL     OW11944   5.435   2.644   0.494
 3682SOL    HW111945   5.455   2.551   0.522
 3682SOL    HW211946   5.354   2.677   0.543
 3683SOL     OW11947   0.216   0.829   3.850
 3683SOL    HW111948   0.310   0.795   3.844
 3683SOL    HW211949   0.155   0.755   3.877
 3684SOL     OW11950   1.209   5.633   6.842
 3684SOL    HW111951   1.153   5.714   6.855
 3684SOL    HW211952   1.260   5.614   6.926
 3685SOL     OW11953   2.352   6.153   5.549
 3685SOL    HW111954   2.443   6.185   5.575
 3685SOL    HW211955   2.336   6.063   5.588
 3686SOL     OW11956   6.510   4.671   3.757
 3686SOL    HW111957   6.447   4.721   3.697
 3686SOL    HW211958   6.539   4.730   3.832
 3687SOL     OW11959   4.669   6.936   3.539
 3687SOL    HW111960   4.621   6.991   3.470
 3687SOL    HW211961   4.767   6.952   3.532
 3688SOL     OW11962   6.204   3.191   6.615
 3688SOL    HW111963   6.171   3.283   6.590
 3688SOL    HW211964   6.168   3.166   6.705
 3689SOL     OW11965   2.324   2.129   5.504
 3689SOL    HW111966   2.288   2.211   5.547
 3689SOL    HW211967   2.410   2.150   5.458
 3690SOL     OW11968   4.907   5.937   0.983
 3690SOL    HW111969   4.888   5.848   1.024
 3690SOL    HW211970   4.845   5.951   0.906
 3691SOL     OW11971   2.535   2.024   6.317
 3691SOL    HW111972   2.495   1.939   6.352
 3691SOL    HW211973   2.467   2.073   6.263
 3692SOL     OW11974   6.802   4.455   5.945
 3692SOL    HW111975   6.805   4.364   5.904
 3692SOL    HW211976   6.774   4.522   5.876
 3693SOL     OW11977   1.626   1.843   2.900
 3693SOL    HW111978   1.548   1.803   2.852
 3693SOL    HW211979   1.710   1.799   2.868
 3694SOL     OW11980   1.512   6.789   2.163
 3694SOL    HW111981   1.440   6.795   2.232
 3694SOL    HW211982   1.601   6.796   2.207
 3695SOL     OW11983   5.571   1.556   1.893
 3695SOL    HW111984   5.628   1.474   1.895
 3695SOL    HW211985   5.536   1.575   1.985
 3696SOL     OW11986   4.073   0.005   5.454
 3696SOL    HW111987   4.035   0.096   5.469
 3696SOL    HW211988   4.166   0.012   5.418
 3697SOL     OW11989   6.758   6.112   3.118
 3697SOL    HW111990   6.821   6.188   3.137
 3697SOL    HW211991   6.718   6.125   3.027
 3698SOL     OW11992   1.925   0.953   3.652
 3698SOL    HW111993   1.941   0.878   3.716
 3698SOL    HW211994   1.870   0.920   3.576
 3699SOL     OW11995   1.636   1.632   3.704
 3699SOL    HW111996   1.657   1.700   3.633
 3699SOL    HW211997   1.640   1.540   3.664
 3700SOL     OW11998   1.557   5.297   4.559
 3700SOL    HW111999   1.633   5.318   4.619
 3700SOL    HW212000   1.471   5.322   4.604
 3701SOL     OW12001   0.816   6.375   2.805
 3701SOL    HW112002   0.813   6.457   2.861
 3701SOL    HW212003   0.865   6.303   2.854
 3702SOL     OW12004   5.378   6.436   2.920
 3702SOL    HW112005   5.294   6.401   2.959
 3702SOL    HW212006   5.456   6.410   2.977
 3703SOL     OW12007   0.965   0.278   6.729
 3703SOL    HW112008   1.014   0.192   6.719
 3703SOL    HW212009   1.025   0.346   6.772
 3704SOL     OW12010   5.237   2.998   0.917
 3704SOL    HW112011   5.254   3.086   0.962
 3704SOL    HW212012   5.297   2.989   0.837
 3705SOL     OW12013   4.908   4.725   3.946
 3705SOL    HW112014   4.953   4.800   3.995
 3705SOL    HW212015   4.949   4.714   3.856
 3706SOL     OW12016   0.476   4.368   0.018
 3706SOL    HW112017   0.509   4.341   0.109
 3706SOL    HW212018   0.517   4.309   6.976
 3707SOL     OW12019   4.401   5.956   3.976
 3707SOL    HW112020   4.309   5.925   3.952
 3707SOL    HW212021   4.467   5.886   3.952
 3708SOL     OW12022   4.007   6.791   1.143
 3708SOL    HW112023   3.917   6.834   1.150
 3708SOL    HW212024   4.055   6.798   1.231
 3709SOL     OW12025   2.737   0.244   1.750
 3709SOL    HW112026   2.684   0.317   1.792
 3709SOL    HW212027   2.832   0.248   1.783
 3710SOL     OW12028   0.751   5.300   4.837
 3710SOL    HW112029   0.771   5.290   4.740
 3710SOL    HW212030   0.783   5.219   4.887
 3711SOL     OW12031   1.086   5.933   4.876
 3711SOL    HW112032   1.033   5.867   4.929
 3711SOL    HW212033   1.070   5.917   4.778
 3712SOL     OW12034   1.467   5.983   0.150
 3712SOL    HW112035   1.428   6.038   0.077
 3712SOL    HW212036   1.404   5.910   0.175
 3713SOL     OW12037   0.748   0.364   5.319
 3713SOL    HW112038   0.663   0.416   5.322
 3713SOL    HW212039   0.736   0.283   5.261
 3714SOL     OW12040   6.151   4.834   6.454
 3714SOL    HW112041   6.237   4.881   6.475
 3714SOL    HW212042   6.169   4.759   6.390
 3715SOL     OW12043   1.271   5.010   2.458
 3715SOL    HW112044   1.244   4.984   2.365
 3715SOL    HW212045   1.196   4.992   2.521
 3716SOL     OW12046   6.068   5.616   4.667
 3716SOL    HW112047   6.103   5.674   4.741
 3716SOL    HW212048   6.044   5.673   4.589
 3717SOL     OW12049   6.008   1.537   0.500
 3717SOL    HW112050   6.035   1.515   0.593
 3717SOL    HW212051   5.963   1.626   0.498
 3718SOL     OW12052   6.647   0.162   6.727
 3718SOL    HW112053   6.637   0.255   6.692
 3718SOL    HW212054   6.610   0.097   6.661
 3719SOL     OW12055   4.194   3.384   6.365
 3719SOL    HW112056   4.223   3.297   6.406
 3719SOL    HW212057   4.103   3.408   6.398
 3720SOL     OW12058   5.707   4.003   0.477
 3720SOL    HW112059   5.737   3.968   0.388
 3720SOL    HW212060   5.737   4.097   0.488
 3721SOL     OW12061   0.047   5.088   0.729
 3721SOL    HW112062   7.011   5.022   0.689
 3721SOL    HW212063   0.102   5.130   0.657
 3722SOL     OW12064   5.557   5.874   1.773
 3722SOL    HW112065   5.648   5.837   1.754
 3722SOL    HW212066   5.489   5.826   1.717
 3723SOL     OW12067   4.828   5.751   0.309
 3723SOL    HW112068   4.774   5.684   0.257
 3723SOL    HW212069   4.921   5.716   0.321
 3724SOL     OW12070   1.307   4.543   5.315
 3724SOL    HW112071   1.356   4.471   5.364
 3724SOL    HW212072   1.353   4.562   5.228
 3725SOL     OW12073   0.714   5.932   6.561
 3725SOL    HW112074   0.779   5.997   6.600
 3725SOL    HW212075   0.671   5.879   6.634
 3726SOL     OW12076   5.168   3.796   6.101
 3726SOL    HW112077   5.163   3.775   6.199
 3726SOL    HW212078   5.206   3.888   6.089
 3727SOL     OW12079   6.414   3.258   4.989
 3727SOL    HW112080   6.364   3.172   4.975
 3727SOL    HW212081   6.437   3.268   5.086
 3728SOL     OW12082   2.023   3.562   6.878
 3728SOL    HW112083   2.045   3.592   6.970
 3728SOL    HW212084   1.991   3.640   6.824
 3729SOL     OW12085   0.759   1.049   4.398
 3729SOL    HW112086   0.858   1.033   4.406
 3729SOL    HW212087   0.710   0.978   4.448
 3730SOL     OW12088   3.884   6.215   5.722
 3730SOL    HW112089   3.830   6.299   5.716
 3730SOL    HW212090   3.979   6.235   5.697
 3731SOL     OW12091   0.298   1.414   6.962
 3731SOL    HW112092   0.331   1.329   6.921
 3731SOL    HW212093   0.259   1.395   0.025
 3732SOL     OW12094   1.864   2.368   0.543
 3732SOL    HW112095   1.894   2.397   0.452
 3732SOL    HW212096   1.845   2.270   0.542
 3733SOL     OW12097   2.046   2.099   3.386
 3733SOL    HW112098   1.971   2.150   3.429
 3733SOL    HW212099   2.124   2.161   3.373
 3734SOL     OW12100   4.563   0.498   1.344
 3734SOL    HW112101   4.545   0.593   1.317
 3734SOL    HW212102   4.537   0.436   1.270
 3735SOL     OW12103   4.299   0.627   2.479
 3735SOL    HW112104   4.314   0.696   2.550
 3735SOL    HW212105   4.212   0.644   2.433
 3736SOL     OW12106   6.965   1.108   1.039
 3736SOL    HW112107   0.001   1.056   1.099
 3736SOL    HW212108   6.876   1.064   1.039
 3737SOL     OW12109   5.766   1.690   3.472
 3737SOL    HW112110   5.745   1.674   3.375
 3737SOL    HW212111   5.749   1.785   3.495
 3738SOL     OW12112   6.595   0.046   1.045
 3738SOL    HW112113   6.594   0.140   1.080
 3738SOL    HW212114   6.591   7.009   1.122
 3739SOL     OW12115   2.483   4.347   1.825
 3739SOL    HW112116   2.577   4.380   1.818
 3739SOL    HW212117   2.447   4.326   1.734
 3740SOL     OW12118   6.002   5.759   0.295
 3740SOL    HW112119   5.981   5.691   0.225
 3740SOL    HW212120   6.056   5.833   0.254
 3741SOL     OW12121   4.253   3.142   6.545
 3741SOL    HW112122   4.282   3.075   6.613
 3741SOL    HW212123   4.161   3.175   6.568
 3742SOL     OW12124   4.266   0.229   0.562
 3742SOL    HW112125   4.187   0.185   0.605
 3742SOL    HW212126   4.235   0.284   0.484
 3743SOL     OW12127   5.242   3.982   1.086
 3743SOL    HW112128   5.232   3.884   1.103
 3743SOL    HW212129   5.310   4.020   1.149
 3744SOL     OW12130   1.002   6.238   2.211
 3744SOL    HW112131   0.916   6.197   2.243
 3744SOL    HW212132   1.051   6.277   2.289
 3745SOL     OW12133   5.564   3.824   2.908
 3745SOL    HW112134   5.573   3.733   2.867
 3745SOL    HW212135   5.499   3.819   2.984
 3746SOL     OW12136   5.818   0.112   3.469
 3746SOL    HW112137   5.855   0.185   3.527
 3746SOL    HW212138   5.833   0.024   3.514
 3747SOL     OW12139   4.980   6.445   5.559
 3747SOL    HW112140   4.945   6.415   5.647
 3747SOL    HW212141   4.925   6.406   5.486
 3748SOL     OW12142   5.220   0.513   1.787
 3748SOL    HW112143   5.217   0.612   1.773
 3748SOL    HW212144   5.284   0.491   1.860
 3749SOL     OW12145   2.112   4.512   3.532
 3749SOL    HW112146   2.020   4.528   3.497
 3749SOL    HW212147   2.171   4.590   3.510
 3750SOL     OW12148   5.885   4.142   0.864
 3750SOL    HW112149   5.891   4.226   0.810
 3750SOL    HW212150   5.797   4.097   0.847
 3751SOL     OW12151   6.913   2.922   0.825
 3751SOL    HW112152   6.888   2.831   0.860
 3751SOL    HW212153   7.006   2.945   0.854
 3752SOL     OW12154   1.089   6.744   0.603
 3752SOL    HW112155   0.999   6.782   0.583
 3752SOL    HW212156   1.090   6.646   0.582
 3753SOL     OW12157   0.147   0.738   4.235
 3753SOL    HW112158   0.056   0.712   4.270
 3753SOL    HW212159   0.167   0.831   4.263
 3754SOL     OW12160   4.415   6.042   1.947
 3754SOL    HW112161   4.410   6.107   2.023
 3754SOL    HW212162   4.325   6.002   1.932
 3755SOL     OW12163   5.342   5.528   4.837
 3755SOL    HW112164   5.412   5.456   4.841
 3755SOL    HW212165   5.383   5.611   4.800
 3756SOL     OW12166   1.896   0.482   6.410
 3756SOL    HW112167   1.943   0.570   6.416
 3756SOL    HW212168   1.910   0.443   6.319
 3757SOL     OW12169   4.118   6.205   0.013
 3757SOL    HW112170   4.152   6.193   6.946
 3757SOL    HW212171   4.039   6.146   0.029
 3758SOL     OW12172   1.671   1.042   4.377
 3758SOL    HW112173   1.623   1.020   4.292
 3758SOL    HW212174   1.758   1.085   4.356
 3759SOL     OW12175   4.220   4.902   5.948
 3759SOL    HW112176   4.167   4.948   6.020
 3759SOL    HW212177   4.222   4.960   5.866
 3760SOL     OW12178   0.842   3.193   4.327
 3760SOL    HW112179   0.817   3.123   4.394
 3760SOL    HW212180   0.899   3.153   4.256
 3761SOL     OW12181   0.724   6.947   5.031
 3761SOL    HW112182   0.654   6.927   4.963
 3761SOL    HW212183   0.815   6.932   4.991
 3762SOL     OW12184   0.858   5.650   6.778
 3762SOL    HW112185   0.781   5.711   6.799
 3762SOL    HW212186   0.825   5.569   6.731
 3763SOL     OW12187   6.492   4.996   0.222
 3763SOL    HW112188   6.592   5.004   0.226
 3763SOL    HW212189   6.466   4.955   0.134
 3764SOL     OW12190   1.727   0.436   3.703
 3764SOL    HW112191   1.749   0.407   3.796
 3764SOL    HW212192   1.669   0.367   3.660
 3765SOL     OW12193   5.299   1.435   1.254
 3765SOL    HW112194   5.211   1.394   1.278
 3765SOL    HW212195   5.327   1.498   1.327
 3766SOL     OW12196   1.191   1.202   4.336
 3766SOL    HW112197   1.191   1.278   4.271
 3766SOL    HW212198   1.277   1.202   4.387
 3767SOL     OW12199   2.216   5.461   0.221
 3767SOL    HW112200   2.301   5.481   0.270
 3767SOL    HW212201   2.140   5.507   0.267
 3768SOL     OW12202   2.414   5.768   5.426
 3768SOL    HW112203   2.412   5.745   5.523
 3768SOL    HW212204   2.321   5.786   5.393
 3769SOL     OW12205   5.599   5.832   4.833
 3769SOL    HW112206   5.560   5.887   4.908
 3769SOL    HW212207   5.655   5.759   4.872
 3770SOL     OW12208   1.983   0.355   6.793
 3770SOL    HW112209   2.042   0.391   6.865
 3770SOL    HW212210   2.013   0.262   6.769
 3771SOL     OW12211   5.636   2.560   0.119
 3771SOL    HW112212   5.614   2.658   0.121
 3771SOL    HW212213   5.564   2.509   0.165
 3772SOL     OW12214   6.829   1.584   6.925
 3772SOL    HW112215   6.895   1.654   6.952
 3772SOL    HW212216   6.747   1.592   6.982
 3773SOL     OW12217   6.380   3.214   6.409
 3773SOL    HW112218   6.384   3.162   6.323
 3773SOL    HW212219   6.307   3.177   6.466
 3774SOL     OW12220   0.579   6.487   6.952
 3774SOL    HW112221   0.551   6.452   6.862
 3774SOL    HW212222   0.531   6.573   6.971
 3775SOL     OW12223   5.318   4.223   2.066
 3775SOL    HW112224   5.377   4.256   2.140
 3775SOL    HW212225   5.231   4.191   2.105
 3776SOL     OW12226   3.812   0.908   0.804
 3776SOL    HW112227   3.902   0.940   0.830
 3776SOL    HW212228   3.777   0.844   0.872
 3777SOL     OW12229   2.840   4.766   4.303
 3777SOL    HW112230   2.770   4.695   4.303
 3777SOL    HW212231   2.816   4.838   4.369
 3778SOL     OW12232   2.743   5.429   3.092
 3778SOL    HW112233   2.746   5.331   3.071
 3778SOL    HW212234   2.821   5.474   3.049
 3779SOL     OW12235   1.818   4.764   1.092
 3779SOL    HW112236   1.901   4.786   1.040
 3779SOL    HW212237   1.740   4.813   1.053
 3780SOL     OW12238   4.450   4.724   5.697
 3780SOL    HW112239   4.483   4.818   5.695
 3780SOL    HW212240   4.372   4.715   5.635
 3781SOL     OW12241   1.589   6.822   4.850
 3781SOL    HW112242   1.680   6.789   4.826
 3781SOL    HW212243   1.584   6.920   4.833
 3782SOL     OW12244   2.888   2.046   4.518
 3782SOL    HW112245   2.987   2.039   4.523
 3782SOL    HW212246   2.848   1.954   4.517
 3783SOL     OW12247   5.672   6.186   5.191
 3783SOL    HW112248   5.634   6.225   5.107
 3783SOL    HW212249   5.679   6.087   5.181
 3784SOL     OW12250   5.148   1.977   3.733
 3784SOL    HW112251   5.069   1.969   3.794
 3784SOL    HW212252   5.149   2.067   3.690
 3785SOL     OW12253   1.105   1.082   6.798
 3785SOL    HW112254   1.202   1.099   6.815
 3785SOL    HW212255   1.082   0.990   6.830
 3786SOL     OW12256   2.585   6.562   2.631
 3786SOL    HW112257   2.555   6.504   2.707
 3786SOL    HW212258   2.509   6.578   2.569
 3787SOL     OW12259   5.968   6.260   3.196
 3787SOL    HW112260   5.946   6.288   3.103
 3787SOL    HW212261   6.008   6.337   3.246
 3788SOL     OW12262   0.459   2.999   3.628
 3788SOL    HW112263   0.497   3.055   3.554
 3788SOL    HW212264   0.466   3.050   3.714
 3789SOL     OW12265   0.595   2.731   4.056
 3789SOL    HW112266   0.575   2.754   3.961
 3789SOL    HW212267   0.657   2.652   4.059
 3790SOL     OW12268   1.754   3.599   5.309
 3790SOL    HW112269   1.699   3.566   5.386
 3790SOL    HW212270   1.695   3.648   5.244
 3791SOL     OW12271   6.110   0.234   0.668
 3791SOL    HW112272   6.152   0.301   0.729
 3791SOL    HW212273   6.013   0.255   0.658
 3792SOL     OW12274   6.905   1.117   4.045
 3792SOL    HW112275   6.997   1.105   4.008
 3792SOL    HW212276   6.891   1.213   4.067
 3793SOL     OW12277   3.839   0.148   3.022
 3793SOL    HW112278   3.784   0.085   2.967
 3793SOL    HW212279   3.933   0.147   2.989
 3794SOL     OW12280   2.958   4.352   1.237
 3794SOL    HW112281   2.936   4.349   1.140
 3794SOL    HW212282   3.057   4.361   1.248
 3795SOL     OW12283   3.981   6.479   6.846
 3795SOL    HW112284   3.989   6.425   6.930
 3795SOL    HW212285   4.071   6.486   6.803
 3796SOL     OW12286   2.771   2.063   1.003
 3796SOL    HW112287   2.741   1.992   0.939
 3796SOL    HW212288   2.749   2.035   1.096
 3797SOL     OW12289   5.977   4.253   2.522
 3797SOL    HW112290   6.045   4.265   2.450
 3797SOL    HW212291   6.022   4.231   2.608
 3798SOL     OW12292   3.565   5.281   3.475
 3798SOL    HW112293   3.600   5.232   3.554
 3798SOL    HW212294   3.535   5.372   3.503
 3799SOL     OW12295   6.918   2.536   4.439
 3799SOL    HW112296   6.923   2.513   4.536
 3799SOL    HW212297   7.007   2.519   4.396
 3800SOL     OW12298   5.097   2.849   4.479
 3800SOL    HW112299   5.138   2.784   4.543
 3800SOL    HW212300   5.002   2.864   4.504
 3801SOL     OW12301   6.919   6.275   3.729
 3801SOL    HW112302   6.918   6.205   3.657
 3801SOL    HW212303   6.994   6.339   3.711
 3802SOL     OW12304   0.302   2.264   3.970
 3802SOL    HW112305   0.302   2.295   3.875
 3802SOL    HW212306   0.228   2.308   4.020
 3803SOL     OW12307   3.602   2.244   1.257
 3803SOL    HW112308   3.648   2.331   1.239
 3803SOL    HW212309   3.658   2.190   1.321
 3804SOL     OW12310   5.394   1.943   3.855
 3804SOL    HW112311   5.301   1.955   3.821
 3804SOL    HW212312   5.433   1.860   3.816
 3805SOL     OW12313   2.578   3.444   1.430
 3805SOL    HW112314   2.633   3.527   1.435
 3805SOL    HW212315   2.529   3.441   1.343
 3806SOL     OW12316   2.647   3.845   0.276
 3806SOL    HW112317   2.685   3.757   0.302
 3806SOL    HW212318   2.719   3.905   0.243
 3807SOL     OW12319   2.627   0.452   3.803
 3807SOL    HW112320   2.709   0.503   3.829
 3807SOL    HW212321   2.546   0.505   3.825
 3808SOL     OW12322   4.205   0.647   1.131
 3808SOL    HW112323   4.188   0.554   1.163
 3808SOL    HW212324   4.136   0.709   1.168
 3809SOL     OW12325   6.244   2.708   0.568
 3809SOL    HW112326   6.318   2.713   0.635
 3809SOL    HW212327   6.209   2.800   0.550
 3810SOL     OW12328   4.545   2.331   5.278
 3810SOL    HW112329   4.619   2.274   5.242
 3810SOL    HW212330   4.549   2.331   5.378
 3811SOL     OW12331   0.904   4.130   3.647
 3811SOL    HW112332   0.951   4.154   3.562
 3811SOL    HW212333   0.817   4.085   3.626
 3812SOL     OW12334   5.519   0.836   5.049
 3812SOL    HW112335   5.493   0.817   4.955
 3812SOL    HW212336   5.471   0.774   5.111
 3813SOL     OW12337   3.747   4.443   0.343
 3813SOL    HW112338   3.791   4.363   0.383
 3813SOL    HW212339   3.790   4.465   0.256
 3814SOL     OW12340   0.302   6.973   1.189
 3814SOL    HW112341   0.377   6.978   1.123
 3814SOL    HW212342   0.318   0.012   1.263
 3815SOL     OW12343   4.865   2.684   0.532
 3815SOL    HW112344   4.765   2.683   0.542
 3815SOL    HW212345   4.901   2.766   0.577
 3816SOL     OW12346   6.985   5.768   0.690
 3816SOL    HW112347   6.935   5.688   0.724
 3816SOL    HW212348   6.933   5.809   0.615
 3817SOL     OW12349   5.170   3.267   3.561
 3817SOL    HW112350   5.071   3.269   3.578
 3817SOL    HW212351   5.196   3.347   3.506
 3818SOL     OW12352   5.232   0.514   0.356
 3818SOL    HW112353   5.231   0.610   0.329
 3818SOL    HW212354   5.236   0.456   0.275
 3819SOL     OW12355   5.503   5.687   1.227
 3819SOL    HW112356   5.583   5.706   1.283
 3819SOL    HW212357   5.510   5.739   1.141
 3820SOL     OW12358   7.002   6.972   4.178
 3820SOL    HW112359   7.005   6.948   4.275
 3820SOL    HW212360   0.027   0.029   4.163
 3821SOL     OW12361   2.140   3.135   1.080
 3821SOL    HW112362   2.130   3.064   1.150
 3821SOL    HW212363   2.128   3.225   1.123
 3822SOL     OW12364   1.283   5.851   2.421
 3822SOL    HW112365   1.273   5.950   2.423
 3822SOL    HW212366   1.275   5.819   2.327
 3823SOL     OW12367   4.326   2.342   5.853
 3823SOL    HW112368   4.247   2.402   5.840
 3823SOL    HW212369   4.303   2.271   5.919
 3824SOL     OW12370   6.106   2.058   5.897
 3824SOL    HW112371   6.192   2.051   5.946
 3824SOL    HW212372   6.039   1.995   5.937
 3825SOL     OW12373   0.171   6.635   1.213
 3825SOL    HW112374   0.074   6.627   1.194
 3825SOL    HW212375   0.211   6.708   1.156
 3826SOL     OW12376   1.165   3.768   6.713
 3826SOL    HW112377   1.104   3.697   6.749
 3826SOL    HW212378   1.248   3.726   6.676
 3827SOL     OW12379   3.236   3.310   0.667
 3827SOL    HW112380   3.172   3.234   0.652
 3827SOL    HW212381   3.296   3.288   0.744
 3828SOL     OW12382   4.438   2.369   1.247
 3828SOL    HW112383   4.485   2.403   1.329
 3828SOL    HW212384   4.484   2.403   1.166
 3829SOL     OW12385   1.848   4.788   4.137
 3829SOL    HW112386   1.748   4.782   4.140
 3829SOL    HW212387   1.885   4.761   4.226
 3830SOL     OW12388   1.029   0.613   4.557
 3830SOL    HW112389   1.051   0.516   4.540
 3830SOL    HW212390   1.098   0.651   4.618
 3831SOL     OW12391   4.639   1.869   2.193
 3831SOL    HW112392   4.612   1.961   2.218
 3831SOL    HW212393   4.622   1.806   2.269
 3832SOL     OW12394   6.019   0.600   2.201
 3832SOL    HW112395   6.105   0.641   2.169
 3832SOL    HW212396   6.039   0.518   2.255
 3833SOL     OW12397   1.137   5.913   5.862
 3833SOL    HW112398   1.178   5.828   5.893
 3833SOL    HW212399   1.064   5.940   5.924
 3834SOL     OW12400   3.369   2.783   0.621
 3834SOL    HW112401   3.388   2.768   0.524
 3834SOL    HW212402   3.273   2.762   0.640
 3835SOL     OW12403   3.200   5.440   4.948
 3835SOL    HW112404   3.221   5.344   4.965
 3835SOL    HW212405   3.279   5.485   4.906
 3836SOL     OW12406   1.914   3.855   4.754
 3836SOL    HW112407   1.977   3.824   4.826
 3836SOL    HW212408   1.874   3.943   4.781
 3837SOL     OW12409   5.012   3.376   0.059
 3837SOL    HW112410   4.979   3.334   7.001
 3837SOL    HW212411   5.099   3.333   0.085
 3838SOL     OW12412   6.515   4.225   4.443
 3838SOL    HW112413   6.505   4.138   4.492
 3838SOL    HW212414   6.468   4.297   4.493
 3839SOL     OW12415   4.234   0.291   4.442
 3839SOL    HW112416   4.268   0.261   4.531
 3839SOL    HW212417   4.145   0.250   4.425
 3840SOL     OW12418   1.603   1.078   5.605
 3840SOL    HW112419   1.633   1.028   5.687
 3840SOL    HW212420   1.674   1.073   5.535
 3841SOL     OW12421   6.766   3.575   4.866
 3841SOL    HW112422   6.822   3.531   4.937
 3841SOL    HW212423   6.767   3.518   4.783
 3842SOL     OW12424   1.293   4.889   0.309
 3842SOL    HW112425   1.236   4.920   0.233
 3842SOL    HW212426   1.365   4.829   0.274
 3843SOL     OW12427   7.016   3.977   1.533
 3843SOL    HW112428   7.025   3.881   1.560
 3843SOL    HW212429   0.072   4.026   1.559
 3844SOL     OW12430   0.056   4.455   5.459
 3844SOL    HW112431   0.029   4.548   5.484
 3844SOL    HW212432   0.127   4.458   5.389
 3845SOL     OW12433   3.607   2.930   2.748
 3845SOL    HW112434   3.591   2.927   2.846
 3845SOL    HW212435   3.700   2.962   2.730
 3846SOL     OW12436   0.509   4.528   4.125
 3846SOL    HW112437   0.536   4.523   4.028
 3846SOL    HW212438   0.410   4.533   4.132
 3847SOL     OW12439   6.559   1.616   5.674
 3847SOL    HW112440   6.535   1.525   5.710
 3847SOL    HW212441   6.544   1.618   5.576
 3848SOL     OW12442   2.997   5.559   2.995
 3848SOL    HW112443   3.005   5.503   3.078
 3848SOL    HW212444   3.058   5.522   2.924
 3849SOL     OW12445   0.577   1.141   5.521
 3849SOL    HW112446   0.520   1.171   5.445
 3849SOL    HW212447   0.615   1.050   5.500
 3850SOL     OW12448   2.323   3.615   1.678
 3850SOL    HW112449   2.391   3.688   1.667
 3850SOL    HW212450   2.358   3.546   1.740
 3851SOL     OW12451   1.127   4.280   2.445
 3851SOL    HW112452   1.068   4.201   2.428
 3851SOL    HW212453   1.092   4.331   2.523
 3852SOL     OW12454   4.600   0.088   4.762
 3852SOL    HW112455   4.624   0.104   4.858
 3852SOL    HW212456   4.682   0.096   4.706
 3853SOL     OW12457   1.620   3.341   2.595
 3853SOL    HW112458   1.582   3.249   2.584
 3853SOL    HW212459   1.594   3.378   2.685
 3854SOL     OW12460   0.488   4.023   2.962
 3854SOL    HW112461   0.398   4.008   2.920
 3854SOL    HW212462   0.528   3.935   2.987
 3855SOL     OW12463   5.452   5.595   6.752
 3855SOL    HW112464   5.551   5.583   6.747
 3855SOL    HW212465   5.408   5.505   6.757
 3856SOL     OW12466   6.949   6.381   4.882
 3856SOL    HW112467   6.969   6.286   4.904
 3856SOL    HW212468   6.902   6.385   4.794
 3857SOL     OW12469   1.016   6.398   5.247
 3857SOL    HW112470   1.094   6.364   5.300
 3857SOL    HW212471   0.963   6.320   5.213
 3858SOL     OW12472   1.678   5.880   6.163
 3858SOL    HW112473   1.622   5.798   6.174
 3858SOL    HW212474   1.637   5.940   6.094
 3859SOL     OW12475   0.194   1.939   2.951
 3859SOL    HW112476   0.185   1.884   3.035
 3859SOL    HW212477   0.103   1.963   2.918
 3860SOL     OW12478   2.045   6.150   4.416
 3860SOL    HW112479   2.114   6.208   4.459
 3860SOL    HW212480   2.050   6.159   4.316
 3861SOL     OW12481   5.498   4.787   1.648
 3861SOL    HW112482   5.533   4.848   1.577
 3861SOL    HW212483   5.549   4.803   1.733
 3862SOL     OW12484   6.626   6.970   5.348
 3862SOL    HW112485   6.563   6.896   5.373
 3862SOL    HW212486   6.597   7.010   5.261
 3863SOL     OW12487   3.866   4.157   6.826
 3863SOL    HW112488   3.810   4.107   6.893
 3863SOL    HW212489   3.834   4.252   6.821
 3864SOL     OW12490   3.878   2.141   6.053
 3864SOL    HW112491   3.945   2.082   6.097
 3864SOL    HW212492   3.840   2.094   5.973
 3865SOL     OW12493   4.142   0.677   1.543
 3865SOL    HW112494   4.050   0.670   1.504
 3865SOL    HW212495   4.203   0.615   1.495
 3866SOL     OW12496   4.334   0.667   0.251
 3866SOL    HW112497   4.390   0.742   0.216
 3866SOL    HW212498   4.360   0.581   0.206
 3867SOL     OW12499   2.008   3.633   3.972
 3867SOL    HW112500   2.059   3.549   3.989
 3867SOL    HW212501   2.035   3.702   4.039
 3868SOL     OW12502   2.159   6.395   2.097
 3868SOL    HW112503   2.157   6.296   2.113
 3868SOL    HW212504   2.246   6.420   2.055
 3869SOL     OW12505   0.386   2.661   4.177
 3869SOL    HW112506   0.463   2.707   4.131
 3869SOL    HW212507   0.331   2.613   4.109
 3870SOL     OW12508   3.935   5.296   0.200
 3870SOL    HW112509   3.958   5.204   0.169
 3870SOL    HW212510   4.014   5.339   0.243
 3871SOL     OW12511   3.505   0.388   2.886
 3871SOL    HW112512   3.548   0.407   2.974
 3871SOL    HW212513   3.535   0.298   2.853
 3872SOL     OW12514   3.883   2.917   1.238
 3872SOL    HW112515   3.932   2.996   1.199
 3872SOL    HW212516   3.919   2.833   1.198
 3873SOL     OW12517   5.426   5.787   1.532
 3873SOL    HW112518   5.492   5.825   1.467
 3873SOL    HW212519   5.448   5.691   1.549
 3874SOL     OW12520   4.190   6.562   0.457
 3874SOL    HW112521   4.120   6.617   0.412
 3874SOL    HW212522   4.176   6.564   0.556
 3875SOL     OW12523   1.201   3.749   2.788
 3875SOL    HW112524   1.161   3.693   2.716
 3875SOL    HW212525   1.281   3.797   2.752
 3876SOL     OW12526   4.658   4.784   6.552
 3876SOL    HW112527   4.631   4.864   6.498
 3876SOL    HW212528   4.745   4.749   6.518
 3877SOL     OW12529   6.900   1.661   1.381
 3877SOL    HW112530   6.994   1.691   1.396
 3877SOL    HW212531   6.847   1.675   1.465
 3878SOL     OW12532   2.426   6.219   6.080
 3878SOL    HW112533   2.332   6.193   6.058
 3878SOL    HW212534   2.489   6.177   6.014
 3879SOL     OW12535   5.136   5.604   1.514
 3879SOL    HW112536   5.055   5.655   1.486
 3879SOL    HW212537   5.184   5.655   1.586
 3880SOL     OW12538   6.019   3.667   3.027
 3880SOL    HW112539   5.956   3.729   2.979
 3880SOL    HW212540   6.054   3.713   3.108
 3881SOL     OW12541   1.706   5.455   0.842
 3881SOL    HW112542   1.741   5.527   0.902
 3881SOL    HW212543   1.707   5.487   0.747
 3882SOL     OW12544   6.553   0.780   5.628
 3882SOL    HW112545   6.554   0.737   5.718
 3882SOL    HW212546   6.640   0.827   5.612
 3883SOL     OW12547   5.134   1.303   4.101
 3883SOL    HW112548   5.224   1.343   4.089
 3883SOL    HW212549   5.095   1.280   4.012
 3884SOL     OW12550   1.503   6.372   4.426
 3884SOL    HW112551   1.505   6.436   4.349
 3884SOL    HW212552   1.410   6.336   4.438
 3885SOL     OW12553   6.403   1.019   4.512
 3885SOL    HW112554   6.492   1.064   4.525
 3885SOL    HW212555   6.418   0.923   4.486
 3886SOL     OW12556   6.412   7.001   5.802
 3886SOL    HW112557   6.383   6.950   5.883
 3886SOL    HW212558   6.354   6.976   5.725
 3887SOL     OW12559   4.755   2.065   5.586
 3887SOL    HW112560   4.716   1.973   5.597
 3887SOL    HW212561   4.690   2.122   5.536
 3888SOL     OW12562   6.747   1.548   6.662
 3888SOL    HW112563   6.739   1.559   6.761
 3888SOL    HW212564   6.792   1.628   6.623
 3889SOL     OW12565   0.713   5.191   6.784
 3889SOL    HW112566   0.629   5.178   6.732
 3889SOL    HW212567   0.787   5.139   6.742
 3890SOL     OW12568   6.303   6.373   2.956
 3890SOL    HW112569   6.302   6.328   3.045
 3890SOL    HW212570   6.354   6.458   2.962
 3891SOL     OW12571   4.983   5.144   4.739
 3891SOL    HW112572   5.063   5.119   4.795
 3891SOL    HW212573   4.966   5.242   4.747
 3892SOL     OW12574   0.861   0.237   2.898
 3892SOL    HW112575   0.953   0.220   2.861
 3892SOL    HW212576   0.831   0.157   2.950
 3893SOL     OW12577   3.688   5.759   3.420
 3893SOL    HW112578   3.752   5.836   3.425
 3893SOL    HW212579   3.734   5.679   3.382
 3894SOL     OW12580   3.558   2.500   0.527
 3894SOL    HW112581   3.507   2.573   0.481
 3894SOL    HW212582   3.499   2.420   0.539
 3895SOL     OW12583   1.459   1.291   5.578
 3895SOL    HW112584   1.457   1.332   5.669
 3895SOL    HW212585   1.515   1.208   5.581
 3896SOL     OW12586   0.597   1.619   6.011
 3896SOL    HW112587   0.578   1.534   5.962
 3896SOL    HW212588   0.521   1.641   6.072
 3897SOL     OW12589   2.678   6.198   2.327
 3897SOL    HW112590   2.639   6.146   2.403
 3897SOL    HW212591   2.672   6.296   2.348
 3898SOL     OW12592   3.132   3.079   4.030
 3898SOL    HW112593   3.093   3.149   3.970
 3898SOL    HW212594   3.133   3.113   4.124
 3899SOL     OW12595   5.349   1.056   5.019
 3899SOL    HW112596   5.386   0.964   5.036
 3899SOL    HW212597   5.251   1.050   5.004
 3900SOL     OW12598   6.590   2.484   3.465
 3900SOL    HW112599   6.689   2.494   3.465
 3900SOL    HW212600   6.556   2.494   3.371
 3901SOL     OW12601   1.309   6.371   4.987
 3901SOL    HW112602   1.298   6.418   5.075
 3901SOL    HW212603   1.398   6.393   4.948
 3902SOL     OW12604   5.597   5.061   2.281
 3902SOL    HW112605   5.517   5.025   2.329
 3902SOL    HW212606   5.623   4.999   2.207
 3903SOL     OW12607   3.793   2.602   0.359
 3903SOL    HW112608   3.875   2.561   0.320
 3903SOL    HW212609   3.771   2.557   0.445
 3904SOL     OW12610   0.981   6.886   0.069
 3904SOL    HW112611   0.901   6.832   0.042
 3904SOL    HW212612   0.997   6.873   0.167
 3905SOL     OW12613   6.847   6.350   6.329
 3905SOL    HW112614   6.773   6.299   6.372
 3905SOL    HW212615   6.856   6.321   6.233
 3906SOL     OW12616   1.439   5.360   3.778
 3906SOL    HW112617   1.386   5.315   3.706
 3906SOL    HW212618   1.472   5.291   3.843
 3907SOL     OW12619   6.826   0.847   4.679
 3907SOL    HW112620   6.818   0.915   4.751
 3907SOL    HW212621   6.807   0.889   4.590
 3908SOL     OW12622   1.385   0.911   5.481
 3908SOL    HW112623   1.423   0.911   5.389
 3908SOL    HW212624   1.445   0.963   5.542
 3909SOL     OW12625   5.538   3.476   5.536
 3909SOL    HW112626   5.489   3.427   5.607
 3909SOL    HW212627   5.495   3.458   5.447
 3910SOL     OW12628   3.512   3.715   1.986
 3910SOL    HW112629   3.448   3.745   1.916
 3910SOL    HW212630   3.473   3.639   2.037
 3911SOL     OW12631   5.210   0.627   1.177
 3911SOL    HW112632   5.133   0.589   1.126
 3911SOL    HW212633   5.295   0.613   1.126
 3912SOL     OW12634   3.116   2.307   6.311
 3912SOL    HW112635   3.068   2.394   6.300
 3912SOL    HW212636   3.116   2.281   6.408
 3913SOL     OW12637   3.794   6.685   0.548
 3913SOL    HW112638   3.733   6.748   0.596
 3913SOL    HW212639   3.866   6.654   0.611
 3914SOL     OW12640   5.996   1.495   0.844
 3914SOL    HW112641   6.021   1.506   0.940
 3914SOL    HW212642   5.899   1.517   0.832
 3915SOL     OW12643   4.104   5.889   0.371
 3915SOL    HW112644   4.156   5.828   0.431
 3915SOL    HW212645   4.166   5.951   0.324
 3916SOL     OW12646   2.708   0.722   3.179
 3916SOL    HW112647   2.711   0.814   3.218
 3916SOL    HW212648   2.771   0.663   3.228
 3917SOL     OW12649   2.548   5.331   0.650
 3917SOL    HW112650   2.464   5.378   0.676
 3917SOL    HW212651   2.600   5.306   0.732
 3918SOL     OW12652   5.436   1.055   0.365
 3918SOL    HW112653   5.454   0.986   0.436
 3918SOL    HW212654   5.413   1.142   0.408
 3919SOL     OW12655   4.492   1.531   1.296
 3919SOL    HW112656   4.440   1.599   1.245
 3919SOL    HW212657   4.575   1.573   1.333
 3920SOL     OW12658   3.169   1.723   6.360
 3920SOL    HW112659   3.179   1.803   6.301
 3920SOL    HW212660   3.159   1.641   6.304
 3921SOL     OW12661   0.578   2.455   6.406
 3921SOL    HW112662   0.608   2.551   6.403
 3921SOL    HW212663   0.499   2.446   6.466
 3922SOL     OW12664   4.749   4.916   1.688
 3922SOL    HW112665   4.653   4.889   1.699
 3922SOL    HW212666   4.791   4.858   1.618
 3923SOL     OW12667   5.959   0.845   1.853
 3923SOL    HW112668   5.994   0.937   1.873
 3923SOL    HW212669   5.998   0.813   1.766
 3924SOL     OW12670   0.227   4.543   4.131
 3924SOL    HW112671   0.143   4.512   4.175
 3924SOL    HW212672   0.214   4.547   4.032
 3925SOL     OW12673   4.804   3.838   0.128
 3925SOL    HW112674   4.895   3.876   0.146
 3925SOL    HW212675   4.752   3.833   0.213
 3926SOL     OW12676   1.427   0.883   6.051
 3926SOL    HW112677   1.402   0.809   5.989
 3926SOL    HW212678   1.453   0.964   5.997
 3927SOL     OW12679   0.554   2.520   4.560
 3927SOL    HW112680   0.612   2.580   4.616
 3927SOL    HW212681   0.462   2.517   4.599
 3928SOL     OW12682   2.222   6.775   3.729
 3928SOL    HW112683   2.195   6.852   3.787
 3928SOL    HW212684   2.317   6.786   3.701
 3929SOL     OW12685   6.878   2.020   5.172
 3929SOL    HW112686   6.909   1.925   5.161
 3929SOL    HW212687   6.783   2.020   5.205
 3930SOL     OW12688   1.457   2.739   3.899
 3930SOL    HW112689   1.529   2.701   3.842
 3930SOL    HW212690   1.489   2.822   3.943
 3931SOL     OW12691   1.515   2.774   1.523
 3931SOL    HW112692   1.561   2.838   1.584
 3931SOL    HW212693   1.428   2.814   1.492
 3932SOL     OW12694   2.198   5.591   3.895
 3932SOL    HW112695   2.163   5.538   3.973
 3932SOL    HW212696   2.291   5.620   3.913
 3933SOL     OW12697   2.011   5.070   0.524
 3933SOL    HW112698   1.939   5.122   0.571
 3933SOL    HW212699   2.049   5.126   0.450
 3934SOL     OW12700   1.050   1.571   2.616
 3934SOL    HW112701   1.056   1.478   2.653
 3934SOL    HW212702   1.121   1.628   2.656
 3935SOL     OW12703   6.052   3.575   6.590
 3935SOL    HW112704   6.107   3.529   6.521
 3935SOL    HW212705   6.064   3.674   6.581
 3936SOL     OW12706   6.585   5.322   5.127
 3936SOL    HW112707   6.541   5.232   5.130
 3936SOL    HW212708   6.645   5.333   5.206
 3937SOL     OW12709   0.035   5.568   2.417
 3937SOL    HW112710   0.105   5.571   2.346
 3937SOL    HW212711   7.026   5.475   2.424
 3938SOL     OW12712   7.022   3.685   3.491
 3938SOL    HW112713   0.073   3.709   3.549
 3938SOL    HW212714   6.944   3.745   3.512
 3939SOL     OW12715   0.571   1.397   2.225
 3939SOL    HW112716   0.618   1.309   2.227
 3939SOL    HW212717   0.509   1.400   2.146
 3940SOL     OW12718   3.116   4.810   1.911
 3940SOL    HW112719   3.083   4.811   1.817
 3940SOL    HW212720   3.056   4.752   1.967
 3941SOL     OW12721   5.851   6.781   4.233
 3941SOL    HW112722   5.901   6.841   4.296
 3941SOL    HW212723   5.813   6.836   4.158
 3942SOL     OW12724   1.000   6.167   6.317
 3942SOL    HW112725   1.033   6.256   6.286
 3942SOL    HW212726   1.078   6.107   6.335
 3943SOL     OW12727   0.843   3.652   1.720
 3943SOL    HW112728   0.888   3.724   1.668
 3943SOL    HW212729   0.861   3.666   1.818
 3944SOL     OW12730   6.410   2.674   6.659
 3944SOL    HW112731   6.422   2.684   6.758
 3944SOL    HW212732   6.329   2.725   6.630
 3945SOL     OW12733   1.041   1.092   3.169
 3945SOL    HW112734   1.033   1.191   3.158
 3945SOL    HW212735   1.055   1.070   3.265
 3946SOL     OW12736   6.839   3.091   0.359
 3946SOL    HW112737   6.804   3.095   0.265
 3946SOL    HW212738   6.916   3.154   0.369
 3947SOL     OW12739   5.752   5.744   0.985
 3947SOL    HW112740   5.797   5.801   1.053
 3947SOL    HW212741   5.786   5.651   0.992
 3948SOL     OW12742   1.691   2.500   6.210
 3948SOL    HW112743   1.627   2.517   6.285
 3948SOL    HW212744   1.751   2.423   6.233
 3949SOL     OW12745   6.288   6.378   2.329
 3949SOL    HW112746   6.344   6.305   2.290
 3949SOL    HW212747   6.201   6.340   2.362
 3950SOL     OW12748   3.994   4.713   1.212
 3950SOL    HW112749   4.038   4.750   1.130
 3950SOL    HW212750   3.916   4.771   1.236
 3951SOL     OW12751   0.239   2.027   5.558
 3951SOL    HW112752   0.309   2.020   5.488
 3951SOL    HW212753   0.224   2.123   5.582
 3952SOL     OW12754   6.009   2.714   5.325
 3952SOL    HW112755   5.962   2.649   5.266
 3952SOL    HW212756   5.944   2.753   5.390
 3953SOL     OW12757   3.164   4.097   6.095
 3953SOL    HW112758   3.206   4.177   6.052
 3953SOL    HW212759   3.095   4.058   6.033
 3954SOL     OW12760   0.093   3.727   4.647
 3954SOL    HW112761   0.020   3.793   4.662
 3954SOL    HW212762   0.106   3.672   4.730
 3955SOL     OW12763   5.485   5.801   6.918
 3955SOL    HW112764   5.461   5.716   6.871
 3955SOL    HW212765   5.402   5.842   6.957
 3956SOL     OW12766   0.511   2.898   5.688
 3956SOL    HW112767   0.547   2.810   5.657
 3956SOL    HW212768   0.412   2.894   5.694
 3957SOL     OW12769   2.648   0.006   4.108
 3957SOL    HW112770   2.702   0.082   4.144
 3957SOL    HW212771   2.623   0.025   4.013
 3958SOL     OW12772   6.652   5.793   6.343
 3958SOL    HW112773   6.679   5.701   6.372
 3958SOL    HW212774   6.733   5.850   6.332
 3959SOL     OW12775   2.782   5.780   0.235
 3959SOL    HW112776   2.869   5.789   0.186
 3959SOL    HW212777   2.790   5.707   0.303
 3960SOL     OW12778   3.767   3.095   0.037
 3960SOL    HW112779   3.854   3.048   0.050
 3960SOL    HW212780   3.724   3.062   6.979
 3961SOL     OW12781   4.925   1.178   2.041
 3961SOL    HW112782   4.845   1.191   1.983
 3961SOL    HW212783   4.979   1.263   2.043
 3962SOL     OW12784   0.712   6.084   6.892
 3962SOL    HW112785   0.796   6.086   6.838
 3962SOL    HW212786   0.654   6.162   6.866
 3963SOL     OW12787   5.077   5.137   4.250
 3963SOL    HW112788   5.126   5.084   4.319
 3963SOL    HW212789   5.102   5.234   4.258
 3964SOL     OW12790   5.019   6.094   5.490
 3964SOL    HW112791   4.980   6.003   5.472
 3964SOL    HW212792   5.108   6.083   5.534
 3965SOL     OW12793   3.722   4.355   6.986
 3965SOL    HW112794   3.713   4.423   6.913
 3965SOL    HW212795   3.636   4.305   6.995
 3966SOL     OW12796   6.254   5.104   5.528
 3966SOL    HW112797   6.202   5.151   5.598
 3966SOL    HW212798   6.309   5.032   5.570
 3967SOL     OW12799   0.634   6.110   4.906
 3967SOL    HW112800   0.651   6.020   4.948
 3967SOL    HW212801   0.705   6.129   4.839
 3968SOL     OW12802   5.267   0.434   2.302
 3968SOL    HW112803   5.285   0.337   2.321
 3968SOL    HW212804   5.354   0.481   2.287
 3969SOL     OW12805   0.975   4.759   2.813
 3969SOL    HW112806   1.051   4.765   2.877
 3969SOL    HW212807   0.923   4.675   2.831
 3970SOL     OW12808   5.041   5.027   3.632
 3970SOL    HW112809   4.952   4.995   3.663
 3970SOL    HW212810   5.107   4.952   3.635
 3971SOL     OW12811   1.892   5.620   3.173
 3971SOL    HW112812   1.935   5.575   3.252
 3971SOL    HW212813   1.938   5.707   3.155
 3972SOL     OW12814   0.693   6.426   0.663
 3972SOL    HW112815   0.633   6.409   0.742
 3972SOL    HW212816   0.770   6.363   0.666
 3973SOL     OW12817   3.769   3.994   3.798
 3973SOL    HW112818   3.710   4.061   3.753
 3973SOL    HW212819   3.787   4.023   3.892
 3974SOL     OW12820   6.931   1.240   6.150
 3974SOL    HW112821   6.891   1.248   6.242
 3974SOL    HW212822   6.888   1.163   6.102
 3975SOL     OW12823   6.851   1.214   6.403
 3975SOL    HW112824   6.843   1.123   6.443
 3975SOL    HW212825   6.767   1.265   6.420
 3976SOL     OW12826   1.559   4.138   1.023
 3976SOL    HW112827   1.634   4.116   0.961
 3976SOL    HW212828   1.566   4.081   1.105
 3977SOL     OW12829   2.465   6.389   6.302
 3977SOL    HW112830   2.418   6.347   6.225
 3977SOL    HW212831   2.432   6.482   6.314
 3978SOL     OW12832   5.756   1.816   5.697
 3978SOL    HW112833   5.780   1.794   5.603
 3978SOL    HW212834   5.679   1.880   5.698
 3979SOL     OW12835   1.342   6.542   2.300
 3979SOL    HW112836   1.332   6.635   2.334
 3979SOL    HW212837   1.353   6.543   2.201
 3980SOL     OW12838   4.892   3.176   4.439
 3980SOL    HW112839   4.920   3.269   4.463
 3980SOL    HW212840   4.865   3.173   4.343
 3981SOL     OW12841   0.216   1.836   7.006
 3981SOL    HW112842   0.120   1.809   7.008
 3981SOL    HW212843   0.248   1.855   0.072
 3982SOL     OW12844   2.533   1.295   4.142
 3982SOL    HW112845   2.623   1.311   4.101
 3982SOL    HW212846   2.543   1.286   4.242
 3983SOL     OW12847   3.317   6.349   4.151
 3983SOL    HW112848   3.357   6.284   4.216
 3983SOL    HW212849   3.390   6.401   4.107
 3984SOL     OW12850   1.500   6.544   2.011
 3984SOL    HW112851   1.519   6.627   2.063
 3984SOL    HW212852   1.483   6.568   1.915
 3985SOL     OW12853   1.604   3.711   6.873
 3985SOL    HW112854   1.580   3.696   6.969
 3985SOL    HW212855   1.580   3.631   6.819
 3986SOL     OW12856   0.124   1.796   1.450
 3986SOL    HW112857   0.131   1.879   1.394
 3986SOL    HW212858   0.091   1.819   1.541
 3987SOL     OW12859   2.384   5.395   5.863
 3987SOL    HW112860   2.438   5.417   5.782
 3987SOL    HW212861   2.289   5.377   5.836
 3988SOL     OW12862   3.534   1.991   0.094
 3988SOL    HW112863   3.517   1.923   0.165
 3988SOL    HW212864   3.632   2.007   0.085
 3989SOL     OW12865   6.158   0.044   6.942
 3989SOL    HW112866   6.257   0.060   6.937
 3989SOL    HW212867   6.136   0.003   0.003
 3990SOL     OW12868   0.188   2.786   4.687
 3990SOL    HW112869   0.090   2.773   4.672
 3990SOL    HW212870   0.217   2.873   4.647
 3991SOL     OW12871   0.385   2.164   3.513
 3991SOL    HW112872   0.451   2.092   3.533
 3991SOL    HW212873   0.331   2.138   3.433
 3992SOL     OW12874   3.896   3.550   6.702
 3992SOL    HW112875   3.964   3.538   6.775
 3992SOL    HW212876   3.910   3.639   6.659
 3993SOL     OW12877   3.028   2.154   2.668
 3993SOL    HW112878   3.052   2.157   2.571
 3993SOL    HW212879   3.109   2.133   2.722
 3994SOL     OW12880   2.427   2.609   4.602
 3994SOL    HW112881   2.489   2.563   4.538
 3994SOL    HW212882   2.333   2.580   4.583
 3995SOL     OW12883   2.040   4.322   3.283
 3995SOL    HW112884   1.963   4.375   3.317
 3995SOL    HW212885   2.008   4.231   3.255
 3996SOL     OW12886   1.093   1.042   4.534
 3996SOL    HW112887   1.121   1.083   4.447
 3996SOL    HW212888   1.145   1.084   4.609
 3997SOL     OW12889   4.794   3.876   3.250
 3997SOL    HW112890   4.812   3.788   3.207
 3997SOL    HW212891   4.879   3.926   3.262
 3998SOL     OW12892   6.349   2.229   2.529
 3998SOL    HW112893   6.445   2.202   2.520
 3998SOL    HW212894   6.340   2.327   2.510
 3999SOL     OW12895   5.967   3.989   3.326
 3999SOL    HW112896   5.871   3.981   3.299
 3999SOL    HW212897   6.010   4.063   3.274
 4000SOL     OW12898   2.833   5.734   2.589
 4000SOL    HW112899   2.742   5.710   2.554
 4000SOL    HW212900   2.903   5.699   2.526
 4001SOL     OW12901   2.815   3.649   5.735
 4001SOL    HW112902   2.776   3.567   5.777
 4001SOL    HW212903   2.912   3.653   5.755
 4002SOL     OW12904   3.467   3.196   5.443
 4002SOL    HW112905   3.484   3.192   5.344
 4002SOL    HW212906   3.481   3.290   5.475
 4003SOL     OW12907   2.934   1.579   6.610
 4003SOL    HW112908   2.915   1.640   6.533
 4003SOL    HW212909   2.991   1.627   6.677
 4004SOL     OW12910   6.118   3.398   3.195
 4004SOL    HW112911   6.026   3.423   3.164
 4004SOL    HW212912   6.184   3.459   3.152
 4005SOL     OW12913   4.172   3.883   1.176
 4005SOL    HW112914   4.211   3.974   1.170
 4005SOL    HW212915   4.111   3.867   1.099
 4006SOL     OW12916   5.578   5.240   1.973
 4006SOL    HW112917   5.569   5.262   1.876
 4006SOL    HW212918   5.674   5.223   1.995
 4007SOL     OW12919   0.360   1.695   2.998
 4007SOL    HW112920   0.440   1.652   2.955
 4007SOL    HW212921   0.352   1.790   2.966
 4008SOL     OW12922   3.060   0.036   0.504
 4008SOL    HW112923   3.037   6.983   0.559
 4008SOL    HW212924   3.110   0.102   0.560
 4009SOL     OW12925   4.999   2.101   1.525
 4009SOL    HW112926   4.993   2.055   1.614
 4009SOL    HW212927   4.952   2.047   1.456
 4010SOL     OW12928   2.944   4.397   1.504
 4010SOL    HW112929   2.948   4.370   1.408
 4010SOL    HW212930   3.024   4.452   1.527
 4011SOL     OW12931   6.982   6.233   1.175
 4011SOL    HW112932   0.049   6.245   1.140
 4011SOL    HW212933   6.939   6.156   1.129
 4012SOL     OW12934   4.427   6.883   2.117
 4012SOL    HW112935   4.339   6.928   2.107
 4012SOL    HW212936   4.427   6.797   2.067
 4013SOL     OW12937   1.791   6.845   1.296
 4013SOL    HW112938   1.842   6.902   1.231
 4013SOL    HW212939   1.820   6.866   1.389
 4014SOL     OW12940   3.747   6.230   4.172
 4014SOL    HW112941   3.819   6.281   4.125
 4014SOL    HW212942   3.690   6.183   4.104
 4015SOL     OW12943   4.831   4.640   6.338
 4015SOL    HW112944   4.845   4.567   6.404
 4015SOL    HW212945   4.919   4.674   6.305
 4016SOL     OW12946   3.122   5.224   0.507
 4016SOL    HW112947   3.163   5.251   0.594
 4016SOL    HW212948   3.155   5.285   0.435
 4017SOL     OW12949   0.105   4.717   5.102
 4017SOL    HW112950   0.164   4.639   5.125
 4017SOL    HW212951   0.153   4.802   5.119
 4018SOL     OW12952   4.290   0.162   1.946
 4018SOL    HW112953   4.267   0.069   1.975
 4018SOL    HW212954   4.250   0.228   2.010
 4019SOL     OW12955   5.496   3.589   2.309
 4019SOL    HW112956   5.442   3.523   2.257
 4019SOL    HW212957   5.441   3.623   2.386
 4020SOL     OW12958   6.437   3.488   4.856
 4020SOL    HW112959   6.447   3.419   4.928
 4020SOL    HW212960   6.522   3.496   4.805
 4021SOL     OW12961   3.390   3.878   5.205
 4021SOL    HW112962   3.393   3.908   5.301
 4021SOL    HW212963   3.431   3.787   5.198
 4022SOL     OW12964   3.979   6.674   0.324
 4022SOL    HW112965   3.901   6.664   0.385
 4022SOL    HW212966   3.949   6.714   0.237
 4023SOL     OW12967   6.782   0.878   5.731
 4023SOL    HW112968   6.742   0.923   5.810
 4023SOL    HW212969   6.859   0.932   5.697
 4024SOL     OW12970   2.328   5.302   4.921
 4024SOL    HW112971   2.329   5.289   5.020
 4024SOL    HW212972   2.422   5.300   4.887
 4025SOL     OW12973   0.753   6.254   4.485
 4025SOL    HW112974   0.845   6.263   4.448
 4025SOL    HW212975   0.731   6.336   4.540
 4026SOL     OW12976   6.233   6.217   4.415
 4026SOL    HW112977   6.186   6.296   4.454
 4026SOL    HW212978   6.210   6.135   4.467
 4027SOL     OW12979   2.903   1.768   0.112
 4027SOL    HW112980   2.871   1.803   0.024
 4027SOL    HW212981   2.899   1.841   0.180
 4028SOL     OW12982   3.984   1.739   3.516
 4028SOL    HW112983   3.898   1.708   3.476
 4028SOL    HW212984   4.014   1.823   3.471
 4029SOL     OW12985   2.469   4.172   6.018
 4029SOL    HW112986   2.480   4.141   5.923
 4029SOL    HW212987   2.558   4.190   6.058
 4030SOL     OW12988   0.132   0.942   1.181
 4030SOL    HW112989   0.198   0.948   1.107
 4030SOL    HW212990   0.090   0.851   1.181
 4031SOL     OW12991   5.183   6.265   3.483
 4031SOL    HW112992   5.162   6.213   3.565
 4031SOL    HW212993   5.269   6.315   3.495
 4032SOL     OW12994   0.403   0.029   2.053
 4032SOL    HW112995   0.469   7.009   2.113
 4032SOL    HW212996   0.336   0.079   2.109
 4033SOL     OW12997   1.719   2.535   2.298
 4033SOL    HW112998   1.771   2.459   2.257
 4033SOL    HW212999   1.666   2.581   2.227
 4034SOL     OW13000   5.941   1.872   5.426
 4034SOL    HW113001   5.948   1.971   5.439
 4034SOL    HW213002   5.919   1.852   5.331
 4035SOL     OW13003   6.501   0.870   1.505
 4035SOL    HW113004   6.511   0.915   1.416
 4035SOL    HW213005   6.412   0.894   1.545
 4036SOL     OW13006   4.133   5.045   2.554
 4036SOL    HW113007   4.035   5.063   2.542
 4036SOL    HW213008   4.146   4.981   2.629
 4037SOL     OW13009   2.107   1.506   6.405
 4037SOL    HW113010   2.011   1.489   6.381
 4037SOL    HW213011   2.166   1.459   6.340
 4038SOL     OW13012   4.459   3.069   0.530
 4038SOL    HW113013   4.388   3.053   0.599
 4038SOL    HW213014   4.491   2.981   0.495
 4039SOL     OW13015   4.703   5.826   2.213
 4039SOL    HW113016   4.659   5.901   2.261
 4039SOL    HW213017   4.682   5.740   2.260
 4040SOL     OW13018   2.653   6.718   4.877
 4040SOL    HW113019   2.564   6.700   4.835
 4040SOL    HW213020   2.645   6.707   4.977
 4041SOL     OW13021   1.827   5.624   1.025
 4041SOL    HW113022   1.888   5.566   1.079
 4041SOL    HW213023   1.810   5.709   1.076
 4042SOL     OW13024   5.773   6.233   4.309
 4042SOL    HW113025   5.846   6.301   4.308
 4042SOL    HW213026   5.689   6.273   4.273
 4043SOL     OW13027   7.004   2.240   6.511
 4043SOL    HW113028   0.038   2.198   6.578
 4043SOL    HW213029   6.977   2.171   6.444
 4044SOL     OW13030   5.354   5.915   3.363
 4044SOL    HW113031   5.254   5.913   3.371
 4044SOL    HW213032   5.379   5.928   3.268
 4045SOL     OW13033   4.432   6.522   5.794
 4045SOL    HW113034   4.388   6.436   5.769
 4045SOL    HW213035   4.466   6.516   5.888
 4046SOL     OW13036   0.498   1.918   2.822
 4046SOL    HW113037   0.538   1.933   2.913
 4046SOL    HW213038   0.511   1.823   2.795
 4047SOL     OW13039   2.753   2.488   6.844
 4047SOL    HW113040   2.662   2.457   6.818
 4047SOL    HW213041   2.814   2.486   6.765
 4048SOL     OW13042   5.730   1.522   1.400
 4048SOL    HW113043   5.729   1.533   1.500
 4048SOL    HW213044   5.665   1.451   1.374
 4049SOL     OW13045   5.071   5.312   6.337
 4049SOL    HW113046   5.079   5.409   6.317
 4049SOL    HW213047   4.974   5.286   6.341
 4050SOL     OW13048   0.839   6.276   1.874
 4050SOL    HW113049   0.795   6.356   1.914
 4050SOL    HW213050   0.894   6.304   1.796
 4051SOL     OW13051   4.269   1.576   6.305
 4051SOL    HW113052   4.222   1.645   6.250
 4051SOL    HW213053   4.227   1.572   6.396
 4052SOL     OW13054   5.720   1.967   3.465
 4052SOL    HW113055   5.634   2.013   3.484
 4052SOL    HW213056   5.771   2.019   3.396
 4053SOL     OW13057   2.604   6.239   4.811
 4053SOL    HW113058   2.635   6.168   4.874
 4053SOL    HW213059   2.509   6.222   4.786
 4054SOL     OW13060   5.000   4.007   0.966
 4054SOL    HW113061   4.990   4.095   0.919
 4054SOL    HW213062   5.087   4.004   1.015
 4055SOL     OW13063   2.621   4.076   0.682
 4055SOL    HW113064   2.649   4.100   0.589
 4055SOL    HW213065   2.666   3.991   0.710
 4056SOL     OW13066   5.583   4.228   0.984
 4056SOL    HW113067   5.655   4.280   1.031
 4056SOL    HW213068   5.587   4.247   0.886
 4057SOL     OW13069   0.278   2.715   0.518
 4057SOL    HW113070   0.193   2.696   0.468
 4057SOL    HW213071   0.308   2.808   0.497
 4058SOL     OW13072   3.239   6.633   4.847
 4058SOL    HW113073   3.286   6.633   4.935
 4058SOL    HW213074   3.140   6.630   4.863
 4059SOL     OW13075   0.678   1.821   2.555
 4059SOL    HW113076   0.733   1.756   2.608
 4059SOL    HW213077   0.631   1.773   2.481
 4060SOL     OW13078   5.685   5.004   5.734
 4060SOL    HW113079   5.634   4.997   5.648
 4060SOL    HW213080   5.691   5.100   5.761
 4061SOL     OW13081   2.353   5.017   2.149
 4061SOL    HW113082   2.273   4.976   2.194
 4061SOL    HW213083   2.353   4.992   2.053
 4062SOL     OW13084   2.193   0.458   1.937
 4062SOL    HW113085   2.189   0.473   1.838
 4062SOL    HW213086   2.288   0.454   1.967
 4063SOL     OW13087   6.179   6.715   0.218
 4063SOL    HW113088   6.116   6.674   0.284
 4063SOL    HW213089   6.159   6.812   0.208
 4064SOL     OW13090   2.316   0.713   4.275
 4064SOL    HW113091   2.379   0.789   4.257
 4064SOL    HW213092   2.326   0.684   4.371
 4065SOL     OW13093   1.399   6.527   1.444
 4065SOL    HW113094   1.352   6.576   1.371
 4065SOL    HW213095   1.491   6.502   1.414
 4066SOL     OW13096   6.125   4.238   3.190
 4066SOL    HW113097   6.052   4.305   3.202
 4066SOL    HW213098   6.187   4.241   3.268
 4067SOL     OW13099   6.342   3.379   2.687
 4067SOL    HW113100   6.320   3.313   2.758
 4067SOL    HW213101   6.290   3.463   2.701
 4068SOL     OW13102   1.930   1.637   4.523
 4068SOL    HW113103   1.995   1.703   4.561
 4068SOL    HW213104   1.923   1.649   4.424
 4069SOL     OW13105   3.565   5.431   6.630
 4069SOL    HW113106   3.588   5.484   6.711
 4069SOL    HW213107   3.639   5.366   6.610
 4070SOL     OW13108   0.238   2.488   2.926
 4070SOL    HW113109   0.219   2.466   2.830
 4070SOL    HW213110   0.276   2.407   2.971
 4071SOL     OW13111   1.134   1.292   4.950
 4071SOL    HW113112   1.057   1.312   5.010
 4071SOL    HW213113   1.219   1.323   4.993
 4072SOL     OW13114   0.866   5.574   4.357
 4072SOL    HW113115   0.930   5.501   4.336
 4072SOL    HW213116   0.916   5.658   4.379
 4073SOL     OW13117   2.924   6.186   6.683
 4073SOL    HW113118   2.916   6.266   6.743
 4073SOL    HW213119   2.832   6.151   6.662
 4074SOL     OW13120   0.480   4.775   1.277
 4074SOL    HW113121   0.388   4.749   1.248
 4074SOL    HW213122   0.523   4.697   1.323
 4075SOL     OW13123   4.856   1.953   1.336
 4075SOL    HW113124   4.919   1.879   1.358
 4075SOL    HW213125   4.776   1.917   1.289
 4076SOL     OW13126   2.453   3.306   6.442
 4076SOL    HW113127   2.483   3.298   6.537
 4076SOL    HW213128   2.391   3.384   6.433
 4077SOL     OW13129   3.628   1.522   0.026
 4077SOL    HW113130   3.609   1.548   0.120
 4077SOL    HW213131   3.670   1.431   0.024
 4078SOL     OW13132   1.700   5.440   1.844
 4078SOL    HW113133   1.735   5.360   1.794
 4078SOL    HW213134   1.615   5.472   1.803
 4079SOL     OW13135   1.905   0.805   3.375
 4079SOL    HW113136   1.901   0.708   3.401
 4079SOL    HW213137   1.998   0.827   3.345
 4080SOL     OW13138   4.663   3.118   6.085
 4080SOL    HW113139   4.688   3.060   6.162
 4080SOL    HW213140   4.664   3.214   6.114
 4081SOL     OW13141   1.877   2.626   3.984
 4081SOL    HW113142   1.961   2.614   4.038
 4081SOL    HW213143   1.899   2.619   3.887
 4082SOL     OW13144   0.987   4.168   6.981
 4082SOL    HW113145   0.901   4.138   7.023
 4082SOL    HW213146   1.040   4.221   0.020
 4083SOL     OW13147   6.715   3.238   2.682
 4083SOL    HW113148   6.700   3.211   2.777
 4083SOL    HW213149   6.638   3.206   2.626
 4084SOL     OW13150   5.617   2.597   4.104
 4084SOL    HW113151   5.596   2.680   4.156
 4084SOL    HW213152   5.712   2.601   4.072
 4085SOL     OW13153   3.516   5.471   1.651
 4085SOL    HW113154   3.587   5.531   1.614
 4085SOL    HW213155   3.462   5.522   1.718
 4086SOL     OW13156   1.807   6.108   1.804
 4086SOL    HW113157   1.754   6.166   1.865
 4086SOL    HW213158   1.767   6.110   1.712
 4087SOL     OW13159   2.571   2.131   3.736
 4087SOL    HW113160   2.471   2.130   3.743
 4087SOL    HW213161   2.605   2.224   3.750
 4088SOL     OW13162   0.142   1.848   0.537
 4088SOL    HW113163   0.238   1.867   0.556
 4088SOL    HW213164   0.135   1.795   0.452
 4089SOL     OW13165   6.005   6.457   3.990
 4089SOL    HW113166   5.977   6.450   4.086
 4089SOL    HW213167   5.964   6.383   3.938
 4090SOL     OW13168   1.144   4.146   6.216
 4090SOL    HW113169   1.159   4.118   6.121
 4090SOL    HW213170   1.097   4.073   6.265
 4091SOL     OW13171   6.927   6.077   0.292
 4091SOL    HW113172   7.024   6.067   0.312
 4091SOL    HW213173   6.893   5.994   0.247
 4092SOL     OW13174   6.672   2.682   5.241
 4092SOL    HW113175   6.596   2.717   5.295
 4092SOL    HW213176   6.705   2.753   5.178
 4093SOL     OW13177   4.506   0.502   2.820
 4093SOL    HW113178   4.569   0.540   2.888
 4093SOL    HW213179   4.550   0.500   2.731
 4094SOL     OW13180   2.616   5.925   4.114
 4094SOL    HW113181   2.668   6.006   4.143
 4094SOL    HW213182   2.677   5.864   4.062
 4095SOL     OW13183   0.313   3.574   6.785
 4095SOL    HW113184   0.361   3.542   6.866
 4095SOL    HW213185   0.344   3.666   6.761
 4096SOL     OW13186   4.794   6.030   6.499
 4096SOL    HW113187   4.888   6.066   6.501
 4096SOL    HW213188   4.794   5.940   6.456
 4097SOL     OW13189   3.260   4.875   5.673
 4097SOL    HW113190   3.230   4.780   5.682
 4097SOL    HW213191   3.289   4.909   5.762
 4098SOL     OW13192   0.802   3.147   1.659
 4098SOL    HW113193   0.816   3.245   1.674
 4098SOL    HW213194   0.833   3.096   1.740
 4099SOL     OW13195   2.547   4.950   1.275
 4099SOL    HW113196   2.508   4.858   1.282
 4099SOL    HW213197   2.475   5.018   1.292
 4100SOL     OW13198   6.931   5.308   4.790
 4100SOL    HW113199   6.934   5.225   4.846
 4100SOL    HW213200   6.852   5.363   4.816
 4101SOL     OW13201   5.900   1.682   0.209
 4101SOL    HW113202   5.998   1.679   0.192
 4101SOL    HW213203   5.864   1.589   0.217
 4102SOL     OW13204   6.601   0.532   0.775
 4102SOL    HW113205   6.647   0.458   0.727
 4102SOL    HW213206   6.629   0.620   0.735
 4103SOL     OW13207   0.386   0.654   0.673
 4103SOL    HW113208   0.320   0.586   0.641
 4103SOL    HW213209   0.340   0.718   0.735
 4104SOL     OW13210   0.830   4.795   2.512
 4104SOL    HW113211   0.822   4.743   2.597
 4104SOL    HW213212   0.905   4.757   2.457
 4105SOL     OW13213   4.096   6.603   1.985
 4105SOL    HW113214   4.051   6.586   1.897
 4105SOL    HW213215   4.192   6.628   1.969
 4106SOL     OW13216   6.691   2.258   4.019
 4106SOL    HW113217   6.754   2.309   3.960
 4106SOL    HW213218   6.731   2.249   4.110
 4107SOL     OW13219   1.597   6.129   1.166
 4107SOL    HW113220   1.656   6.193   1.216
 4107SOL    HW213221   1.527   6.181   1.117
 4108SOL     OW13222   6.569   4.280   5.565
 4108SOL    HW113223   6.653   4.334   5.576
 4108SOL    HW213224   6.521   4.309   5.483
 4109SOL     OW13225   5.311   6.448   5.175
 4109SOL    HW113226   5.333   6.364   5.125
 4109SOL    HW213227   5.383   6.516   5.158
 4110SOL     OW13228   4.684   3.482   6.343
 4110SOL    HW113229   4.700   3.580   6.354
 4110SOL    HW213230   4.586   3.463   6.349
 4111SOL     OW13231   3.632   3.509   6.717
 4111SOL    HW113232   3.727   3.533   6.739
 4111SOL    HW213233   3.627   3.472   6.624
 4112SOL     OW13234   5.108   0.158   5.513
 4112SOL    HW113235   5.082   0.079   5.569
 4112SOL    HW213236   5.026   0.201   5.475
 4113SOL     OW13237   5.042   6.663   4.334
 4113SOL    HW113238   5.030   6.762   4.324
 4113SOL    HW213239   5.018   6.618   4.248
 4114SOL     OW13240   3.342   2.147   4.491
 4114SOL    HW113241   3.272   2.077   4.479
 4114SOL    HW213242   3.353   2.198   4.406
 4115SOL     OW13243   3.922   5.088   2.212
 4115SOL    HW113244   3.941   5.112   2.307
 4115SOL    HW213245   3.878   4.998   2.209
 4116SOL     OW13246   3.899   2.270   1.751
 4116SOL    HW113247   3.918   2.366   1.730
 4116SOL    HW213248   3.807   2.262   1.789
 4117SOL     OW13249   0.926   4.920   2.016
 4117SOL    HW113250   0.874   4.835   2.004
 4117SOL    HW213251   0.864   4.993   2.046
 4118SOL     OW13252   2.864   6.752   0.079
 4118SOL    HW113253   2.847   6.768   0.177
 4118SOL    HW213254   2.872   6.654   0.063
 4119SOL     OW13255   3.692   1.814   3.673
 4119SOL    HW113256   3.782   1.810   3.716
 4119SOL    HW213257   3.622   1.784   3.738
 4120SOL     OW13258   3.978   0.146   0.631
 4120SOL    HW113259   3.945   0.236   0.661
 4120SOL    HW213260   3.933   0.120   0.546
 4121SOL     OW13261   6.184   1.091   4.964
 4121SOL    HW113262   6.111   1.025   4.983
 4121SOL    HW213263   6.228   1.118   5.050
 4122SOL     OW13264   1.048   5.422   5.532
 4122SOL    HW113265   0.998   5.454   5.452
 4122SOL    HW213266   1.027   5.325   5.547
 4123SOL     OW13267   4.363   4.679   5.957
 4123SOL    HW113268   4.291   4.742   5.987
 4123SOL    HW213269   4.390   4.701   5.863
 4124SOL     OW13270   5.809   5.144   6.126
 4124SOL    HW113271   5.828   5.062   6.179
 4124SOL    HW213272   5.786   5.219   6.188
 4125SOL     OW13273   4.600   1.456   2.548
 4125SOL    HW113274   4.657   1.498   2.618
 4125SOL    HW213275   4.527   1.403   2.591
 4126SOL     OW13276   1.702   3.524   3.252
 4126SOL    HW113277   1.789   3.534   3.203
 4126SOL    HW213278   1.627   3.549   3.192
 4127SOL     OW13279   4.557   4.644   4.543
 4127SOL    HW113280   4.535   4.561   4.595
 4127SOL    HW213281   4.569   4.721   4.606
 4128SOL     OW13282   1.456   3.077   2.305
 4128SOL    HW113283   1.537   3.075   2.247
 4128SOL    HW213284   1.448   3.167   2.348
 4129SOL     OW13285   4.409   2.025   6.810
 4129SOL    HW113286   4.338   2.045   6.743
 4129SOL    HW213287   4.412   1.926   6.827
 4130SOL     OW13288   6.520   2.775   5.747
 4130SOL    HW113289   6.614   2.808   5.753
 4130SOL    HW213290   6.508   2.724   5.662
 4131SOL     OW13291   1.872   6.470   3.575
 4131SOL    HW113292   1.778   6.460   3.610
 4131SOL    HW213293   1.890   6.399   3.508
 4132SOL     OW13294   5.171   4.064   3.729
 4132SOL    HW113295   5.193   4.080   3.632
 4132SOL    HW213296   5.071   4.057   3.739
 4133SOL     OW13297   2.942   7.009   1.542
 4133SOL    HW113298   2.941   6.911   1.562
 4133SOL    HW213299   2.990   0.030   1.616
 4134SOL     OW13300   2.258   2.503   0.469
 4134SOL    HW113301   2.205   2.560   0.533
 4134SOL    HW213302   2.202   2.481   0.389
 4135SOL     OW13303   1.709   1.516   3.158
 4135SOL    HW113304   1.779   1.575   3.117
 4135SOL    HW213305   1.744   1.422   3.161
 4136SOL     OW13306   1.318   2.411   3.343
 4136SOL    HW113307   1.343   2.328   3.294
 4136SOL    HW213308   1.226   2.440   3.315
 4137SOL     OW13309   1.473   4.641   0.946
 4137SOL    HW113310   1.543   4.651   0.876
 4137SOL    HW213311   1.471   4.546   0.979
 4138SOL     OW13312   3.621   4.900   3.087
 4138SOL    HW113313   3.544   4.955   3.056
 4138SOL    HW213314   3.592   4.843   3.164
 4139SOL     OW13315   2.522   2.555   4.871
 4139SOL    HW113316   2.491   2.618   4.942
 4139SOL    HW213317   2.503   2.593   4.781
 4140SOL     OW13318   3.184   0.809   5.612
 4140SOL    HW113319   3.233   0.731   5.650
 4140SOL    HW213320   3.087   0.787   5.603
 4141SOL     OW13321   5.661   6.710   1.375
 4141SOL    HW113322   5.734   6.720   1.307
 4141SOL    HW213323   5.586   6.658   1.334
 4142SOL     OW13324   6.303   5.605   0.598
 4142SOL    HW113325   6.246   5.598   0.680
 4142SOL    HW213326   6.287   5.527   0.539
 4143SOL     OW13327   0.294   3.011   0.437
 4143SOL    HW113328   0.385   3.014   0.396
 4143SOL    HW213329   0.225   3.003   0.365
 4144SOL     OW13330   4.783   3.913   6.487
 4144SOL    HW113331   4.814   4.008   6.491
 4144SOL    HW213332   4.784   3.873   6.579
 4145SOL     OW13333   6.772   5.679   1.089
 4145SOL    HW113334   6.709   5.627   1.146
 4145SOL    HW213335   6.751   5.663   0.992
 4146SOL     OW13336   6.792   1.166   5.257
 4146SOL    HW113337   6.872   1.167   5.198
 4146SOL    HW213338   6.719   1.221   5.215
 4147SOL     OW13339   4.853   3.300   5.689
 4147SOL    HW113340   4.761   3.338   5.676
 4147SOL    HW213341   4.868   3.226   5.624
 4148SOL     OW13342   0.847   0.152   4.688
 4148SOL    HW113343   0.782   0.225   4.709
 4148SOL    HW213344   0.863   0.097   4.770
 4149SOL     OW13345   0.336   2.262   0.624
 4149SOL    HW113346   0.249   2.295   0.588
 4149SOL    HW213347   0.410   2.320   0.592
 4150SOL     OW13348   0.389   1.186   5.322
 4150SOL    HW113349   0.425   1.273   5.288
 4150SOL    HW213350   0.406   1.115   5.254
 4151SOL     OW13351   4.032   6.512   6.108
 4151SOL    HW113352   4.033   6.494   6.207
 4151SOL    HW213353   3.972   6.590   6.090
 4152SOL     OW13354   3.213   6.082   1.356
 4152SOL    HW113355   3.165   6.066   1.443
 4152SOL    HW213356   3.218   5.997   1.305
 4153SOL     OW13357   4.255   4.762   6.831
 4153SOL    HW113358   4.188   4.794   6.898
 4153SOL    HW213359   4.236   4.667   6.807
 4154SOL     OW13360   0.460   4.730   4.692
 4154SOL    HW113361   0.394   4.692   4.757
 4154SOL    HW213362   0.418   4.806   4.643
 4155SOL     OW13363   6.700   1.708   2.903
 4155SOL    HW113364   6.624   1.668   2.954
 4155SOL    HW213365   6.708   1.664   2.814
 4156SOL     OW13366   4.950   6.503   4.815
 4156SOL    HW113367   4.923   6.466   4.726
 4156SOL    HW213368   4.884   6.572   4.845
 4157SOL     OW13369   4.167   6.465   4.055
 4157SOL    HW113370   4.140   6.434   4.146
 4157SOL    HW213371   4.212   6.554   4.063
 4158SOL     OW13372   1.482   5.223   3.366
 4158SOL    HW113373   1.582   5.222   3.375
 4158SOL    HW213374   1.445   5.135   3.397
 4159SOL     OW13375   2.266   3.052   3.778
 4159SOL    HW113376   2.184   3.082   3.827
 4159SOL    HW213377   2.321   2.994   3.837
 4160SOL     OW13378   6.359   0.516   0.894
 4160SOL    HW113379   6.449   0.508   0.852
 4160SOL    HW213380   6.290   0.533   0.823
 4161SOL     OW13381   1.033   0.545   6.534
 4161SOL    HW113382   0.934   0.528   6.531
 4161SOL    HW213383   1.050   0.635   6.575
 4162SOL     OW13384   6.392   6.198   5.758
 4162SOL    HW113385   6.344   6.151   5.831
 4162SOL    HW213386   6.369   6.155   5.670
 4163SOL     OW13387   6.453   0.235   3.342
 4163SOL    HW113388   6.515   0.219   3.419
 4163SOL    HW213389   6.481   0.179   3.264
 4164SOL     OW13390   1.007   6.523   6.378
 4164SOL    HW113391   1.004   6.619   6.349
 4164SOL    HW213392   0.990   6.463   6.300
 4165SOL     OW13393   4.511   0.182   7.017
 4165SOL    HW113394   4.440   0.140   6.961
 4165SOL    HW213395   4.486   0.175   0.087
 4166SOL     OW13396   6.082   3.969   0.947
 4166SOL    HW113397   6.048   3.900   1.011
 4166SOL    HW213398   6.004   4.008   0.897
 4167SOL     OW13399   1.410   4.394   1.032
 4167SOL    HW113400   1.325   4.394   1.084
 4167SOL    HW213401   1.462   4.312   1.054
 4168SOL     OW13402   6.908   4.979   1.243
 4168SOL    HW113403   6.980   5.040   1.277
 4168SOL    HW213404   6.880   4.917   1.317
 4169SOL     OW13405   5.750   3.488   3.959
 4169SOL    HW113406   5.694   3.441   4.027
 4169SOL    HW213407   5.808   3.420   3.912
 4170SOL     OW13408   2.903   3.655   4.809
 4170SOL    HW113409   2.813   3.641   4.852
 4170SOL    HW213410   2.964   3.700   4.874
 4171SOL     OW13411   5.056   4.990   1.325
 4171SOL    HW113412   5.112   5.072   1.312
 4171SOL    HW213413   5.027   4.955   1.236
 4172SOL     OW13414   0.310   1.702   6.149
 4172SOL    HW113415   0.234   1.722   6.088
 4172SOL    HW213416   0.304   1.761   6.230
 4173SOL     OW13417   5.419   3.434   5.310
 4173SOL    HW113418   5.349   3.503   5.295
 4173SOL    HW213419   5.495   3.448   5.246
 4174SOL     OW13420   5.255   0.517   3.908
 4174SOL    HW113421   5.293   0.444   3.965
 4174SOL    HW213422   5.242   0.483   3.815
 4175SOL     OW13423   2.103   5.970   4.709
 4175SOL    HW113424   2.017   5.923   4.729
 4175SOL    HW213425   2.126   5.958   4.612
 4176SOL     OW13426   2.926   6.584   1.869
 4176SOL    HW113427   2.871   6.503   1.890
 4176SOL    HW213428   2.990   6.601   1.943
 4177SOL     OW13429   6.706   4.382   4.318
 4177SOL    HW113430   6.669   4.403   4.227
 4177SOL    HW213431   6.644   4.319   4.364
 4178SOL     OW13432   4.486   1.407   3.990
 4178SOL    HW113433   4.544   1.325   3.986
 4178SOL    HW213434   4.441   1.412   4.079
 4179SOL     OW13435   5.395   2.320   3.393
 4179SOL    HW113436   5.298   2.340   3.382
 4179SOL    HW213437   5.449   2.387   3.342
 4180SOL     OW13438   5.752   3.238   1.575
 4180SOL    HW113439   5.779   3.227   1.671
 4180SOL    HW213440   5.831   3.218   1.516
 4181SOL     OW13441   1.931   2.315   6.219
 4181SOL    HW113442   2.011   2.366   6.187
 4181SOL    HW213443   1.953   2.218   6.224
 4182SOL     OW13444   7.012   6.407   2.940
 4182SOL    HW113445   6.982   6.475   2.873
 4182SOL    HW213446   7.018   6.318   2.896
 4183SOL     OW13447   4.693   0.662   0.730
 4183SOL    HW113448   4.682   0.569   0.697
 4183SOL    HW213449   4.716   0.722   0.654
 4184SOL     OW13450   4.761   5.162   1.287
 4184SOL    HW113451   4.670   5.128   1.264
 4184SOL    HW213452   4.818   5.087   1.319
 4185SOL     OW13453   0.834   6.070   2.392
 4185SOL    HW113454   0.884   6.058   2.477
 4185SOL    HW213455   0.749   6.121   2.410
 4186SOL     OW13456   1.847   5.010   1.327
 4186SOL    HW113457   1.762   5.058   1.304
 4186SOL    HW213458   1.825   4.925   1.375
 4187SOL     OW13459   3.542   4.347   6.090
 4187SOL    HW113460   3.582   4.260   6.063
 4187SOL    HW213461   3.442   4.342   6.082
 4188SOL     OW13462   4.780   7.012   3.973
 4188SOL    HW113463   4.695   6.981   3.930
 4188SOL    HW213464   4.794   6.962   4.059
 4189SOL     OW13465   3.253   1.035   5.019
 4189SOL    HW113466   3.181   0.997   4.961
 4189SOL    HW213467   3.291   0.963   5.077
 4190SOL     OW13468   1.237   0.351   6.840
 4190SOL    HW113469   1.212   0.370   6.935
 4190SOL    HW213470   1.220   0.255   6.820
 4191SOL     OW13471   5.851   3.450   3.124
 4191SOL    HW113472   5.906   3.523   3.085
 4191SOL    HW213473   5.838   3.377   3.057
 4192SOL     OW13474   6.943   0.859   3.396
 4192SOL    HW113475   0.002   0.906   3.375
 4192SOL    HW213476   6.948   0.822   3.489
 4193SOL     OW13477   2.510   6.858   2.057
 4193SOL    HW113478   2.535   6.891   2.148
 4193SOL    HW213479   2.591   6.820   2.013
 4194SOL     OW13480   6.395   1.329   5.444
 4194SOL    HW113481   6.472   1.279   5.485
 4194SOL    HW213482   6.415   1.427   5.445
 4195SOL     OW13483   3.188   0.783   1.311
 4195SOL    HW113484   3.118   0.817   1.375
 4195SOL    HW213485   3.257   0.731   1.361
 4196SOL     OW13486   5.973   1.990   3.897
 4196SOL    HW113487   5.886   1.978   3.850
 4196SOL    HW213488   5.975   1.934   3.980
 4197SOL     OW13489   4.350   5.093   5.383
 4197SOL    HW113490   4.260   5.090   5.338
 4197SOL    HW213491   4.377   5.000   5.408
 4198SOL     OW13492   5.554   3.190   6.385
 4198SOL    HW113493   5.535   3.263   6.318
 4198SOL    HW213494   5.496   3.202   6.465
 4199SOL     OW13495   1.753   3.622   6.150
 4199SOL    HW113496   1.771   3.720   6.142
 4199SOL    HW213497   1.805   3.573   6.081
 4200SOL     OW13498   3.411   6.648   5.068
 4200SOL    HW113499   3.505   6.640   5.035
 4200SOL    HW213500   3.407   6.713   5.144
 4201SOL     OW13501   5.721   6.116   3.983
 4201SOL    HW113502   5.637   6.167   4.002
 4201SOL    HW213503   5.707   6.019   4.003
 4202SOL     OW13504   4.157   5.691   5.638
 4202SOL    HW113505   4.242   5.739   5.658
 4202SOL    HW213506   4.086   5.718   5.703
 4203SOL     OW13507   4.574   5.520   2.165
 4203SOL    HW113508   4.521   5.578   2.103
 4203SOL    HW213509   4.531   5.521   2.256
 4204SOL     OW13510   3.664   3.221   2.068
 4204SOL    HW113511   3.729   3.166   2.120
 4204SOL    HW213512   3.571   3.191   2.088
 4205SOL     OW13513   3.745   5.282   4.468
 4205SOL    HW113514   3.679   5.355   4.487
 4205SOL    HW213515   3.830   5.322   4.436
 4206SOL     OW13516   5.817   0.774   5.546
 4206SOL    HW113517   5.865   0.835   5.483
 4206SOL    HW213518   5.883   0.711   5.588
 4207SOL     OW13519   2.367   1.792   1.075
 4207SOL    HW113520   2.313   1.734   1.015
 4207SOL    HW213521   2.306   1.848   1.131
 4208SOL     OW13522   0.846   2.130   6.445
 4208SOL    HW113523   0.767   2.111   6.387
 4208SOL    HW213524   0.843   2.225   6.475
 4209SOL     OW13525   1.145   1.435   4.698
 4209SOL    HW113526   1.103   1.356   4.743
 4209SOL    HW213527   1.074   1.498   4.667
 4210SOL     OW13528   2.867   3.192   1.830
 4210SOL    HW113529   2.929   3.129   1.878
 4210SOL    HW213530   2.901   3.286   1.840
 4211SOL     OW13531   4.541   6.091   5.379
 4211SOL    HW113532   4.560   6.185   5.409
 4211SOL    HW213533   4.578   6.078   5.287
 4212SOL     OW13534   6.001   1.999   2.352
 4212SOL    HW113535   5.939   1.930   2.391
 4212SOL    HW213536   5.996   2.083   2.405
 4213SOL     OW13537   2.242   1.531   2.850
 4213SOL    HW113538   2.271   1.436   2.849
 4213SOL    HW213539   2.192   1.551   2.766
 4214SOL     OW13540   0.157   4.064   5.723
 4214SOL    HW113541   0.101   3.981   5.725
 4214SOL    HW213542   0.253   4.040   5.736
 4215SOL     OW13543   6.606   5.441   4.458
 4215SOL    HW113544   6.697   5.460   4.496
 4215SOL    HW213545   6.613   5.430   4.359
 4216SOL     OW13546   1.590   1.821   2.480
 4216SOL    HW113547   1.544   1.819   2.569
 4216SOL    HW213548   1.554   1.746   2.424
 4217SOL     OW13549   5.952   0.018   2.848
 4217SOL    HW113550   5.920   6.953   2.822
 4217SOL    HW213551   6.052   0.019   2.852
 4218SOL     OW13552   5.133   0.043   1.164
 4218SOL    HW113553   5.050   0.013   1.117
 4218SOL    HW213554   5.118   0.134   1.204
 4219SOL     OW13555   2.781   5.676   4.997
 4219SOL    HW113556   2.836   5.600   4.963
 4219SOL    HW213557   2.824   5.715   5.079
 4220SOL     OW13558   6.405   2.617   3.614
 4220SOL    HW113559   6.432   2.710   3.589
 4220SOL    HW213560   6.467   2.551   3.571
 4221SOL     OW13561   6.280   5.606   6.675
 4221SOL    HW113562   6.275   5.696   6.632
 4221SOL    HW213563   6.191   5.561   6.669
 4222SOL     OW13564   5.940   2.430   2.422
 4222SOL    HW113565   6.020   2.386   2.463
 4222SOL    HW213566   5.909   2.504   2.482
 4223SOL     OW13567   3.107   3.151   4.332
 4223SOL    HW113568   3.187   3.210   4.342
 4223SOL    HW213569   3.078   3.118   4.422
 4224SOL     OW13570   4.825   3.170   3.662
 4224SOL    HW113571   4.898   3.195   3.725
 4224SOL    HW213572   4.767   3.100   3.704
 4225SOL     OW13573   5.021   0.534   5.411
 4225SOL    HW113574   4.957   0.608   5.389
 4225SOL    HW213575   5.051   0.543   5.507
 4226SOL     OW13576   1.716   0.420   3.268
 4226SOL    HW113577   1.674   0.329   3.275
 4226SOL    HW213578   1.645   0.490   3.267
 4227SOL     OW13579   3.574   4.854   6.803
 4227SOL    HW113580   3.590   4.947   6.838
 4227SOL    HW213581   3.486   4.821   6.837
 4228SOL     OW13582   6.330   4.405   3.081
 4228SOL    HW113583   6.425   4.377   3.068
 4228SOL    HW213584   6.272   4.323   3.086
 4229SOL     OW13585   4.031   4.487   6.121
 4229SOL    HW113586   4.042   4.398   6.164
 4229SOL    HW213587   4.104   4.502   6.054
 4230SOL     OW13588   2.928   0.278   4.342
 4230SOL    HW113589   2.962   0.209   4.407
 4230SOL    HW213590   2.828   0.270   4.335
 4231SOL     OW13591   5.181   6.771   4.734
 4231SOL    HW113592   5.254   6.826   4.775
 4231SOL    HW213593   5.182   6.679   4.773
 4232SOL     OW13594   0.444   5.216   1.651
 4232SOL    HW113595   0.480   5.301   1.688
 4232SOL    HW213596   0.467   5.209   1.554
 4233SOL     OW13597   6.744   0.326   6.935
 4233SOL    HW113598   6.842   0.340   6.923
 4233SOL    HW213599   6.709   0.269   6.861
 4234SOL     OW13600   1.404   6.959   5.654
 4234SOL    HW113601   1.453   6.904   5.722
 4234SOL    HW213602   1.387   0.024   5.690
 4235SOL     OW13603   6.193   4.048   5.271
 4235SOL    HW113604   6.190   4.008   5.180
 4235SOL    HW213605   6.285   4.036   5.309
 4236SOL     OW13606   6.995   3.306   3.236
 4236SOL    HW113607   0.030   3.281   3.162
 4236SOL    HW213608   6.902   3.317   3.200
 4237SOL     OW13609   6.085   4.899   4.232
 4237SOL    HW113610   6.070   4.940   4.322
 4237SOL    HW213611   6.184   4.897   4.214
 4238SOL     OW13612   4.234   4.712   3.998
 4238SOL    HW113613   4.231   4.675   3.905
 4238SOL    HW213614   4.288   4.651   4.057
 4239SOL     OW13615   5.393   0.362   4.080
 4239SOL    HW113616   5.453   0.285   4.058
 4239SOL    HW213617   5.450   0.441   4.106
 4240SOL     OW13618   2.139   6.362   6.614
 4240SOL    HW113619   2.117   6.381   6.519
 4240SOL    HW213620   2.063   6.314   6.657
 4241SOL     OW13621   5.721   0.357   0.993
 4241SOL    HW113622   5.635   0.306   0.990
 4241SOL    HW213623   5.727   0.409   1.079
 4242SOL     OW13624   2.212   6.780   3.377
 4242SOL    HW113625   2.132   6.720   3.383
 4242SOL    HW213626   2.292   6.733   3.414
 4243SOL     OW13627   0.925   3.845   2.833
 4243SOL    HW113628   0.893   3.752   2.853
 4243SOL    HW213629   1.025   3.846   2.834
 4244SOL     OW13630   4.587   5.780   1.108
 4244SOL    HW113631   4.585   5.733   1.019
 4244SOL    HW213632   4.676   5.767   1.151
 4245SOL     OW13633   6.905   2.336   0.024
 4245SOL    HW113634   6.981   2.372   6.997
 4245SOL    HW213635   6.860   2.263   7.000
 4246SOL     OW13636   5.384   3.180   3.264
 4246SOL    HW113637   5.321   3.109   3.293
 4246SOL    HW213638   5.421   3.227   3.344
 4247SOL     OW13639   2.158   5.199   4.477
 4247SOL    HW113640   2.175   5.204   4.576
 4247SOL    HW213641   2.156   5.103   4.449
 4248SOL     OW13642   1.686   1.114   3.264
 4248SOL    HW113643   1.778   1.151   3.270
 4248SOL    HW213644   1.624   1.170   3.319
 4249SOL     OW13645   6.535   1.861   3.226
 4249SOL    HW113646   6.481   1.870   3.309
 4249SOL    HW213647   6.474   1.850   3.147
 4250SOL     OW13648   0.221   6.246   3.850
 4250SOL    HW113649   0.289   6.216   3.916
 4250SOL    HW213650   0.219   6.182   3.773
 4251SOL     OW13651   5.977   2.733   0.095
 4251SOL    HW113652   5.920   2.762   0.172
 4251SOL    HW213653   5.977   2.633   0.089
 4252SOL     OW13654   5.842   5.771   6.213
 4252SOL    HW113655   5.928   5.761   6.264
 4252SOL    HW213656   5.772   5.811   6.274
 4253SOL     OW13657   3.633   6.183   2.440
 4253SOL    HW113658   3.704   6.114   2.424
 4253SOL    HW213659   3.565   6.178   2.367
 4254SOL     OW13660   2.130   4.710   1.730
 4254SOL    HW113661   2.171   4.801   1.740
 4254SOL    HW213662   2.192   4.641   1.769
 4255SOL     OW13663   0.103   3.401   4.355
 4255SOL    HW113664   0.179   3.375   4.295
 4255SOL    HW213665   0.025   3.430   4.299
 4256SOL     OW13666   1.155   5.601   1.973
 4256SOL    HW113667   1.162   5.501   1.965
 4256SOL    HW213668   1.190   5.643   1.890
 4257SOL     OW13669   6.272   0.581   4.742
 4257SOL    HW113670   6.240   0.645   4.672
 4257SOL    HW213671   6.195   0.555   4.800
 4258SOL     OW13672   3.750   5.703   1.327
 4258SOL    HW113673   3.656   5.669   1.314
 4258SOL    HW213674   3.748   5.790   1.376
 4259SOL     OW13675   2.083   6.584   1.452
 4259SOL    HW113676   2.092   6.551   1.358
 4259SOL    HW213677   2.173   6.613   1.485
 4260SOL     OW13678   5.061   0.096   3.784
 4260SOL    HW113679   5.011   0.050   3.857
 4260SOL    HW213680   5.155   0.112   3.813
 4261SOL     OW13681   1.962   0.151   3.626
 4261SOL    HW113682   2.007   0.241   3.623
 4261SOL    HW213683   1.868   0.160   3.593
 4262SOL     OW13684   1.483   4.350   5.463
 4262SOL    HW113685   1.578   4.325   5.443
 4262SOL    HW213686   1.436   4.272   5.504
 4263SOL     OW13687   3.006   1.234   3.382
 4263SOL    HW113688   3.061   1.296   3.438
 4263SOL    HW213689   3.062   1.155   3.355
 4264SOL     OW13690   5.928   1.536   4.359
 4264SOL    HW113691   5.950   1.441   4.383
 4264SOL    HW213692   5.881   1.538   4.271
 4265SOL     OW13693   3.445   0.810   1.012
 4265SOL    HW113694   3.373   0.750   1.046
 4265SOL    HW213695   3.419   0.905   1.026
 4266SOL     OW13696   1.413   6.904   0.128
 4266SOL    HW113697   1.384   6.891   0.223
 4266SOL    HW213698   1.345   6.863   0.067
 4267SOL     OW13699   1.959   4.016   3.923
 4267SOL    HW113700   1.951   3.934   3.979
 4267SOL    HW213701   2.056   4.037   3.908
 4268SOL     OW13702   1.823   5.523   6.881
 4268SOL    HW113703   1.885   5.511   6.804
 4268SOL    HW213704   1.875   5.551   6.962
 4269SOL     OW13705   3.297   1.357   3.935
 4269SOL    HW113706   3.214   1.412   3.924
 4269SOL    HW213707   3.309   1.298   3.855
 4270SOL     OW13708   3.520   3.083   1.600
 4270SOL    HW113709   3.421   3.096   1.598
 4270SOL    HW213710   3.543   3.002   1.654
 4271SOL     OW13711   6.772   1.029   0.247
 4271SOL    HW113712   6.863   0.996   0.271
 4271SOL    HW213713   6.709   1.015   0.323
 4272SOL     OW13714   6.766   3.285   4.959
 4272SOL    HW113715   6.820   3.276   5.043
 4272SOL    HW213716   6.670   3.303   4.983
 4273SOL     OW13717   5.342   6.090   5.003
 4273SOL    HW113718   5.418   6.056   5.058
 4273SOL    HW213719   5.267   6.117   5.063
 4274SOL     OW13720   0.843   0.036   1.589
 4274SOL    HW113721   0.886   7.015   1.511
 4274SOL    HW213722   0.751   0.064   1.563
 4275SOL     OW13723   0.485   1.990   4.529
 4275SOL    HW113724   0.567   2.040   4.501
 4275SOL    HW213725   0.434   2.044   4.596
 4276SOL     OW13726   2.784   5.353   3.376
 4276SOL    HW113727   2.721   5.364   3.452
 4276SOL    HW213728   2.736   5.314   3.297
 4277SOL     OW13729   6.780   4.287   3.153
 4277SOL    HW113730   6.794   4.189   3.167
 4277SOL    HW213731   6.784   4.334   3.242
 4278SOL     OW13732   0.119   6.842   3.477
 4278SOL    HW113733   0.154   6.935   3.471
 4278SOL    HW213734   0.108   6.805   3.384
 4279SOL     OW13735   1.526   0.855   2.230
 4279SOL    HW113736   1.487   0.865   2.138
 4279SOL    HW213737   1.455   0.822   2.292
 4280SOL     OW13738   6.307   6.684   5.780
 4280SOL    HW113739   6.305   6.766   5.723
 4280SOL    HW213740   6.316   6.603   5.723
 4281SOL     OW13741   5.311   4.808   4.019
 4281SOL    HW113742   5.216   4.780   4.032
 4281SOL    HW213743   5.316   4.908   4.017
 4282SOL     OW13744   3.323   4.787   1.025
 4282SOL    HW113745   3.354   4.785   1.120
 4282SOL    HW213746   3.279   4.874   1.006
 4283SOL     OW13747   4.762   1.252   3.214
 4283SOL    HW113748   4.719   1.205   3.291
 4283SOL    HW213749   4.813   1.185   3.159
 4284SOL     OW13750   4.257   5.773   7.013
 4284SOL    HW113751   4.246   5.679   6.983
 4284SOL    HW213752   4.171   5.822   7.004
 4285SOL     OW13753   2.362   1.125   6.003
 4285SOL    HW113754   2.288   1.154   6.064
 4285SOL    HW213755   2.446   1.172   6.028
 4286SOL     OW13756   6.802   0.252   6.447
 4286SOL    HW113757   6.724   0.283   6.392
 4286SOL    HW213758   6.827   0.159   6.419
 4287SOL     OW13759   5.000   1.380   5.859
 4287SOL    HW113760   5.070   1.421   5.917
 4287SOL    HW213761   4.970   1.294   5.898
 4288SOL     OW13762   0.199   5.910   2.906
 4288SOL    HW113763   0.225   5.985   2.967
 4288SOL    HW213764   0.099   5.900   2.907
 4289SOL     OW13765   1.699   2.273   5.744
 4289SOL    HW113766   1.694   2.260   5.843
 4289SOL    HW213767   1.728   2.367   5.724
 4290SOL     OW13768   0.397   6.354   4.622
 4290SOL    HW113769   0.410   6.320   4.715
 4290SOL    HW213770   0.338   6.291   4.571
 4291SOL     OW13771   4.946   3.407   6.396
 4291SOL    HW113772   4.860   3.452   6.372
 4291SOL    HW213773   4.928   3.333   6.461
 4292SOL     OW13774   6.235   3.232   0.134
 4292SOL    HW113775   6.151   3.239   0.188
 4292SOL    HW213776   6.214   3.193   0.045
 4293SOL     OW13777   4.087   4.025   6.796
 4293SOL    HW113778   4.162   4.077   6.838
 4293SOL    HW213779   4.001   4.074   6.809
 4294SOL     OW13780   1.991   2.049   6.142
 4294SOL    HW113781   2.052   1.979   6.179
 4294SOL    HW213782   1.925   2.006   6.081
 4295SOL     OW13783   4.335   6.748   2.795
 4295SOL    HW113784   4.278   6.802   2.856
 4295SOL    HW213785   4.325   6.781   2.701
 4296SOL     OW13786   3.147   0.243   0.939
 4296SOL    HW113787   3.086   0.246   1.019
 4296SOL    HW213788   3.176   0.148   0.924
 4297SOL     OW13789   6.502   6.435   1.938
 4297SOL    HW113790   6.518   6.500   1.863
 4297SOL    HW213791   6.407   6.440   1.967
 4298SOL     OW13792   3.678   6.484   1.912
 4298SOL    HW113793   3.620   6.545   1.966
 4298SOL    HW213794   3.747   6.443   1.971
 4299SOL     OW13795   0.603   3.218   0.421
 4299SOL    HW113796   0.557   3.139   0.380
 4299SOL    HW213797   0.545   3.256   0.494
 4300SOL     OW13798   2.788   0.579   0.639
 4300SOL    HW113799   2.794   0.645   0.714
 4300SOL    HW213800   2.867   0.517   0.643
 4301SOL     OW13801   3.495   0.203   1.619
 4301SOL    HW113802   3.486   0.296   1.656
 4301SOL    HW213803   3.527   0.141   1.690
 4302SOL     OW13804   6.289   0.419   6.870
 4302SOL    HW113805   6.355   0.385   6.938
 4302SOL    HW213806   6.197   0.393   6.898
 4303SOL     OW13807   7.013   4.644   3.520
 4303SOL    HW113808   0.073   4.595   3.511
 4303SOL    HW213809   0.003   4.743   3.513
 4304SOL     OW13810   3.835   4.028   1.876
 4304SOL    HW113811   3.912   3.966   1.886
 4304SOL    HW213812   3.772   4.017   1.953
 4305SOL     OW13813   0.720   6.585   4.938
 4305SOL    HW113814   0.812   6.562   4.969
 4305SOL    HW213815   0.657   6.584   5.015
 4306SOL     OW13816   4.850   4.725   5.035
 4306SOL    HW113817   4.803   4.673   4.964
 4306SOL    HW213818   4.783   4.778   5.087
 4307SOL     OW13819   5.738   3.102   5.629
 4307SOL    HW113820   5.654   3.048   5.619
 4307SOL    HW213821   5.753   3.123   5.726
 4308SOL     OW13822   5.958   5.024   1.866
 4308SOL    HW113823   5.934   4.939   1.819
 4308SOL    HW213824   6.013   5.081   1.805
 4309SOL     OW13825   0.848   3.313   0.332
 4309SOL    HW113826   0.908   3.377   0.380
 4309SOL    HW213827   0.759   3.311   0.376
 4310SOL     OW13828   1.176   2.619   2.065
 4310SOL    HW113829   1.100   2.666   2.021
 4310SOL    HW213830   1.262   2.667   2.044
 4311SOL     OW13831   0.955   6.627   2.110
 4311SOL    HW113832   1.006   6.545   2.083
 4311SOL    HW213833   1.009   6.709   2.088
 4312SOL     OW13834   1.315   5.621   2.554
 4312SOL    HW113835   1.317   5.719   2.534
 4312SOL    HW213836   1.256   5.575   2.488
 4313SOL     OW13837   3.486   2.231   0.168
 4313SOL    HW113838   3.489   2.136   0.138
 4313SOL    HW213839   3.494   2.291   0.089
 4314SOL     OW13840   6.355   1.870   5.505
 4314SOL    HW113841   6.292   1.805   5.547
 4314SOL    HW213842   6.304   1.933   5.446
 4315SOL     OW13843   2.044   1.616   4.065
 4315SOL    HW113844   1.976   1.641   3.996
 4315SOL    HW213845   2.119   1.682   4.062
 4316SOL     OW13846   5.021   6.615   2.887
 4316SOL    HW113847   5.044   6.558   2.808
 4316SOL    HW213848   5.041   6.711   2.866
 4317SOL     OW13849   4.325   0.566   5.461
 4317SOL    HW113850   4.388   0.575   5.385
 4317SOL    HW213851   4.236   0.605   5.437
 4318SOL     OW13852   0.616   0.807   4.439
 4318SOL    HW113853   0.705   0.765   4.420
 4318SOL    HW213854   0.571   0.759   4.514
 4319SOL     OW13855   1.771   2.083   1.191
 4319SOL    HW113856   1.848   2.090   1.254
 4319SOL    HW213857   1.732   2.174   1.177
 4320SOL     OW13858   4.306   6.301   1.061
 4320SOL    HW113859   4.247   6.382   1.054
 4320SOL    HW213860   4.255   6.220   1.033
 4321SOL     OW13861   6.823   4.864   3.063
 4321SOL    HW113862   6.739   4.816   3.037
 4321SOL    HW213863   6.894   4.844   2.995
 4322SOL     OW13864   6.709   3.467   5.322
 4322SOL    HW113865   6.804   3.438   5.307
 4322SOL    HW213866   6.708   3.552   5.375
 4323SOL     OW13867   3.745   5.483   6.849
 4323SOL    HW113868   3.723   5.488   6.946
 4323SOL    HW213869   3.777   5.391   6.827
 4324SOL     OW13870   6.670   3.731   5.472
 4324SOL    HW113871   6.592   3.691   5.520
 4324SOL    HW213872   6.681   3.826   5.500
 4325SOL     OW13873   2.690   1.974   2.220
 4325SOL    HW113874   2.698   1.943   2.315
 4325SOL    HW213875   2.672   1.896   2.161
 4326SOL     OW13876   5.835   3.226   2.512
 4326SOL    HW113877   5.914   3.180   2.552
 4326SOL    HW213878   5.813   3.184   2.424
 4327SOL     OW13879   3.819   5.274   3.393
 4327SOL    HW113880   3.728   5.257   3.431
 4327SOL    HW213881   3.842   5.201   3.328
 4328SOL     OW13882   6.338   4.393   4.554
 4328SOL    HW113883   6.282   4.467   4.516
 4328SOL    HW213884   6.288   4.307   4.546
 4329SOL     OW13885   6.230   3.533   5.573
 4329SOL    HW113886   6.298   3.532   5.500
 4329SOL    HW213887   6.179   3.447   5.572
 4330SOL     OW13888   2.261   6.321   4.495
 4330SOL    HW113889   2.182   6.371   4.458
 4330SOL    HW213890   2.298   6.371   4.573
 4331SOL     OW13891   0.227   0.358   1.364
 4331SOL    HW113892   0.130   0.365   1.389
 4331SOL    HW213893   0.261   0.449   1.339
 4332SOL     OW13894   6.131   3.554   2.762
 4332SOL    HW113895   6.095   3.574   2.853
 4332SOL    HW213896   6.075   3.602   2.694
 4333SOL     OW13897   4.218   1.968   4.916
 4333SOL    HW113898   4.275   2.042   4.880
 4333SOL    HW213899   4.236   1.884   4.866
 4334SOL     OW13900   1.338   2.773   2.753
 4334SOL    HW113901   1.326   2.857   2.807
 4334SOL    HW213902   1.419   2.782   2.695
 4335SOL     OW13903   3.562   3.145   1.317
 4335SOL    HW113904   3.542   3.051   1.287
 4335SOL    HW213905   3.552   3.150   1.416
 4336SOL     OW13906   2.062   4.947   4.885
 4336SOL    HW113907   2.143   4.891   4.875
 4336SOL    HW213908   1.982   4.897   4.851
 4337SOL     OW13909   1.579   5.911   1.812
 4337SOL    HW113910   1.638   5.831   1.825
 4337SOL    HW213911   1.634   5.994   1.816
 4338SOL     OW13912   6.037   0.512   6.241
 4338SOL    HW113913   5.993   0.423   6.243
 4338SOL    HW213914   5.967   0.584   6.243
 4339SOL     OW13915   3.479   2.693   6.079
 4339SOL    HW113916   3.503   2.615   6.021
 4339SOL    HW213917   3.561   2.726   6.126
 4340SOL     OW13918   5.645   2.846   1.105
 4340SOL    HW113919   5.556   2.865   1.147
 4340SOL    HW213920   5.684   2.763   1.145
 4341SOL     OW13921   1.318   5.154   1.775
 4341SOL    HW113922   1.297   5.093   1.698
 4341SOL    HW213923   1.395   5.116   1.827
 4342SOL     OW13924   4.997   3.697   3.141
 4342SOL    HW113925   5.052   3.631   3.089
 4342SOL    HW213926   5.029   3.699   3.236
 4343SOL     OW13927   3.451   6.724   6.294
 4343SOL    HW113928   3.507   6.671   6.358
 4343SOL    HW213929   3.434   6.815   6.332
 4344SOL     OW13930   0.389   3.182   3.161
 4344SOL    HW113931   0.345   3.095   3.140
 4344SOL    HW213932   0.456   3.203   3.089
 4345SOL     OW13933   2.957   3.231   3.113
 4345SOL    HW113934   3.023   3.169   3.156
 4345SOL    HW213935   2.892   3.263   3.182
 4346SOL     OW13936   2.339   2.767   2.016
 4346SOL    HW113937   2.288   2.842   2.056
 4346SOL    HW213938   2.400   2.727   2.085
 4347SOL     OW13939   6.494   5.881   2.243
 4347SOL    HW113940   6.412   5.832   2.273
 4347SOL    HW213941   6.496   5.972   2.286
 4348SOL     OW13942   0.378   5.576   4.485
 4348SOL    HW113943   0.339   5.604   4.397
 4348SOL    HW213944   0.472   5.610   4.492
 4349SOL     OW13945   6.954   3.311   3.853
 4349SOL    HW113946   6.955   3.350   3.761
 4349SOL    HW213947   6.985   3.380   3.919
 4350SOL     OW13948   5.044   1.985   4.822
 4350SOL    HW113949   5.098   1.948   4.747
 4350SOL    HW213950   5.103   2.039   4.882
 4351SOL     OW13951   1.753   6.294   1.342
 4351SOL    HW113952   1.839   6.289   1.293
 4351SOL    HW213953   1.742   6.386   1.381
 4352SOL     OW13954   5.491   3.515   1.655
 4352SOL    HW113955   5.435   3.598   1.659
 4352SOL    HW213956   5.557   3.516   1.731
 4353SOL     OW13957   2.799   3.655   6.906
 4353SOL    HW113958   2.846   3.603   6.835
 4353SOL    HW213959   2.782   3.748   6.874
 4354SOL     OW13960   0.575   1.021   5.837
 4354SOL    HW113961   0.583   1.005   5.936
 4354SOL    HW213962   0.488   1.064   5.817
 4355SOL     OW13963   1.207   6.806   3.248
 4355SOL    HW113964   1.191   6.900   3.280
 4355SOL    HW213965   1.123   6.752   3.260
 4356SOL     OW13966   4.114   3.614   5.668
 4356SOL    HW113967   4.096   3.520   5.697
 4356SOL    HW213968   4.186   3.615   5.599
 4357SOL     OW13969   0.244   1.524   1.553
 4357SOL    HW113970   0.221   1.506   1.649
 4357SOL    HW213971   0.199   1.609   1.524
 4358SOL     OW13972   0.279   0.581   0.278
 4358SOL    HW113973   0.370   0.540   0.287
 4358SOL    HW213974   0.229   0.535   0.204
 4359SOL     OW13975   1.765   0.544   6.743
 4359SOL    HW113976   1.816   0.458   6.746
 4359SOL    HW213977   1.695   0.539   6.672
 4360SOL     OW13978   1.065   2.107   4.144
 4360SOL    HW113979   1.143   2.084   4.085
 4360SOL    HW213980   0.991   2.042   4.127
 4361SOL     OW13981   2.318   2.790   1.277
 4361SOL    HW113982   2.312   2.806   1.178
 4361SOL    HW213983   2.231   2.812   1.320
 4362SOL     OW13984   0.662   6.015   4.348
 4362SOL    HW113985   0.693   6.101   4.388
 4362SOL    HW213986   0.586   5.979   4.402
 4363SOL     OW13987   3.844   1.172   1.848
 4363SOL    HW113988   3.764   1.203   1.900
 4363SOL    HW213989   3.858   1.232   1.770
 4364SOL     OW13990   3.156   3.534   2.700
 4364SOL    HW113991   3.213   3.481   2.762
 4364SOL    HW213992   3.129   3.620   2.744
 4365SOL     OW13993   2.966   1.516   2.019
 4365SOL    HW113994   3.030   1.581   1.980
 4365SOL    HW213995   2.901   1.563   2.079
 4366SOL     OW13996   6.467   5.957   6.190
 4366SOL    HW113997   6.532   5.887   6.220
 4366SOL    HW213998   6.458   6.027   6.261
 4367SOL     OW13999   3.379   5.159   2.754
 4367SOL    HW114000   3.354   5.244   2.708
 4367SOL    HW214001   3.400   5.089   2.687
 4368SOL     OW14002   4.092   5.694   2.994
 4368SOL    HW114003   4.067   5.601   3.021
 4368SOL    HW214004   4.133   5.741   3.072
 4369SOL     OW14005   4.829   5.508   3.311
 4369SOL    HW114006   4.815   5.595   3.265
 4369SOL    HW214007   4.912   5.512   3.367
 4370SOL     OW14008   3.738   3.859   1.675
 4370SOL    HW114009   3.797   3.780   1.695
 4370SOL    HW214010   3.786   3.943   1.702
 4371SOL     OW14011   2.104   1.593   2.291
 4371SOL    HW114012   2.193   1.570   2.330
 4371SOL    HW214013   2.071   1.679   2.332
 4372SOL     OW14014   2.177   3.401   4.058
 4372SOL    HW114015   2.160   3.331   4.127
 4372SOL    HW214016   2.240   3.365   3.989
 4373SOL     OW14017   4.348   1.293   6.245
 4373SOL    HW114018   4.401   1.294   6.160
 4373SOL    HW214019   4.322   1.387   6.268
 4374SOL     OW14020   2.034   2.066   1.434
 4374SOL    HW114021   1.951   2.010   1.440
 4374SOL    HW214022   2.009   2.163   1.441
 4375SOL     OW14023   4.071   6.550   3.208
 4375SOL    HW114024   4.061   6.569   3.306
 4375SOL    HW214025   3.995   6.592   3.158
 4376SOL     OW14026   6.301   0.434   1.649
 4376SOL    HW114027   6.277   0.397   1.559
 4376SOL    HW214028   6.306   0.360   1.716
 4377SOL     OW14029   6.375   5.304   0.120
 4377SOL    HW114030   6.413   5.395   0.138
 4377SOL    HW214031   6.279   5.301   0.148
 4378SOL     OW14032   1.020   4.699   2.304
 4378SOL    HW114033   0.935   4.715   2.254
 4378SOL    HW214034   1.090   4.664   2.241
 4379SOL     OW14035   2.306   1.003   2.400
 4379SOL    HW114036   2.281   0.941   2.325
 4379SOL    HW214037   2.383   0.964   2.451
 4380SOL     OW14038   2.194   5.739   5.031
 4380SOL    HW114039   2.274   5.712   5.085
 4380SOL    HW214040   2.111   5.721   5.084
 4381SOL     OW14041   2.549   4.667   4.644
 4381SOL    HW114042   2.558   4.622   4.733
 4381SOL    HW214043   2.552   4.766   4.656
 4382SOL     OW14044   5.494   4.131   5.494
 4382SOL    HW114045   5.583   4.170   5.470
 4382SOL    HW214046   5.444   4.194   5.552
 4383SOL     OW14047   0.669   1.688   5.646
 4383SOL    HW114048   0.675   1.657   5.551
 4383SOL    HW214049   0.675   1.609   5.707
 4384SOL     OW14050   5.191   0.953   6.724
 4384SOL    HW114051   5.255   0.876   6.724
 4384SOL    HW214052   5.166   0.975   6.630
 4385SOL     OW14053   0.077   2.337   4.089
 4385SOL    HW114054   0.116   2.392   4.163
 4385SOL    HW214055   7.005   2.352   4.085
 4386SOL     OW14056   1.206   3.802   6.378
 4386SOL    HW114057   1.156   3.888   6.371
 4386SOL    HW214058   1.265   3.804   6.458
 4387SOL     OW14059   0.478   2.108   2.057
 4387SOL    HW114060   0.440   2.132   1.968
 4387SOL    HW214061   0.551   2.041   2.045
 4388SOL     OW14062   4.317   1.031   6.703
 4388SOL    HW114063   4.228   1.028   6.749
 4388SOL    HW214064   4.311   1.090   6.622
 4389SOL     OW14065   5.550   2.512   0.790
 4389SOL    HW114066   5.542   2.610   0.770
 4389SOL    HW214067   5.599   2.500   0.877
 4390SOL     OW14068   4.162   2.312   1.922
 4390SOL    HW114069   4.188   2.377   1.850
 4390SOL    HW214070   4.227   2.236   1.924
 4391SOL     OW14071   1.467   6.154   6.477
 4391SOL    HW114072   1.464   6.251   6.453
 4391SOL    HW214073   1.541   6.109   6.427
 4392SOL     OW14074   5.743   4.134   4.873
 4392SOL    HW114075   5.689   4.064   4.920
 4392SOL    HW214076   5.834   4.140   4.915
 4393SOL     OW14077   4.868   6.109   2.617
 4393SOL    HW114078   4.848   6.196   2.661
 4393SOL    HW214079   4.967   6.095   2.614
 4394SOL     OW14080   5.874   5.508   2.716
 4394SOL    HW114081   5.925   5.433   2.758
 4394SOL    HW214082   5.874   5.587   2.778
 4395SOL     OW14083   4.009   2.370   0.891
 4395SOL    HW114084   4.095   2.393   0.936
 4395SOL    HW214085   3.934   2.418   0.936
 4396SOL     OW14086   2.365   1.940   4.073
 4396SOL    HW114087   2.279   1.980   4.041
 4396SOL    HW214088   2.351   1.843   4.091
 4397SOL     OW14089   6.966   1.731   3.909
 4397SOL    HW114090   6.969   1.794   3.832
 4397SOL    HW214091   0.032   1.703   3.934
 4398SOL     OW14092   1.504   4.636   4.412
 4398SOL    HW114093   1.596   4.616   4.445
 4398SOL    HW214094   1.467   4.556   4.365
 4399SOL     OW14095   2.253   0.685   1.342
 4399SOL    HW114096   2.329   0.704   1.403
 4399SOL    HW214097   2.279   0.709   1.248
 4400SOL     OW14098   2.076   6.611   4.867
 4400SOL    HW114099   2.142   6.684   4.884
 4400SOL    HW214100   2.071   6.551   4.947
 4401SOL     OW14101   5.519   5.767   6.348
 4401SOL    HW114102   5.442   5.749   6.286
 4401SOL    HW214103   5.521   5.864   6.372
 4402SOL     OW14104   1.885   6.295   3.113
 4402SOL    HW114105   1.944   6.259   3.185
 4402SOL    HW214106   1.853   6.386   3.138
 4403SOL     OW14107   6.869   0.047   3.382
 4403SOL    HW114108   6.805   7.005   3.415
 4403SOL    HW214109   6.956   0.003   3.360
 4404SOL     OW14110   1.037   3.596   5.148
 4404SOL    HW114111   0.947   3.633   5.126
 4404SOL    HW214112   1.030   3.496   5.158
 4405SOL     OW14113   3.292   4.831   6.581
 4405SOL    HW114114   3.317   4.796   6.671
 4405SOL    HW214115   3.264   4.927   6.589
 4406SOL     OW14116   5.236   4.458   0.942
 4406SOL    HW114117   5.293   4.529   0.900
 4406SOL    HW214118   5.259   4.370   0.902
 4407SOL     OW14119   0.377   5.225   1.094
 4407SOL    HW114120   0.341   5.294   1.158
 4407SOL    HW214121   0.393   5.268   1.005
 4408SOL     OW14122   5.026   0.983   0.608
 4408SOL    HW114123   4.933   0.946   0.615
 4408SOL    HW214124   5.090   0.909   0.588
 4409SOL     OW14125   3.607   0.849   1.787
 4409SOL    HW114126   3.543   0.777   1.760
 4409SOL    HW214127   3.568   0.938   1.766
 4410SOL     OW14128   2.119   4.393   0.281
 4410SOL    HW114129   2.141   4.297   0.300
 4410SOL    HW214130   2.072   4.399   0.193
 4411SOL     OW14131   3.999   3.319   3.284
 4411SOL    HW114132   3.979   3.224   3.306
 4411SOL    HW214133   4.003   3.373   3.368
 4412SOL     OW14134   3.794   1.865   4.666
 4412SOL    HW114135   3.713   1.895   4.718
 4412SOL    HW214136   3.847   1.945   4.639
 4413SOL     OW14137   4.950   5.598   5.139
 4413SOL    HW114138   4.867   5.550   5.168
 4413SOL    HW214139   4.928   5.692   5.115
 4414SOL     OW14140   4.538   4.595   2.155
 4414SOL    HW114141   4.616   4.618   2.212
 4414SOL    HW214142   4.570   4.557   2.068
 4415SOL     OW14143   4.258   3.850   6.957
 4415SOL    HW114144   4.223   3.882   6.870
 4415SOL    HW214145   4.279   3.752   6.951
 4416SOL     OW14146   2.964   1.204   4.203
 4416SOL    HW114147   2.965   1.190   4.302
 4416SOL    HW214148   3.043   1.157   4.163
 4417SOL     OW14149   6.431   4.371   2.299
 4417SOL    HW114150   6.493   4.294   2.285
 4417SOL    HW214151   6.471   4.435   2.366
 4418SOL     OW14152   4.865   6.447   4.186
 4418SOL    HW114153   4.824   6.511   4.121
 4418SOL    HW214154   4.799   6.377   4.211
 4419SOL     OW14155   5.211   5.508   0.790
 4419SOL    HW114156   5.207   5.565   0.872
 4419SOL    HW214157   5.290   5.533   0.735
 4420SOL     OW14158   5.281   1.899   0.742
 4420SOL    HW114159   5.292   1.801   0.759
 4420SOL    HW214160   5.305   1.919   0.647
 4421SOL     OW14161   1.911   1.290   3.254
 4421SOL    HW114162   1.967   1.279   3.337
 4421SOL    HW214163   1.971   1.301   3.175
 4422SOL     OW14164   2.370   3.875   5.802
 4422SOL    HW114165   2.375   3.949   5.735
 4422SOL    HW214166   2.326   3.795   5.759
 4423SOL     OW14167   1.284   2.712   5.593
 4423SOL    HW114168   1.222   2.650   5.546
 4423SOL    HW214169   1.295   2.682   5.688
 4424SOL     OW14170   5.756   6.666   3.719
 4424SOL    HW114171   5.852   6.644   3.701
 4424SOL    HW214172   5.734   6.645   3.814
 4425SOL     OW14173   3.321   5.484   5.829
 4425SOL    HW114174   3.374   5.459   5.749
 4425SOL    HW214175   3.228   5.511   5.801
 4426SOL     OW14176   6.481   1.457   4.566
 4426SOL    HW114177   6.544   1.441   4.642
 4426SOL    HW214178   6.482   1.554   4.541
 4427SOL     OW14179   7.008   0.363   2.264
 4427SOL    HW114180   0.080   0.350   2.251
 4427SOL    HW214181   6.985   0.347   2.360
 4428SOL     OW14182   2.864   5.199   3.042
 4428SOL    HW114183   2.885   5.147   3.125
 4428SOL    HW214184   2.945   5.202   2.984
 4429SOL     OW14185   2.857   0.301   4.039
 4429SOL    HW114186   2.915   0.343   4.109
 4429SOL    HW214187   2.766   0.342   4.043
 4430SOL     OW14188   5.009   2.819   3.605
 4430SOL    HW114189   4.914   2.788   3.604
 4430SOL    HW214190   5.069   2.742   3.626
 4431SOL     OW14191   2.028   1.903   1.917
 4431SOL    HW114192   2.093   1.979   1.928
 4431SOL    HW214193   1.955   1.932   1.855
 4432SOL     OW14194   3.048   3.861   3.797
 4432SOL    HW114195   3.141   3.833   3.821
 4432SOL    HW214196   3.013   3.800   3.725
 4433SOL     OW14197   6.235   0.050   4.388
 4433SOL    HW114198   6.324   0.007   4.402
 4433SOL    HW214199   6.191   0.067   4.476
 4434SOL     OW14200   4.910   1.132   4.165
 4434SOL    HW114201   4.983   1.201   4.165
 4434SOL    HW214202   4.950   1.043   4.141
 4435SOL     OW14203   4.090   3.567   0.998
 4435SOL    HW114204   4.003   3.517   0.987
 4435SOL    HW214205   4.132   3.540   1.084
 4436SOL     OW14206   3.122   2.319   0.345
 4436SOL    HW114207   3.104   2.233   0.393
 4436SOL    HW214208   3.073   2.394   0.392
 4437SOL     OW14209   4.933   1.283   3.920
 4437SOL    HW114210   4.834   1.288   3.908
 4437SOL    HW214211   4.964   1.190   3.899
 4438SOL     OW14212   3.770   2.034   6.776
 4438SOL    HW114213   3.794   1.969   6.847
 4438SOL    HW214214   3.675   2.063   6.787
 4439SOL     OW14215   0.697   5.575   1.463
 4439SOL    HW114216   0.747   5.660   1.477
 4439SOL    HW214217   0.668   5.539   1.552
 4440SOL     OW14218   1.442   5.163   6.745
 4440SOL    HW114219   1.398   5.076   6.767
 4440SOL    HW214220   1.440   5.177   6.646
 4441SOL     OW14221   6.822   1.504   2.171
 4441SOL    HW114222   6.805   1.483   2.074
 4441SOL    HW214223   6.846   1.600   2.180
 4442SOL     OW14224   3.157   5.806   3.895
 4442SOL    HW114225   3.109   5.773   3.976
 4442SOL    HW214226   3.095   5.864   3.841
 4443SOL     OW14227   0.726   2.874   6.733
 4443SOL    HW114228   0.655   2.943   6.718
 4443SOL    HW214229   0.810   2.919   6.763
 4444SOL     OW14230   3.497   6.285   6.741
 4444SOL    HW114231   3.483   6.381   6.719
 4444SOL    HW214232   3.421   6.231   6.706
 4445SOL     OW14233   0.480   0.400   0.243
 4445SOL    HW114234   0.423   0.321   0.267
 4445SOL    HW214235   0.568   0.367   0.208
 4446SOL     OW14236   5.909   1.291   1.396
 4446SOL    HW114237   5.858   1.216   1.355
 4446SOL    HW214238   5.862   1.377   1.380
 4447SOL     OW14239   5.581   3.668   5.936
 4447SOL    HW114240   5.640   3.674   5.856
 4447SOL    HW214241   5.632   3.694   6.018
 4448SOL     OW14242   3.456   4.027   0.717
 4448SOL    HW114243   3.520   4.036   0.640
 4448SOL    HW214244   3.500   4.059   0.801
 4449SOL     OW14245   4.320   0.306   6.169
 4449SOL    HW114246   4.348   0.296   6.074
 4449SOL    HW214247   4.379   0.373   6.214
 4450SOL     OW14248   3.333   2.969   3.847
 4450SOL    HW114249   3.240   3.002   3.861
 4450SOL    HW214250   3.388   3.040   3.804
 4451SOL     OW14251   5.491   4.103   2.867
 4451SOL    HW114252   5.422   4.146   2.925
 4451SOL    HW214253   5.510   4.010   2.901
 4452SOL     OW14254   5.535   6.277   4.983
 4452SOL    HW114255   5.444   6.236   4.979
 4452SOL    HW214256   5.578   6.271   4.893
 4453SOL     OW14257   6.693   2.728   0.138
 4453SOL    HW114258   6.606   2.778   0.142
 4453SOL    HW214259   6.710   2.698   0.045
 4454SOL     OW14260   4.883   2.889   0.715
 4454SOL    HW114261   4.819   2.955   0.756
 4454SOL    HW214262   4.904   2.818   0.783
 4455SOL     OW14263   2.918   0.057   0.003
 4455SOL    HW114264   2.971   6.999   0.003
 4455SOL    HW214265   2.915   0.095   0.096
 4456SOL     OW14266   2.515   5.177   2.315
 4456SOL    HW114267   2.491   5.111   2.244
 4456SOL    HW214268   2.442   5.181   2.383
 4457SOL     OW14269   4.236   2.526   0.192
 4457SOL    HW114270   4.311   2.564   0.247
 4457SOL    HW214271   4.274   2.469   0.120
 4458SOL     OW14272   1.581   3.990   6.809
 4458SOL    HW114273   1.499   4.027   6.764
 4458SOL    HW214274   1.587   3.892   6.792
 4459SOL     OW14275   5.573   0.078   3.729
 4459SOL    HW114276   5.597   7.020   3.681
 4459SOL    HW214277   5.655   0.135   3.738
 4460SOL     OW14278   2.487   2.876   5.793
 4460SOL    HW114279   2.525   2.908   5.880
 4460SOL    HW214280   2.449   2.954   5.743
 4461SOL     OW14281   1.024   0.770   2.392
 4461SOL    HW114282   0.961   0.761   2.315
 4461SOL    HW214283   0.973   0.764   2.478
 4462SOL     OW14284   6.912   3.739   1.122
 4462SOL    HW114285   6.984   3.729   1.053
 4462SOL    HW214286   6.924   3.825   1.171
 4463SOL     OW14287   2.457   2.757   6.879
 4463SOL    HW114288   2.464   2.718   6.787
 4463SOL    HW214289   2.456   2.856   6.874
 4464SOL     OW14290   6.111   5.366   0.218
 4464SOL    HW114291   6.053   5.440   0.183
 4464SOL    HW214292   6.057   5.282   0.225
 4465SOL     OW14293   2.240   5.991   3.469
 4465SOL    HW114294   2.239   6.040   3.556
 4465SOL    HW214295   2.149   5.995   3.428
 4466SOL     OW14296   1.327   0.600   2.662
 4466SOL    HW114297   1.425   0.617   2.670
 4466SOL    HW214298   1.278   0.650   2.734
 4467SOL     OW14299   1.334   6.293   3.719
 4467SOL    HW114300   1.375   6.236   3.791
 4467SOL    HW214301   1.260   6.242   3.676
 4468SOL     OW14302   0.807   1.842   0.364
 4468SOL    HW114303   0.835   1.767   0.423
 4468SOL    HW214304   0.749   1.808   0.290
 4469SOL     OW14305   3.357   0.314   1.119
 4469SOL    HW114306   3.269   0.279   1.087
 4469SOL    HW214307   3.367   0.297   1.217
 4470SOL     OW14308   5.865   3.507   1.445
 4470SOL    HW114309   5.774   3.472   1.425
 4470SOL    HW214310   5.930   3.430   1.450
 4471SOL     OW14311   0.525   2.523   0.541
 4471SOL    HW114312   0.443   2.573   0.515
 4471SOL    HW214313   0.563   2.562   0.625
 4472SOL     OW14314   1.456   3.329   3.368
 4472SOL    HW114315   1.523   3.398   3.395
 4472SOL    HW214316   1.502   3.256   3.318
 4473SOL     OW14317   7.014   1.677   4.369
 4473SOL    HW114318   0.059   1.720   4.315
 4473SOL    HW214319   6.968   1.746   4.425
 4474SOL     OW14320   3.142   1.248   1.973
 4474SOL    HW114321   3.043   1.258   1.970
 4474SOL    HW214322   3.184   1.306   1.903
 4475SOL     OW14323   1.803   4.079   2.214
 4475SOL    HW114324   1.756   4.164   2.238
 4475SOL    HW214325   1.818   4.076   2.115
 4476SOL     OW14326   5.053   6.259   4.203
 4476SOL    HW114327   5.069   6.198   4.125
 4476SOL    HW214328   4.998   6.337   4.173
 4477SOL     OW14329   1.728   0.152   6.534
 4477SOL    HW114330   1.631   0.172   6.547
 4477SOL    HW214331   1.763   0.100   6.612
 4478SOL     OW14332   3.199   6.015   2.773
 4478SOL    HW114333   3.135   6.017   2.696
 4478SOL    HW214334   3.161   6.067   2.849
 4479SOL     OW14335   0.910   0.640   0.282
 4479SOL    HW114336   0.985   0.575   0.293
 4479SOL    HW214337   0.848   0.607   0.210
 4480SOL     OW14338   2.184   4.121   4.738
 4480SOL    HW114339   2.235   4.108   4.823
 4480SOL    HW214340   2.119   4.045   4.726
 4481SOL     OW14341   2.898   0.037   4.950
 4481SOL    HW114342   2.817   0.052   5.006
 4481SOL    HW214343   2.919   6.966   4.946
 4482SOL     OW14344   0.686   3.741   4.104
 4482SOL    HW114345   0.681   3.815   4.036
 4482SOL    HW214346   0.732   3.774   4.186
 4483SOL     OW14347   5.945   3.245   1.173
 4483SOL    HW114348   6.008   3.236   1.250
 4483SOL    HW214349   5.860   3.197   1.192
 4484SOL     OW14350   3.266   2.150   5.292
 4484SOL    HW114351   3.307   2.104   5.213
 4484SOL    HW214352   3.204   2.221   5.260
 4485SOL     OW14353   5.622   2.651   6.240
 4485SOL    HW114354   5.691   2.713   6.279
 4485SOL    HW214355   5.538   2.703   6.222
 4486SOL     OW14356   5.712   3.543   4.448
 4486SOL    HW114357   5.661   3.601   4.383
 4486SOL    HW214358   5.747   3.600   4.522
 4487SOL     OW14359   2.549   3.284   6.683
 4487SOL    HW114360   2.595   3.238   6.759
 4487SOL    HW214361   2.570   3.381   6.686
 4488SOL     OW14362   5.629   2.602   5.663
 4488SOL    HW114363   5.542   2.598   5.613
 4488SOL    HW214364   5.626   2.538   5.740
 4489SOL     OW14365   4.858   6.157   4.433
 4489SOL    HW114366   4.895   6.078   4.483
 4489SOL    HW214367   4.930   6.198   4.377
 4490SOL     OW14368   5.709   2.213   1.983
 4490SOL    HW114369   5.746   2.243   2.071
 4490SOL    HW214370   5.778   2.228   1.912
 4491SOL     OW14371   0.558   3.076   3.348
 4491SOL    HW114372   0.576   2.980   3.327
 4491SOL    HW214373   0.504   3.117   3.274
 4492SOL     OW14374   5.630   4.004   0.859
 4492SOL    HW114375   5.591   3.980   0.770
 4492SOL    HW214376   5.565   4.059   0.911
 4493SOL     OW14377   4.394   5.404   5.466
 4493SOL    HW114378   4.299   5.421   5.493
 4493SOL    HW214379   4.398   5.319   5.413
 4494SOL     OW14380   0.338   1.886   6.346
 4494SOL    HW114381   0.292   1.938   6.418
 4494SOL    HW214382   0.414   1.940   6.310
 4495SOL     OW14383   5.255   6.548   3.723
 4495SOL    HW114384   5.295   6.498   3.647
 4495SOL    HW214385   5.275   6.645   3.714
 4496SOL     OW14386   5.168   5.848   0.856
 4496SOL    HW114387   5.157   5.937   0.900
 4496SOL    HW214388   5.146   5.776   0.922
 4497SOL     OW14389   4.801   0.094   6.978
 4497SOL    HW114390   4.708   0.130   6.984
 4497SOL    HW214391   4.798   7.022   6.963
 4498SOL     OW14392   0.144   3.300   6.105
 4498SOL    HW114393   0.128   3.391   6.143
 4498SOL    HW214394   0.106   3.294   6.013
 4499SOL     OW14395   0.039   3.506   4.024
 4499SOL    HW114396   0.125   3.456   4.034
 4499SOL    HW214397   6.998   3.470   4.088
 4500SOL     OW14398   3.523   3.433   3.811
 4500SOL    HW114399   3.511   3.375   3.891
 4500SOL    HW214400   3.521   3.529   3.839
 4501SOL     OW14401   0.117   3.310   5.836
 4501SOL    HW114402   0.064   3.260   5.768
 4501SOL    HW214403   0.215   3.293   5.821
 4502SOL     OW14404   1.783   2.887   6.621
 4502SOL    HW114405   1.708   2.944   6.656
 4502SOL    HW214406   1.870   2.927   6.649
 4503SOL     OW14407   3.110   0.519   2.512
 4503SOL    HW114408   3.056   0.599   2.487
 4503SOL    HW214409   3.161   0.486   2.432
 4504SOL     OW14410   6.607   1.951   5.284
 4504SOL    HW114411   6.513   1.918   5.273
 4504SOL    HW214412   6.626   1.968   5.380
 4505SOL     OW14413   6.696   5.701   3.836
 4505SOL    HW114414   6.614   5.729   3.786
 4505SOL    HW214415   6.738   5.782   3.879
 4506SOL     OW14416   5.022   2.503   4.989
 4506SOL    HW114417   4.961   2.482   4.913
 4506SOL    HW214418   5.116   2.487   4.962
 4507SOL     OW14419   4.980   3.832   1.326
 4507SOL    HW114420   4.917   3.757   1.305
 4507SOL    HW214421   4.929   3.907   1.368
 4508SOL     OW14422   0.366   4.846   6.330
 4508SOL    HW114423   0.345   4.846   6.233
 4508SOL    HW214424   0.462   4.869   6.343
 4509SOL     OW14425   4.807   2.245   3.835
 4509SOL    HW114426   4.846   2.271   3.923
 4509SOL    HW214427   4.776   2.150   3.838
 4510SOL     OW14428   5.742   6.331   5.400
 4510SOL    HW114429   5.707   6.283   5.320
 4510SOL    HW214430   5.698   6.295   5.482
 4511SOL     OW14431   6.706   3.094   6.694
 4511SOL    HW114432   6.768   3.093   6.616
 4511SOL    HW214433   6.740   3.031   6.764
 4512SOL     OW14434   2.046   6.543   6.113
 4512SOL    HW114435   2.014   6.636   6.096
 4512SOL    HW214436   1.968   6.481   6.112
 4513SOL     OW14437   5.247   6.721   0.419
 4513SOL    HW114438   5.202   6.810   0.412
 4513SOL    HW214439   5.183   6.649   0.391
 4514SOL     OW14440   4.575   0.713   4.731
 4514SOL    HW114441   4.481   0.716   4.697
 4514SOL    HW214442   4.624   0.637   4.688
 4515SOL     OW14443   6.694   4.279   6.321
 4515SOL    HW114444   6.641   4.203   6.359
 4515SOL    HW214445   6.737   4.251   6.236
 4516SOL     OW14446   1.468   1.399   5.837
 4516SOL    HW114447   1.549   1.457   5.829
 4516SOL    HW214448   1.388   1.448   5.803
 4517SOL     OW14449   2.423   0.177   6.783
 4517SOL    HW114450   2.466   0.260   6.745
 4517SOL    HW214451   2.327   0.196   6.803
 4518SOL     OW14452   6.524   1.570   3.238
 4518SOL    HW114453   6.550   1.666   3.242
 4518SOL    HW214454   6.544   1.534   3.147
 4519SOL     OW14455   6.074   0.645   1.645
 4519SOL    HW114456   6.150   0.602   1.694
 4519SOL    HW214457   6.018   0.575   1.601
 4520SOL     OW14458   5.223   5.147   2.846
 4520SOL    HW114459   5.185   5.081   2.911
 4520SOL    HW214460   5.230   5.103   2.756
 4521SOL     OW14461   4.911   2.308   5.248
 4521SOL    HW114462   4.842   2.248   5.207
 4521SOL    HW214463   4.982   2.328   5.181
 4522SOL     OW14464   5.209   0.409   3.657
 4522SOL    HW114465   5.185   0.313   3.669
 4522SOL    HW214466   5.282   0.417   3.589
 4523SOL     OW14467   1.019   4.714   0.267
 4523SOL    HW114468   1.049   4.651   0.195
 4523SOL    HW214469   1.051   4.806   0.246
 4524SOL     OW14470   5.167   2.258   5.539
 4524SOL    HW114471   5.150   2.306   5.625
 4524SOL    HW214472   5.209   2.321   5.473
 4525SOL     OW14473   6.264   1.626   3.143
 4525SOL    HW114474   6.190   1.657   3.202
 4525SOL    HW214475   6.346   1.610   3.198
 4526SOL     OW14476   4.666   0.650   0.445
 4526SOL    HW114477   4.592   0.609   0.392
 4526SOL    HW214478   4.740   0.677   0.384
 4527SOL     OW14479   4.238   1.248   4.114
 4527SOL    HW114480   4.264   1.308   4.189
 4527SOL    HW214481   4.204   1.304   4.038
 4528SOL     OW14482   5.116   6.428   0.304
 4528SOL    HW114483   5.103   6.330   0.285
 4528SOL    HW214484   5.099   6.445   0.401
 4529SOL     OW14485   3.749   1.308   3.754
 4529SOL    HW114486   3.764   1.306   3.853
 4529SOL    HW214487   3.660   1.348   3.735
 4530SOL     OW14488   6.944   3.687   5.545
 4530SOL    HW114489   6.844   3.686   5.539
 4530SOL    HW214490   6.983   3.627   5.475
 4531SOL     OW14491   0.039   2.841   3.348
 4531SOL    HW114492   0.060   2.862   3.252
 4531SOL    HW214493   0.083   2.908   3.407
 4532SOL     OW14494   0.208   1.224   2.248
 4532SOL    HW114495   0.179   1.168   2.171
 4532SOL    HW214496   0.138   1.292   2.268
 4533SOL     OW14497   1.562   0.198   3.237
 4533SOL    HW114498   1.512   0.187   3.152
 4533SOL    HW214499   1.521   0.141   3.308
 4534SOL     OW14500   5.718   3.187   4.138
 4534SOL    HW114501   5.731   3.088   4.127
 4534SOL    HW214502   5.800   3.227   4.178
 4535SOL     OW14503   4.369   2.034   2.942
 4535SOL    HW114504   4.448   2.003   2.995
 4535SOL    HW214505   4.342   1.962   2.878
 4536SOL     OW14506   4.509   2.080   4.504
 4536SOL    HW114507   4.416   2.086   4.467
 4536SOL    HW214508   4.573   2.063   4.429
 4537SOL     OW14509   3.780   3.500   5.917
 4537SOL    HW114510   3.848   3.543   5.976
 4537SOL    HW214511   3.697   3.556   5.917
 4538SOL     OW14512   2.809   1.888   4.151
 4538SOL    HW114513   2.906   1.895   4.129
 4538SOL    HW214514   2.799   1.847   4.242
 4539SOL     OW14515   2.440   1.366   4.422
 4539SOL    HW114516   2.497   1.442   4.456
 4539SOL    HW214517   2.379   1.400   4.351
 4540SOL     OW14518   3.393   3.231   3.997
 4540SOL    HW114519   3.361   3.136   3.994
 4540SOL    HW214520   3.317   3.292   3.974
 4541SOL     OW14521   5.720   1.197   6.883
 4541SOL    HW114522   5.752   1.105   6.905
 4541SOL    HW214523   5.659   1.229   6.956
 4542SOL     OW14524   5.736   6.706   1.808
 4542SOL    HW114525   5.706   6.685   1.901
 4542SOL    HW214526   5.697   6.794   1.779
 4543SOL     OW14527   4.273   1.685   0.318
 4543SOL    HW114528   4.221   1.601   0.303
 4543SOL    HW214529   4.290   1.730   0.231
 4544SOL     OW14530   2.595   6.233   5.636
 4544SOL    HW114531   2.676   6.263   5.586
 4544SOL    HW214532   2.607   6.251   5.734
 4545SOL     OW14533   5.246   2.393   5.190
 4545SOL    HW114534   5.290   2.422   5.105
 4545SOL    HW214535   5.307   2.332   5.240
 4546SOL     OW14536   1.205   0.290   6.527
 4546SOL    HW114537   1.229   0.369   6.471
 4546SOL    HW214538   1.131   0.315   6.590
 4547SOL     OW14539   6.318   2.422   3.176
 4547SOL    HW114540   6.372   2.459   3.101
 4547SOL    HW214541   6.352   2.331   3.201
 4548SOL     OW14542   1.065   4.452   4.543
 4548SOL    HW114543   1.123   4.533   4.539
 4548SOL    HW214544   1.038   4.426   4.450
 4549SOL     OW14545   6.052   3.296   2.717
 4549SOL    HW114546   6.070   3.393   2.736
 4549SOL    HW214547   6.105   3.269   2.636
 4550SOL     OW14548   0.636   6.333   3.199
 4550SOL    HW114549   0.628   6.360   3.103
 4550SOL    HW214550   0.679   6.407   3.251
 4551SOL     OW14551   0.417   2.274   5.316
 4551SOL    HW114552   0.334   2.267   5.262
 4551SOL    HW214553   0.461   2.184   5.322
 4552SOL     OW14554   6.871   2.505   6.167
 4552SOL    HW114555   6.865   2.513   6.266
 4552SOL    HW214556   6.880   2.408   6.141
 4553SOL     OW14557   3.743   4.214   0.552
 4553SOL    HW114558   3.692   4.287   0.596
 4553SOL    HW214559   3.833   4.205   0.594
 4554SOL     OW14560   3.805   0.928   1.562
 4554SOL    HW114561   3.860   0.967   1.636
 4554SOL    HW214562   3.708   0.933   1.586
 4555SOL     OW14563   3.654   1.878   6.070
 4555SOL    HW114564   3.749   1.852   6.054
 4555SOL    HW214565   3.651   1.954   6.135
 4556SOL     OW14566   4.629   1.989   3.836
 4556SOL    HW114567   4.677   1.921   3.892
 4556SOL    HW214568   4.587   2.057   3.895
 4557SOL     OW14569   5.066   6.550   5.254
 4557SOL    HW114570   5.149   6.508   5.217
 4557SOL    HW214571   5.027   6.491   5.325
 4558SOL     OW14572   6.295   4.059   5.938
 4558SOL    HW114573   6.352   4.094   6.012
 4558SOL    HW214574   6.294   4.124   5.862
 4559SOL     OW14575   1.113   5.415   1.408
 4559SOL    HW114576   1.180   5.381   1.343
 4559SOL    HW214577   1.143   5.395   1.501
 4560SOL     OW14578   5.679   4.562   3.315
 4560SOL    HW114579   5.746   4.503   3.272
 4560SOL    HW214580   5.693   4.563   3.414
 4561SOL     OW14581   2.969   0.845   1.432
 4561SOL    HW114582   2.904   0.777   1.398
 4561SOL    HW214583   2.951   0.933   1.389
 4562SOL     OW14584   3.081   5.838   4.882
 4562SOL    HW114585   3.093   5.823   4.980
 4562SOL    HW214586   3.122   5.762   4.831
 4563SOL     OW14587   6.588   3.960   0.340
 4563SOL    HW114588   6.613   3.869   0.372
 4563SOL    HW214589   6.488   3.970   0.339
 4564SOL     OW14590   0.753   6.051   0.871
 4564SOL    HW114591   0.850   6.076   0.878
 4564SOL    HW214592   0.707   6.076   0.957
 4565SOL     OW14593   0.166   1.360   5.584
 4565SOL    HW114594   0.114   1.348   5.669
 4565SOL    HW214595   0.149   1.283   5.523
 4566SOL     OW14596   7.011   0.969   0.808
 4566SOL    HW114597   7.017   1.022   0.724
 4566SOL    HW214598   7.006   1.030   0.887
 4567SOL     OW14599   0.621   0.776   0.220
 4567SOL    HW114600   0.621   0.703   0.289
 4567SOL    HW214601   0.546   0.760   0.156
 4568SOL     OW14602   1.802   4.513   5.128
 4568SOL    HW114603   1.750   4.503   5.044
 4568SOL    HW214604   1.761   4.584   5.185
 4569SOL     OW14605   2.173   1.439   3.752
 4569SOL    HW114606   2.097   1.464   3.812
 4569SOL    HW214607   2.259   1.469   3.793
 4570SOL     OW14608   0.169   4.642   3.093
 4570SOL    HW114609   0.235   4.617   3.021
 4570SOL    HW214610   0.158   4.565   3.156
 4571SOL     OW14611   3.551   3.549   5.466
 4571SOL    HW114612   3.472   3.556   5.527
 4571SOL    HW214613   3.635   3.556   5.520
 4572SOL     OW14614   0.479   6.125   6.664
 4572SOL    HW114615   0.513   6.076   6.583
 4572SOL    HW214616   0.414   6.067   6.712
 4573SOL     OW14617   6.211   6.203   0.724
 4573SOL    HW114618   6.274   6.172   0.653
 4573SOL    HW214619   6.183   6.125   0.780
 4574SOL     OW14620   7.015   4.247   1.226
 4574SOL    HW114621   0.035   4.318   1.278
 4574SOL    HW214622   6.917   4.263   1.227
 4575SOL     OW14623   6.459   2.021   6.986
 4575SOL    HW114624   6.440   1.923   6.979
 4575SOL    HW214625   6.468   2.059   6.893
 4576SOL     OW14626   2.646   6.090   6.366
 4576SOL    HW114627   2.714   6.144   6.315
 4576SOL    HW214628   2.586   6.153   6.415
 4577SOL     OW14629   0.182   2.696   3.089
 4577SOL    HW114630   0.216   2.630   3.023
 4577SOL    HW214631   0.104   2.746   3.050
 4578SOL     OW14632   0.562   3.597   3.395
 4578SOL    HW114633   0.530   3.553   3.311
 4578SOL    HW214634   0.639   3.657   3.373
 4579SOL     OW14635   5.368   1.286   2.785
 4579SOL    HW114636   5.306   1.324   2.854
 4579SOL    HW214637   5.434   1.225   2.829
 4580SOL     OW14638   5.489   5.636   0.290
 4580SOL    HW114639   5.475   5.720   0.238
 4580SOL    HW214640   5.559   5.653   0.360
 4581SOL     OW14641   3.106   5.200   2.931
 4581SOL    HW114642   3.170   5.272   2.902
 4581SOL    HW214643   3.128   5.115   2.884
 4582SOL     OW14644   6.102   6.424   4.583
 4582SOL    HW114645   6.094   6.523   4.585
 4582SOL    HW214646   6.182   6.395   4.635
 4583SOL     OW14647   2.490   1.345   4.898
 4583SOL    HW114648   2.589   1.348   4.888
 4583SOL    HW214649   2.459   1.424   4.951
 4584SOL     OW14650   0.650   5.672   5.369
 4584SOL    HW114651   0.662   5.616   5.451
 4584SOL    HW214652   0.612   5.615   5.296
 4585SOL     OW14653   3.127   6.540   2.944
 4585SOL    HW114654   3.109   6.593   3.028
 4585SOL    HW214655   3.084   6.587   2.866
 4586SOL     OW14656   3.931   5.024   0.811
 4586SOL    HW114657   3.994   5.101   0.825
 4586SOL    HW214658   3.894   5.029   0.718
 4587SOL     OW14659   4.154   3.230   1.804
 4587SOL    HW114660   4.239   3.181   1.784
 4587SOL    HW214661   4.097   3.233   1.721
 4588SOL     OW14662   4.083   4.094   5.238
 4588SOL    HW114663   4.121   4.011   5.279
 4588SOL    HW214664   4.053   4.075   5.145
 4589SOL     OW14665   5.685   1.289   1.924
 4589SOL    HW114666   5.702   1.267   1.828
 4589SOL    HW214667   5.766   1.265   1.979
 4590SOL     OW14668   4.284   6.294   2.244
 4590SOL    HW114669   4.250   6.200   2.249
 4590SOL    HW214670   4.266   6.340   2.331
 4591SOL     OW14671   0.887   6.403   4.703
 4591SOL    HW114672   0.882   6.458   4.619
 4591SOL    HW214673   0.979   6.412   4.742
 4592SOL     OW14674   4.047   2.769   1.732
 4592SOL    HW114675   4.054   2.827   1.813
 4592SOL    HW214676   3.971   2.799   1.675
 4593SOL     OW14677   4.263   5.429   4.079
 4593SOL    HW114678   4.185   5.462   4.025
 4593SOL    HW214679   4.305   5.507   4.126
 4594SOL     OW14680   3.322   2.377   1.183
 4594SOL    HW114681   3.357   2.283   1.179
 4594SOL    HW214682   3.372   2.429   1.252
 4595SOL     OW14683   3.556   2.499   5.896
 4595SOL    HW114684   3.647   2.491   5.855
 4595SOL    HW214685   3.490   2.527   5.826
 4596SOL     OW14686   6.086   6.748   2.024
 4596SOL    HW114687   6.023   6.676   1.995
 4596SOL    HW214688   6.054   6.789   2.109
 4597SOL     OW14689   4.846   4.711   0.068
 4597SOL    HW114690   4.898   4.640   0.115
 4597SOL    HW214691   4.890   4.800   0.083
 4598SOL     OW14692   1.593   5.534   6.701
 4598SOL    HW114693   1.675   5.494   6.741
 4598SOL    HW214694   1.559   5.608   6.760
 4599SOL     OW14695   1.630   4.365   1.322
 4599SOL    HW114696   1.650   4.391   1.416
 4599SOL    HW214697   1.684   4.421   1.259
 4600SOL     OW14698   2.230   6.017   5.988
 4600SOL    HW114699   2.197   6.047   5.898
 4600SOL    HW214700   2.175   5.940   6.020
 4601SOL     OW14701   1.511   1.003   5.229
 4601SOL    HW114702   1.448   1.021   5.152
 4601SOL    HW214703   1.592   0.955   5.195
 4602SOL     OW14704   1.013   5.947   0.677
 4602SOL    HW114705   1.019   5.998   0.763
 4602SOL    HW214706   0.948   5.872   0.688
 4603SOL     OW14707   3.558   7.024   1.786
 4603SOL    HW114708   3.510   0.014   1.873
 4603SOL    HW214709   3.622   6.948   1.798
 4604SOL     OW14710   4.751   0.919   1.506
 4604SOL    HW114711   4.770   0.823   1.525
 4604SOL    HW214712   4.654   0.938   1.525
 4605SOL     OW14713   5.111   0.859   2.886
 4605SOL    HW114714   5.061   0.871   2.800
 4605SOL    HW214715   5.082   0.774   2.930
 4606SOL     OW14716   0.065   0.244   1.886
 4606SOL    HW114717   0.026   0.192   1.962
 4606SOL    HW214718   0.114   0.323   1.923
 4607SOL     OW14719   2.653   3.196   0.883
 4607SOL    HW114720   2.672   3.164   0.976
 4607SOL    HW214721   2.739   3.207   0.833
 4608SOL     OW14722   1.772   5.586   3.844
 4608SOL    HW114723   1.849   5.639   3.809
 4608SOL    HW214724   1.708   5.567   3.769
 4609SOL     OW14725   4.228   5.647   6.070
 4609SOL    HW114726   4.258   5.564   6.021
 4609SOL    HW214727   4.143   5.627   6.119
 4610SOL     OW14728   6.688   2.210   0.348
 4610SOL    HW114729   6.711   2.307   0.353
 4610SOL    HW214730   6.695   2.180   0.253
 4611SOL     OW14731   6.078   5.213   5.711
 4611SOL    HW114732   6.115   5.283   5.771
 4611SOL    HW214733   6.077   5.125   5.759
 4612SOL     OW14734   1.785   6.263   0.536
 4612SOL    HW114735   1.736   6.208   0.468
 4612SOL    HW214736   1.723   6.286   0.611
 4613SOL     OW14737   2.567   5.639   2.481
 4613SOL    HW114738   2.535   5.589   2.401
 4613SOL    HW214739   2.493   5.696   2.517
 4614SOL     OW14740   1.114   4.707   5.189
 4614SOL    HW114741   1.058   4.631   5.155
 4614SOL    HW214742   1.194   4.670   5.237
 4615SOL     OW14743   2.215   0.757   0.562
 4615SOL    HW114744   2.231   0.815   0.483
 4615SOL    HW214745   2.299   0.706   0.584
 4616SOL     OW14746   6.595   0.192   5.853
 4616SOL    HW114747   6.584   0.270   5.791
 4616SOL    HW214748   6.511   0.139   5.855
 4617SOL     OW14749   1.393   2.177   2.884
 4617SOL    HW114750   1.371   2.151   2.790
 4617SOL    HW214751   1.492   2.179   2.896
 4618SOL     OW14752   1.848   2.513   5.119
 4618SOL    HW114753   1.846   2.535   5.021
 4618SOL    HW214754   1.895   2.587   5.168
 4619SOL     OW14755   4.631   6.136   3.654
 4619SOL    HW114756   4.553   6.099   3.704
 4619SOL    HW214757   4.604   6.149   3.558
 4620SOL     OW14758   3.001   3.983   6.852
 4620SOL    HW114759   3.035   3.908   6.796
 4620SOL    HW214760   2.904   3.996   6.835
 4621SOL     OW14761   5.558   1.776   3.675
 4621SOL    HW114762   5.575   1.681   3.651
 4621SOL    HW214763   5.538   1.828   3.592
 4622SOL     OW14764   0.276   3.065   0.781
 4622SOL    HW114765   0.361   3.023   0.747
 4622SOL    HW214766   0.234   3.004   0.848
 4623SOL     OW14767   0.636   5.486   1.207
 4623SOL    HW114768   0.661   5.531   1.293
 4623SOL    HW214769   0.551   5.526   1.173
 4624SOL     OW14770   4.829   6.734   3.036
 4624SOL    HW114771   4.911   6.683   3.011
 4624SOL    HW214772   4.753   6.705   2.977
 4625SOL     OW14773   1.866   4.427   6.872
 4625SOL    HW114774   1.961   4.449   6.892
 4625SOL    HW214775   1.862   4.355   6.803
 4626SOL     OW14776   5.933   5.107   1.378
 4626SOL    HW114777   5.999   5.053   1.430
 4626SOL    HW214778   5.968   5.201   1.367
 4627SOL     OW14779   3.724   6.020   4.362
 4627SOL    HW114780   3.795   6.065   4.307
 4627SOL    HW214781   3.634   6.037   4.321
 4628SOL     OW14782   6.082   4.004   3.577
 4628SOL    HW114783   6.005   4.042   3.628
 4628SOL    HW214784   6.055   3.987   3.482
 4629SOL     OW14785   2.302   4.944   5.952
 4629SOL    HW114786   2.212   4.949   5.909
 4629SOL    HW214787   2.301   4.876   6.025
 4630SOL     OW14788   3.797   5.686   3.041
 4630SOL    HW114789   3.897   5.694   3.038
 4630SOL    HW214790   3.770   5.653   3.132
 4631SOL     OW14791   2.678   6.545   3.535
 4631SOL    HW114792   2.641   6.479   3.600
 4631SOL    HW214793   2.717   6.497   3.456
 4632SOL     OW14794   4.620   4.313   3.154
 4632SOL    HW114795   4.542   4.375   3.148
 4632SOL    HW214796   4.615   4.246   3.080
 4633SOL     OW14797   6.092   1.833   3.596
 4633SOL    HW114798   6.036   1.785   3.663
 4633SOL    HW214799   6.160   1.889   3.644
 4634SOL     OW14800   2.517   4.432   6.703
 4634SOL    HW114801   2.579   4.439   6.625
 4634SOL    HW214802   2.431   4.478   6.682
 4635SOL     OW14803   6.148   3.434   2.330
 4635SOL    HW114804   6.091   3.390   2.399
 4635SOL    HW214805   6.234   3.465   2.372
 4636SOL     OW14806   2.126   5.160   0.268
 4636SOL    HW114807   2.095   5.098   0.197
 4636SOL    HW214808   2.086   5.250   0.254
 4637SOL     OW14809   1.937   0.851   0.313
 4637SOL    HW114810   2.037   0.849   0.314
 4637SOL    HW214811   1.904   0.918   0.379
 4638SOL     OW14812   3.311   2.960   6.017
 4638SOL    HW114813   3.367   2.996   6.092
 4638SOL    HW214814   3.277   3.036   5.962
 4639SOL     OW14815   1.902   5.134   5.224
 4639SOL    HW114816   1.982   5.130   5.164
 4639SOL    HW214817   1.828   5.079   5.185
 4640SOL     OW14818   4.708   5.283   3.454
 4640SOL    HW114819   4.719   5.202   3.396
 4640SOL    HW214820   4.770   5.355   3.423
 4641SOL     OW14821   3.077   5.321   3.851
 4641SOL    HW114822   3.019   5.289   3.776
 4641SOL    HW214823   3.172   5.324   3.821
 4642SOL     OW14824   0.975   6.550   5.030
 4642SOL    HW114825   1.003   6.496   5.110
 4642SOL    HW214826   1.020   6.639   5.032
 4643SOL     OW14827   4.838   2.373   0.808
 4643SOL    HW114828   4.789   2.336   0.728
 4643SOL    HW214829   4.927   2.328   0.816
 4644SOL     OW14830   1.171   4.870   4.154
 4644SOL    HW114831   1.245   4.933   4.176
 4644SOL    HW214832   1.085   4.908   4.189
 4645SOL     OW14833   1.567   0.312   4.262
 4645SOL    HW114834   1.587   0.410   4.256
 4645SOL    HW214835   1.651   0.262   4.281
 4646SOL     OW14836   2.800   6.388   2.961
 4646SOL    HW114837   2.880   6.328   2.956
 4646SOL    HW214838   2.719   6.338   2.931
 4647SOL     OW14839   0.800   6.559   3.011
 4647SOL    HW114840   0.723   6.607   2.967
 4647SOL    HW214841   0.836   6.616   3.085
 4648SOL     OW14842   3.886   0.259   1.413
 4648SOL    HW114843   3.851   0.293   1.501
 4648SOL    HW214844   3.818   0.276   1.342
 4649SOL     OW14845   5.322   6.764   5.927
 4649SOL    HW114846   5.410   6.718   5.916
 4649SOL    HW214847   5.248   6.701   5.906
 4650SOL     OW14848   4.190   5.706   3.824
 4650SOL    HW114849   4.287   5.683   3.815
 4650SOL    HW214850   4.175   5.802   3.800
 4651SOL     OW14851   7.008   1.820   0.748
 4651SOL    HW114852   7.017   1.831   0.649
 4651SOL    HW214853   0.063   1.856   0.793
 4652SOL     OW14854   0.813   0.172   4.013
 4652SOL    HW114855   0.774   0.231   3.943
 4652SOL    HW214856   0.742   0.115   4.054
 4653SOL     OW14857   6.906   5.519   6.767
 4653SOL    HW114858   6.946   5.551   6.681
 4653SOL    HW214859   6.820   5.567   6.783
 4654SOL     OW14860   0.637   0.136   0.225
 4654SOL    HW114861   0.548   0.092   0.218
 4654SOL    HW214862   0.683   0.132   0.136
 4655SOL     OW14863   6.744   5.244   1.787
 4655SOL    HW114864   6.689   5.236   1.870
 4655SOL    HW214865   6.730   5.334   1.746
 4656SOL     OW14866   0.848   6.988   3.337
 4656SOL    HW114867   0.941   7.012   3.364
 4656SOL    HW214868   0.790   6.983   3.419
 4657SOL     OW14869   5.062   7.024   1.431
 4657SOL    HW114870   5.127   7.024   1.356
 4657SOL    HW214871   5.099   0.052   1.507
 4658SOL     OW14872   3.515   1.042   2.362
 4658SOL    HW114873   3.489   1.035   2.458
 4658SOL    HW214874   3.551   1.133   2.343
 4659SOL     OW14875   2.939   3.989   5.712
 4659SOL    HW114876   2.848   3.979   5.672
 4659SOL    HW214877   2.930   4.010   5.810
 4660SOL     OW14878   1.162   2.544   4.845
 4660SOL    HW114879   1.076   2.566   4.799
 4660SOL    HW214880   1.179   2.610   4.918
 4661SOL     OW14881   3.863   4.502   5.499
 4661SOL    HW114882   3.919   4.520   5.579
 4661SOL    HW214883   3.912   4.442   5.436
 4662SOL     OW14884   4.852   0.760   4.954
 4662SOL    HW114885   4.781   0.695   4.981
 4662SOL    HW214886   4.822   0.812   4.874
 4663SOL     OW14887   0.376   1.330   2.440
 4663SOL    HW114888   0.459   1.358   2.393
 4663SOL    HW214889   0.308   1.300   2.373
 4664SOL     OW14890   2.098   2.535   0.259
 4664SOL    HW114891   2.011   2.489   0.278
 4664SOL    HW214892   2.082   2.633   0.246
 4665SOL     OW14893   4.651   7.013   0.373
 4665SOL    HW114894   4.596   6.929   0.375
 4665SOL    HW214895   4.592   0.065   0.392
 4666SOL     OW14896   1.951   1.757   0.060
 4666SOL    HW114897   1.991   1.848   0.067
 4666SOL    HW214898   2.000   1.705   7.016
 4667SOL     OW14899   6.514   4.500   1.046
 4667SOL    HW114900   6.551   4.547   0.966
 4667SOL    HW214901   6.444   4.558   1.088
 4668SOL     OW14902   6.792   2.690   3.900
 4668SOL    HW114903   6.822   2.775   3.856
 4668SOL    HW214904   6.692   2.687   3.902
 4669SOL     OW14905   3.511   6.726   0.807
 4669SOL    HW114906   3.411   6.725   0.805
 4669SOL    HW214907   3.544   6.796   0.744
 4670SOL     OW14908   3.157   1.199   4.784
 4670SOL    HW114909   3.202   1.188   4.873
 4670SOL    HW214910   3.153   1.296   4.761
 4671SOL     OW14911   6.350   2.373   2.230
 4671SOL    HW114912   6.320   2.280   2.251
 4671SOL    HW214913   6.450   2.377   2.230
 4672SOL     OW14914   2.476   4.512   6.010
 4672SOL    HW114915   2.515   4.425   6.042
 4672SOL    HW214916   2.537   4.553   5.942
 4673SOL     OW14917   4.955   7.018   0.952
 4673SOL    HW114918   4.965   6.929   0.907
 4673SOL    HW214919   4.976   0.063   0.886
 4674SOL     OW14920   5.113   6.110   6.614
 4674SOL    HW114921   5.172   6.048   6.562
 4674SOL    HW214922   5.104   6.077   6.708
 4675SOL     OW14923   0.424   3.484   0.017
 4675SOL    HW114924   0.370   3.427   0.079
 4675SOL    HW214925   0.451   3.568   0.065
 4676SOL     OW14926   0.662   6.042   4.058
 4676SOL    HW114927   0.660   5.945   4.031
 4676SOL    HW214928   0.692   6.049   4.153
 4677SOL     OW14929   2.222   2.083   1.009
 4677SOL    HW114930   2.321   2.080   1.019
 4677SOL    HW214931   2.179   2.023   1.077
 4678SOL     OW14932   2.399   4.428   2.729
 4678SOL    HW114933   2.378   4.342   2.681
 4678SOL    HW214934   2.486   4.464   2.694
 4679SOL     OW14935   4.324   0.139   1.460
 4679SOL    HW114936   4.240   0.086   1.470
 4679SOL    HW214937   4.310   0.210   1.390
 4680SOL     OW14938   3.394   0.969   6.654
 4680SOL    HW114939   3.362   0.914   6.577
 4680SOL    HW214940   3.338   1.051   6.662
 4681SOL     OW14941   4.802   4.892   0.337
 4681SOL    HW114942   4.826   4.801   0.370
 4681SOL    HW214943   4.815   4.959   0.410
 4682SOL     OW14944   4.732   4.006   5.932
 4682SOL    HW114945   4.758   4.102   5.921
 4682SOL    HW214946   4.637   3.993   5.905
 4683SOL     OW14947   5.967   5.534   2.439
 4683SOL    HW114948   6.015   5.449   2.419
 4683SOL    HW214949   5.925   5.528   2.530
 4684SOL     OW14950   4.271   6.739   5.782
 4684SOL    HW114951   4.213   6.738   5.700
 4684SOL    HW214952   4.341   6.669   5.774
 4685SOL     OW14953   1.997   4.499   6.525
 4685SOL    HW114954   1.975   4.528   6.432
 4685SOL    HW214955   1.928   4.536   6.589
 4686SOL     OW14956   4.442   5.842   0.176
 4686SOL    HW114957   4.399   5.771   0.119
 4686SOL    HW214958   4.381   5.922   0.181
 4687SOL     OW14959   4.929   2.695   4.077
 4687SOL    HW114960   4.921   2.595   4.075
 4687SOL    HW214961   4.929   2.727   4.171
 4688SOL     OW14962   5.553   2.911   5.553
 4688SOL    HW114963   5.458   2.886   5.569
 4688SOL    HW214964   5.562   2.954   5.463
 4689SOL     OW14965   5.801   1.107   1.170
 4689SOL    HW114966   5.846   1.021   1.148
 4689SOL    HW214967   5.788   1.160   1.086
 4690SOL     OW14968   2.010   0.734   0.964
 4690SOL    HW114969   1.996   0.635   0.966
 4690SOL    HW214970   2.014   0.766   0.869
 4691SOL     OW14971   3.568   3.733   0.375
 4691SOL    HW114972   3.553   3.831   0.373
 4691SOL    HW214973   3.649   3.710   0.322
 4692SOL     OW14974   5.882   5.027   2.860
 4692SOL    HW114975   5.898   4.931   2.882
 4692SOL    HW214976   5.890   5.082   2.943
 4693SOL     OW14977   1.263   0.740   3.502
 4693SOL    HW114978   1.209   0.762   3.584
 4693SOL    HW214979   1.251   0.644   3.479
 4694SOL     OW14980   2.281   2.409   0.111
 4694SOL    HW114981   2.267   2.317   0.073
 4694SOL    HW214982   2.207   2.430   0.174
 4695SOL     OW14983   1.681   5.581   0.565
 4695SOL    HW114984   1.730   5.665   0.590
 4695SOL    HW214985   1.583   5.601   0.559
 4696SOL     OW14986   0.536   5.596   6.302
 4696SOL    HW114987   0.599   5.666   6.336
 4696SOL    HW214988   0.449   5.639   6.278
 4697SOL     OW14989   1.082   3.544   2.308
 4697SOL    HW114990   1.170   3.579   2.277
 4697SOL    HW214991   1.068   3.452   2.271
 4698SOL     OW14992   4.231   6.498   2.981
 4698SOL    HW114993   4.226   6.546   3.068
 4698SOL    HW214994   4.310   6.531   2.929
 4699SOL     OW14995   0.257   6.474   3.070
 4699SOL    HW114996   0.311   6.526   3.136
 4699SOL    HW214997   0.160   6.495   3.082
 4700SOL     OW14998   6.211   1.819   2.359
 4700SOL    HW114999   6.131   1.879   2.355
 4700SOL    HW215000   6.285   1.864   2.410
 4701SOL     OW15001   3.499   1.821   0.596
 4701SOL    HW115002   3.520   1.802   0.692
 4701SOL    HW215003   3.412   1.868   0.589
 4702SOL     OW15004   4.631   4.830   0.643
 4702SOL    HW115005   4.661   4.741   0.677
 4702SOL    HW215006   4.538   4.822   0.606
 4703SOL     OW15007   1.035   6.430   3.294
 4703SOL    HW115008   1.129   6.457   3.312
 4703SOL    HW215009   0.977   6.512   3.292
 4704SOL     OW15010   6.859   6.025   6.317
 4704SOL    HW115011   6.931   6.053   6.380
 4704SOL    HW215012   6.874   6.067   6.228
 4705SOL     OW15013   3.432   2.266   0.588
 4705SOL    HW115014   3.394   2.188   0.538
 4705SOL    HW215015   3.481   2.232   0.669
 4706SOL     OW15016   1.576   0.610   0.308
 4706SOL    HW115017   1.512   0.564   0.246
 4706SOL    HW215018   1.551   0.589   0.403
 4707SOL     OW15019   0.993   6.385   1.679
 4707SOL    HW115020   0.935   6.467   1.683
 4707SOL    HW215021   1.051   6.389   1.597
 4708SOL     OW15022   1.002   2.042   5.774
 4708SOL    HW115023   0.943   1.966   5.802
 4708SOL    HW215024   0.948   2.107   5.721
 4709SOL     OW15025   4.849   5.160   5.048
 4709SOL    HW115026   4.787   5.152   5.126
 4709SOL    HW215027   4.942   5.137   5.078
 4710SOL     OW15028   6.077   6.906   6.079
 4710SOL    HW115029   6.008   6.933   6.147
 4710SOL    HW215030   6.119   6.988   6.039
 4711SOL     OW15031   6.652   1.559   2.666
 4711SOL    HW115032   6.720   1.519   2.605
 4711SOL    HW215033   6.570   1.583   2.613
 4712SOL     OW15034   3.556   4.983   6.282
 4712SOL    HW115035   3.628   4.915   6.274
 4712SOL    HW215036   3.552   5.017   6.376
 4713SOL     OW15037   4.622   5.542   0.647
 4713SOL    HW115038   4.524   5.527   0.634
 4713SOL    HW215039   4.659   5.473   0.710
 4714SOL     OW15040   0.142   1.198   6.277
 4714SOL    HW115041   0.056   1.203   6.225
 4714SOL    HW215042   0.184   1.288   6.281
 4715SOL     OW15043   6.000   3.269   1.488
 4715SOL    HW115044   6.054   3.208   1.430
 4715SOL    HW215045   6.034   3.263   1.582
 4716SOL     OW15046   4.605   6.358   5.403
 4716SOL    HW115047   4.622   6.358   5.501
 4716SOL    HW215048   4.676   6.411   5.357
 4717SOL     OW15049   1.188   5.348   5.131
 4717SOL    HW115050   1.194   5.411   5.053
 4717SOL    HW215051   1.251   5.272   5.117
 4718SOL     OW15052   5.003   2.208   1.260
 4718SOL    HW115053   4.952   2.185   1.343
 4718SOL    HW215054   4.992   2.135   1.193
 4719SOL     OW15055   5.003   3.805   2.708
 4719SOL    HW115056   4.989   3.849   2.796
 4719SOL    HW215057   5.000   3.706   2.719
 4720SOL     OW15058   1.819   4.890   6.184
 4720SOL    HW115059   1.723   4.869   6.167
 4720SOL    HW215060   1.826   4.974   6.238
 4721SOL     OW15061   6.426   2.111   1.469
 4721SOL    HW115062   6.400   2.193   1.521
 4721SOL    HW215063   6.358   2.093   1.399
 4722SOL     OW15064   1.141   6.225   6.740
 4722SOL    HW115065   1.178   6.134   6.726
 4722SOL    HW215066   1.188   6.290   6.680
 4723SOL     OW15067   3.157   3.388   4.831
 4723SOL    HW115068   3.152   3.469   4.773
 4723SOL    HW215069   3.068   3.341   4.830
 4724SOL     OW15070   0.080   0.201   4.161
 4724SOL    HW115071   0.076   0.237   4.254
 4724SOL    HW215072   0.174   0.210   4.127
 4725SOL     OW15073   5.891   4.953   0.387
 4725SOL    HW115074   5.952   4.904   0.325
 4725SOL    HW215075   5.900   5.052   0.371
 4726SOL     OW15076   1.149   3.152   5.846
 4726SOL    HW115077   1.127   3.054   5.852
 4726SOL    HW215078   1.248   3.164   5.842
 4727SOL     OW15079   0.172   5.897   1.129
 4727SOL    HW115080   0.085   5.917   1.085
 4727SOL    HW215081   0.157   5.834   1.206
 4728SOL     OW15082   6.794   1.228   2.735
 4728SOL    HW115083   6.709   1.177   2.722
 4728SOL    HW215084   6.804   1.255   2.830
 4729SOL     OW15085   4.849   1.013   0.249
 4729SOL    HW115086   4.812   1.029   0.340
 4729SOL    HW215087   4.861   0.915   0.234
 4730SOL     OW15088   3.023   6.123   5.573
 4730SOL    HW115089   3.002   6.063   5.650
 4730SOL    HW215090   2.969   6.207   5.580
 4731SOL     OW15091   3.140   1.023   0.875
 4731SOL    HW115092   3.239   1.014   0.877
 4731SOL    HW215093   3.102   1.003   0.965
 4732SOL     OW15094   0.660   3.268   5.010
 4732SOL    HW115095   0.592   3.218   4.956
 4732SOL    HW215096   0.654   3.238   5.106
 4733SOL     OW15097   1.331   4.214   3.249
 4733SOL    HW115098   1.279   4.166   3.179
 4733SOL    HW215099   1.371   4.148   3.313
 4734SOL     OW15100   4.486   3.654   0.394
 4734SOL    HW115101   4.510   3.576   0.452
 4734SOL    HW215102   4.394   3.686   0.418
 4735SOL     OW15103   6.511   5.781   4.196
 4735SOL    HW115104   6.468   5.838   4.126
 4735SOL    HW215105   6.493   5.821   4.286
 4736SOL     OW15106   5.832   1.742   5.208
 4736SOL    HW115107   5.759   1.780   5.152
 4736SOL    HW215108   5.898   1.695   5.150
 4737SOL     OW15109   2.501   4.372   0.342
 4737SOL    HW115110   2.475   4.310   0.268
 4737SOL    HW215111   2.541   4.319   0.416
 4738SOL     OW15112   2.915   6.310   3.341
 4738SOL    HW115113   2.873   6.219   3.340
 4738SOL    HW215114   2.851   6.377   3.304
 4739SOL     OW15115   5.330   1.634   3.348
 4739SOL    HW115116   5.242   1.617   3.302
 4739SOL    HW215117   5.344   1.733   3.358
 4740SOL     OW15118   0.898   0.379   0.681
 4740SOL    HW115119   0.845   0.439   0.741
 4740SOL    HW215120   0.980   0.427   0.650
 4741SOL     OW15121   4.559   3.348   1.486
 4741SOL    HW115122   4.633   3.410   1.460
 4741SOL    HW215123   4.474   3.400   1.494
 4742SOL     OW15124   3.503   6.323   1.802
 4742SOL    HW115125   3.519   6.228   1.830
 4742SOL    HW215126   3.579   6.380   1.836
 4743SOL     OW15127   1.385   2.353   5.730
 4743SOL    HW115128   1.467   2.295   5.733
 4743SOL    HW215129   1.340   2.342   5.641
 4744SOL     OW15130   2.736   3.336   5.533
 4744SOL    HW115131   2.715   3.282   5.452
 4744SOL    HW215132   2.674   3.414   5.538
 4745SOL     OW15133   2.384   5.425   5.501
 4745SOL    HW115134   2.432   5.337   5.500
 4745SOL    HW215135   2.309   5.422   5.435
 4746SOL     OW15136   6.407   6.145   2.250
 4746SOL    HW115137   6.345   6.087   2.198
 4746SOL    HW215138   6.491   6.159   2.198
 4747SOL     OW15139   1.472   3.902   5.982
 4747SOL    HW115140   1.490   3.988   6.031
 4747SOL    HW215141   1.548   3.839   5.996
 4748SOL     OW15142   1.438   5.464   1.376
 4748SOL    HW115143   1.388   5.403   1.314
 4748SOL    HW215144   1.526   5.422   1.400
 4749SOL     OW15145   3.241   6.611   5.893
 4749SOL    HW115146   3.321   6.648   5.942
 4749SOL    HW215147   3.273   6.549   5.821
 4750SOL     OW15148   0.299   2.585   3.929
 4750SOL    HW115149   0.329   2.495   3.899
 4750SOL    HW215150   0.316   2.652   3.856
 4751SOL     OW15151   1.790   3.500   6.988
 4751SOL    HW115152   1.720   3.503   6.917
 4751SOL    HW215153   1.880   3.511   6.947
 4752SOL     OW15154   2.897   0.269   0.523
 4752SOL    HW115155   2.941   0.180   0.512
 4752SOL    HW215156   2.944   0.321   0.596
 4753SOL     OW15157   5.206   0.077   4.180
 4753SOL    HW115158   5.228   0.152   4.117
 4753SOL    HW215159   5.233   7.017   4.138
 4754SOL     OW15160   6.058   0.333   5.717
 4754SOL    HW115161   6.079   0.354   5.813
 4754SOL    HW215162   6.139   0.293   5.673
 4755SOL     OW15163   2.612   0.840   0.524
 4755SOL    HW115164   2.631   0.822   0.428
 4755SOL    HW215165   2.697   0.864   0.571
 4756SOL     OW15166   6.004   2.551   0.817
 4756SOL    HW115167   5.953   2.485   0.761
 4756SOL    HW215168   5.962   2.641   0.808
 4757SOL     OW15169   1.682   2.147   2.283
 4757SOL    HW115170   1.679   2.227   2.342
 4757SOL    HW215171   1.776   2.114   2.276
 4758SOL     OW15172   3.415   5.917   4.853
 4758SOL    HW115173   3.504   5.956   4.830
 4758SOL    HW215174   3.403   5.918   4.952
 4759SOL     OW15175   5.800   5.255   4.943
 4759SOL    HW115176   5.860   5.253   5.023
 4759SOL    HW215177   5.792   5.163   4.905
 4760SOL     OW15178   3.406   2.127   1.098
 4760SOL    HW115179   3.487   2.177   1.128
 4760SOL    HW215180   3.401   2.039   1.146
 4761SOL     OW15181   0.291   0.304   6.592
 4761SOL    HW115182   0.372   0.305   6.652
 4761SOL    HW215183   0.318   0.333   6.500
 4762SOL     OW15184   2.488   5.118   2.868
 4762SOL    HW115185   2.563   5.182   2.852
 4762SOL    HW215186   2.405   5.169   2.892
 4763SOL     OW15187   5.757   6.493   3.513
 4763SOL    HW115188   5.764   6.564   3.583
 4763SOL    HW215189   5.732   6.406   3.555
 4764SOL     OW15190   4.478   3.969   5.823
 4764SOL    HW115191   4.462   4.010   5.733
 4764SOL    HW215192   4.420   3.889   5.833
 4765SOL     OW15193   5.030   6.930   4.330
 4765SOL    HW115194   5.006   6.957   4.423
 4765SOL    HW215195   5.106   6.986   4.298
 4766SOL     OW15196   4.029   0.203   3.838
 4766SOL    HW115197   3.991   0.258   3.764
 4766SOL    HW215198   4.010   0.247   3.926
 4767SOL     OW15199   3.883   5.719   6.382
 4767SOL    HW115200   3.948   5.674   6.320
 4767SOL    HW215201   3.871   5.814   6.355
 4768SOL     OW15202   4.698   2.154   5.093
 4768SOL    HW115203   4.749   2.145   5.007
 4768SOL    HW215204   4.646   2.070   5.110
 4769SOL     OW15205   4.459   5.183   1.071
 4769SOL    HW115206   4.489   5.278   1.056
 4769SOL    HW215207   4.428   5.173   1.166
 4770SOL     OW15208   1.714   6.796   3.760
 4770SOL    HW115209   1.792   6.783   3.699
 4770SOL    HW215210   1.630   6.768   3.712
 4771SOL     OW15211   3.418   5.405   5.558
 4771SOL    HW115212   3.465   5.332   5.609
 4771SOL    HW215213   3.373   5.366   5.478
 4772SOL     OW15214   2.555   5.802   1.977
 4772SOL    HW115215   2.535   5.873   1.910
 4772SOL    HW215216   2.495   5.814   2.056
 4773SOL     OW15217   6.638   5.202   4.709
 4773SOL    HW115218   6.556   5.248   4.676
 4773SOL    HW215219   6.674   5.251   4.789
 4774SOL     OW15220   1.268   2.614   1.563
 4774SOL    HW115221   1.264   2.621   1.464
 4774SOL    HW215222   1.359   2.581   1.591
 4775SOL     OW15223   5.204   6.956   3.111
 4775SOL    HW115224   5.239   6.864   3.094
 4775SOL    HW215225   5.189   6.968   3.209
 4776SOL     OW15226   1.569   6.821   4.473
 4776SOL    HW115227   1.530   6.731   4.491
 4776SOL    HW215228   1.667   6.811   4.456
 4777SOL     OW15229   2.847   4.627   1.280
 4777SOL    HW115230   2.922   4.580   1.327
 4777SOL    HW215231   2.781   4.559   1.247
 4778SOL     OW15232   5.279   2.185   2.496
 4778SOL    HW115233   5.254   2.254   2.427
 4778SOL    HW215234   5.238   2.209   2.583
 4779SOL     OW15235   6.631   6.212   2.094
 4779SOL    HW115236   6.692   6.149   2.046
 4779SOL    HW215237   6.604   6.286   2.032
 4780SOL     OW15238   0.002   0.333   6.913
 4780SOL    HW115239   7.017   0.377   6.824
 4780SOL    HW215240   0.076   0.266   6.907
 4781SOL     OW15241   3.366   6.330   1.305
 4781SOL    HW115242   3.445   6.293   1.255
 4781SOL    HW215243   3.315   6.255   1.347
 4782SOL     OW15244   4.740   6.297   0.520
 4782SOL    HW115245   4.807   6.225   0.534
 4782SOL    HW215246   4.739   6.323   0.423
 4783SOL     OW15247   4.585   4.391   0.060
 4783SOL    HW115248   4.613   4.442   0.141
 4783SOL    HW215249   4.659   4.328   0.034
 4784SOL     OW15250   6.522   3.895   6.602
 4784SOL    HW115251   6.600   3.930   6.654
 4784SOL    HW215252   6.438   3.906   6.655
 4785SOL     OW15253   6.619   5.282   1.300
 4785SOL    HW115254   6.647   5.289   1.205
 4785SOL    HW215255   6.622   5.372   1.344
 4786SOL     OW15256   2.395   2.323   2.071
 4786SOL    HW115257   2.471   2.371   2.027
 4786SOL    HW215258   2.403   2.331   2.170
 4787SOL     OW15259   3.001   2.139   3.594
 4787SOL    HW115260   3.090   2.157   3.637
 4787SOL    HW215261   3.007   2.155   3.495
 4788SOL     OW15262   0.926   5.240   6.272
 4788SOL    HW115263   0.873   5.158   6.247
 4788SOL    HW215264   0.866   5.305   6.318
 4789SOL     OW15265   5.647   1.048   0.193
 4789SOL    HW115266   5.666   0.952   0.174
 4789SOL    HW215267   5.562   1.055   0.245
 4790SOL     OW15268   0.161   2.852   6.317
 4790SOL    HW115269   0.147   2.767   6.368
 4790SOL    HW215270   0.155   2.930   6.379
 4791SOL     OW15271   5.968   2.186   1.482
 4791SOL    HW115272   6.051   2.170   1.429
 4791SOL    HW215273   5.915   2.259   1.440
 4792SOL     OW15274   1.906   3.594   2.684
 4792SOL    HW115275   1.973   3.569   2.615
 4792SOL    HW215276   1.832   3.647   2.641
 4793SOL     OW15277   1.420   2.240   6.062
 4793SOL    HW115278   1.370   2.219   5.978
 4793SOL    HW215279   1.357   2.242   6.139
 4794SOL     OW15280   4.840   1.015   3.098
 4794SOL    HW115281   4.915   0.955   3.070
 4794SOL    HW215282   4.767   0.960   3.139
 4795SOL     OW15283   6.416   1.415   2.781
 4795SOL    HW115284   6.456   1.437   2.692
 4795SOL    HW215285   6.381   1.321   2.780
 4796SOL     OW15286   5.308   2.551   6.349
 4796SOL    HW115287   5.345   2.516   6.263
 4796SOL    HW215288   5.280   2.646   6.337
 4797SOL     OW15289   1.663   6.261   5.266
 4797SOL    HW115290   1.732   6.221   5.326
 4797SOL    HW215291   1.653   6.358   5.286
 4798SOL     OW15292   0.313   3.118   5.241
 4798SOL    HW115293   0.388   3.056   5.217
 4798SOL    HW215294   0.238   3.107   5.176
 4799SOL     OW15295   4.937   2.111   6.522
 4799SOL    HW115296   4.845   2.152   6.520
 4799SOL    HW215297   4.935   2.023   6.475
 4800SOL     OW15298   2.336   3.603   5.701
 4800SOL    HW115299   2.250   3.575   5.659
 4800SOL    HW215300   2.365   3.535   5.767
 4801SOL     OW15301   2.815   3.056   0.555
 4801SOL    HW115302   2.737   3.031   0.612
 4801SOL    HW215303   2.791   3.043   0.459
 4802SOL     OW15304   0.721   6.512   1.958
 4802SOL    HW115305   0.700   6.573   1.882
 4802SOL    HW215306   0.810   6.536   1.996
 4803SOL     OW15307   1.269   6.330   0.547
 4803SOL    HW115308   1.206   6.381   0.487
 4803SOL    HW215309   1.276   6.236   0.516
 4804SOL     OW15310   4.798   5.328   6.351
 4804SOL    HW115311   4.758   5.291   6.267
 4804SOL    HW215312   4.827   5.423   6.335
 4805SOL     OW15313   6.221   6.999   0.967
 4805SOL    HW115314   6.163   0.016   1.036
 4805SOL    HW215315   6.274   0.043   0.920
 4806SOL     OW15316   0.360   4.434   2.630
 4806SOL    HW115317   0.272   4.402   2.664
 4806SOL    HW215318   0.432   4.410   2.695
 4807SOL     OW15319   1.238   4.788   0.751
 4807SOL    HW115320   1.163   4.758   0.810
 4807SOL    HW215321   1.323   4.790   0.803
 4808SOL     OW15322   6.326   3.893   6.807
 4808SOL    HW115323   6.293   3.987   6.817
 4808SOL    HW215324   6.258   3.839   6.757
 4809SOL     OW15325   3.350   3.962   6.615
 4809SOL    HW115326   3.336   3.964   6.714
 4809SOL    HW215327   3.336   4.054   6.578
 4810SOL     OW15328   1.406   5.375   2.160
 4810SOL    HW115329   1.426   5.424   2.245
 4810SOL    HW215330   1.426   5.278   2.172
 4811SOL     OW15331   1.762   4.810   2.103
 4811SOL    HW115332   1.777   4.822   2.201
 4811SOL    HW215333   1.791   4.718   2.076
 4812SOL     OW15334   0.254   4.967   5.122
 4812SOL    HW115335   0.214   5.046   5.076
 4812SOL    HW215336   0.339   4.941   5.076
 4813SOL     OW15337   5.278   2.091   0.939
 4813SOL    HW115338   5.305   2.048   1.026
 4813SOL    HW215339   5.285   2.023   0.866
 4814SOL     OW15340   5.739   4.287   0.496
 4814SOL    HW115341   5.731   4.326   0.405
 4814SOL    HW215342   5.688   4.343   0.561
 4815SOL     OW15343   5.554   4.382   3.049
 4815SOL    HW115344   5.584   4.419   2.961
 4815SOL    HW215345   5.622   4.316   3.082
 4816SOL     OW15346   6.938   5.166   2.528
 4816SOL    HW115347   6.906   5.254   2.564
 4816SOL    HW215348   6.942   5.099   2.602
 4817SOL     OW15349   1.288   1.914   6.571
 4817SOL    HW115350   1.230   1.989   6.539
 4817SOL    HW215351   1.384   1.934   6.550
 4818SOL     OW15352   0.678   0.369   4.693
 4818SOL    HW115353   0.582   0.398   4.689
 4818SOL    HW215354   0.722   0.416   4.770
 4819SOL     OW15355   0.985   2.566   0.005
 4819SOL    HW115356   1.047   2.508   0.058
 4819SOL    HW215357   1.039   2.637   6.985
 4820SOL     OW15358   6.844   2.732   1.199
 4820SOL    HW115359   6.912   2.666   1.231
 4820SOL    HW215360   6.800   2.776   1.278
 4821SOL     OW15361   0.930   5.993   2.627
 4821SOL    HW115362   0.865   5.949   2.688
 4821SOL    HW215363   1.020   5.996   2.670
 4822SOL     OW15364   1.151   3.411   4.776
 4822SOL    HW115365   1.164   3.477   4.850
 4822SOL    HW215366   1.240   3.374   4.749
 4823SOL     OW15367   1.698   1.409   4.134
 4823SOL    HW115368   1.641   1.424   4.054
 4823SOL    HW215369   1.643   1.417   4.217
 4824SOL     OW15370   5.014   2.036   5.508
 4824SOL    HW115371   5.065   2.122   5.516
 4824SOL    HW215372   4.917   2.055   5.523
 4825SOL     OW15373   1.438   2.305   4.565
 4825SOL    HW115374   1.423   2.242   4.488
 4825SOL    HW215375   1.412   2.397   4.537
 4826SOL     OW15376   5.653   0.645   0.535
 4826SOL    HW115377   5.676   0.664   0.630
 4826SOL    HW215378   5.574   0.584   0.531
 4827SOL     OW15379   6.343   2.077   0.693
 4827SOL    HW115380   6.424   2.022   0.714
 4827SOL    HW215381   6.302   2.045   0.608
 4828SOL     OW15382   5.307   1.132   1.239
 4828SOL    HW115383   5.212   1.162   1.247
 4828SOL    HW215384   5.313   1.033   1.253
 4829SOL     OW15385   3.338   0.642   6.158
 4829SOL    HW115386   3.339   0.549   6.194
 4829SOL    HW215387   3.419   0.690   6.190
 4830SOL     OW15388   3.610   5.545   3.895
 4830SOL    HW115389   3.535   5.608   3.916
 4830SOL    HW215390   3.660   5.576   3.815
 4831SOL     OW15391   1.638   4.667   5.302
 4831SOL    HW115392   1.628   4.753   5.353
 4831SOL    HW215393   1.638   4.590   5.366
 4832SOL     OW15394   3.211   4.066   3.705
 4832SOL    HW115395   3.253   4.129   3.770
 4832SOL    HW215396   3.123   4.035   3.741
 4833SOL     OW15397   6.043   1.954   2.705
 4833SOL    HW115398   5.987   1.897   2.645
 4833SOL    HW215399   6.115   1.899   2.747
 4834SOL     OW15400   2.557   5.910   2.341
 4834SOL    HW115401   2.634   5.937   2.283
 4834SOL    HW215402   2.566   5.955   2.430
 4835SOL     OW15403   6.006   3.339   5.804
 4835SOL    HW115404   5.930   3.400   5.784
 4835SOL    HW215405   6.067   3.381   5.871
 4836SOL     OW15406   5.104   1.498   4.728
 4836SOL    HW115407   5.127   1.408   4.765
 4836SOL    HW215408   5.151   1.511   4.641
 4837SOL     OW15409   6.711   3.575   2.566
 4837SOL    HW115410   6.744   3.482   2.582
 4837SOL    HW215411   6.779   3.641   2.600
 4838SOL     OW15412   2.217   5.799   0.177
 4838SOL    HW115413   2.302   5.779   0.128
 4838SOL    HW215414   2.164   5.866   0.125
 4839SOL     OW15415   1.294   3.087   0.031
 4839SOL    HW115416   1.388   3.064   0.006
 4839SOL    HW215417   1.265   3.029   0.107
 4840SOL     OW15418   6.277   4.499   5.718
 4840SOL    HW115419   6.284   4.400   5.711
 4840SOL    HW215420   6.191   4.524   5.763
 4841SOL     OW15421   2.525   4.949   3.119
 4841SOL    HW115422   2.441   4.913   3.160
 4841SOL    HW215423   2.504   4.990   3.030
 4842SOL     OW15424   2.577   5.056   3.591
 4842SOL    HW115425   2.570   4.967   3.635
 4842SOL    HW215426   2.605   5.044   3.496
 4843SOL     OW15427   6.852   2.753   1.852
 4843SOL    HW115428   6.803   2.666   1.845
 4843SOL    HW215429   6.949   2.736   1.870
 4844SOL     OW15430   0.016   4.063   5.359
 4844SOL    HW115431   7.001   4.127   5.294
 4844SOL    HW215432   0.003   4.097   5.452
 4845SOL     OW15433   4.577   5.066   5.953
 4845SOL    HW115434   4.546   4.979   5.990
 4845SOL    HW215435   4.513   5.138   5.979
 4846SOL     OW15436   0.182   1.745   3.552
 4846SOL    HW115437   0.120   1.758   3.475
 4846SOL    HW215438   0.172   1.821   3.617
 4847SOL     OW15439   2.455   1.787   5.624
 4847SOL    HW115440   2.478   1.829   5.537
 4847SOL    HW215441   2.406   1.853   5.681
 4848SOL     OW15442   2.320   1.358   4.683
 4848SOL    HW115443   2.361   1.368   4.592
 4848SOL    HW215444   2.393   1.351   4.751
 4849SOL     OW15445   2.101   6.205   0.911
 4849SOL    HW115446   2.057   6.138   0.850
 4849SOL    HW215447   2.195   6.218   0.882
 4850SOL     OW15448   5.083   0.893   1.181
 4850SOL    HW115449   5.103   0.882   1.083
 4850SOL    HW215450   5.018   0.822   1.209
 4851SOL     OW15451   3.756   5.498   6.138
 4851SOL    HW115452   3.703   5.519   6.220
 4851SOL    HW215453   3.774   5.582   6.087
 4852SOL     OW15454   2.580   5.601   4.718
 4852SOL    HW115455   2.628   5.680   4.756
 4852SOL    HW215456   2.493   5.589   4.765
 4853SOL     OW15457   3.600   1.655   3.447
 4853SOL    HW115458   3.666   1.710   3.498
 4853SOL    HW215459   3.539   1.715   3.395
 4854SOL     OW15460   4.785   7.017   1.435
 4854SOL    HW115461   4.881   6.991   1.448
 4854SOL    HW215462   4.780   0.074   1.381
 4855SOL     OW15463   6.190   3.850   5.015
 4855SOL    HW115464   6.196   3.900   4.929
 4855SOL    HW215465   6.134   3.768   5.002
 4856SOL     OW15466   0.933   3.085   2.920
 4856SOL    HW115467   0.876   3.021   2.971
 4856SOL    HW215468   1.030   3.060   2.932
 4857SOL     OW15469   3.067   1.891   3.117
 4857SOL    HW115470   3.040   1.804   3.077
 4857SOL    HW215471   2.990   1.956   3.111
 4858SOL     OW15472   0.235   6.678   4.941
 4858SOL    HW115473   0.162   6.626   4.897
 4858SOL    HW215474   0.235   6.658   5.039
 4859SOL     OW15475   0.708   5.130   2.069
 4859SOL    HW115476   0.711   5.223   2.034
 4859SOL    HW215477   0.739   5.129   2.164
 4860SOL     OW15478   4.068   4.663   0.300
 4860SOL    HW115479   4.028   4.651   0.209
 4860SOL    HW215480   4.037   4.750   0.338
 4861SOL     OW15481   5.678   5.580   6.482
 4861SOL    HW115482   5.621   5.641   6.426
 4861SOL    HW215483   5.746   5.536   6.425
 4862SOL     OW15484   2.376   4.446   4.503
 4862SOL    HW115485   2.328   4.409   4.583
 4862SOL    HW215486   2.447   4.510   4.533
 4863SOL     OW15487   4.898   3.455   2.777
 4863SOL    HW115488   4.859   3.506   2.701
 4863SOL    HW215489   4.894   3.357   2.757
 4864SOL     OW15490   3.468   1.611   1.750
 4864SOL    HW115491   3.491   1.708   1.753
 4864SOL    HW215492   3.432   1.588   1.659
 4865SOL     OW15493   2.582   5.884   5.024
 4865SOL    HW115494   2.587   5.891   5.124
 4865SOL    HW215495   2.641   5.810   4.993
 4866SOL     OW15496   5.747   4.483   1.231
 4866SOL    HW115497   5.669   4.541   1.251
 4866SOL    HW215498   5.769   4.425   1.310
 4867SOL     OW15499   4.416   5.557   3.648
 4867SOL    HW115500   4.473   5.589   3.573
 4867SOL    HW215501   4.324   5.536   3.614
 4868SOL     OW15502   0.569   5.904   1.760
 4868SOL    HW115503   0.483   5.915   1.810
 4868SOL    HW215504   0.635   5.854   1.816
 4869SOL     OW15505   0.006   2.492   0.839
 4869SOL    HW115506   6.999   2.536   0.921
 4869SOL    HW215507   6.988   2.403   0.827
 4870SOL     OW15508   4.864   5.184   1.580
 4870SOL    HW115509   4.897   5.261   1.525
 4870SOL    HW215510   4.766   5.172   1.564
 4871SOL     OW15511   0.787   0.551   4.300
 4871SOL    HW115512   0.738   0.485   4.242
 4871SOL    HW215513   0.822   0.504   4.381
 4872SOL     OW15514   0.795   6.788   4.043
 4872SOL    HW115515   0.813   6.841   3.960
 4872SOL    HW215516   0.803   6.847   4.123
 4873SOL     OW15517   0.278   4.645   3.824
 4873SOL    HW115518   0.294   4.739   3.794
 4873SOL    HW215519   0.364   4.594   3.822
 4874SOL     OW15520   6.006   3.617   2.138
 4874SOL    HW115521   6.084   3.607   2.076
 4874SOL    HW215522   6.026   3.568   2.223
 4875SOL     OW15523   5.628   2.799   0.825
 4875SOL    HW115524   5.637   2.819   0.922
 4875SOL    HW215525   5.558   2.858   0.785
 4876SOL     OW15526   6.057   0.291   5.331
 4876SOL    HW115527   6.048   0.211   5.390
 4876SOL    HW215528   5.967   0.316   5.295
 4877SOL     OW15529   7.001   1.477   1.038
 4877SOL    HW115530   0.000   1.570   1.066
 4877SOL    HW215531   6.904   1.476   1.012
 4878SOL     OW15532   0.076   1.636   2.526
 4878SOL    HW115533   0.175   1.652   2.528
 4878SOL    HW215534   0.056   1.548   2.568
 4879SOL     OW15535   4.328   4.942   3.269
 4879SOL    HW115536   4.277   4.969   3.188
 4879SOL    HW215537   4.290   4.987   3.349
 4880SOL     OW15538   4.945   2.669   6.606
 4880SOL    HW115539   4.867   2.633   6.658
 4880SOL    HW215540   4.977   2.598   6.543
 4881SOL     OW15541   2.115   5.633   6.992
 4881SOL    HW115542   2.208   5.636   0.002
 4881SOL    HW215543   2.051   5.619   0.041
 4882SOL     OW15544   6.195   1.669   5.151
 4882SOL    HW115545   6.143   1.597   5.196
 4882SOL    HW215546   6.242   1.632   5.071
 4883SOL     OW15547   4.844   4.830   2.591
 4883SOL    HW115548   4.768   4.771   2.562
 4883SOL    HW215549   4.908   4.777   2.646
 4884SOL     OW15550   4.501   0.183   0.696
 4884SOL    HW115551   4.506   0.138   0.786
 4884SOL    HW215552   4.406   0.180   0.663
 4885SOL     OW15553   2.931   6.324   2.672
 4885SOL    HW115554   2.840   6.359   2.652
 4885SOL    HW215555   3.000   6.388   2.638
 4886SOL     OW15556   0.588   6.534   6.164
 4886SOL    HW115557   0.491   6.544   6.144
 4886SOL    HW215558   0.600   6.498   6.256
 4887SOL     OW15559   6.998   1.469   3.132
 4887SOL    HW115560   0.055   1.479   3.078
 4887SOL    HW215561   7.020   1.478   3.229
 4888SOL     OW15562   1.906   6.273   3.858
 4888SOL    HW115563   2.004   6.288   3.874
 4888SOL    HW215564   1.861   6.361   3.844
 4889SOL     OW15565   0.562   1.716   0.233
 4889SOL    HW115566   0.613   1.748   0.152
 4889SOL    HW215567   0.555   1.616   0.231
 4890SOL     OW15568   0.390   1.517   4.201
 4890SOL    HW115569   0.339   1.507   4.116
 4890SOL    HW215570   0.487   1.496   4.185
 4891SOL     OW15571   1.018   5.832   6.927
 4891SOL    HW115572   0.954   5.760   6.901
 4891SOL    HW215573   0.969   5.908   6.968
 4892SOL     OW15574   2.121   5.641   2.411
 4892SOL    HW115575   2.036   5.634   2.462
 4892SOL    HW215576   2.184   5.703   2.458
 4893SOL     OW15577   6.706   4.613   6.581
 4893SOL    HW115578   6.778   4.591   6.515
 4893SOL    HW215579   6.670   4.704   6.561
 4894SOL     OW15580   2.858   0.202   2.344
 4894SOL    HW115581   2.812   0.157   2.420
 4894SOL    HW215582   2.814   0.290   2.326
 4895SOL     OW15583   0.858   4.262   1.422
 4895SOL    HW115584   0.925   4.191   1.403
 4895SOL    HW215585   0.782   4.255   1.357
 4896SOL     OW15586   2.839   5.066   2.770
 4896SOL    HW115587   2.925   5.016   2.781
 4896SOL    HW215588   2.818   5.116   2.854
 4897SOL     OW15589   2.583   4.972   5.904
 4897SOL    HW115590   2.655   4.902   5.916
 4897SOL    HW215591   2.496   4.936   5.937
 4898SOL     OW15592   5.853   2.105   5.165
 4898SOL    HW115593   5.910   2.033   5.126
 4898SOL    HW215594   5.900   2.193   5.160
 4899SOL     OW15595   6.847   4.576   2.592
 4899SOL    HW115596   6.868   4.480   2.611
 4899SOL    HW215597   6.850   4.628   2.677
 4900SOL     OW15598   1.710   6.489   5.752
 4900SOL    HW115599   1.624   6.495   5.702
 4900SOL    HW215600   1.784   6.468   5.689
 4901SOL     OW15601   2.649   6.660   5.136
 4901SOL    HW115602   2.651   6.562   5.116
 4901SOL    HW215603   2.564   6.683   5.184
 4902SOL     OW15604   2.339   2.802   3.953
 4902SOL    HW115605   2.250   2.756   3.965
 4902SOL    HW215606   2.400   2.773   4.026
 4903SOL     OW15607   3.711   6.437   0.010
 4903SOL    HW115608   3.762   6.400   0.088
 4903SOL    HW215609   3.733   6.385   6.954
 4904SOL     OW15610   2.230   6.691   4.180
 4904SOL    HW115611   2.202   6.784   4.155
 4904SOL    HW215612   2.329   6.682   4.171
 4905SOL     OW15613   4.292   2.331   2.398
 4905SOL    HW115614   4.334   2.357   2.311
 4905SOL    HW215615   4.206   2.283   2.381
 4906SOL     OW15616   3.715   0.459   0.009
 4906SOL    HW115617   3.645   0.513   0.057
 4906SOL    HW215618   3.793   0.518   7.014
 4907SOL     OW15619   4.282   6.407   2.487
 4907SOL    HW115620   4.260   6.327   2.544
 4907SOL    HW215621   4.243   6.489   2.528
 4908SOL     OW15622   3.778   5.502   0.099
 4908SOL    HW115623   3.830   5.418   0.112
 4908SOL    HW215624   3.828   5.578   0.141
 4909SOL     OW15625   6.031   0.167   6.589
 4909SOL    HW115626   6.026   0.089   6.652
 4909SOL    HW215627   5.970   0.152   6.512
 4910SOL     OW15628   5.725   6.984   5.425
 4910SOL    HW115629   5.743   6.961   5.329
 4910SOL    HW215630   5.641   0.012   5.431
 4911SOL     OW15631   0.064   2.414   5.408
 4911SOL    HW115632   0.008   2.493   5.386
 4911SOL    HW215633   0.154   2.445   5.439
 4912SOL     OW15634   4.972   1.701   1.317
 4912SOL    HW115635   4.984   1.686   1.219
 4912SOL    HW215636   4.896   1.645   1.351
 4913SOL     OW15637   3.951   3.496   4.215
 4913SOL    HW115638   4.014   3.552   4.161
 4913SOL    HW215639   3.984   3.489   4.309
 4914SOL     OW15640   3.203   0.763   4.723
 4914SOL    HW115641   3.212   0.676   4.674
 4914SOL    HW215642   3.194   0.838   4.658
 4915SOL     OW15643   4.407   6.812   4.426
 4915SOL    HW115644   4.465   6.796   4.345
 4915SOL    HW215645   4.451   6.770   4.506
 4916SOL     OW15646   1.932   1.608   3.032
 4916SOL    HW115647   2.005   1.545   3.006
 4916SOL    HW215648   1.914   1.672   2.958
 4917SOL     OW15649   1.629   3.813   0.504
 4917SOL    HW115650   1.656   3.887   0.443
 4917SOL    HW215651   1.625   3.727   0.453
 4918SOL     OW15652   3.128   0.158   2.934
 4918SOL    HW115653   3.207   0.206   2.971
 4918SOL    HW215654   3.099   0.202   2.849
 4919SOL     OW15655   2.155   2.241   2.537
 4919SOL    HW115656   2.218   2.195   2.600
 4919SOL    HW215657   2.081   2.283   2.589
 4920SOL     OW15658   4.232   0.145   0.182
 4920SOL    HW115659   4.142   0.164   0.142
 4920SOL    HW215660   4.238   0.048   0.206
 4921SOL     OW15661   2.399   4.291   1.575
 4921SOL    HW115662   2.479   4.271   1.519
 4921SOL    HW215663   2.332   4.341   1.520
 4922SOL     OW15664   0.973   3.226   4.863
 4922SOL    HW115665   0.884   3.270   4.861
 4922SOL    HW215666   1.041   3.286   4.822
 4923SOL     OW15667   4.773   0.870   1.144
 4923SOL    HW115668   4.743   0.907   1.232
 4923SOL    HW215669   4.801   0.945   1.085
 4924SOL     OW15670   2.092   3.318   5.152
 4924SOL    HW115671   2.176   3.284   5.194
 4924SOL    HW215672   2.030   3.352   5.224
 4925SOL     OW15673   6.237   6.360   0.484
 4925SOL    HW115674   6.210   6.424   0.556
 4925SOL    HW215675   6.330   6.380   0.453
 4926SOL     OW15676   5.308   2.554   1.376
 4926SOL    HW115677   5.377   2.482   1.367
 4926SOL    HW215678   5.294   2.575   1.472
 4927SOL     OW15679   3.984   3.417   3.565
 4927SOL    HW115680   3.967   3.510   3.533
 4927SOL    HW215681   4.066   3.416   3.622
 4928SOL     OW15682   0.147   0.107   6.444
 4928SOL    HW115683   0.199   0.165   6.507
 4928SOL    HW215684   0.209   0.050   6.391
 4929SOL     OW15685   0.870   4.202   5.062
 4929SOL    HW115686   0.911   4.259   4.991
 4929SOL    HW215687   0.835   4.260   5.136
 4930SOL     OW15688   0.045   0.332   0.729
 4930SOL    HW115689   6.971   0.335   0.736
 4930SOL    HW215690   0.075   0.237   0.722
 4931SOL     OW15691   0.793   6.632   0.028
 4931SOL    HW115692   0.711   6.579   0.006
 4931SOL    HW215693   0.793   6.653   0.126
 4932SOL     OW15694   2.108   3.329   1.771
 4932SOL    HW115695   2.154   3.347   1.858
 4932SOL    HW215696   2.176   3.303   1.702
 4933SOL     OW15697   2.425   0.405   4.450
 4933SOL    HW115698   2.487   0.376   4.523
 4933SOL    HW215699   2.373   0.326   4.417
 4934SOL     OW15700   0.900   4.937   3.904
 4934SOL    HW115701   0.884   5.025   3.949
 4934SOL    HW215702   0.998   4.919   3.901
 4935SOL     OW15703   2.378   0.606   0.123
 4935SOL    HW115704   2.438   0.656   0.061
 4935SOL    HW215705   2.426   0.586   0.208
 4936SOL     OW15706   2.060   6.034   2.452
 4936SOL    HW115707   1.998   6.109   2.430
 4936SOL    HW215708   2.008   5.948   2.458
 4937SOL     OW15709   0.487   3.793   6.067
 4937SOL    HW115710   0.444   3.758   5.984
 4937SOL    HW215711   0.584   3.767   6.069
 4938SOL     OW15712   3.542   4.988   1.795
 4938SOL    HW115713   3.538   4.943   1.885
 4938SOL    HW215714   3.638   5.001   1.770
 4939SOL     OW15715   0.929   1.931   2.465
 4939SOL    HW115716   0.859   1.900   2.529
 4939SOL    HW215717   0.887   1.988   2.394
 4940SOL     OW15718   6.980   1.772   5.161
 4940SOL    HW115719   6.910   1.710   5.196
 4940SOL    HW215720   0.043   1.746   5.199
 4941SOL     OW15721   3.949   2.685   5.329
 4941SOL    HW115722   3.964   2.777   5.295
 4941SOL    HW215723   4.024   2.626   5.299
 4942SOL     OW15724   5.163   3.376   4.110
 4942SOL    HW115725   5.243   3.384   4.051
 4942SOL    HW215726   5.175   3.298   4.172
 4943SOL     OW15727   5.553   3.701   6.446
 4943SOL    HW115728   5.628   3.662   6.498
 4943SOL    HW215729   5.510   3.774   6.499
 4944SOL     OW15730   2.447   4.336   1.113
 4944SOL    HW115731   2.361   4.292   1.138
 4944SOL    HW215732   2.493   4.283   1.042
 4945SOL     OW15733   1.263   0.810   4.414
 4945SOL    HW115734   1.164   0.811   4.421
 4945SOL    HW215735   1.292   0.874   4.343
 4946SOL     OW15736   0.834   5.419   0.159
 4946SOL    HW115737   0.833   5.499   0.218
 4946SOL    HW215738   0.928   5.387   0.147
 4947SOL     OW15739   2.362   1.353   2.035
 4947SOL    HW115740   2.308   1.378   1.954
 4947SOL    HW215741   2.361   1.429   2.100
 4948SOL     OW15742   1.576   2.486   3.207
 4948SOL    HW115743   1.603   2.580   3.190
 4948SOL    HW215744   1.483   2.483   3.242
 4949SOL     OW15745   0.316   3.666   5.578
 4949SOL    HW115746   0.377   3.589   5.560
 4949SOL    HW215747   0.351   3.748   5.533
 4950SOL     OW15748   1.864   3.969   5.300
 4950SOL    HW115749   1.961   3.992   5.286
 4950SOL    HW215750   1.833   4.008   5.387
 4951SOL     OW15751   6.312   6.655   4.560
 4951SOL    HW115752   6.378   6.656   4.484
 4951SOL    HW215753   6.358   6.624   4.643
 4952SOL     OW15754   0.368   6.988   6.334
 4952SOL    HW115755   0.442   6.977   6.400
 4952SOL    HW215756   0.401   6.968   6.242
 4953SOL     OW15757   2.183   0.370   3.896
 4953SOL    HW115758   2.166   0.379   3.798
 4953SOL    HW215759   2.186   0.461   3.937
 4954SOL     OW15760   2.325   3.807   6.448
 4954SOL    HW115761   2.267   3.888   6.444
 4954SOL    HW215762   2.392   3.819   6.522
 4955SOL     OW15763   3.239   6.071   0.005
 4955SOL    HW115764   3.218   6.002   0.075
 4955SOL    HW215765   3.337   6.068   7.011
 4956SOL     OW15766   2.389   0.239   5.511
 4956SOL    HW115767   2.445   0.321   5.528
 4956SOL    HW215768   2.294   0.266   5.496
 4957SOL     OW15769   5.853   3.675   0.688
 4957SOL    HW115770   5.920   3.620   0.738
 4957SOL    HW215771   5.789   3.716   0.753
 4958SOL     OW15772   1.992   5.822   5.774
 4958SOL    HW115773   2.039   5.737   5.752
 4958SOL    HW215774   1.893   5.809   5.768
 4959SOL     OW15775   6.496   1.303   1.698
 4959SOL    HW115776   6.411   1.263   1.664
 4959SOL    HW215777   6.481   1.400   1.720
 4960SOL     OW15778   4.460   4.528   3.842
 4960SOL    HW115779   4.491   4.437   3.813
 4960SOL    HW215780   4.453   4.530   3.941
 4961SOL     OW15781   2.594   0.663   6.166
 4961SOL    HW115782   2.670   0.600   6.154
 4961SOL    HW215783   2.601   0.737   6.100
 4962SOL     OW15784   5.285   2.740   1.060
 4962SOL    HW115785   5.261   2.834   1.034
 4962SOL    HW215786   5.201   2.689   1.082
 4963SOL     OW15787   1.781   5.270   1.062
 4963SOL    HW115788   1.749   5.333   0.992
 4963SOL    HW215789   1.848   5.316   1.120
 4964SOL     OW15790   2.205   0.032   4.874
 4964SOL    HW115791   2.135   7.022   4.812
 4964SOL    HW215792   2.262   0.097   4.824
 4965SOL     OW15793   1.023   6.882   2.837
 4965SOL    HW115794   1.054   6.787   2.837
 4965SOL    HW215795   0.936   6.889   2.788
 4966SOL     OW15796   2.643   6.392   5.058
 4966SOL    HW115797   2.610   6.300   5.080
 4966SOL    HW215798   2.648   6.403   4.959
 4967SOL     OW15799   3.027   5.271   5.940
 4967SOL    HW115800   3.024   5.352   5.999
 4967SOL    HW215801   3.007   5.190   5.995
 4968SOL     OW15802   0.043   1.209   3.596
 4968SOL    HW115803   7.019   1.196   3.511
 4968SOL    HW215804   7.020   1.273   3.654
 4969SOL     OW15805   0.620   6.012   2.797
 4969SOL    HW115806   0.669   5.943   2.851
 4969SOL    HW215807   0.578   5.969   2.718
 4970SOL     OW15808   2.246   1.582   1.307
 4970SOL    HW115809   2.223   1.488   1.284
 4970SOL    HW215810   2.166   1.641   1.294
 4971SOL     OW15811   6.290   5.887   3.160
 4971SOL    HW115812   6.340   5.954   3.104
 4971SOL    HW215813   6.194   5.914   3.167
 4972SOL     OW15814   1.171   3.904   0.609
 4972SOL    HW115815   1.196   3.920   0.513
 4972SOL    HW215816   1.128   3.985   0.646
 4973SOL     OW15817   0.645   0.259   1.658
 4973SOL    HW115818   0.570   0.289   1.716
 4973SOL    HW215819   0.698   0.188   1.705
 4974SOL     OW15820   5.969   5.056   0.828
 4974SOL    HW115821   5.964   4.963   0.792
 4974SOL    HW215822   6.017   5.115   0.762
 4975SOL     OW15823   5.354   3.926   0.361
 4975SOL    HW115824   5.332   3.900   0.455
 4975SOL    HW215825   5.299   3.871   0.298
 4976SOL     OW15826   0.893   0.777   5.019
 4976SOL    HW115827   0.956   0.840   5.064
 4976SOL    HW215828   0.933   0.743   4.934
 4977SOL     OW15829   3.886   5.180   6.843
 4977SOL    HW115830   3.976   5.179   6.888
 4977SOL    HW215831   3.899   5.174   6.744
 4978SOL     OW15832   5.451   4.837   4.279
 4978SOL    HW115833   5.443   4.801   4.186
 4978SOL    HW215834   5.502   4.924   4.276
 4979SOL     OW15835   0.064   6.673   6.559
 4979SOL    HW115836   0.125   6.626   6.496
 4979SOL    HW215837   7.005   6.695   6.512
 4980SOL     OW15838   5.453   5.357   2.935
 4980SOL    HW115839   5.418   5.268   2.906
 4980SOL    HW215840   5.376   5.417   2.958
 4981SOL     OW15841   3.741   5.435   2.377
 4981SOL    HW115842   3.661   5.380   2.353
 4981SOL    HW215843   3.717   5.532   2.371
 4982SOL     OW15844   2.917   2.423   5.856
 4982SOL    HW115845   2.868   2.358   5.797
 4982SOL    HW215846   2.980   2.373   5.915
 4983SOL     OW15847   5.522   4.257   4.433
 4983SOL    HW115848   5.467   4.341   4.433
 4983SOL    HW215849   5.523   4.218   4.525
 4984SOL     OW15850   4.920   4.172   3.002
 4984SOL    HW115851   4.928   4.271   3.012
 4984SOL    HW215852   4.875   4.151   2.915
 4985SOL     OW15853   5.527   6.493   3.201
 4985SOL    HW115854   5.464   6.565   3.230
 4985SOL    HW215855   5.619   6.514   3.233
 4986SOL     OW15856   6.491   5.220   0.395
 4986SOL    HW115857   6.529   5.175   0.476
 4986SOL    HW215858   6.480   5.153   0.321
 4987SOL     OW15859   1.181   6.342   2.429
 4987SOL    HW115860   1.239   6.410   2.385
 4987SOL    HW215861   1.127   6.386   2.502
 4988SOL     OW15862   6.139   0.720   3.020
 4988SOL    HW115863   6.137   0.813   2.985
 4988SOL    HW215864   6.219   0.707   3.078
 4989SOL     OW15865   5.148   6.844   1.634
 4989SOL    HW115866   5.096   6.873   1.553
 4989SOL    HW215867   5.140   6.914   1.705
 4990SOL     OW15868   3.112   2.150   6.554
 4990SOL    HW115869   3.204   2.186   6.546
 4990SOL    HW215870   3.113   2.051   6.541
 4991SOL     OW15871   6.564   5.293   3.622
 4991SOL    HW115872   6.607   5.203   3.628
 4991SOL    HW215873   6.573   5.340   3.710
 4992SOL     OW15874   5.532   0.521   2.266
 4992SOL    HW115875   5.571   0.531   2.175
 4992SOL    HW215876   5.593   0.466   2.323
 4993SOL     OW15877   4.105   6.100   4.917
 4993SOL    HW115878   4.139   6.009   4.939
 4993SOL    HW215879   4.068   6.143   5.000
 4994SOL     OW15880   2.518   5.866   4.531
 4994SOL    HW115881   2.493   5.959   4.504
 4994SOL    HW215882   2.483   5.847   4.622
 4995SOL     OW15883   0.857   0.896   5.495
 4995SOL    HW115884   0.889   0.911   5.589
 4995SOL    HW215885   0.923   0.934   5.431
 4996SOL     OW15886   0.183   0.627   3.432
 4996SOL    HW115887   0.232   0.699   3.480
 4996SOL    HW215888   0.161   0.657   3.339
 4997SOL     OW15889   4.310   2.389   1.658
 4997SOL    HW115890   4.379   2.327   1.696
 4997SOL    HW215891   4.248   2.338   1.599
 4998SOL     OW15892   1.853   3.750   4.496
 4998SOL    HW115893   1.938   3.699   4.486
 4998SOL    HW215894   1.868   3.826   4.559
 4999SOL     OW15895   6.945   3.370   4.561
 4999SOL    HW115896   6.910   3.458   4.529
 4999SOL    HW215897   7.014   3.337   4.497
 5000SOL     OW15898   3.136   0.107   3.243
 5000SOL    HW115899   3.223   0.088   3.197
 5000SOL    HW215900   3.140   0.074   3.337
 5001SOL     OW15901   0.889   5.637   2.038
 5001SOL    HW115902   0.897   5.694   2.119
 5001SOL    HW215903   0.980   5.606   2.010
 5002SOL     OW15904   0.360   4.970   2.183
 5002SOL    HW115905   0.390   5.047   2.239
 5002SOL    HW215906   0.438   4.933   2.133
 5003SOL     OW15907   3.842   6.179   3.098
 5003SOL    HW115908   3.823   6.115   3.023
 5003SOL    HW215909   3.920   6.145   3.152
 5004SOL     OW15910   2.217   4.528   5.925
 5004SOL    HW115911   2.312   4.508   5.947
 5004SOL    HW215912   2.212   4.607   5.864
 5005SOL     OW15913   2.652   3.191   6.102
 5005SOL    HW115914   2.743   3.185   6.060
 5005SOL    HW215915   2.662   3.189   6.202
 5006SOL     OW15916   5.590   0.762   1.544
 5006SOL    HW115917   5.491   0.778   1.545
 5006SOL    HW215918   5.638   0.846   1.518
 5007SOL     OW15919   0.015   0.136   0.968
 5007SOL    HW115920   0.111   0.155   0.945
 5007SOL    HW215921   7.004   0.214   1.018
 5008SOL     OW15922   5.791   5.740   1.709
 5008SOL    HW115923   5.851   5.820   1.706
 5008SOL    HW215924   5.828   5.674   1.773
 5009SOL     OW15925   0.196   2.121   6.959
 5009SOL    HW115926   0.285   2.163   6.942
 5009SOL    HW215927   0.207   2.021   6.962
 5010SOL     OW15928   4.289   2.643   0.709
 5010SOL    HW115929   4.251   2.575   0.770
 5010SOL    HW215930   4.340   2.598   0.636
 5011SOL     OW15931   1.917   4.530   2.048
 5011SOL    HW115932   1.962   4.564   1.965
 5011SOL    HW215933   1.979   4.541   2.126
 5012SOL     OW15934   5.966   2.515   4.928
 5012SOL    HW115935   5.928   2.508   4.836
 5012SOL    HW215936   6.009   2.428   4.953
 5013SOL     OW15937   5.316   1.369   6.333
 5013SOL    HW115938   5.414   1.382   6.320
 5013SOL    HW215939   5.291   1.391   6.427
 5014SOL     OW15940   6.525   4.263   0.656
 5014SOL    HW115941   6.542   4.194   0.726
 5014SOL    HW215942   6.428   4.262   0.631
 5015SOL     OW15943   4.814   0.912   4.743
 5015SOL    HW115944   4.723   0.919   4.702
 5015SOL    HW215945   4.836   0.998   4.789
 5016SOL     OW15946   1.378   3.017   5.148
 5016SOL    HW115947   1.363   3.052   5.055
 5016SOL    HW215948   1.446   2.943   5.145
 5017SOL     OW15949   1.483   3.026   1.236
 5017SOL    HW115950   1.535   3.086   1.297
 5017SOL    HW215951   1.546   2.972   1.181
 5018SOL     OW15952   1.053   5.000   2.625
 5018SOL    HW115953   1.003   4.923   2.662
 5018SOL    HW215954   1.095   5.052   2.700
 5019SOL     OW15955   2.073   6.077   5.750
 5019SOL    HW115956   2.124   6.087   5.664
 5019SOL    HW215957   2.034   5.985   5.755
 5020SOL     OW15958   6.403   6.965   6.277
 5020SOL    HW115959   6.493   6.955   6.234
 5020SOL    HW215960   6.352   6.880   6.268
 5021SOL     OW15961   1.111   1.440   0.694
 5021SOL    HW115962   1.062   1.521   0.661
 5021SOL    HW215963   1.103   1.367   0.627
 5022SOL     OW15964   2.005   2.972   1.300
 5022SOL    HW115965   1.919   2.928   1.325
 5022SOL    HW215966   2.046   3.014   1.381
 5023SOL     OW15967   0.580   3.919   2.031
 5023SOL    HW115968   0.576   3.825   2.065
 5023SOL    HW215969   0.646   3.972   2.084
 5024SOL     OW15970   5.971   5.613   1.366
 5024SOL    HW115971   6.058   5.632   1.322
 5024SOL    HW215972   5.911   5.693   1.357
 5025SOL     OW15973   4.427   2.356   3.809
 5025SOL    HW115974   4.461   2.395   3.723
 5025SOL    HW215975   4.336   2.316   3.794
 5026SOL     OW15976   6.723   5.903   5.658
 5026SOL    HW115977   6.789   5.829   5.677
 5026SOL    HW215978   6.738   5.936   5.564
 5027SOL     OW15979   6.315   6.560   1.221
 5027SOL    HW115980   6.353   6.648   1.191
 5027SOL    HW215981   6.281   6.568   1.314
 5028SOL     OW15982   0.170   1.524   2.955
 5028SOL    HW115983   0.195   1.436   2.913
 5028SOL    HW215984   0.250   1.584   2.956
 5029SOL     OW15985   6.058   2.716   2.392
 5029SOL    HW115986   6.088   2.642   2.452
 5029SOL    HW215987   5.967   2.747   2.419
 5030SOL     OW15988   0.209   6.254   0.166
 5030SOL    HW115989   0.193   6.159   0.195
 5030SOL    HW215990   0.267   6.255   0.085
 5031SOL     OW15991   6.889   1.515   6.046
 5031SOL    HW115992   6.814   1.546   6.104
 5031SOL    HW215993   6.918   1.424   6.075
 5032SOL     OW15994   2.666   1.982   5.823
 5032SOL    HW115995   2.660   2.029   5.736
 5032SOL    HW215996   2.614   2.032   5.892
 5033SOL     OW15997   2.034   0.202   6.432
 5033SOL    HW115998   2.000   0.296   6.434
 5033SOL    HW215999   1.989   0.149   6.504
 5034SOL     OW16000   6.203   0.214   3.637
 5034SOL    HW116001   6.290   0.203   3.686
 5034SOL    HW216002   6.194   0.142   3.569
 5035SOL     OW16003   6.922   4.062   5.633
 5035SOL    HW116004   6.985   4.086   5.706
 5035SOL    HW216005   6.850   4.002   5.668
 5036SOL     OW16006   0.219   4.968   6.687
 5036SOL    HW116007   0.216   4.886   6.629
 5036SOL    HW216008   0.126   4.992   6.716
 5037SOL     OW16009   5.308   4.398   1.879
 5037SOL    HW116010   5.321   4.334   1.955
 5037SOL    HW216011   5.379   4.469   1.883
 5038SOL     OW16012   3.134   3.284   5.508
 5038SOL    HW116013   3.056   3.346   5.510
 5038SOL    HW216014   3.160   3.260   5.602
 5039SOL     OW16015   1.988   3.768   5.701
 5039SOL    HW116016   2.062   3.713   5.664
 5039SOL    HW216017   1.902   3.718   5.692
 5040SOL     OW16018   1.306   6.112   6.236
 5040SOL    HW116019   1.357   6.104   6.321
 5040SOL    HW216020   1.345   6.185   6.180
 5041SOL     OW16021   1.502   2.100   2.055
 5041SOL    HW116022   1.548   2.024   2.008
 5041SOL    HW216023   1.547   2.118   2.142
 5042SOL     OW16024   6.293   3.341   0.646
 5042SOL    HW116025   6.211   3.298   0.684
 5042SOL    HW216026   6.269   3.392   0.564
 5043SOL     OW16027   3.594   0.074   7.015
 5043SOL    HW116028   3.559   0.004   0.050
 5043SOL    HW216029   3.575   0.165   0.026
 5044SOL     OW16030   0.238   6.076   0.809
 5044SOL    HW116031   0.139   6.067   0.797
 5044SOL    HW216032   0.264   6.172   0.798
 5045SOL     OW16033   5.997   6.354   6.590
 5045SOL    HW116034   5.973   6.446   6.620
 5045SOL    HW216035   5.931   6.324   6.521
 5046SOL     OW16036   3.308   4.045   2.829
 5046SOL    HW116037   3.233   3.998   2.877
 5046SOL    HW216038   3.275   4.077   2.740
 5047SOL     OW16039   1.304   3.999   2.504
 5047SOL    HW116040   1.337   4.045   2.422
 5047SOL    HW216041   1.208   3.975   2.492
 5048SOL     OW16042   1.117   1.363   2.769
 5048SOL    HW116043   1.175   1.422   2.824
 5048SOL    HW216044   1.174   1.305   2.711
 5049SOL     OW16045   5.141   2.109   6.943
 5049SOL    HW116046   5.095   2.025   6.916
 5049SOL    HW216047   5.107   2.185   6.887
 5050SOL     OW16048   1.908   0.345   1.268
 5050SOL    HW116049   1.910   0.257   1.315
 5050SOL    HW216050   1.815   0.381   1.269
 5051SOL     OW16051   4.552   3.920   1.232
 5051SOL    HW116052   4.612   3.928   1.152
 5051SOL    HW216053   4.470   3.976   1.217
 5052SOL     OW16054   2.428   1.345   5.768
 5052SOL    HW116055   2.500   1.288   5.728
 5052SOL    HW216056   2.390   1.405   5.698
 5053SOL     OW16057   1.790   3.942   3.696
 5053SOL    HW116058   1.707   3.967   3.747
 5053SOL    HW216059   1.870   3.953   3.755
 5054SOL     OW16060   3.116   4.971   3.994
 5054SOL    HW116061   3.112   5.069   4.013
 5054SOL    HW216062   3.101   4.920   4.080
 5055SOL     OW16063   1.262   2.141   5.859
 5055SOL    HW116064   1.179   2.086   5.850
 5055SOL    HW216065   1.256   2.221   5.799
 5056SOL     OW16066   5.703   3.909   6.898
 5056SOL    HW116067   5.750   3.988   6.858
 5056SOL    HW216068   5.654   3.859   6.827
 5057SOL     OW16069   0.769   6.866   3.577
 5057SOL    HW116070   0.708   6.933   3.617
 5057SOL    HW216071   0.790   6.795   3.645
 5058SOL     OW16072   3.241   4.142   5.214
 5058SOL    HW116073   3.308   4.068   5.215
 5058SOL    HW216074   3.156   4.110   5.173
 5059SOL     OW16075   6.643   0.689   3.066
 5059SOL    HW116076   6.591   0.621   3.117
 5059SOL    HW216077   6.660   0.769   3.123
 5060SOL     OW16078   0.315   2.097   6.081
 5060SOL    HW116079   0.387   2.033   6.054
 5060SOL    HW216080   0.354   2.169   6.138
 5061SOL     OW16081   4.675   3.006   0.977
 5061SOL    HW116082   4.597   2.971   1.029
 5061SOL    HW216083   4.757   2.956   1.002
 5062SOL     OW16084   6.264   0.003   3.457
 5062SOL    HW116085   6.321   0.035   3.381
 5062SOL    HW216086   6.235   6.936   3.441
 5063SOL     OW16087   0.975   6.873   2.518
 5063SOL    HW116088   0.997   6.813   2.595
 5063SOL    HW216089   1.050   6.937   2.504
 5064SOL     OW16090   5.253   3.896   0.676
 5064SOL    HW116091   5.239   3.816   0.735
 5064SOL    HW216092   5.349   3.900   0.648
 5065SOL     OW16093   2.724   0.700   5.392
 5065SOL    HW116094   2.757   0.794   5.399
 5065SOL    HW216095   2.800   0.640   5.366
 5066SOL     OW16096   5.079   4.510   2.481
 5066SOL    HW116097   5.046   4.468   2.398
 5066SOL    HW216098   5.172   4.544   2.467
 5067SOL     OW16099   4.594   1.193   1.597
 5067SOL    HW116100   4.498   1.207   1.574
 5067SOL    HW216101   4.600   1.140   1.682
 5068SOL     OW16102   2.910   4.244   0.965
 5068SOL    HW116103   2.839   4.278   0.904
 5068SOL    HW216104   2.942   4.154   0.934
 5069SOL     OW16105   1.830   3.329   4.904
 5069SOL    HW116106   1.894   3.338   4.980
 5069SOL    HW216107   1.867   3.266   4.836
 5070SOL     OW16108   4.823   4.071   4.277
 5070SOL    HW116109   4.858   3.988   4.320
 5070SOL    HW216110   4.770   4.124   4.343
 5071SOL     OW16111   4.748   1.879   4.699
 5071SOL    HW116112   4.833   1.829   4.678
 5071SOL    HW216113   4.753   1.913   4.793
 5072SOL     OW16114   1.020   6.492   0.508
 5072SOL    HW116115   0.982   6.424   0.571
 5072SOL    HW216116   0.976   6.484   0.419
 5073SOL     OW16117   0.262   6.641   2.611
 5073SOL    HW116118   0.333   6.641   2.541
 5073SOL    HW216119   0.185   6.697   2.581
 5074SOL     OW16120   2.817   3.281   0.087
 5074SOL    HW116121   2.744   3.347   0.068
 5074SOL    HW216122   2.829   3.221   0.008
 5075SOL     OW16123   0.976   1.586   6.448
 5075SOL    HW116124   1.056   1.564   6.504
 5075SOL    HW216125   0.953   1.683   6.459
 5076SOL     OW16126   3.862   0.441   0.634
 5076SOL    HW116127   3.914   0.492   0.702
 5076SOL    HW216128   3.764   0.450   0.652
 5077SOL     OW16129   0.282   3.413   4.892
 5077SOL    HW116130   0.342   3.486   4.925
 5077SOL    HW216131   0.303   3.395   4.796
 5078SOL     OW16132   1.081   1.942   3.504
 5078SOL    HW116133   1.015   1.981   3.567
 5078SOL    HW216134   1.051   1.956   3.409
 5079SOL     OW16135   2.108   4.216   5.740
 5079SOL    HW116136   2.161   4.215   5.824
 5079SOL    HW216137   2.076   4.310   5.722
 5080SOL     OW16138   6.606   6.253   5.962
 5080SOL    HW116139   6.523   6.228   5.911
 5080SOL    HW216140   6.686   6.233   5.906
 5081SOL     OW16141   3.786   2.907   4.706
 5081SOL    HW116142   3.702   2.897   4.653
 5081SOL    HW216143   3.763   2.903   4.804
 5082SOL     OW16144   5.592   5.497   5.887
 5082SOL    HW116145   5.493   5.486   5.888
 5082SOL    HW216146   5.631   5.456   5.969
 5083SOL     OW16147   2.667   0.310   2.976
 5083SOL    HW116148   2.713   0.287   2.890
 5083SOL    HW216149   2.588   0.250   2.988
 5084SOL     OW16150   0.991   5.071   4.261
 5084SOL    HW116151   0.937   5.140   4.214
 5084SOL    HW216152   1.089   5.092   4.250
 5085SOL     OW16153   5.212   3.032   6.777
 5085SOL    HW116154   5.143   3.006   6.709
 5085SOL    HW216155   5.174   3.022   6.869
 5086SOL     OW16156   0.103   5.852   3.458
 5086SOL    HW116157   0.125   5.779   3.523
 5086SOL    HW216158   0.102   5.816   3.365
 5087SOL     OW16159   0.098   5.445   3.551
 5087SOL    HW116160   0.147   5.518   3.598
 5087SOL    HW216161   7.026   5.464   3.553
 5088SOL     OW16162   5.397   1.293   5.157
 5088SOL    HW116163   5.312   1.326   5.198
 5088SOL    HW216164   5.377   1.211   5.103
 5089SOL     OW16165   5.200   2.769   3.292
 5089SOL    HW116166   5.237   2.737   3.379
 5089SOL    HW216167   5.190   2.869   3.295
 5090SOL     OW16168   2.130   3.414   3.245
 5090SOL    HW116169   2.081   3.475   3.183
 5090SOL    HW216170   2.104   3.433   3.339
 5091SOL     OW16171   1.995   6.111   2.723
 5091SOL    HW116172   2.049   6.185   2.764
 5091SOL    HW216173   1.982   6.129   2.626
 5092SOL     OW16174   2.793   3.017   1.382
 5092SOL    HW116175   2.751   2.926   1.389
 5092SOL    HW216176   2.865   3.025   1.450
 5093SOL     OW16177   3.185   1.731   1.291
 5093SOL    HW116178   3.142   1.819   1.270
 5093SOL    HW216179   3.143   1.660   1.235
 5094SOL     OW16180   1.183   6.449   4.747
 5094SOL    HW116181   1.191   6.398   4.833
 5094SOL    HW216182   1.240   6.532   4.753
 5095SOL     OW16183   0.157   2.376   4.625
 5095SOL    HW116184   0.094   2.373   4.703
 5095SOL    HW216185   0.230   2.442   4.644
 5096SOL     OW16186   4.126   3.786   0.686
 5096SOL    HW116187   4.083   3.695   0.683
 5096SOL    HW216188   4.126   3.819   0.780
 5097SOL     OW16189   1.823   0.424   0.148
 5097SOL    HW116190   1.805   0.519   0.125
 5097SOL    HW216191   1.755   0.365   0.105
 5098SOL     OW16192   1.132   0.639   1.003
 5098SOL    HW116193   1.178   0.630   1.091
 5098SOL    HW216194   1.100   0.549   0.973
 5099SOL     OW16195   0.378   0.185   5.895
 5099SOL    HW116196   0.290   0.231   5.882
 5099SOL    HW216197   0.369   0.089   5.870
 5100SOL     OW16198   4.337   6.720   5.266
 5100SOL    HW116199   4.349   6.621   5.273
 5100SOL    HW216200   4.405   6.757   5.202
 5101SOL     OW16201   4.480   6.796   0.364
 5101SOL    HW116202   4.478   6.750   0.453
 5101SOL    HW216203   4.495   6.728   0.292
 5102SOL     OW16204   5.756   0.296   5.239
 5102SOL    HW116205   5.683   0.246   5.194
 5102SOL    HW216206   5.741   0.298   5.337
 5103SOL     OW16207   0.663   0.855   3.957
 5103SOL    HW116208   0.712   0.941   3.943
 5103SOL    HW216209   0.727   0.779   3.946
 5104SOL     OW16210   2.444   6.595   2.347
 5104SOL    HW116211   2.386   6.651   2.288
 5104SOL    HW216212   2.452   6.503   2.309
 5105SOL     OW16213   4.044   3.010   0.059
 5105SOL    HW116214   4.088   3.038   0.144
 5105SOL    HW216215   4.047   2.910   0.051
 5106SOL     OW16216   3.766   0.373   1.619
 5106SOL    HW116217   3.679   0.325   1.629
 5106SOL    HW216218   3.781   0.432   1.699
 5107SOL     OW16219   4.213   0.866   0.405
 5107SOL    HW116220   4.284   0.905   0.465
 5107SOL    HW216221   4.256   0.821   0.327
 5108SOL     OW16222   2.985   3.630   3.612
 5108SOL    HW116223   2.921   3.562   3.649
 5108SOL    HW216224   2.952   3.662   3.524
 5109SOL     OW16225   0.882   1.146   1.054
 5109SOL    HW116226   0.799   1.200   1.049
 5109SOL    HW216227   0.884   1.079   0.980
 5110SOL     OW16228   0.719   0.343   6.632
 5110SOL    HW116229   0.808   0.313   6.667
 5110SOL    HW216230   0.719   0.342   6.532
 5111SOL     OW16231   0.868   0.837   6.023
 5111SOL    HW116232   0.926   0.804   6.097
 5111SOL    HW216233   0.772   0.826   6.048
 5112SOL     OW16234   0.584   0.712   2.624
 5112SOL    HW116235   0.540   0.622   2.630
 5112SOL    HW216236   0.561   0.755   2.537
 5113SOL     OW16237   2.059   6.844   1.972
 5113SOL    HW116238   2.132   6.906   1.946
 5113SOL    HW216239   1.989   6.844   1.900
 5114SOL     OW16240   3.724   2.996   0.415
 5114SOL    HW116241   3.633   2.964   0.441
 5114SOL    HW216242   3.718   3.088   0.376
 5115SOL     OW16243   2.239   4.645   5.153
 5115SOL    HW116244   2.211   4.693   5.070
 5115SOL    HW216245   2.226   4.546   5.140
 5116SOL     OW16246   5.617   6.148   6.277
 5116SOL    HW116247   5.579   6.104   6.359
 5116SOL    HW216248   5.703   6.193   6.300
 5117SOL     OW16249   1.578   4.849   4.228
 5117SOL    HW116250   1.512   4.919   4.198
 5117SOL    HW216251   1.543   4.803   4.309
 5118SOL     OW16252   4.700   6.430   0.999
 5118SOL    HW116253   4.646   6.347   0.982
 5118SOL    HW216254   4.757   6.417   1.080
 5119SOL     OW16255   5.002   0.413   1.620
 5119SOL    HW116256   4.903   0.422   1.616
 5119SOL    HW216257   5.040   0.488   1.673
 5120SOL     OW16258   5.372   1.050   3.512
 5120SOL    HW116259   5.349   0.992   3.591
 5120SOL    HW216260   5.290   1.063   3.456
 5121SOL     OW16261   2.409   2.665   0.098
 5121SOL    HW116262   2.433   2.694   0.005
 5121SOL    HW216263   2.371   2.573   0.095
 5122SOL     OW16264   3.397   0.839   4.088
 5122SOL    HW116265   3.400   0.745   4.054
 5122SOL    HW216266   3.488   0.867   4.115
 5123SOL     OW16267   5.858   3.211   4.746
 5123SOL    HW116268   5.949   3.217   4.786
 5123SOL    HW216269   5.866   3.189   4.648
 5124SOL     OW16270   2.628   5.369   5.693
 5124SOL    HW116271   2.609   5.322   5.607
 5124SOL    HW216272   2.648   5.301   5.764
 5125SOL     OW16273   6.329   3.136   4.475
 5125SOL    HW116274   6.421   3.098   4.489
 5125SOL    HW216275   6.320   3.222   4.525
 5126SOL     OW16276   6.357   4.975   6.222
 5126SOL    HW116277   6.412   5.019   6.150
 5126SOL    HW216278   6.273   5.027   6.237
 5127SOL     OW16279   6.773   4.013   0.161
 5127SOL    HW116280   6.830   3.931   0.149
 5127SOL    HW216281   6.737   4.015   0.254
 5128SOL     OW16282   0.212   6.879   0.330
 5128SOL    HW116283   0.169   6.938   0.398
 5128SOL    HW216284   0.143   6.819   0.289
 5129SOL     OW16285   4.864   0.514   2.205
 5129SOL    HW116286   4.917   0.508   2.120
 5129SOL    HW216287   4.924   0.498   2.283
 5130SOL     OW16288   1.487   5.973   4.316
 5130SOL    HW116289   1.437   6.002   4.398
 5130SOL    HW216290   1.545   6.048   4.284
 5131SOL     OW16291   2.937   5.045   3.275
 5131SOL    HW116292   2.925   4.946   3.283
 5131SOL    HW216293   3.033   5.066   3.261
 5132SOL     OW16294   3.606   1.421   5.824
 5132SOL    HW116295   3.700   1.453   5.819
 5132SOL    HW216296   3.544   1.498   5.810
 5133SOL     OW16297   2.911   5.800   5.982
 5133SOL    HW116298   2.853   5.810   6.063
 5133SOL    HW216299   3.004   5.832   6.003
 5134SOL     OW16300   6.994   0.121   2.098
 5134SOL    HW116301   0.009   0.032   2.117
 5134SOL    HW216302   6.999   0.177   2.181
 5135SOL     OW16303   6.364   3.840   3.469
 5135SOL    HW116304   6.307   3.866   3.546
 5135SOL    HW216305   6.384   3.742   3.473
 5136SOL     OW16306   5.947   0.964   6.109
 5136SOL    HW116307   5.978   1.010   6.026
 5136SOL    HW216308   5.890   1.027   6.162
 5137SOL     OW16309   5.150   3.327   5.402
 5137SOL    HW116310   5.128   3.388   5.478
 5137SOL    HW216311   5.227   3.365   5.350
 5138SOL     OW16312   4.019   3.895   3.848
 5138SOL    HW116313   3.929   3.905   3.806
 5138SOL    HW216314   4.079   3.843   3.787
 5139SOL     OW16315   1.161   6.725   4.543
 5139SOL    HW116316   1.173   6.810   4.493
 5139SOL    HW216317   1.198   6.735   4.636
 5140SOL     OW16318   3.282   2.229   5.623
 5140SOL    HW116319   3.240   2.311   5.662
 5140SOL    HW216320   3.295   2.241   5.525
 5141SOL     OW16321   6.387   3.248   1.175
 5141SOL    HW116322   6.385   3.273   1.078
 5141SOL    HW216323   6.380   3.330   1.231
 5142SOL     OW16324   6.028   6.734   5.199
 5142SOL    HW116325   5.947   6.683   5.228
 5142SOL    HW216326   6.003   6.829   5.182
 5143SOL     OW16327   0.831   3.991   5.449
 5143SOL    HW116328   0.802   3.981   5.545
 5143SOL    HW216329   0.912   3.934   5.433
 5144SOL     OW16330   1.719   3.670   5.713
 5144SOL    HW116331   1.697   3.764   5.686
 5144SOL    HW216332   1.667   3.606   5.656
 5145SOL     OW16333   4.236   6.487   6.751
 5145SOL    HW116334   4.296   6.481   6.671
 5145SOL    HW216335   4.272   6.554   6.815
 5146SOL     OW16336   3.542   4.089   5.075
 5146SOL    HW116337   3.599   4.140   5.139
 5146SOL    HW216338   3.531   3.995   5.108
 5147SOL     OW16339   6.156   4.996   3.527
 5147SOL    HW116340   6.145   5.096   3.530
 5147SOL    HW216341   6.195   4.970   3.439
 5148SOL     OW16342   0.596   0.545   2.046
 5148SOL    HW116343   0.687   0.586   2.058
 5148SOL    HW216344   0.532   0.615   2.017
 5149SOL     OW16345   6.042   5.242   4.177
 5149SOL    HW116346   6.095   5.198   4.249
 5149SOL    HW216347   6.057   5.193   4.091
 5150SOL     OW16348   2.246   4.532   3.975
 5150SOL    HW116349   2.228   4.458   3.911
 5150SOL    HW216350   2.334   4.517   4.020
 5151SOL     OW16351   6.042   3.903   1.496
 5151SOL    HW116352   6.012   3.873   1.586
 5151SOL    HW216353   6.053   4.002   1.495
 5152SOL     OW16354   1.220   5.854   6.157
 5152SOL    HW116355   1.252   5.783   6.093
 5152SOL    HW216356   1.255   5.943   6.128
 5153SOL     OW16357   1.000   2.169   0.835
 5153SOL    HW116358   1.024   2.264   0.817
 5153SOL    HW216359   0.907   2.151   0.804
 5154SOL     OW16360   1.606   3.082   6.674
 5154SOL    HW116361   1.600   3.067   6.575
 5154SOL    HW216362   1.516   3.068   6.715
 5155SOL     OW16363   4.058   1.019   0.910
 5155SOL    HW116364   4.096   0.972   0.830
 5155SOL    HW216365   4.128   1.026   0.981
 5156SOL     OW16366   5.610   4.821   4.842
 5156SOL    HW116367   5.686   4.758   4.857
 5156SOL    HW216368   5.626   4.874   4.758
 5157SOL     OW16369   3.423   2.101   2.406
 5157SOL    HW116370   3.479   2.073   2.328
 5157SOL    HW216371   3.326   2.092   2.382
 5158SOL     OW16372   3.090   2.078   0.476
 5158SOL    HW116373   3.186   2.055   0.490
 5158SOL    HW216374   3.034   2.035   0.546
 5159SOL     OW16375   6.281   4.186   6.664
 5159SOL    HW116376   6.338   4.237   6.600
 5159SOL    HW216377   6.250   4.101   6.622
 5160SOL     OW16378   6.731   5.901   3.510
 5160SOL    HW116379   6.652   5.962   3.512
 5160SOL    HW216380   6.730   5.843   3.591
 5161SOL     OW16381   0.918   3.048   0.394
 5161SOL    HW116382   0.870   3.133   0.370
 5161SOL    HW216383   0.882   2.973   0.340
 5162SOL     OW16384   0.669   5.652   2.356
 5162SOL    HW116385   0.652   5.686   2.448
 5162SOL    HW216386   0.732   5.713   2.308
 5163SOL     OW16387   3.617   0.144   0.707
 5163SOL    HW116388   3.666   0.154   0.793
 5163SOL    HW216389   3.648   0.213   0.642
 5164SOL     OW16390   2.858   3.408   6.498
 5164SOL    HW116391   2.931   3.436   6.560
 5164SOL    HW216392   2.801   3.487   6.474
 5165SOL     OW16393   1.142   4.454   6.675
 5165SOL    HW116394   1.087   4.372   6.688
 5165SOL    HW216395   1.234   4.428   6.646
 5166SOL     OW16396   1.581   4.801   2.888
 5166SOL    HW116397   1.673   4.764   2.877
 5166SOL    HW216398   1.520   4.759   2.821
 5167SOL     OW16399   6.458   4.681   4.962
 5167SOL    HW116400   6.377   4.740   4.971
 5167SOL    HW216401   6.501   4.671   5.051
 5168SOL     OW16402   4.891   2.099   3.113
 5168SOL    HW116403   4.949   2.167   3.069
 5168SOL    HW216404   4.940   2.012   3.121
 5169SOL     OW16405   4.846   1.794   3.678
 5169SOL    HW116406   4.867   1.859   3.751
 5169SOL    HW216407   4.831   1.703   3.718
 5170SOL     OW16408   1.093   3.464   5.441
 5170SOL    HW116409   1.043   3.402   5.381
 5170SOL    HW216410   1.189   3.438   5.443
 5171SOL     OW16411   0.250   4.526   5.231
 5171SOL    HW116412   0.294   4.448   5.188
 5171SOL    HW216413   0.319   4.584   5.275
 5172SOL     OW16414   1.553   4.289   3.129
 5172SOL    HW116415   1.485   4.269   3.199
 5172SOL    HW216416   1.595   4.378   3.148
 5173SOL     OW16417   3.869   4.227   5.974
 5173SOL    HW116418   3.891   4.322   5.953
 5173SOL    HW216419   3.827   4.221   6.064
 5174SOL     OW16420   2.401   6.380   4.064
 5174SOL    HW116421   2.399   6.295   4.117
 5174SOL    HW216422   2.492   6.421   4.072
 5175SOL     OW16423   2.404   3.829   6.737
 5175SOL    HW116424   2.367   3.747   6.783
 5175SOL    HW216425   2.342   3.906   6.752
 5176SOL     OW16426   4.930   4.907   6.563
 5176SOL    HW116427   4.862   4.958   6.616
 5176SOL    HW216428   5.022   4.936   6.589
 5177SOL     OW16429   4.616   6.353   1.548
 5177SOL    HW116430   4.558   6.422   1.590
 5177SOL    HW216431   4.665   6.392   1.471
 5178SOL     OW16432   1.067   4.627   1.614
 5178SOL    HW116433   1.047   4.553   1.678
 5178SOL    HW216434   1.076   4.713   1.665
 5179SOL     OW16435   5.053   4.675   3.710
 5179SOL    HW116436   5.120   4.748   3.720
 5179SOL    HW216437   5.008   4.683   3.621
 5180SOL     OW16438   3.591   0.578   1.342
 5180SOL    HW116439   3.619   0.654   1.283
 5180SOL    HW216440   3.492   0.582   1.357
 5181SOL     OW16441   0.018   0.114   0.359
 5181SOL    HW116442   6.998   0.074   0.438
 5181SOL    HW216443   0.022   0.213   0.369
 5182SOL     OW16444   4.670   4.524   1.910
 5182SOL    HW116445   4.634   4.578   1.834
 5182SOL    HW216446   4.621   4.437   1.915
 5183SOL     OW16447   4.113   1.731   2.855
 5183SOL    HW116448   4.184   1.757   2.921
 5183SOL    HW216449   4.069   1.647   2.885
 5184SOL     OW16450   2.227   1.847   3.143
 5184SOL    HW116451   2.131   1.867   3.125
 5184SOL    HW216452   2.279   1.933   3.144
 5185SOL     OW16453   5.116   0.145   2.903
 5185SOL    HW116454   5.060   0.133   2.821
 5185SOL    HW216455   5.139   0.242   2.915
 5186SOL     OW16456   6.339   2.912   5.897
 5186SOL    HW116457   6.405   2.845   5.864
 5186SOL    HW216458   6.377   3.004   5.887
 5187SOL     OW16459   1.551   5.585   4.783
 5187SOL    HW116460   1.591   5.503   4.742
 5187SOL    HW216461   1.541   5.656   4.714
 5188SOL     OW16462   6.282   5.747   1.709
 5188SOL    HW116463   6.302   5.738   1.807
 5188SOL    HW216464   6.262   5.842   1.688
 5189SOL     OW16465   5.007   6.168   0.282
 5189SOL    HW116466   4.909   6.166   0.266
 5189SOL    HW216467   5.053   6.107   0.216
 5190SOL     OW16468   1.805   3.386   2.829
 5190SOL    HW116469   1.710   3.397   2.857
 5190SOL    HW216470   1.833   3.465   2.774
 5191SOL     OW16471   3.411   5.616   2.962
 5191SOL    HW116472   3.336   5.669   3.003
 5191SOL    HW216473   3.477   5.679   2.921
 5192SOL     OW16474   2.036   6.003   1.342
 5192SOL    HW116475   2.014   6.055   1.424
 5192SOL    HW216476   2.122   5.953   1.355
 5193SOL     OW16477   4.700   6.035   6.028
 5193SOL    HW116478   4.724   5.938   6.035
 5193SOL    HW216479   4.706   6.065   5.933
 5194SOL     OW16480   3.073   2.411   6.801
 5194SOL    HW116481   3.034   2.461   6.878
 5194SOL    HW216482   3.118   2.475   6.738
 5195SOL     OW16483   0.279   0.500   4.219
 5195SOL    HW116484   0.221   0.580   4.236
 5195SOL    HW216485   0.282   0.482   4.120
 5196SOL     OW16486   4.510   6.661   2.295
 5196SOL    HW116487   4.597   6.709   2.301
 5196SOL    HW216488   4.505   6.592   2.368
 5197SOL     OW16489   1.321   4.059   6.740
 5197SOL    HW116490   1.322   3.966   6.703
 5197SOL    HW216491   1.254   4.064   6.814
 5198SOL     OW16492   4.212   5.360   3.305
 5198SOL    HW116493   4.219   5.420   3.384
 5198SOL    HW216494   4.149   5.285   3.326
 5199SOL     OW16495   0.199   5.630   0.539
 5199SOL    HW116496   0.206   5.713   0.595
 5199SOL    HW216497   0.288   5.587   0.533
 5200SOL     OW16498   0.037   3.808   5.136
 5200SOL    HW116499   0.037   3.775   5.231
 5200SOL    HW216500   6.978   3.856   5.118
 5201SOL     OW16501   0.376   6.627   3.276
 5201SOL    HW116502   0.444   6.701   3.276
 5201SOL    HW216503   0.406   6.554   3.336
 5202SOL     OW16504   5.925   2.931   6.618
 5202SOL    HW116505   5.828   2.906   6.620
 5202SOL    HW216506   5.953   2.958   6.710
 5203SOL     OW16507   2.009   2.354   6.870
 5203SOL    HW116508   1.965   2.307   6.793
 5203SOL    HW216509   2.094   2.307   6.894
 5204SOL     OW16510   4.146   5.495   0.248
 5204SOL    HW116511   4.084   5.573   0.255
 5204SOL    HW216512   4.235   5.526   0.216
 5205SOL     OW16513   2.225   6.959   0.782
 5205SOL    HW116514   2.251   6.947   0.686
 5205SOL    HW216515   2.162   0.010   0.789
 5206SOL     OW16516   0.366   3.669   5.866
 5206SOL    HW116517   0.274   3.667   5.906
 5206SOL    HW216518   0.358   3.667   5.766
 5207SOL     OW16519   0.977   5.752   4.085
 5207SOL    HW116520   0.953   5.798   4.171
 5207SOL    HW216521   1.001   5.821   4.016
 5208SOL     OW16522   3.650   1.560   0.316
 5208SOL    HW116523   3.590   1.480   0.322
 5208SOL    HW216524   3.716   1.557   0.391
 5209SOL     OW16525   6.051   6.094   3.905
 5209SOL    HW116526   6.092   6.186   3.898
 5209SOL    HW216527   6.013   6.082   3.997
 5210SOL     OW16528   6.017   2.922   5.779
 5210SOL    HW116529   6.084   2.861   5.737
 5210SOL    HW216530   5.927   2.878   5.781
 5211SOL     OW16531   4.008   3.417   4.478
 5211SOL    HW116532   3.925   3.372   4.444
 5211SOL    HW216533   4.049   3.362   4.551
 5212SOL     OW16534   6.778   1.683   1.137
 5212SOL    HW116535   6.729   1.597   1.147
 5212SOL    HW216536   6.805   1.718   1.227
 5213SOL     OW16537   5.172   3.522   6.681
 5213SOL    HW116538   5.227   3.496   6.601
 5213SOL    HW216539   5.125   3.608   6.664
 5214SOL     OW16540   5.295   1.753   6.553
 5214SOL    HW116541   5.196   1.751   6.565
 5214SOL    HW216542   5.317   1.793   6.463
 5215SOL     OW16543   5.312   5.339   3.278
 5215SOL    HW116544   5.267   5.311   3.363
 5215SOL    HW216545   5.324   5.438   3.278
 5216SOL     OW16546   4.145   5.949   1.879
 5216SOL    HW116547   4.190   5.875   1.829
 5216SOL    HW216548   4.135   6.029   1.820
 5217SOL     OW16549   3.760   5.288   3.929
 5217SOL    HW116550   3.823   5.268   4.004
 5217SOL    HW216551   3.737   5.386   3.931
 5218SOL     OW16552   1.496   0.623   3.307
 5218SOL    HW116553   1.550   0.706   3.324
 5218SOL    HW216554   1.407   0.649   3.269
 5219SOL     OW16555   3.781   0.680   6.481
 5219SOL    HW116556   3.857   0.614   6.482
 5219SOL    HW216557   3.703   0.641   6.530
 5220SOL     OW16558   1.604   5.444   2.805
 5220SOL    HW116559   1.627   5.482   2.716
 5220SOL    HW216560   1.658   5.489   2.876
 5221SOL     OW16561   5.440   2.276   4.513
 5221SOL    HW116562   5.521   2.310   4.560
 5221SOL    HW216563   5.433   2.177   4.525
 5222SOL     OW16564   2.304   0.143   4.016
 5222SOL    HW116565   2.266   0.214   3.957
 5222SOL    HW216566   2.404   0.140   4.006
 5223SOL     OW16567   5.208   0.459   1.387
 5223SOL    HW116568   5.205   0.544   1.335
 5223SOL    HW216569   5.123   0.449   1.439
 5224SOL     OW16570   1.047   1.653   3.331
 5224SOL    HW116571   0.996   1.738   3.340
 5224SOL    HW216572   1.140   1.672   3.301
 5225SOL     OW16573   6.416   0.387   2.987
 5225SOL    HW116574   6.462   0.399   3.075
 5225SOL    HW216575   6.414   0.474   2.938
 5226SOL     OW16576   0.975   5.458   5.276
 5226SOL    HW116577   0.888   5.484   5.235
 5226SOL    HW216578   1.034   5.419   5.206
 5227SOL     OW16579   1.678   4.363   3.482
 5227SOL    HW116580   1.740   4.287   3.503
 5227SOL    HW216581   1.584   4.338   3.506
 5228SOL     OW16582   6.474   2.919   1.446
 5228SOL    HW116583   6.499   2.982   1.373
 5228SOL    HW216584   6.500   2.958   1.534
 5229SOL     OW16585   1.429   4.275   0.160
 5229SOL    HW116586   1.470   4.287   0.070
 5229SOL    HW216587   1.461   4.349   0.221
 5230SOL     OW16588   0.211   6.263   1.068
 5230SOL    HW116589   0.268   6.338   1.101
 5230SOL    HW216590   0.158   6.292   0.989
 5231SOL     OW16591   3.492   4.192   4.253
 5231SOL    HW116592   3.545   4.170   4.335
 5231SOL    HW216593   3.400   4.154   4.262
 5232SOL     OW16594   3.270   2.283   6.063
 5232SOL    HW116595   3.249   2.269   6.160
 5232SOL    HW216596   3.367   2.262   6.047
 5233SOL     OW16597   6.278   0.002   1.321
 5233SOL    HW116598   6.250   0.083   1.270
 5233SOL    HW216599   6.218   6.952   1.299
 5234SOL     OW16600   3.097   0.351   6.500
 5234SOL    HW116601   3.088   0.445   6.467
 5234SOL    HW216602   3.006   0.312   6.516
 5235SOL     OW16603   1.627   3.366   1.154
 5235SOL    HW116604   1.553   3.303   1.133
 5235SOL    HW216605   1.618   3.398   1.248
 5236SOL     OW16606   5.691   3.471   2.569
 5236SOL    HW116607   5.677   3.494   2.473
 5236SOL    HW216608   5.731   3.380   2.576
 5237SOL     OW16609   2.825   1.007   5.408
 5237SOL    HW116610   2.768   1.068   5.353
 5237SOL    HW216611   2.913   0.992   5.363
 5238SOL     OW16612   1.892   4.775   0.685
 5238SOL    HW116613   1.865   4.694   0.633
 5238SOL    HW216614   1.919   4.848   0.621
 5239SOL     OW16615   4.105   3.694   4.067
 5239SOL    HW116616   4.064   3.744   3.992
 5239SOL    HW216617   4.098   3.747   4.152
 5240SOL     OW16618   2.881   1.397   5.800
 5240SOL    HW116619   2.791   1.427   5.830
 5240SOL    HW216620   2.921   1.337   5.869
 5241SOL     OW16621   0.965   5.687   6.233
 5241SOL    HW116622   0.887   5.661   6.176
 5241SOL    HW216623   1.010   5.767   6.193
 5242SOL     OW16624   6.837   6.214   6.093
 5242SOL    HW116625   6.742   6.196   6.067
 5242SOL    HW216626   6.890   6.237   6.011
 5243SOL     OW16627   1.159   6.389   1.472
 5243SOL    HW116628   1.156   6.354   1.378
 5243SOL    HW216629   1.237   6.451   1.482
 5244SOL     OW16630   3.800   4.042   6.384
 5244SOL    HW116631   3.781   4.122   6.327
 5244SOL    HW216632   3.864   4.066   6.457
 5245SOL     OW16633   4.319   4.580   0.280
 5245SOL    HW116634   4.309   4.500   0.221
 5245SOL    HW216635   4.232   4.629   0.284
 5246SOL     OW16636   5.638   4.532   2.823
 5246SOL    HW116637   5.594   4.495   2.741
 5246SOL    HW216638   5.737   4.527   2.813
 5247SOL     OW16639   0.908   5.650   0.329
 5247SOL    HW116640   0.849   5.724   0.361
 5247SOL    HW216641   0.995   5.653   0.377
 5248SOL     OW16642   6.335   0.672   5.250
 5248SOL    HW116643   6.343   0.613   5.330
 5248SOL    HW216644   6.426   0.697   5.217
 5249SOL     OW16645   0.708   5.249   5.496
 5249SOL    HW116646   0.644   5.174   5.517
 5249SOL    HW216647   0.719   5.255   5.397
 5250SOL     OW16648   0.261   0.908   5.914
 5250SOL    HW116649   0.175   0.955   5.892
 5250SOL    HW216650   0.310   0.961   5.983
 5251SOL     OW16651   0.527   2.923   1.456
 5251SOL    HW116652   0.551   2.874   1.372
 5251SOL    HW216653   0.592   2.898   1.528
 5252SOL     OW16654   2.145   5.766   1.059
 5252SOL    HW116655   2.204   5.698   1.102
 5252SOL    HW216656   2.063   5.779   1.115
 5253SOL     OW16657   5.405   3.872   5.298
 5253SOL    HW116658   5.353   3.790   5.275
 5253SOL    HW216659   5.493   3.846   5.337
 5254SOL     OW16660   5.979   1.200   3.759
 5254SOL    HW116661   6.021   1.174   3.672
 5254SOL    HW216662   5.975   1.121   3.819
 5255SOL     OW16663   4.654   0.163   5.476
 5255SOL    HW116664   4.582   0.228   5.449
 5255SOL    HW216665   4.742   0.194   5.441
 5256SOL     OW16666   4.567   1.222   2.860
 5256SOL    HW116667   4.515   1.168   2.927
 5256SOL    HW216668   4.612   1.298   2.906
 5257SOL     OW16669   4.323   0.434   1.801
 5257SOL    HW116670   4.304   0.364   1.870
 5257SOL    HW216671   4.241   0.489   1.786
 5258SOL     OW16672   5.491   4.284   2.319
 5258SOL    HW116673   5.569   4.245   2.269
 5258SOL    HW216674   5.440   4.211   2.363
 5259SOL     OW16675   4.567   6.206   0.987
 5259SOL    HW116676   4.475   6.213   1.025
 5259SOL    HW216677   4.613   6.125   1.024
 5260SOL     OW16678   5.562   3.542   1.057
 5260SOL    HW116679   5.613   3.501   1.132
 5260SOL    HW216680   5.550   3.640   1.074
 5261SOL     OW16681   1.347   2.922   5.883
 5261SOL    HW116682   1.406   2.843   5.897
 5261SOL    HW216683   1.252   2.897   5.901
 5262SOL     OW16684   3.287   0.429   2.299
 5262SOL    HW116685   3.370   0.478   2.274
 5262SOL    HW216686   3.310   0.359   2.367
 5263SOL     OW16687   0.924   0.508   5.830
 5263SOL    HW116688   0.916   0.412   5.802
 5263SOL    HW216689   0.909   0.567   5.750
 5264SOL     OW16690   6.158   0.142   1.998
 5264SOL    HW116691   6.086   0.205   2.027
 5264SOL    HW216692   6.247   0.176   2.027
 5265SOL     OW16693   5.107   4.424   3.039
 5265SOL    HW116694   5.118   4.388   3.132
 5265SOL    HW216695   5.013   4.453   3.025
 5266SOL     OW16696   2.601   0.607   2.133
 5266SOL    HW116697   2.564   0.686   2.182
 5266SOL    HW216698   2.527   0.545   2.108
 5267SOL     OW16699   4.640   4.585   5.878
 5267SOL    HW116700   4.570   4.595   5.807
 5267SOL    HW216701   4.596   4.567   5.966
 5268SOL     OW16702   6.291   5.534   6.313
 5268SOL    HW116703   6.239   5.454   6.284
 5268SOL    HW216704   6.373   5.544   6.256
 5269SOL     OW16705   2.713   6.187   4.253
 5269SOL    HW116706   2.626   6.177   4.302
 5269SOL    HW216707   2.785   6.212   4.318
 5270SOL     OW16708   3.999   1.645   1.730
 5270SOL    HW116709   4.051   1.560   1.734
 5270SOL    HW216710   4.050   1.717   1.778
 5271SOL     OW16711   4.302   4.888   4.777
 5271SOL    HW116712   4.284   4.985   4.791
 5271SOL    HW216713   4.281   4.838   4.861
 5272SOL     OW16714   1.538   5.506   3.373
 5272SOL    HW116715   1.456   5.557   3.348
 5272SOL    HW216716   1.523   5.408   3.356
 5273SOL     OW16717   0.427   3.485   3.165
 5273SOL    HW116718   0.385   3.426   3.234
 5273SOL    HW216719   0.433   3.435   3.078
 5274SOL     OW16720   5.998   5.042   2.421
 5274SOL    HW116721   5.952   5.101   2.488
 5274SOL    HW216722   6.085   5.084   2.393
 5275SOL     OW16723   3.437   1.448   6.196
 5275SOL    HW116724   3.387   1.484   6.117
 5275SOL    HW216725   3.477   1.359   6.173
 5276SOL     OW16726   1.020   6.074   0.933
 5276SOL    HW116727   1.086   6.141   0.898
 5276SOL    HW216728   1.042   6.053   1.028
 5277SOL     OW16729   0.865   2.294   3.032
 5277SOL    HW116730   0.780   2.264   2.989
 5277SOL    HW216731   0.929   2.325   2.961
 5278SOL     OW16732   5.275   6.556   4.478
 5278SOL    HW116733   5.263   6.460   4.505
 5278SOL    HW216734   5.191   6.589   4.436
 5279SOL     OW16735   1.524   5.746   6.876
 5279SOL    HW116736   1.432   5.786   6.883
 5279SOL    HW216737   1.550   5.708   6.965
 5280SOL     OW16738   2.963   5.641   5.636
 5280SOL    HW116739   2.926   5.635   5.543
 5280SOL    HW216740   3.008   5.555   5.660
 5281SOL     OW16741   1.309   0.672   3.823
 5281SOL    HW116742   1.284   0.724   3.905
 5281SOL    HW216743   1.351   0.586   3.850
 5282SOL     OW16744   1.844   1.202   2.425
 5282SOL    HW116745   1.823   1.240   2.516
 5282SOL    HW216746   1.781   1.126   2.406
 5283SOL     OW16747   2.793   0.435   2.282
 5283SOL    HW116748   2.723   0.467   2.218
 5283SOL    HW216749   2.880   0.427   2.235
 5284SOL     OW16750   4.891   3.173   2.752
 5284SOL    HW116751   4.814   3.110   2.760
 5284SOL    HW216752   4.944   3.151   2.670
 5285SOL     OW16753   1.155   3.637   4.067
 5285SOL    HW116754   1.190   3.726   4.038
 5285SOL    HW216755   1.232   3.579   4.094
 5286SOL     OW16756   6.304   3.595   0.985
 5286SOL    HW116757   6.310   3.598   1.085
 5286SOL    HW216758   6.330   3.504   0.953
 5287SOL     OW16759   2.256   5.968   1.877
 5287SOL    HW116760   2.172   5.932   1.836
 5287SOL    HW216761   2.235   6.014   1.963
 5288SOL     OW16762   3.835   0.858   2.670
 5288SOL    HW116763   3.859   0.929   2.604
 5288SOL    HW216764   3.881   0.773   2.644
 5289SOL     OW16765   1.762   6.153   5.849
 5289SOL    HW116766   1.798   6.234   5.802
 5289SOL    HW216767   1.760   6.076   5.786
 5290SOL     OW16768   0.993   4.671   6.074
 5290SOL    HW116769   1.034   4.724   6.148
 5290SOL    HW216770   1.048   4.682   5.991
 5291SOL     OW16771   2.967   5.014   6.075
 5291SOL    HW116772   2.990   4.967   6.160
 5291SOL    HW216773   2.995   4.958   5.997
 5292SOL     OW16774   6.068   4.695   6.756
 5292SOL    HW116775   6.066   4.756   6.677
 5292SOL    HW216776   6.107   4.607   6.729
 5293SOL     OW16777   2.035   6.961   4.683
 5293SOL    HW116778   1.958   7.025   4.689
 5293SOL    HW216779   2.004   6.877   4.638
 5294SOL     OW16780   5.823   2.571   5.152
 5294SOL    HW116781   5.752   2.641   5.141
 5294SOL    HW216782   5.869   2.555   5.065
 5295SOL     OW16783   4.302   1.274   2.735
 5295SOL    HW116784   4.381   1.214   2.724
 5295SOL    HW216785   4.309   1.323   2.822
 5296SOL     OW16786   3.182   5.064   6.639
 5296SOL    HW116787   3.219   5.140   6.586
 5296SOL    HW216788   3.083   5.057   6.624
 5297SOL     OW16789   1.838   3.299   0.647
 5297SOL    HW116790   1.913   3.266   0.705
 5297SOL    HW216791   1.756   3.310   0.703
 5298SOL     OW16792   0.900   6.009   0.076
 5298SOL    HW116793   0.826   6.063   0.036
 5298SOL    HW216794   0.959   6.069   0.131
 5299SOL     OW16795   2.508   3.079   0.439
 5299SOL    HW116796   2.415   3.052   0.463
 5299SOL    HW216797   2.560   2.999   0.410
 5300SOL     OW16798   1.011   6.007   1.186
 5300SOL    HW116799   1.080   6.023   1.256
 5300SOL    HW216800   0.939   6.076   1.194
 5301SOL     OW16801   3.401   2.111   6.323
 5301SOL    HW116802   3.356   2.163   6.394
 5301SOL    HW216803   3.471   2.168   6.279
 5302SOL     OW16804   5.909   5.858   3.775
 5302SOL    HW116805   5.898   5.795   3.851
 5302SOL    HW216806   5.940   5.947   3.808
 5303SOL     OW16807   6.995   5.120   4.028
 5303SOL    HW116808   6.992   5.185   3.953
 5303SOL    HW216809   0.055   5.128   4.077
 5304SOL     OW16810   5.453   0.876   0.596
 5304SOL    HW116811   5.464   0.893   0.694
 5304SOL    HW216812   5.538   0.838   0.559
 5305SOL     OW16813   0.845   4.281   2.956
 5305SOL    HW116814   0.828   4.374   2.925
 5305SOL    HW216815   0.762   4.243   2.997
 5306SOL     OW16816   1.253   4.349   4.706
 5306SOL    HW116817   1.176   4.380   4.651
 5306SOL    HW216818   1.338   4.360   4.655
 5307SOL     OW16819   4.244   1.783   0.610
 5307SOL    HW116820   4.222   1.785   0.512
 5307SOL    HW216821   4.342   1.765   0.621
 5308SOL     OW16822   0.993   4.746   3.561
 5308SOL    HW116823   1.014   4.841   3.536
 5308SOL    HW216824   1.065   4.711   3.622
 5309SOL     OW16825   3.964   4.718   1.620
 5309SOL    HW116826   3.875   4.693   1.580
 5309SOL    HW216827   4.014   4.635   1.643
 5310SOL     OW16828   6.097   3.520   1.898
 5310SOL    HW116829   6.154   3.585   1.847
 5310SOL    HW216830   6.003   3.527   1.866
 5311SOL     OW16831   6.880   6.502   6.805
 5311SOL    HW116832   6.911   6.449   6.884
 5311SOL    HW216833   6.857   6.594   6.835
 5312SOL     OW16834   0.316   5.592   1.704
 5312SOL    HW116835   0.219   5.568   1.695
 5312SOL    HW216836   0.341   5.657   1.631
 5313SOL     OW16837   1.408   3.161   5.719
 5313SOL    HW116838   1.473   3.088   5.736
 5313SOL    HW216839   1.456   3.241   5.683
 5314SOL     OW16840   3.048   6.560   0.317
 5314SOL    HW116841   2.967   6.606   0.354
 5314SOL    HW216842   3.107   6.627   0.272
 5315SOL     OW16843   4.818   3.752   1.882
 5315SOL    HW116844   4.755   3.763   1.804
 5315SOL    HW216845   4.902   3.802   1.864
 5316SOL     OW16846   0.788   3.894   4.738
 5316SOL    HW116847   0.699   3.860   4.706
 5316SOL    HW216848   0.781   3.919   4.835
 5317SOL     OW16849   5.787   6.999   4.726
 5317SOL    HW116850   5.721   0.034   4.684
 5317SOL    HW216851   5.874   7.004   4.676
 5318SOL     OW16852   0.490   3.122   6.795
 5318SOL    HW116853   0.395   3.104   6.768
 5318SOL    HW216854   0.545   3.139   6.714
 5319SOL     OW16855   3.396   6.450   0.244
 5319SOL    HW116856   3.453   6.488   0.317
 5319SOL    HW216857   3.433   6.362   0.215
 5320SOL     OW16858   5.011   4.934   0.167
 5320SOL    HW116859   4.923   4.939   0.215
 5320SOL    HW216860   5.070   5.008   0.199
 5321SOL     OW16861   1.477   5.286   4.298
 5321SOL    HW116862   1.496   5.274   4.396
 5321SOL    HW216863   1.551   5.339   4.257
 5322SOL     OW16864   5.449   6.319   6.013
 5322SOL    HW116865   5.407   6.229   6.027
 5322SOL    HW216866   5.547   6.308   6.000
 5323SOL     OW16867   3.797   2.045   0.073
 5323SOL    HW116868   3.836   1.953   0.084
 5323SOL    HW216869   3.869   2.107   0.041
 5324SOL     OW16870   3.372   2.052   0.402
 5324SOL    HW116871   3.394   2.123   0.335
 5324SOL    HW216872   3.310   1.985   0.361
 5325SOL     OW16873   4.758   0.719   4.493
 5325SOL    HW116874   4.739   0.790   4.560
 5325SOL    HW216875   4.679   0.707   4.432
 5326SOL     OW16876   6.351   4.870   2.746
 5326SOL    HW116877   6.393   4.867   2.655
 5326SOL    HW216878   6.382   4.792   2.799
 5327SOL     OW16879   5.838   3.043   5.182
 5327SOL    HW116880   5.794   3.072   5.096
 5327SOL    HW216881   5.767   3.023   5.250
 5328SOL     OW16882   4.143   3.013   5.310
 5328SOL    HW116883   4.121   3.073   5.233
 5328SOL    HW216884   4.235   3.031   5.342
 5329SOL     OW16885   0.279   4.832   0.556
 5329SOL    HW116886   0.312   4.880   0.638
 5329SOL    HW216887   0.294   4.734   0.567
 5330SOL     OW16888   3.571   4.569   5.567
 5330SOL    HW116889   3.534   4.561   5.474
 5330SOL    HW216890   3.649   4.507   5.577
 5331SOL     OW16891   5.412   1.336   0.485
 5331SOL    HW116892   5.486   1.397   0.514
 5331SOL    HW216893   5.358   1.310   0.565
 5332SOL     OW16894   0.482   3.162   1.216
 5332SOL    HW116895   0.515   3.087   1.159
 5332SOL    HW216896   0.537   3.165   1.300
 5333SOL     OW16897   0.951   0.740   3.890
 5333SOL    HW116898   0.972   0.809   3.960
 5333SOL    HW216899   0.989   0.769   3.803
 5334SOL     OW16900   3.753   0.524   4.349
 5334SOL    HW116901   3.740   0.603   4.290
 5334SOL    HW216902   3.683   0.523   4.420
 5335SOL     OW16903   6.733   5.785   2.454
 5335SOL    HW116904   6.660   5.826   2.399
 5335SOL    HW216905   6.804   5.852   2.472
 5336SOL     OW16906   2.414   2.083   3.094
 5336SOL    HW116907   2.399   2.181   3.109
 5336SOL    HW216908   2.469   2.071   3.012
 5337SOL     OW16909   5.179   4.261   1.698
 5337SOL    HW116910   5.226   4.304   1.775
 5337SOL    HW216911   5.220   4.172   1.679
 5338SOL     OW16912   5.953   2.075   6.453
 5338SOL    HW116913   5.872   2.069   6.394
 5338SOL    HW216914   5.927   2.115   6.541
 5339SOL     OW16915   6.563   2.266   4.366
 5339SOL    HW116916   6.634   2.196   4.365
 5339SOL    HW216917   6.604   2.356   4.382
 5340SOL     OW16918   5.297   3.428   1.428
 5340SOL    HW116919   5.266   3.505   1.483
 5340SOL    HW216920   5.253   3.344   1.459
 5341SOL     OW16921   3.397   3.726   6.490
 5341SOL    HW116922   3.368   3.773   6.406
 5341SOL    HW216923   3.378   3.784   6.569
 5342SOL     OW16924   3.108   6.850   3.895
 5342SOL    HW116925   3.091   6.898   3.981
 5342SOL    HW216926   3.206   6.854   3.873
 5343SOL     OW16927   3.698   3.718   4.232
 5343SOL    HW116928   3.660   3.632   4.265
 5343SOL    HW216929   3.786   3.735   4.277
 5344SOL     OW16930   2.412   2.671   2.613
 5344SOL    HW116931   2.494   2.614   2.616
 5344SOL    HW216932   2.404   2.722   2.699
 5345SOL     OW16933   3.831   6.787   1.523
 5345SOL    HW116934   3.744   6.807   1.478
 5345SOL    HW216935   3.841   6.844   1.604
 5346SOL     OW16936   3.066   6.046   4.186
 5346SOL    HW116937   3.057   5.947   4.193
 5346SOL    HW216938   3.118   6.080   4.264
 5347SOL     OW16939   0.557   2.357   2.097
 5347SOL    HW116940   0.540   2.259   2.092
 5347SOL    HW216941   0.630   2.375   2.163
 5348SOL     OW16942   6.833   2.290   0.926
 5348SOL    HW116943   6.769   2.274   0.851
 5348SOL    HW216944   6.787   2.270   1.013
 5349SOL     OW16945   1.987   2.968   0.439
 5349SOL    HW116946   1.977   2.910   0.357
 5349SOL    HW216947   1.921   3.043   0.435
 5350SOL     OW16948   1.712   0.177   5.371
 5350SOL    HW116949   1.766   0.105   5.327
 5350SOL    HW216950   1.754   0.203   5.457
 5351SOL     OW16951   6.712   5.138   2.358
 5351SOL    HW116952   6.713   5.081   2.276
 5351SOL    HW216953   6.803   5.138   2.400
 5352SOL     OW16954   2.907   4.764   3.283
 5352SOL    HW116955   2.845   4.746   3.207
 5352SOL    HW216956   2.997   4.725   3.264
 5353SOL     OW16957   4.299   4.629   3.599
 5353SOL    HW116958   4.369   4.606   3.666
 5353SOL    HW216959   4.343   4.648   3.510
 5354SOL     OW16960   2.845   5.528   1.846
 5354SOL    HW116961   2.795   5.567   1.924
 5354SOL    HW216962   2.933   5.573   1.837
 5355SOL     OW16963   6.570   3.841   3.879
 5355SOL    HW116964   6.611   3.768   3.825
 5355SOL    HW216965   6.486   3.873   3.835
 5356SOL     OW16966   5.716   4.492   1.777
 5356SOL    HW116967   5.809   4.483   1.741
 5356SOL    HW216968   5.652   4.507   1.702
 5357SOL     OW16969   4.118   6.480   1.125
 5357SOL    HW116970   4.078   6.509   1.211
 5357SOL    HW216971   4.154   6.559   1.076
 5358SOL     OW16972   4.636   1.628   0.139
 5358SOL    HW116973   4.631   1.728   0.132
 5358SOL    HW216974   4.730   1.601   0.160
 5359SOL     OW16975   0.947   1.495   5.877
 5359SOL    HW116976   0.994   1.539   5.954
 5359SOL    HW216977   0.871   1.441   5.911
 5360SOL     OW16978   3.687   6.538   5.498
 5360SOL    HW116979   3.700   6.463   5.433
 5360SOL    HW216980   3.696   6.503   5.591
 5361SOL     OW16981   2.633   1.212   5.641
 5361SOL    HW116982   2.639   1.244   5.547
 5361SOL    HW216983   2.721   1.176   5.671
 5362SOL     OW16984   6.519   5.455   3.156
 5362SOL    HW116985   6.571   5.503   3.086
 5362SOL    HW216986   6.425   5.490   3.158
 5363SOL     OW16987   0.356   1.148   6.900
 5363SOL    HW116988   0.303   1.155   6.815
 5363SOL    HW216989   0.422   1.073   6.892
 5364SOL     OW16990   6.583   6.939   1.970
 5364SOL    HW116991   6.493   6.951   1.928
 5364SOL    HW216992   6.616   7.027   2.005
 5365SOL     OW16993   3.496   3.498   0.070
 5365SOL    HW116994   3.486   3.584   0.119
 5365SOL    HW216995   3.432   3.430   0.108
 5366SOL     OW16996   5.313   5.631   2.069
 5366SOL    HW116997   5.359   5.544   2.087
 5366SOL    HW216998   5.338   5.698   2.138
 5367SOL     OW16999   0.914   6.659   0.905
 5367SOL    HW117000   0.983   6.661   0.833
 5367SOL    HW217001   0.941   6.720   0.980
 5368SOL     OW17002   5.283   6.993   2.720
 5368SOL    HW117003   5.205   6.941   2.755
 5368SOL    HW217004   5.253   0.058   2.693
 5369SOL     OW17005   2.747   6.788   1.959
 5369SOL    HW117006   2.814   6.859   1.981
 5369SOL    HW217007   2.791   6.698   1.965
 5370SOL     OW17008   4.403   3.000   1.721
 5370SOL    HW117009   4.366   2.908   1.714
 5370SOL    HW217010   4.488   2.998   1.774
 5371SOL     OW17011   0.800   3.779   5.126
 5371SOL    HW117012   0.862   3.805   5.200
 5371SOL    HW217013   0.783   3.859   5.067
 5372SOL     OW17014   2.171   6.360   3.933
 5372SOL    HW117015   2.143   6.443   3.884
 5372SOL    HW217016   2.243   6.382   3.998
 5373SOL     OW17017   3.492   0.018   4.604
 5373SOL    HW117018   3.472   0.079   4.528
 5373SOL    HW217019   3.452   0.054   4.688
 5374SOL     OW17020   1.525   4.245   6.925
 5374SOL    HW117021   1.580   4.274   6.847
 5374SOL    HW217022   1.512   4.146   6.921
 5375SOL     OW17023   1.455   5.076   4.808
 5375SOL    HW117024   1.445   4.992   4.754
 5375SOL    HW217025   1.388   5.143   4.778
 5376SOL     OW17026   1.360   3.256   1.083
 5376SOL    HW117027   1.267   3.287   1.063
 5376SOL    HW217028   1.357   3.163   1.120
 5377SOL     OW17029   0.253   0.270   2.304
 5377SOL    HW117030   0.241   0.211   2.383
 5377SOL    HW217031   0.349   0.273   2.278
 5378SOL     OW17032   6.874   0.585   1.871
 5378SOL    HW117033   6.780   0.578   1.839
 5378SOL    HW217034   6.934   0.532   1.810
 5379SOL     OW17035   1.424   4.342   4.934
 5379SOL    HW117036   1.375   4.418   4.976
 5379SOL    HW217037   1.388   4.325   4.842
 5380SOL     OW17038   2.388   1.523   3.235
 5380SOL    HW117039   2.336   1.601   3.270
 5380SOL    HW217040   2.412   1.538   3.139
 5381SOL     OW17041   6.503   4.666   1.809
 5381SOL    HW117042   6.472   4.587   1.862
 5381SOL    HW217043   6.438   4.741   1.822
 5382SOL     OW17044   3.119   1.363   2.457
 5382SOL    HW117045   3.187   1.337   2.526
 5382SOL    HW217046   3.081   1.452   2.480
 5383SOL     OW17047   2.438   2.373   5.174
 5383SOL    HW117048   2.521   2.365   5.119
 5383SOL    HW217049   2.441   2.304   5.247
 5384SOL     OW17050   6.020   6.690   4.670
 5384SOL    HW117051   6.060   6.745   4.596
 5384SOL    HW217052   6.052   6.724   4.758
 5385SOL     OW17053   3.136   3.750   4.204
 5385SOL    HW117054   3.055   3.756   4.147
 5385SOL    HW217055   3.217   3.771   4.150
 5386SOL     OW17056   4.886   0.437   4.197
 5386SOL    HW117057   4.954   0.490   4.247
 5386SOL    HW217058   4.796   0.481   4.207
 5387SOL     OW17059   2.510   6.501   3.793
 5387SOL    HW117060   2.548   6.591   3.814
 5387SOL    HW217061   2.550   6.433   3.854
 5388SOL     OW17062   0.129   1.079   3.977
 5388SOL    HW117063   0.185   1.145   3.927
 5388SOL    HW217064   0.154   0.986   3.948
 5389SOL     OW17065   4.643   1.100   2.625
 5389SOL    HW117066   4.568   1.034   2.622
 5389SOL    HW217067   4.629   1.162   2.701
 5390SOL     OW17068   4.828   4.438   3.031
 5390SOL    HW117069   4.758   4.375   3.065
 5390SOL    HW217070   4.792   4.491   2.955
 5391SOL     OW17071   1.877   2.715   0.825
 5391SOL    HW117072   1.864   2.784   0.753
 5391SOL    HW217073   1.916   2.759   0.906
 5392SOL     OW17074   5.439   2.865   1.290
 5392SOL    HW117075   5.376   2.800   1.247
 5392SOL    HW217076   5.410   2.959   1.269
 5393SOL     OW17077   4.916   6.759   6.742
 5393SOL    HW117078   4.968   6.834   6.701
 5393SOL    HW217079   4.853   6.796   6.811
 5394SOL     OW17080   6.935   4.802   6.875
 5394SOL    HW117081   6.842   4.805   6.913
 5394SOL    HW217082   6.973   4.894   6.875
 5395SOL     OW17083   5.301   1.163   1.586
 5395SOL    HW117084   5.305   1.088   1.520
 5395SOL    HW217085   5.390   1.208   1.590
 5396SOL     OW17086   4.400   4.512   1.759
 5396SOL    HW117087   4.345   4.535   1.839
 5396SOL    HW217088   4.417   4.414   1.757
 5397SOL     OW17089   0.514   2.561   1.669
 5397SOL    HW117090   0.532   2.599   1.578
 5397SOL    HW217091   0.449   2.486   1.661
 5398SOL     OW17092   3.545   2.068   3.732
 5398SOL    HW117093   3.589   1.985   3.701
 5398SOL    HW217094   3.581   2.146   3.680
 5399SOL     OW17095   2.741   5.842   0.610
 5399SOL    HW117096   2.651   5.844   0.565
 5399SOL    HW217097   2.779   5.934   0.613
 5400SOL     OW17098   2.472   4.050   0.367
 5400SOL    HW117099   2.450   4.019   0.460
 5400SOL    HW217100   2.553   4.002   0.335
 5401SOL     OW17101   5.544   3.794   1.152
 5401SOL    HW117102   5.506   3.886   1.156
 5401SOL    HW217103   5.622   3.787   1.215
 5402SOL     OW17104   2.775   5.055   1.835
 5402SOL    HW117105   2.755   5.152   1.852
 5402SOL    HW217106   2.866   5.047   1.794
 5403SOL     OW17107   5.811   2.700   6.433
 5403SOL    HW117108   5.837   2.759   6.510
 5403SOL    HW217109   5.740   2.635   6.463
 5404SOL     OW17110   0.604   0.964   2.164
 5404SOL    HW117111   0.543   1.006   2.097
 5404SOL    HW217112   0.649   1.036   2.218
 5405SOL     OW17113   5.639   6.328   7.008
 5405SOL    HW117114   5.664   6.365   0.071
 5405SOL    HW217115   5.704   6.360   6.939
 5406SOL     OW17116   2.837   0.232   6.548
 5406SOL    HW117117   2.828   0.211   6.645
 5406SOL    HW217118   2.746   0.244   6.508
 5407SOL     OW17119   4.583   2.506   1.463
 5407SOL    HW117120   4.664   2.554   1.496
 5407SOL    HW217121   4.535   2.464   1.541
 5408SOL     OW17122   3.290   1.283   5.886
 5408SOL    HW117123   3.299   1.383   5.888
 5408SOL    HW217124   3.203   1.257   5.929
 5409SOL     OW17125   6.130   1.705   4.317
 5409SOL    HW117126   6.063   1.639   4.348
 5409SOL    HW217127   6.160   1.682   4.225
 5410SOL     OW17128   1.476   3.246   0.496
 5410SOL    HW117129   1.540   3.230   0.571
 5410SOL    HW217130   1.526   3.247   0.410
 5411SOL     OW17131   6.443   4.727   5.897
 5411SOL    HW117132   6.363   4.787   5.906
 5411SOL    HW217133   6.526   4.782   5.892
 5412SOL     OW17134   4.445   0.861   6.992
 5412SOL    HW117135   4.462   0.958   6.973
 5412SOL    HW217136   4.473   0.807   6.913
 5413SOL     OW17137   0.994   0.117   0.727
 5413SOL    HW117138   0.953   0.207   0.716
 5413SOL    HW217139   1.020   0.081   0.637
 5414SOL     OW17140   5.831   2.814   4.914
 5414SOL    HW117141   5.804   2.910   4.922
 5414SOL    HW217142   5.872   2.798   4.824
 5415SOL     OW17143   1.765   6.595   1.117
 5415SOL    HW117144   1.671   6.585   1.150
 5415SOL    HW217145   1.784   6.692   1.102
 5416SOL     OW17146   3.456   4.664   6.122
 5416SOL    HW117147   3.524   4.597   6.151
 5416SOL    HW217148   3.500   4.734   6.065
 5417SOL     OW17149   3.642   6.543   4.942
 5417SOL    HW117150   3.726   6.588   4.911
 5417SOL    HW217151   3.585   6.520   4.863
 5418SOL     OW17152   4.115   6.943   4.547
 5418SOL    HW117153   4.110   6.843   4.552
 5418SOL    HW217154   4.202   6.970   4.506
 5419SOL     OW17155   3.137   5.785   0.418
 5419SOL    HW117156   3.112   5.770   0.514
 5419SOL    HW217157   3.082   5.727   0.359
 5420SOL     OW17158   1.622   2.949   1.696
 5420SOL    HW117159   1.609   2.879   1.765
 5420SOL    HW217160   1.603   3.039   1.736
 5421SOL     OW17161   2.288   4.181   2.665
 5421SOL    HW117162   2.345   4.122   2.723
 5421SOL    HW217163   2.213   4.126   2.627
 5422SOL     OW17164   0.772   5.899   5.747
 5422SOL    HW117165   0.732   5.936   5.831
 5422SOL    HW217166   0.729   5.942   5.668
 5423SOL     OW17167   5.541   3.271   7.007
 5423SOL    HW117168   5.447   3.288   0.009
 5423SOL    HW217169   5.554   3.302   6.913
 5424SOL     OW17170   5.351   2.895   4.375
 5424SOL    HW117171   5.363   2.994   4.363
 5424SOL    HW217172   5.258   2.876   4.406
 5425SOL     OW17173   4.620   1.485   4.241
 5425SOL    HW117174   4.653   1.519   4.329
 5425SOL    HW217175   4.684   1.513   4.169
 5426SOL     OW17176   7.009   5.529   3.923
 5426SOL    HW117177   7.025   5.611   3.868
 5426SOL    HW217178   6.959   5.462   3.867
 5427SOL     OW17179   5.279   5.110   0.743
 5427SOL    HW117180   5.323   5.153   0.822
 5427SOL    HW217181   5.210   5.045   0.774
 5428SOL     OW17182   7.024   0.763   1.997
 5428SOL    HW117183   6.969   0.699   1.944
 5428SOL    HW217184   6.966   0.807   2.066
 5429SOL     OW17185   1.212   1.440   5.687
 5429SOL    HW117186   1.165   1.522   5.722
 5429SOL    HW217187   1.146   1.366   5.678
 5430SOL     OW17188   1.029   2.977   5.014
 5430SOL    HW117189   1.050   3.064   4.970
 5430SOL    HW217190   1.060   2.979   5.109
 5431SOL     OW17191   3.490   6.007   6.615
 5431SOL    HW117192   3.544   5.956   6.682
 5431SOL    HW217193   3.528   5.991   6.524
 5432SOL     OW17194   4.138   6.529   6.375
 5432SOL    HW117195   4.180   6.610   6.415
 5432SOL    HW217196   4.209   6.466   6.344
 5433SOL     OW17197   0.114   1.925   3.336
 5433SOL    HW117198   0.099   1.851   3.271
 5433SOL    HW217199   0.213   1.941   3.346
 5434SOL     OW17200   3.627   0.969   4.822
 5434SOL    HW117201   3.550   0.905   4.833
 5434SOL    HW217202   3.712   0.923   4.847
 5435SOL     OW17203   6.052   1.550   1.103
 5435SOL    HW117204   6.141   1.522   1.140
 5435SOL    HW217205   6.034   1.645   1.129
 5436SOL     OW17206   5.293   4.366   4.597
 5436SOL    HW117207   5.219   4.366   4.529
 5436SOL    HW217208   5.300   4.276   4.638
 5437SOL     OW17209   2.535   5.202   5.472
 5437SOL    HW117210   2.531   5.158   5.382
 5437SOL    HW217211   2.518   5.134   5.543
 5438SOL     OW17212   5.849   3.329   2.893
 5438SOL    HW117213   5.913   3.321   2.817
 5438SOL    HW217214   5.784   3.253   2.890
 5439SOL     OW17215   0.153   2.339   0.438
 5439SOL    HW117216   0.091   2.271   0.478
 5439SOL    HW217217   0.205   2.297   0.364
 5440SOL     OW17218   0.788   0.253   2.310
 5440SOL    HW117219   0.765   0.346   2.282
 5440SOL    HW217220   0.804   0.251   2.409
 5441SOL     OW17221   5.053   3.141   3.006
 5441SOL    HW117222   5.082   3.083   2.929
 5441SOL    HW217223   4.954   3.152   3.004
 5442SOL     OW17224   3.499   6.551   3.178
 5442SOL    HW117225   3.441   6.571   3.257
 5442SOL    HW217226   3.514   6.453   3.171
 5443SOL     OW17227   2.557   0.198   3.872
 5443SOL    HW117228   2.531   0.166   3.781
 5443SOL    HW217229   2.592   0.291   3.866
 5444SOL     OW17230   0.919   0.691   3.583
 5444SOL    HW117231   0.949   0.619   3.520
 5444SOL    HW217232   0.997   0.725   3.634
 5445SOL     OW17233   6.180   4.587   4.473
 5445SOL    HW117234   6.199   4.674   4.519
 5445SOL    HW217235   6.081   4.577   4.460
 5446SOL     OW17236   6.025   5.250   5.138
 5446SOL    HW117237   6.055   5.323   5.198
 5446SOL    HW217238   6.098   5.227   5.074
 5447SOL     OW17239   1.414   1.827   0.413
 5447SOL    HW117240   1.391   1.911   0.463
 5447SOL    HW217241   1.451   1.760   0.478
 5448SOL     OW17242   5.447   3.518   4.849
 5448SOL    HW117243   5.502   3.458   4.790
 5448SOL    HW217244   5.434   3.606   4.802
 5449SOL     OW17245   1.651   2.014   6.872
 5449SOL    HW117246   1.554   2.032   6.854
 5449SOL    HW217247   1.678   2.056   6.959
 5450SOL     OW17248   2.061   0.410   2.178
 5450SOL    HW117249   2.077   0.417   2.080
 5450SOL    HW217250   2.103   0.488   2.224
 5451SOL     OW17251   1.312   5.769   3.524
 5451SOL    HW117252   1.313   5.690   3.586
 5451SOL    HW217253   1.360   5.845   3.567
 5452SOL     OW17254   1.887   4.093   0.364
 5452SOL    HW117255   1.799   4.119   0.402
 5452SOL    HW217256   1.900   4.138   0.276
 5453SOL     OW17257   4.990   4.215   1.280
 5453SOL    HW117258   5.053   4.293   1.287
 5453SOL    HW217259   5.016   4.159   1.201
 5454SOL     OW17260   6.338   4.210   5.705
 5454SOL    HW117261   6.266   4.158   5.659
 5454SOL    HW217262   6.412   4.228   5.640
 5455SOL     OW17263   5.986   2.514   1.725
 5455SOL    HW117264   6.058   2.583   1.733
 5455SOL    HW217265   6.021   2.425   1.757
 5456SOL     OW17266   2.614   6.989   6.703
 5456SOL    HW117267   2.645   0.054   6.727
 5456SOL    HW217268   2.585   6.941   6.786
 5457SOL     OW17269   6.630   2.409   0.647
 5457SOL    HW117270   6.538   2.394   0.683
 5457SOL    HW217271   6.625   2.433   0.550
 5458SOL     OW17272   0.334   4.020   0.291
 5458SOL    HW117273   0.355   4.118   0.296
 5458SOL    HW217274   0.418   3.967   0.299
 5459SOL     OW17275   2.256   4.042   6.676
 5459SOL    HW117276   2.236   4.111   6.746
 5459SOL    HW217277   2.170   4.000   6.646
 5460SOL     OW17278   4.073   0.444   3.118
 5460SOL    HW117279   4.096   0.516   3.183
 5460SOL    HW217280   4.156   0.413   3.072
 5461SOL     OW17281   6.921   0.428   5.359
 5461SOL    HW117282   6.969   0.345   5.332
 5461SOL    HW217283   6.828   0.427   5.322
 5462SOL     OW17284   0.545   6.364   0.863
 5462SOL    HW117285   0.478   6.411   0.920
 5462SOL    HW217286   0.509   6.276   0.834
 5463SOL     OW17287   6.918   1.380   0.414
 5463SOL    HW117288   6.960   1.332   0.337
 5463SOL    HW217289   6.874   1.463   0.381
 5464SOL     OW17290   0.868   0.867   4.630
 5464SOL    HW117291   0.940   0.928   4.595
 5464SOL    HW217292   0.899   0.772   4.625
 5465SOL     OW17293   4.381   0.021   4.251
 5465SOL    HW117294   4.282   0.027   4.238
 5465SOL    HW217295   4.405   6.959   4.291
 5466SOL     OW17296   5.191   2.851   4.887
 5466SOL    HW117297   5.217   2.947   4.886
 5466SOL    HW217298   5.155   2.827   4.977
 5467SOL     OW17299   5.129   3.749   3.379
 5467SOL    HW117300   5.131   3.847   3.361
 5467SOL    HW217301   5.111   3.733   3.476
 5468SOL     OW17302   6.173   2.544   4.108
 5468SOL    HW117303   6.169   2.530   4.206
 5468SOL    HW217304   6.211   2.463   4.064
 5469SOL     OW17305   3.008   6.056   6.124
 5469SOL    HW117306   3.060   6.001   6.188
 5469SOL    HW217307   2.958   6.127   6.173
 5470SOL     OW17308   3.677   5.411   3.042
 5470SOL    HW117309   3.742   5.480   3.073
 5470SOL    HW217310   3.596   5.456   3.005
 5471SOL     OW17311   5.594   6.773   2.790
 5471SOL    HW117312   5.547   6.845   2.740
 5471SOL    HW217313   5.693   6.791   2.789
 5472SOL     OW17314   3.764   4.029   5.718
 5472SOL    HW117315   3.808   3.941   5.735
 5472SOL    HW217316   3.675   4.031   5.764
 5473SOL     OW17317   0.345   3.329   2.322
 5473SOL    HW117318   0.395   3.413   2.341
 5473SOL    HW217319   0.367   3.296   2.230
 5474SOL     OW17320   0.772   4.701   3.989
 5474SOL    HW117321   0.821   4.786   4.007
 5474SOL    HW217322   0.763   4.688   3.890
 5475SOL     OW17323   2.411   3.382   1.212
 5475SOL    HW117324   2.346   3.425   1.276
 5475SOL    HW217325   2.425   3.286   1.238
 5476SOL     OW17326   2.022   4.469   5.607
 5476SOL    HW117327   2.066   4.409   5.540
 5476SOL    HW217328   1.998   4.556   5.563
 5477SOL     OW17329   2.406   4.805   2.789
 5477SOL    HW117330   2.365   4.807   2.881
 5477SOL    HW217331   2.385   4.718   2.745
 5478SOL     OW17332   3.657   5.427   4.870
 5478SOL    HW117333   3.584   5.489   4.845
 5478SOL    HW217334   3.622   5.357   4.933
 5479SOL     OW17335   5.507   1.619   5.781
 5479SOL    HW117336   5.531   1.524   5.803
 5479SOL    HW217337   5.558   1.680   5.842
 5480SOL     OW17338   6.047   4.177   2.771
 5480SOL    HW117339   6.061   4.275   2.783
 5480SOL    HW217340   5.963   4.149   2.817
 5481SOL     OW17341   4.353   1.922   4.261
 5481SOL    HW117342   4.278   1.907   4.326
 5481SOL    HW217343   4.319   1.972   4.181
 5482SOL     OW17344   3.673   4.436   1.712
 5482SOL    HW117345   3.652   4.526   1.751
 5482SOL    HW217346   3.608   4.369   1.747
 5483SOL     OW17347   0.423   1.812   5.691
 5483SOL    HW117348   0.360   1.744   5.653
 5483SOL    HW217349   0.517   1.778   5.682
 5484SOL     OW17350   4.286   1.399   4.368
 5484SOL    HW117351   4.300   1.498   4.361
 5484SOL    HW217352   4.351   1.360   4.432
 5485SOL     OW17353   3.814   0.276   5.691
 5485SOL    HW117354   3.911   0.279   5.715
 5485SOL    HW217355   3.763   0.234   5.765
 5486SOL     OW17356   2.609   5.906   5.280
 5486SOL    HW117357   2.698   5.909   5.325
 5486SOL    HW217358   2.549   5.842   5.328
 5487SOL     OW17359   4.389   2.622   6.940
 5487SOL    HW117360   4.401   2.543   6.880
 5487SOL    HW217361   4.477   2.651   6.976
 5488SOL     OW17362   6.456   0.107   0.825
 5488SOL    HW117363   6.473   0.202   0.796
 5488SOL    HW217364   6.517   0.084   0.900
 5489SOL     OW17365   0.756   4.880   1.654
 5489SOL    HW117366   0.720   4.915   1.568
 5489SOL    HW217367   0.802   4.954   1.704
 5490SOL     OW17368   3.379   0.467   2.639
 5490SOL    HW117369   3.417   0.439   2.727
 5490SOL    HW217370   3.280   0.453   2.639
 5491SOL     OW17371   0.588   2.940   0.433
 5491SOL    HW117372   0.590   2.937   0.333
 5491SOL    HW217373   0.666   2.888   0.470
 5492SOL     OW17374   0.446   4.174   6.651
 5492SOL    HW117375   0.410   4.258   6.612
 5492SOL    HW217376   0.386   4.143   6.725
 5493SOL     OW17377   2.925   3.753   4.024
 5493SOL    HW117378   2.843   3.808   4.036
 5493SOL    HW217379   2.986   3.798   3.959
 5494SOL     OW17380   0.768   3.635   5.827
 5494SOL    HW117381   0.714   3.718   5.812
 5494SOL    HW217382   0.815   3.609   5.743
 5495SOL     OW17383   6.095   1.000   0.885
 5495SOL    HW117384   6.094   1.094   0.851
 5495SOL    HW217385   6.046   0.941   0.822
 5496SOL     OW17386   4.132   0.850   3.580
 5496SOL    HW117387   4.137   0.948   3.600
 5496SOL    HW217388   4.190   0.800   3.645
 5497SOL     OW17389   0.685   0.694   4.767
 5497SOL    HW117390   0.734   0.780   4.751
 5497SOL    HW217391   0.608   0.687   4.703
 5498SOL     OW17392   0.017   5.188   1.403
 5498SOL    HW117393   0.098   5.182   1.460
 5498SOL    HW217394   6.962   5.195   1.461
 5499SOL     OW17395   1.166   0.778   4.748
 5499SOL    HW117396   1.232   0.805   4.678
 5499SOL    HW217397   1.181   0.833   4.830
 5500SOL     OW17398   0.736   0.339   6.935
 5500SOL    HW117399   0.708   0.340   6.839
 5500SOL    HW217400   0.763   0.247   6.961
 5501SOL     OW17401   3.821   1.766   6.928
 5501SOL    HW117402   3.794   1.729   6.839
 5501SOL    HW217403   3.774   1.717   7.000
 5502SOL     OW17404   5.425   3.946   6.476
 5502SOL    HW117405   5.498   3.990   6.423
 5502SOL    HW217406   5.412   3.996   6.562
 5503SOL     OW17407   6.732   4.286   1.145
 5503SOL    HW117408   6.674   4.367   1.141
 5503SOL    HW217409   6.701   4.219   1.078
 5504SOL     OW17410   4.490   1.219   5.155
 5504SOL    HW117411   4.468   1.183   5.245
 5504SOL    HW217412   4.508   1.317   5.161
 5505SOL     OW17413   2.208   5.225   4.007
 5505SOL    HW117414   2.272   5.250   4.080
 5505SOL    HW217415   2.153   5.148   4.036
 5506SOL     OW17416   0.419   3.721   0.982
 5506SOL    HW117417   0.337   3.777   0.988
 5506SOL    HW217418   0.488   3.769   0.927
 5507SOL     OW17419   3.896   1.240   5.030
 5507SOL    HW117420   3.801   1.207   5.032
 5507SOL    HW217421   3.947   1.197   5.104
 5508SOL     OW17422   1.292   1.196   0.170
 5508SOL    HW117423   1.338   1.274   0.212
 5508SOL    HW217424   1.196   1.220   0.151
 5509SOL     OW17425   0.499   6.193   6.331
 5509SOL    HW117426   0.598   6.199   6.347
 5509SOL    HW217427   0.478   6.107   6.286
 5510SOL     OW17428   4.147   5.737   6.529
 5510SOL    HW117429   4.175   5.643   6.548
 5510SOL    HW217430   4.059   5.737   6.482
 5511SOL     OW17431   1.228   6.970   4.393
 5511SOL    HW117432   1.238   0.026   4.338
 5511SOL    HW217433   1.136   6.967   4.432
 5512SOL     OW17434   4.792   1.951   0.845
 5512SOL    HW117435   4.816   1.893   0.923
 5512SOL    HW217436   4.876   1.981   0.799
 5513SOL     OW17437   3.737   5.288   5.846
 5513SOL    HW117438   3.760   5.384   5.835
 5513SOL    HW217439   3.743   5.262   5.942
 5514SOL     OW17440   3.535   0.483   4.518
 5514SOL    HW117441   3.516   0.418   4.591
 5514SOL    HW217442   3.522   0.576   4.552
 5515SOL     OW17443   0.936   5.757   1.772
 5515SOL    HW117444   0.976   5.840   1.810
 5515SOL    HW217445   0.881   5.711   1.842
 5516SOL     OW17446   1.930   2.497   4.827
 5516SOL    HW117447   1.882   2.461   4.747
 5516SOL    HW217448   1.944   2.595   4.815
 5517SOL     OW17449   2.081   3.600   2.079
 5517SOL    HW117450   1.991   3.595   2.036
 5517SOL    HW217451   2.142   3.534   2.034
 5518SOL     OW17452   5.714   5.531   6.743
 5518SOL    HW117453   5.782   5.570   6.805
 5518SOL    HW217454   5.728   5.570   6.651
 5519SOL     OW17455   5.219   3.016   2.791
 5519SOL    HW117456   5.276   3.008   2.872
 5519SOL    HW217457   5.226   2.932   2.737
 5520SOL     OW17458   5.620   6.861   2.273
 5520SOL    HW117459   5.612   6.819   2.183
 5520SOL    HW217460   5.580   6.800   2.342
 5521SOL     OW17461   4.870   6.448   1.854
 5521SOL    HW117462   4.796   6.391   1.817
 5521SOL    HW217463   4.947   6.448   1.790
 5522SOL     OW17464   6.320   5.170   0.676
 5522SOL    HW117465   6.310   5.080   0.718
 5522SOL    HW217466   6.232   5.200   0.640
 5523SOL     OW17467   4.140   0.942   1.701
 5523SOL    HW117468   4.142   0.854   1.654
 5523SOL    HW217469   4.145   0.927   1.800
 5524SOL     OW17470   3.683   6.885   4.716
 5524SOL    HW117471   3.606   6.943   4.690
 5524SOL    HW217472   3.722   6.843   4.635
 5525SOL     OW17473   0.875   2.218   0.364
 5525SOL    HW117474   0.957   2.201   0.310
 5525SOL    HW217475   0.794   2.206   0.306
 5526SOL     OW17476   4.924   5.022   2.870
 5526SOL    HW117477   5.002   4.994   2.926
 5526SOL    HW217478   4.947   5.016   2.773
 5527SOL     OW17479   4.935   3.637   3.889
 5527SOL    HW117480   4.930   3.571   3.964
 5527SOL    HW217481   4.875   3.715   3.909
 5528SOL     OW17482   1.626   0.795   0.813
 5528SOL    HW117483   1.704   0.747   0.773
 5528SOL    HW217484   1.552   0.731   0.830
 5529SOL     OW17485   3.304   6.717   4.587
 5529SOL    HW117486   3.396   6.692   4.559
 5529SOL    HW217487   3.290   6.690   4.683
 5530SOL     OW17488   6.194   1.894   0.912
 5530SOL    HW117489   6.249   1.935   0.840
 5530SOL    HW217490   6.213   1.940   0.999
 5531SOL     OW17491   3.581   3.455   1.535
 5531SOL    HW117492   3.544   3.411   1.453
 5531SOL    HW217493   3.606   3.550   1.513
 5532SOL     OW17494   0.910   2.932   1.227
 5532SOL    HW117495   0.951   2.920   1.137
 5532SOL    HW217496   0.824   2.883   1.232
 5533SOL     OW17497   4.642   1.537   3.628
 5533SOL    HW117498   4.660   1.536   3.529
 5533SOL    HW217499   4.704   1.474   3.673
 5534SOL     OW17500   0.975   1.396   0.278
 5534SOL    HW117501   1.025   1.428   0.197
 5534SOL    HW217502   0.948   1.301   0.266
 5535SOL     OW17503   1.315   1.451   2.979
 5535SOL    HW117504   1.410   1.451   2.949
 5535SOL    HW217505   1.302   1.380   3.049
 5536SOL     OW17506   3.679   0.389   3.943
 5536SOL    HW117507   3.640   0.304   3.976
 5536SOL    HW217508   3.776   0.393   3.967
 5537SOL     OW17509   3.388   1.655   2.249
 5537SOL    HW117510   3.385   1.584   2.179
 5537SOL    HW217511   3.366   1.616   2.338
 5538SOL     OW17512   4.313   5.869   5.255
 5538SOL    HW117513   4.238   5.898   5.316
 5538SOL    HW217514   4.397   5.916   5.281
 5539SOL     OW17515   1.323   4.032   1.656
 5539SOL    HW117516   1.409   4.011   1.610
 5539SOL    HW217517   1.254   4.059   1.589
 5540SOL     OW17518   4.596   4.915   3.945
 5540SOL    HW117519   4.589   4.893   4.043
 5540SOL    HW217520   4.610   4.830   3.893
 5541SOL     OW17521   5.170   0.039   6.437
 5541SOL    HW117522   5.183   0.007   6.343
 5541SOL    HW217523   5.259   0.060   6.478
 5542SOL     OW17524   4.201   3.597   6.218
 5542SOL    HW117525   4.294   3.612   6.186
 5542SOL    HW217526   4.196   3.511   6.268
 5543SOL     OW17527   4.626   4.161   6.682
 5543SOL    HW117528   4.595   4.099   6.754
 5543SOL    HW217529   4.726   4.165   6.682
 5544SOL     OW17530   4.884   5.615   6.769
 5544SOL    HW117531   4.816   5.630   6.841
 5544SOL    HW217532   4.851   5.544   6.707
 5545SOL     OW17533   5.110   0.209   2.615
 5545SOL    HW117534   5.021   0.219   2.660
 5545SOL    HW217535   5.115   0.272   2.538
 5546SOL     OW17536   0.472   4.297   4.492
 5546SOL    HW117537   0.479   4.232   4.416
 5546SOL    HW217538   0.503   4.387   4.462
 5547SOL     OW17539   2.855   6.265   5.203
 5547SOL    HW117540   2.906   6.199   5.149
 5547SOL    HW217541   2.781   6.304   5.148
 5548SOL     OW17542   6.491   3.141   5.875
 5548SOL    HW117543   6.473   3.238   5.885
 5548SOL    HW217544   6.489   3.116   5.778
 5549SOL     OW17545   4.010   4.930   0.378
 5549SOL    HW117546   3.974   4.963   0.291
 5549SOL    HW217547   4.066   5.001   0.420
 5550SOL     OW17548   2.943   5.612   2.385
 5550SOL    HW117549   2.929   5.672   2.306
 5550SOL    HW217550   2.947   5.517   2.354
 5551SOL     OW17551   1.612   0.730   3.011
 5551SOL    HW117552   1.634   0.700   3.103
 5551SOL    HW217553   1.614   0.830   3.007
 5552SOL     OW17554   6.983   1.324   6.953
 5552SOL    HW117555   6.909   1.391   6.956
 5552SOL    HW217556   7.013   1.313   6.858
 5553SOL     OW17557   3.563   6.592   0.401
 5553SOL    HW117558   3.516   6.670   0.443
 5553SOL    HW217559   3.658   6.591   0.432
 5554SOL     OW17560   2.687   1.717   5.738
 5554SOL    HW117561   2.697   1.795   5.800
 5554SOL    HW217562   2.594   1.717   5.700
 5555SOL     OW17563   0.884   5.242   3.585
 5555SOL    HW117564   0.936   5.305   3.643
 5555SOL    HW217565   0.837   5.175   3.642
 5556SOL     OW17566   0.474   2.429   4.269
 5556SOL    HW117567   0.484   2.432   4.368
 5556SOL    HW217568   0.428   2.512   4.237
 5557SOL     OW17569   3.002   5.210   4.097
 5557SOL    HW117570   2.914   5.171   4.122
 5557SOL    HW217571   2.993   5.261   4.012
 5558SOL     OW17572   4.791   3.260   5.205
 5558SOL    HW117573   4.838   3.330   5.151
 5558SOL    HW217574   4.709   3.299   5.246
 5559SOL     OW17575   2.540   6.866   2.416
 5559SOL    HW117576   2.630   6.856   2.460
 5559SOL    HW217577   2.510   6.776   2.383
 5560SOL     OW17578   0.214   6.940   3.021
 5560SOL    HW117579   0.188   7.017   2.963
 5560SOL    HW217580   0.281   6.883   2.974
 5561SOL     OW17581   1.672   2.472   4.188
 5561SOL    HW117582   1.579   2.443   4.163
 5561SOL    HW217583   1.705   2.538   4.120
 5562SOL     OW17584   1.675   2.539   6.635
 5562SOL    HW117585   1.743   2.496   6.577
 5562SOL    HW217586   1.719   2.576   6.717
 5563SOL     OW17587   4.556   6.415   2.467
 5563SOL    HW117588   4.570   6.418   2.368
 5563SOL    HW217589   4.460   6.398   2.486
 5564SOL     OW17590   5.112   2.802   1.625
 5564SOL    HW117591   5.153   2.888   1.656
 5564SOL    HW217592   5.103   2.803   1.526
 5565SOL     OW17593   4.636   2.421   6.058
 5565SOL    HW117594   4.674   2.513   6.060
 5565SOL    HW217595   4.539   2.424   6.079
 5566SOL     OW17596   1.150   6.008   1.423
 5566SOL    HW117597   1.228   6.069   1.409
 5566SOL    HW217598   1.071   6.061   1.454
 5567SOL     OW17599   0.819   4.727   0.574
 5567SOL    HW117600   0.771   4.752   0.658
 5567SOL    HW217601   0.754   4.723   0.498
 5568SOL     OW17602   4.565   2.515   1.028
 5568SOL    HW117603   4.647   2.477   1.070
 5568SOL    HW217604   4.570   2.506   0.928
 5569SOL     OW17605   3.784   1.802   1.643
 5569SOL    HW117606   3.787   1.890   1.689
 5569SOL    HW217607   3.858   1.744   1.676
 5570SOL     OW17608   6.296   4.949   4.818
 5570SOL    HW117609   6.257   4.890   4.889
 5570SOL    HW217610   6.395   4.948   4.824
 5571SOL     OW17611   0.051   6.272   0.595
 5571SOL    HW117612   7.021   6.190   0.586
 5571SOL    HW217613   0.013   6.331   0.667
 5572SOL     OW17614   3.438   2.530   6.374
 5572SOL    HW117615   3.363   2.491   6.321
 5572SOL    HW217616   3.418   2.625   6.397
 5573SOL     OW17617   0.855   2.907   0.639
 5573SOL    HW117618   0.831   2.967   0.715
 5573SOL    HW217619   0.921   2.953   0.580
 5574SOL     OW17620   0.121   0.497   4.467
 5574SOL    HW117621   0.057   0.570   4.442
 5574SOL    HW217622   0.206   0.508   4.417
 5575SOL     OW17623   1.839   0.842   1.473
 5575SOL    HW117624   1.785   0.911   1.521
 5575SOL    HW217625   1.802   0.827   1.381
 5576SOL     OW17626   6.175   4.996   1.499
 5576SOL    HW117627   6.191   4.901   1.472
 5576SOL    HW217628   6.257   5.051   1.480
 5577SOL     OW17629   2.121   3.560   5.061
 5577SOL    HW117630   2.128   3.465   5.092
 5577SOL    HW217631   2.124   3.622   5.140
 5578SOL     OW17632   3.189   2.568   0.046
 5578SOL    HW117633   3.252   2.524   0.110
 5578SOL    HW217634   3.104   2.516   0.042
 5579SOL     OW17635   5.232   3.792   6.404
 5579SOL    HW117636   5.236   3.696   6.430
 5579SOL    HW217637   5.311   3.840   6.441
 5580SOL     OW17638   4.660   2.107   0.482
 5580SOL    HW117639   4.692   2.202   0.486
 5580SOL    HW217640   4.560   2.107   0.470
 5581SOL     OW17641   2.531   0.399   0.022
 5581SOL    HW117642   2.494   0.309   0.048
 5581SOL    HW217643   2.466   0.470   0.049
 5582SOL     OW17644   3.600   3.881   4.042
 5582SOL    HW117645   3.652   3.966   4.037
 5582SOL    HW217646   3.647   3.817   4.103
 5583SOL     OW17647   4.076   6.629   2.545
 5583SOL    HW117648   4.045   6.616   2.639
 5583SOL    HW217649   4.126   6.715   2.537
 5584SOL     OW17650   5.529   3.929   3.495
 5584SOL    HW117651   5.566   3.976   3.575
 5584SOL    HW217652   5.503   3.836   3.520
 5585SOL     OW17653   5.491   0.629   3.589
 5585SOL    HW117654   5.551   0.681   3.528
 5585SOL    HW217655   5.458   0.547   3.543
 5586SOL     OW17656   1.603   1.488   6.444
 5586SOL    HW117657   1.605   1.437   6.358
 5586SOL    HW217658   1.594   1.424   6.520
 5587SOL     OW17659   3.452   0.286   3.293
 5587SOL    HW117660   3.543   0.318   3.321
 5587SOL    HW217661   3.419   0.219   3.360
 5588SOL     OW17662   2.424   6.671   5.280
 5588SOL    HW117663   2.333   6.712   5.294
 5588SOL    HW217664   2.454   6.626   5.364
 5589SOL     OW17665   5.094   3.167   5.788
 5589SOL    HW117666   5.001   3.201   5.774
 5589SOL    HW217667   5.144   3.231   5.847
 5590SOL     OW17668   6.459   5.842   3.750
 5590SOL    HW117669   6.416   5.763   3.706
 5590SOL    HW217670   6.405   5.924   3.731
 5591SOL     OW17671   6.111   0.677   0.379
 5591SOL    HW117672   6.185   0.640   0.323
 5591SOL    HW217673   6.045   0.605   0.401
 5592SOL     OW17674   1.763   3.691   3.867
 5592SOL    HW117675   1.853   3.667   3.901
 5592SOL    HW217676   1.699   3.698   3.943
 5593SOL     OW17677   0.459   2.530   5.697
 5593SOL    HW117678   0.507   2.572   5.620
 5593SOL    HW217679   0.401   2.598   5.742
 5594SOL     OW17680   2.249   0.917   0.339
 5594SOL    HW117681   2.216   1.004   0.377
 5594SOL    HW217682   2.260   0.925   0.240
 5595SOL     OW17683   6.395   0.852   6.097
 5595SOL    HW117684   6.301   0.851   6.132
 5595SOL    HW217685   6.395   0.822   6.001
 5596SOL     OW17686   6.055   0.323   2.344
 5596SOL    HW117687   5.990   0.331   2.420
 5596SOL    HW217688   6.134   0.381   2.361
 5597SOL     OW17689   5.595   2.385   6.255
 5597SOL    HW117690   5.635   2.356   6.341
 5597SOL    HW217691   5.607   2.484   6.243
 5598SOL     OW17692   5.373   1.687   4.048
 5598SOL    HW117693   5.323   1.688   3.962
 5598SOL    HW217694   5.429   1.769   4.056
 5599SOL     OW17695   5.668   4.044   1.682
 5599SOL    HW117696   5.575   4.008   1.684
 5599SOL    HW217697   5.674   4.124   1.741
 5600SOL     OW17698   2.408   0.171   3.067
 5600SOL    HW117699   2.414   0.071   3.059
 5600SOL    HW217700   2.381   0.195   3.161
 5601SOL     OW17701   5.459   3.331   5.807
 5601SOL    HW117702   5.528   3.262   5.827
 5601SOL    HW217703   5.394   3.335   5.883
 5602SOL     OW17704   0.392   1.933   3.309
 5602SOL    HW117705   0.461   1.949   3.379
 5602SOL    HW217706   0.382   1.835   3.293
 5603SOL     OW17707   4.580   2.879   5.234
 5603SOL    HW117708   4.585   2.792   5.185
 5603SOL    HW217709   4.665   2.930   5.220
 5604SOL     OW17710   1.268   6.978   4.799
 5604SOL    HW117711   1.308   0.012   4.867
 5604SOL    HW217712   1.289   6.883   4.822
 5605SOL     OW17713   1.598   0.097   4.546
 5605SOL    HW117714   1.538   0.171   4.518
 5605SOL    HW217715   1.559   0.009   4.517
 5606SOL     OW17716   4.971   1.398   0.113
 5606SOL    HW117717   4.968   1.484   0.164
 5606SOL    HW217718   4.996   1.323   0.175
 5607SOL     OW17719   5.951   2.448   3.574
 5607SOL    HW117720   6.049   2.435   3.560
 5607SOL    HW217721   5.926   2.541   3.549
 5608SOL     OW17722   5.650   0.539   3.064
 5608SOL    HW117723   5.711   0.543   2.984
 5608SOL    HW217724   5.684   0.469   3.127
 5609SOL     OW17725   4.844   6.794   0.168
 5609SOL    HW117726   4.874   6.699   0.160
 5609SOL    HW217727   4.845   6.821   0.264
 5610SOL     OW17728   5.447   3.552   0.015
 5610SOL    HW117729   5.361   3.517   0.051
 5610SOL    HW217730   5.517   3.548   0.086
 5611SOL     OW17731   0.664   4.988   1.425
 5611SOL    HW117732   0.615   4.902   1.417
 5611SOL    HW217733   0.623   5.057   1.365
 5612SOL     OW17734   2.750   2.712   0.014
 5612SOL    HW117735   2.759   2.648   6.964
 5612SOL    HW217736   2.690   2.787   7.014
 5613SOL     OW17737   0.159   5.212   4.637
 5613SOL    HW117738   0.061   5.231   4.640
 5613SOL    HW217739   0.199   5.254   4.556
 5614SOL     OW17740   6.033   1.987   4.946
 5614SOL    HW117741   6.124   1.968   4.983
 5614SOL    HW217742   6.038   1.988   4.846
 5615SOL     OW17743   0.248   2.341   2.684
 5615SOL    HW117744   0.262   2.280   2.606
 5615SOL    HW217745   0.273   2.434   2.658
 5616SOL     OW17746   1.919   2.419   4.259
 5616SOL    HW117747   1.974   2.501   4.277
 5616SOL    HW217748   1.828   2.446   4.229
 5617SOL     OW17749   1.642   5.270   5.612
 5617SOL    HW117750   1.691   5.357   5.615
 5617SOL    HW217751   1.619   5.248   5.517
 5618SOL     OW17752   6.713   5.076   3.667
 5618SOL    HW117753   6.723   5.025   3.582
 5618SOL    HW217754   6.756   5.026   3.742
 5619SOL     OW17755   3.202   3.085   3.472
 5619SOL    HW117756   3.280   3.028   3.499
 5619SOL    HW217757   3.160   3.125   3.554
 5620SOL     OW17758   4.237   4.043   6.158
 5620SOL    HW117759   4.158   4.016   6.102
 5620SOL    HW217760   4.215   4.127   6.207
 5621SOL     OW17761   1.619   2.966   5.717
 5621SOL    HW117762   1.601   2.954   5.619
 5621SOL    HW217763   1.717   2.982   5.731
 5622SOL     OW17764   4.641   5.732   4.751
 5622SOL    HW117765   4.591   5.669   4.810
 5622SOL    HW217766   4.714   5.682   4.704
 5623SOL     OW17767   4.664   6.282   4.284
 5623SOL    HW117768   4.613   6.212   4.232
 5623SOL    HW217769   4.718   6.237   4.355
 5624SOL     OW17770   0.162   5.232   3.691
 5624SOL    HW117771   0.126   5.312   3.641
 5624SOL    HW217772   0.120   5.149   3.655
 5625SOL     OW17773   1.537   5.752   4.544
 5625SOL    HW117774   1.629   5.736   4.508
 5625SOL    HW217775   1.471   5.750   4.468
 5626SOL     OW17776   2.002   4.519   4.111
 5626SOL    HW117777   1.929   4.558   4.056
 5626SOL    HW217778   2.088   4.524   4.060
 5627SOL     OW17779   1.014   5.726   6.530
 5627SOL    HW117780   0.964   5.683   6.455
 5627SOL    HW217781   0.957   5.726   6.612
 5628SOL     OW17782   3.066   3.445   0.978
 5628SOL    HW117783   3.004   3.450   0.900
 5628SOL    HW217784   3.038   3.509   1.049
 5629SOL     OW17785   4.239   3.507   1.220
 5629SOL    HW117786   4.277   3.594   1.251
 5629SOL    HW217787   4.258   3.436   1.287
 5630SOL     OW17788   1.623   4.302   6.653
 5630SOL    HW117789   1.720   4.282   6.645
 5630SOL    HW217790   1.608   4.401   6.655
 5631SOL     OW17791   5.096   0.823   1.696
 5631SOL    HW117792   5.083   0.922   1.700
 5631SOL    HW217793   5.008   0.777   1.705
 5632SOL     OW17794   4.761   1.112   5.382
 5632SOL    HW117795   4.739   1.209   5.395
 5632SOL    HW217796   4.848   1.104   5.334
 5633SOL     OW17797   0.309   4.589   4.862
 5633SOL    HW117798   0.247   4.514   4.840
 5633SOL    HW217799   0.257   4.668   4.895
 5634SOL     OW17800   2.733   5.203   5.910
 5634SOL    HW117801   2.832   5.190   5.919
 5634SOL    HW217802   2.689   5.115   5.892
 5635SOL     OW17803   2.766   0.211   6.830
 5635SOL    HW117804   2.785   0.309   6.835
 5635SOL    HW217805   2.793   0.167   6.916
 5636SOL     OW17806   5.953   1.109   5.587
 5636SOL    HW117807   5.959   1.021   5.541
 5636SOL    HW217808   5.999   1.179   5.533
 5637SOL     OW17809   5.620   6.083   4.489
 5637SOL    HW117810   5.558   6.014   4.452
 5637SOL    HW217811   5.672   6.124   4.414
 5638SOL     OW17812   5.002   6.176   1.604
 5638SOL    HW117813   5.011   6.205   1.509
 5638SOL    HW217814   4.905   6.173   1.629
 5639SOL     OW17815   1.859   0.227   2.281
 5639SOL    HW117816   1.931   0.294   2.267
 5639SOL    HW217817   1.859   0.161   2.205
 5640SOL     OW17818   2.664   6.997   2.914
 5640SOL    HW117819   2.717   6.929   2.863
 5640SOL    HW217820   2.724   0.021   2.975
 5641SOL     OW17821   0.874   4.467   5.712
 5641SOL    HW117822   0.883   4.449   5.810
 5641SOL    HW217823   0.965   4.468   5.670
 5642SOL     OW17824   0.421   5.132   6.071
 5642SOL    HW117825   0.329   5.117   6.034
 5642SOL    HW217826   0.420   5.209   6.134
 5643SOL     OW17827   3.549   1.945   4.765
 5643SOL    HW117828   3.570   2.029   4.715
 5643SOL    HW217829   3.461   1.955   4.811
 5644SOL     OW17830   5.011   1.458   4.294
 5644SOL    HW117831   5.003   1.384   4.361
 5644SOL    HW217832   5.089   1.440   4.234
 5645SOL     OW17833   5.005   4.299   2.593
 5645SOL    HW117834   5.052   4.385   2.573
 5645SOL    HW217835   4.991   4.248   2.508
 5646SOL     OW17836   1.072   5.381   3.717
 5646SOL    HW117837   1.113   5.446   3.782
 5646SOL    HW217838   1.144   5.336   3.665
 5647SOL     OW17839   6.941   6.326   6.609
 5647SOL    HW117840   6.938   6.385   6.690
 5647SOL    HW217841   6.973   6.379   6.530
 5648SOL     OW17842   1.807   1.414   3.554
 5648SOL    HW117843   1.773   1.408   3.460
 5648SOL    HW217844   1.882   1.480   3.559
 5649SOL     OW17845   1.687   0.524   4.766
 5649SOL    HW117846   1.605   0.467   4.763
 5649SOL    HW217847   1.765   0.468   4.797
 5650SOL     OW17848   0.124   4.744   0.945
 5650SOL    HW117849   0.155   4.833   0.912
 5650SOL    HW217850   0.045   4.714   0.891
 5651SOL     OW17851   0.465   2.254   1.631
 5651SOL    HW117852   0.556   2.218   1.650
 5651SOL    HW217853   0.450   2.256   1.532
 5652SOL     OW17854   5.016   5.816   2.113
 5652SOL    HW117855   5.055   5.908   2.107
 5652SOL    HW217856   4.923   5.822   2.149
 5653SOL     OW17857   0.052   6.381   5.896
 5653SOL    HW117858   0.118   6.411   5.965
 5653SOL    HW217859   0.071   6.287   5.869
 5654SOL     OW17860   0.683   0.034   6.125
 5654SOL    HW117861   0.677   6.960   6.126
 5654SOL    HW217862   0.656   0.068   6.035
 5655SOL     OW17863   1.273   2.706   4.461
 5655SOL    HW117864   1.307   2.667   4.547
 5655SOL    HW217865   1.188   2.756   4.478
 5656SOL     OW17866   3.200   4.536   0.972
 5656SOL    HW117867   3.280   4.596   0.978
 5656SOL    HW217868   3.118   4.588   0.997
 5657SOL     OW17869   4.890   6.602   1.344
 5657SOL    HW117870   4.848   6.686   1.379
 5657SOL    HW217871   4.972   6.581   1.398
 5658SOL     OW17872   2.826   6.931   5.965
 5658SOL    HW117873   2.925   6.942   5.972
 5658SOL    HW217874   2.786   6.921   6.056
 5659SOL     OW17875   2.994   3.203   2.831
 5659SOL    HW117876   2.956   3.194   2.924
 5659SOL    HW217877   2.946   3.278   2.784
 5660SOL     OW17878   5.483   0.786   0.032
 5660SOL    HW117879   5.529   0.773   0.120
 5660SOL    HW217880   5.415   0.859   0.041
 5661SOL     OW17881   0.223   5.390   5.354
 5661SOL    HW117882   0.201   5.364   5.448
 5661SOL    HW217883   0.228   5.489   5.347
 5662SOL     OW17884   2.541   5.136   4.612
 5662SOL    HW117885   2.484   5.096   4.540
 5662SOL    HW217886   2.562   5.231   4.589
 5663SOL     OW17887   1.375   3.997   0.123
 5663SOL    HW117888   1.386   4.094   0.144
 5663SOL    HW217889   1.298   3.985   0.061
 5664SOL     OW17890   0.428   4.200   3.330
 5664SOL    HW117891   0.368   4.126   3.300
 5664SOL    HW217892   0.511   4.160   3.370
 5665SOL     OW17893   1.753   1.788   6.710
 5665SOL    HW117894   1.849   1.803   6.686
 5665SOL    HW217895   1.726   1.853   6.782
 5666SOL     OW17896   4.828   5.737   1.170
 5666SOL    HW117897   4.836   5.638   1.183
 5666SOL    HW217898   4.895   5.784   1.227
 5667SOL     OW17899   0.819   4.617   3.398
 5667SOL    HW117900   0.767   4.695   3.363
 5667SOL    HW217901   0.894   4.651   3.456
 5668SOL     OW17902   5.683   1.838   6.483
 5668SOL    HW117903   5.626   1.882   6.552
 5668SOL    HW217904   5.679   1.890   6.398
 5669SOL     OW17905   0.254   4.137   6.264
 5669SOL    HW117906   0.175   4.104   6.213
 5669SOL    HW217907   0.248   4.236   6.275
 5670SOL     OW17908   6.985   3.014   3.970
 5670SOL    HW117909   0.045   2.963   3.976
 5670SOL    HW217910   7.004   3.110   3.951
 5671SOL     OW17911   1.505   6.784   6.255
 5671SOL    HW117912   1.472   6.862   6.307
 5671SOL    HW217913   1.562   6.815   6.178
 5672SOL     OW17914   4.344   4.504   6.278
 5672SOL    HW117915   4.440   4.489   6.254
 5672SOL    HW217916   4.286   4.485   6.198
 5673SOL     OW17917   0.344   6.926   1.809
 5673SOL    HW117918   0.292   6.989   1.751
 5673SOL    HW217919   0.372   6.974   1.892
 5674SOL     OW17920   6.914   4.056   1.965
 5674SOL    HW117921   6.857   4.008   2.031
 5674SOL    HW217922   6.998   4.004   1.948
 5675SOL     OW17923   4.249   2.278   5.462
 5675SOL    HW117924   4.285   2.213   5.529
 5675SOL    HW217925   4.158   2.307   5.489
 5676SOL     OW17926   2.167   1.310   1.618
 5676SOL    HW117927   2.092   1.362   1.578
 5676SOL    HW217928   2.245   1.311   1.556
 5677SOL     OW17929   0.959   1.505   3.535
 5677SOL    HW117930   0.930   1.580   3.595
 5677SOL    HW217931   0.978   1.542   3.444
 5678SOL     OW17932   3.440   6.220   2.901
 5678SOL    HW117933   3.486   6.161   2.967
 5678SOL    HW217934   3.496   6.230   2.819
 5679SOL     OW17935   1.816   6.702   4.783
 5679SOL    HW117936   1.907   6.664   4.796
 5679SOL    HW217937   1.773   6.657   4.705
 5680SOL     OW17938   1.695   5.409   0.352
 5680SOL    HW117939   1.648   5.443   0.271
 5680SOL    HW217940   1.702   5.482   0.420
 5681SOL     OW17941   1.324   3.549   6.656
 5681SOL    HW117942   1.283   3.506   6.575
 5681SOL    HW217943   1.413   3.587   6.631
 5682SOL     OW17944   2.093   3.887   5.985
 5682SOL    HW117945   2.156   3.949   6.032
 5682SOL    HW217946   2.134   3.859   5.898
 5683SOL     OW17947   4.359   2.278   6.310
 5683SOL    HW117948   4.443   2.225   6.316
 5683SOL    HW217949   4.361   2.336   6.228
 5684SOL     OW17950   4.193   3.499   4.836
 5684SOL    HW117951   4.245   3.510   4.921
 5684SOL    HW217952   4.156   3.587   4.808
 5685SOL     OW17953   1.064   4.905   1.777
 5685SOL    HW117954   1.015   4.919   1.863
 5685SOL    HW217955   1.057   4.988   1.721
 5686SOL     OW17956   3.428   0.793   0.366
 5686SOL    HW117957   3.511   0.815   0.315
 5686SOL    HW217958   3.413   0.694   0.365
 5687SOL     OW17959   6.174   4.174   4.526
 5687SOL    HW117960   6.118   4.204   4.449
 5687SOL    HW217961   6.116   4.157   4.605
 5688SOL     OW17962   6.537   1.903   0.789
 5688SOL    HW117963   6.576   1.900   0.697
 5688SOL    HW217964   6.585   1.837   0.847
 5689SOL     OW17965   3.960   1.069   0.378
 5689SOL    HW117966   4.030   0.997   0.376
 5689SOL    HW217967   3.873   1.030   0.406
 5690SOL     OW17968   3.026   6.206   1.029
 5690SOL    HW117969   2.976   6.121   1.009
 5690SOL    HW217970   3.124   6.186   1.034
 5691SOL     OW17971   3.123   6.327   2.170
 5691SOL    HW117972   3.135   6.291   2.078
 5691SOL    HW217973   3.113   6.251   2.235
 5692SOL     OW17974   6.682   2.323   5.984
 5692SOL    HW117975   6.626   2.239   5.986
 5692SOL    HW217976   6.777   2.299   6.003
 5693SOL     OW17977   5.239   2.647   2.096
 5693SOL    HW117978   5.144   2.650   2.126
 5693SOL    HW217979   5.269   2.551   2.090
 5694SOL     OW17980   0.553   1.337   3.806
 5694SOL    HW117981   0.574   1.245   3.773
 5694SOL    HW217982   0.527   1.395   3.729
 5695SOL     OW17983   1.306   2.173   3.175
 5695SOL    HW117984   1.327   2.160   3.078
 5695SOL    HW217985   1.208   2.157   3.191
 5696SOL     OW17986   2.496   0.854   3.464
 5696SOL    HW117987   2.495   0.898   3.374
 5696SOL    HW217988   2.566   0.896   3.521
 5697SOL     OW17989   6.181   2.091   1.341
 5697SOL    HW117990   6.177   2.140   1.254
 5697SOL    HW217991   6.202   1.994   1.324
 5698SOL     OW17992   0.289   2.184   2.463
 5698SOL    HW117993   0.349   2.108   2.490
 5698SOL    HW217994   0.343   2.252   2.413
 5699SOL     OW17995   6.360   1.623   3.636
 5699SOL    HW117996   6.261   1.616   3.617
 5699SOL    HW217997   6.378   1.598   3.731
 5700SOL     OW17998   6.865   5.881   4.480
 5700SOL    HW117999   6.914   5.804   4.522
 5700SOL    HW218000   6.912   5.966   4.503
 5701SOL     OW18001   0.668   5.710   3.365
 5701SOL    HW118002   0.752   5.764   3.373
 5701SOL    HW218003   0.677   5.625   3.417
 5702SOL     OW18004   1.984   0.030   5.832
 5702SOL    HW118005   1.912   6.994   5.803
 5702SOL    HW218006   2.062   0.024   5.769
 5703SOL     OW18007   4.845   4.627   0.451
 5703SOL    HW118008   4.803   4.604   0.539
 5703SOL    HW218009   4.801   4.574   0.378
 5704SOL     OW18010   4.102   5.725   2.725
 5704SOL    HW118011   4.089   5.629   2.700
 5704SOL    HW218012   4.097   5.734   2.824
 5705SOL     OW18013   6.345   1.284   0.013
 5705SOL    HW118014   6.426   1.314   0.062
 5705SOL    HW218015   6.309   1.359   6.985
 5706SOL     OW18016   1.538   1.528   0.587
 5706SOL    HW118017   1.549   1.626   0.601
 5706SOL    HW218018   1.499   1.485   0.669
 5707SOL     OW18019   1.220   6.808   6.998
 5707SOL    HW118020   1.230   6.752   6.915
 5707SOL    HW218021   1.128   6.847   7.002
 5708SOL     OW18022   5.429   6.794   1.724
 5708SOL    HW118023   5.507   6.832   1.675
 5708SOL    HW218024   5.346   6.803   1.669
 5709SOL     OW18025   1.151   6.117   3.621
 5709SOL    HW118026   1.138   6.064   3.537
 5709SOL    HW218027   1.079   6.093   3.687
 5710SOL     OW18028   2.409   3.499   5.339
 5710SOL    HW118029   2.476   3.505   5.413
 5710SOL    HW218030   2.372   3.590   5.321
 5711SOL     OW18031   5.251   0.323   3.203
 5711SOL    HW118032   5.292   0.241   3.161
 5711SOL    HW218033   5.315   0.360   3.271
 5712SOL     OW18034   0.983   6.584   5.659
 5712SOL    HW118035   0.946   6.635   5.737
 5712SOL    HW218036   1.075   6.617   5.639
 5713SOL     OW18037   0.683   2.574   1.124
 5713SOL    HW118038   0.744   2.544   1.197
 5713SOL    HW218039   0.716   2.540   1.036
 5714SOL     OW18040   1.469   6.770   6.702
 5714SOL    HW118041   1.557   6.779   6.656
 5714SOL    HW218042   1.467   6.685   6.755
 5715SOL     OW18043   0.946   5.667   3.055
 5715SOL    HW118044   0.973   5.738   3.119
 5715SOL    HW218045   0.871   5.700   2.998
 5716SOL     OW18046   0.568   3.810   5.478
 5716SOL    HW118047   0.598   3.723   5.440
 5716SOL    HW218048   0.572   3.881   5.408
 5717SOL     OW18049   1.804   5.084   0.040
 5717SOL    HW118050   1.766   5.045   6.983
 5717SOL    HW218051   1.753   5.166   0.064
 5718SOL     OW18052   1.410   4.503   6.170
 5718SOL    HW118053   1.400   4.562   6.250
 5718SOL    HW218054   1.386   4.409   6.194
 5719SOL     OW18055   2.542   1.306   6.131
 5719SOL    HW118056   2.636   1.285   6.157
 5719SOL    HW218057   2.541   1.387   6.073
 5720SOL     OW18058   0.468   5.072   4.860
 5720SOL    HW118059   0.394   5.036   4.803
 5720SOL    HW218060   0.495   5.163   4.826
 5721SOL     OW18061   0.865   3.681   0.307
 5721SOL    HW118062   0.890   3.613   0.239
 5721SOL    HW218063   0.778   3.724   0.280
 5722SOL     OW18064   5.771   1.398   5.254
 5722SOL    HW118065   5.706   1.381   5.180
 5722SOL    HW218066   5.731   1.462   5.320
 5723SOL     OW18067   4.464   4.386   0.525
 5723SOL    HW118068   4.512   4.299   0.510
 5723SOL    HW218069   4.367   4.368   0.540
 5724SOL     OW18070   3.956   2.299   5.344
 5724SOL    HW118071   4.026   2.360   5.308
 5724SOL    HW218072   3.967   2.291   5.443
 5725SOL     OW18073   5.203   6.152   3.238
 5725SOL    HW118074   5.301   6.160   3.223
 5725SOL    HW218075   5.177   6.205   3.319
 5726SOL     OW18076   6.383   3.053   4.016
 5726SOL    HW118077   6.389   2.969   4.070
 5726SOL    HW218078   6.452   3.051   3.944
 5727SOL     OW18079   6.206   3.360   3.455
 5727SOL    HW118080   6.163   3.342   3.366
 5727SOL    HW218081   6.194   3.280   3.514
 5728SOL     OW18082   4.535   2.079   6.331
 5728SOL    HW118083   4.621   2.093   6.381
 5728SOL    HW218084   4.490   1.997   6.365
 5729SOL     OW18085   1.141   1.650   0.976
 5729SOL    HW118086   1.150   1.595   1.059
 5729SOL    HW218087   1.057   1.623   0.927
 5730SOL     OW18088   4.555   5.616   5.401
 5730SOL    HW118089   4.487   5.547   5.425
 5730SOL    HW218090   4.561   5.683   5.475
 5731SOL     OW18091   2.034   6.561   3.782
 5731SOL    HW118092   1.984   6.533   3.700
 5731SOL    HW218093   2.106   6.624   3.757
 5732SOL     OW18094   6.194   4.794   5.031
 5732SOL    HW118095   6.111   4.842   5.059
 5732SOL    HW218096   6.242   4.761   5.112
 5733SOL     OW18097   3.421   0.956   5.884
 5733SOL    HW118098   3.472   0.875   5.856
 5733SOL    HW218099   3.325   0.933   5.898
 5734SOL     OW18100   0.711   6.755   6.078
 5734SOL    HW118101   0.743   6.726   5.988
 5734SOL    HW218102   0.662   6.679   6.122
 5735SOL     OW18103   3.506   1.359   2.257
 5735SOL    HW118104   3.515   1.409   2.343
 5735SOL    HW218105   3.410   1.348   2.234
 5736SOL     OW18106   5.186   4.700   0.104
 5736SOL    HW118107   5.157   4.639   0.030
 5736SOL    HW218108   5.107   4.753   0.137
 5737SOL     OW18109   5.606   6.122   0.911
 5737SOL    HW118110   5.514   6.161   0.905
 5737SOL    HW218111   5.626   6.070   0.828
 5738SOL     OW18112   3.677   1.587   6.611
 5738SOL    HW118113   3.678   1.586   6.511
 5738SOL    HW218114   3.593   1.631   6.643
 5739SOL     OW18115   1.472   6.783   5.847
 5739SOL    HW118116   1.448   6.686   5.836
 5739SOL    HW218117   1.564   6.799   5.812
 5740SOL     OW18118   4.456   3.367   1.112
 5740SOL    HW118119   4.407   3.397   1.193
 5740SOL    HW218120   4.390   3.336   1.043
 5741SOL     OW18121   6.891   3.431   4.216
 5741SOL    HW118122   6.805   3.405   4.171
 5741SOL    HW218123   6.871   3.476   4.303
 5742SOL     OW18124   4.422   6.712   3.372
 5742SOL    HW118125   4.393   6.773   3.447
 5742SOL    HW218126   4.394   6.752   3.285
 5743SOL     OW18127   3.424   5.643   5.448
 5743SOL    HW118128   3.423   5.562   5.507
 5743SOL    HW218129   3.401   5.724   5.503
 5744SOL     OW18130   5.726   1.100   2.438
 5744SOL    HW118131   5.763   1.137   2.523
 5744SOL    HW218132   5.628   1.085   2.448
 5745SOL     OW18133   2.509   0.936   4.182
 5745SOL    HW118134   2.523   1.029   4.148
 5745SOL    HW218135   2.497   0.937   4.281
 5746SOL     OW18136   4.973   6.964   2.458
 5746SOL    HW118137   4.911   0.001   2.413
 5746SOL    HW218138   5.063   6.968   2.413
 5747SOL     OW18139   0.571   6.192   1.766
 5747SOL    HW118140   0.654   6.213   1.818
 5747SOL    HW218141   0.559   6.093   1.762
 5748SOL     OW18142   1.723   0.075   1.097
 5748SOL    HW118143   1.666   0.124   1.163
 5748SOL    HW218144   1.698   0.105   1.004
 5749SOL     OW18145   1.800   6.278   4.914
 5749SOL    HW118146   1.813   6.276   4.814
 5749SOL    HW218147   1.705   6.302   4.934
 5750SOL     OW18148   6.221   5.408   5.854
 5750SOL    HW118149   6.293   5.475   5.875
 5750SOL    HW218150   6.137   5.434   5.901
 5751SOL     OW18151   1.846   3.000   4.917
 5751SOL    HW118152   1.896   3.045   4.843
 5751SOL    HW218153   1.749   2.994   4.893
 5752SOL     OW18154   5.527   0.178   1.011
 5752SOL    HW118155   5.478   0.207   1.093
 5752SOL    HW218156   5.552   0.081   1.021
 5753SOL     OW18157   2.885   3.430   4.630
 5753SOL    HW118158   2.869   3.520   4.670
 5753SOL    HW218159   2.878   3.360   4.701
 5754SOL     OW18160   1.271   5.730   1.758
 5754SOL    HW118161   1.224   5.740   1.671
 5754SOL    HW218162   1.333   5.808   1.771
 5755SOL     OW18163   1.700   1.973   5.653
 5755SOL    HW118164   1.713   1.935   5.561
 5755SOL    HW218165   1.702   2.072   5.648
 5756SOL     OW18166   0.542   0.421   2.558
 5756SOL    HW118167   0.473   0.435   2.486
 5756SOL    HW218168   0.597   0.341   2.536
 5757SOL     OW18169   0.244   5.188   4.127
 5757SOL    HW118170   0.275   5.283   4.119
 5757SOL    HW218171   0.312   5.135   4.178
 5758SOL     OW18172   2.309   1.254   2.907
 5758SOL    HW118173   2.360   1.203   2.838
 5758SOL    HW218174   2.340   1.228   2.998
 5759SOL     OW18175   4.772   0.885   0.562
 5759SOL    HW118176   4.749   0.981   0.544
 5759SOL    HW218177   4.715   0.826   0.505
 5760SOL     OW18178   6.614   2.504   1.271
 5760SOL    HW118179   6.532   2.474   1.321
 5760SOL    HW218180   6.670   2.561   1.331
 5761SOL     OW18181   5.578   5.328   5.496
 5761SOL    HW118182   5.675   5.324   5.521
 5761SOL    HW218183   5.524   5.275   5.561
 5762SOL     OW18184   4.635   4.160   0.922
 5762SOL    HW118185   4.587   4.248   0.916
 5762SOL    HW218186   4.683   4.154   1.009
 5763SOL     OW18187   5.816   6.434   0.902
 5763SOL    HW118188   5.780   6.415   0.993
 5763SOL    HW218189   5.832   6.533   0.893
 5764SOL     OW18190   4.384   5.316   4.407
 5764SOL    HW118191   4.431   5.232   4.432
 5764SOL    HW218192   4.289   5.295   4.384
 5765SOL     OW18193   6.417   3.288   0.900
 5765SOL    HW118194   6.425   3.191   0.920
 5765SOL    HW218195   6.369   3.300   0.813
 5766SOL     OW18196   1.737   1.635   5.082
 5766SOL    HW118197   1.801   1.694   5.033
 5766SOL    HW218198   1.682   1.691   5.144
 5767SOL     OW18199   2.658   0.360   0.582
 5767SOL    HW118200   2.735   0.296   0.576
 5767SOL    HW218201   2.692   0.454   0.582
 5768SOL     OW18202   0.780   0.317   3.497
 5768SOL    HW118203   0.734   0.308   3.409
 5768SOL    HW218204   0.711   0.329   3.569
 5769SOL     OW18205   2.949   6.022   4.742
 5769SOL    HW118206   2.893   6.079   4.802
 5769SOL    HW218207   2.998   5.954   4.796
 5770SOL     OW18208   6.537   0.000   6.538
 5770SOL    HW118209   6.470   0.016   6.466
 5770SOL    HW218210   6.602   6.957   6.509
 5771SOL     OW18211   1.808   0.011   4.168
 5771SOL    HW118212   1.733   7.006   4.110
 5771SOL    HW218213   1.888   0.030   4.111
 5772SOL     OW18214   5.524   1.197   0.855
 5772SOL    HW118215   5.616   1.194   0.895
 5772SOL    HW218216   5.463   1.246   0.918
 5773SOL     OW18217   4.277   1.067   3.334
 5773SOL    HW118218   4.273   0.971   3.359
 5773SOL    HW218219   4.353   1.083   3.271
 5774SOL     OW18220   2.922   0.182   4.726
 5774SOL    HW118221   2.908   0.125   4.808
 5774SOL    HW218222   2.925   0.123   4.646
 5775SOL     OW18223   1.105   0.298   2.746
 5775SOL    HW118224   1.110   0.332   2.652
 5775SOL    HW218225   1.153   0.211   2.752
 5776SOL     OW18226   1.072   0.075   3.646
 5776SOL    HW118227   1.064   0.165   3.688
 5776SOL    HW218228   1.105   0.009   3.713
 5777SOL     OW18229   0.953   0.038   4.440
 5777SOL    HW118230   0.931   0.075   4.530
 5777SOL    HW218231   0.939   0.108   4.371
 5778SOL     OW18232   1.486   0.120   0.222
 5778SOL    HW118233   1.528   0.085   0.305
 5778SOL    HW218234   1.440   0.045   0.173
 5779SOL     OW18235   4.478   2.638   0.343
 5779SOL    HW118236   4.520   2.622   0.432
 5779SOL    HW218237   4.479   2.736   0.323
 5780SOL     OW18238   6.276   6.146   4.135
 5780SOL    HW118239   6.241   6.163   4.227
 5780SOL    HW218240   6.267   6.049   4.113
 5781SOL     OW18241   6.983   4.557   4.195
 5781SOL    HW118242   7.022   4.647   4.175
 5781SOL    HW218243   6.898   4.545   4.144
 5782SOL     OW18244   1.864   1.834   0.721
 5782SOL    HW118245   1.825   1.742   0.730
 5782SOL    HW218246   1.960   1.831   0.751
 5783SOL     OW18247   1.142   0.881   1.852
 5783SOL    HW118248   1.135   0.919   1.945
 5783SOL    HW218249   1.100   0.791   1.849
 5784SOL     OW18250   0.577   6.622   5.273
 5784SOL    HW118251   0.580   6.721   5.257
 5784SOL    HW218252   0.667   6.590   5.302
 5785SOL     OW18253   1.785   2.620   0.363
 5785SOL    HW118254   1.748   2.533   0.330
 5785SOL    HW218255   1.726   2.656   0.435
 5786SOL     OW18256   0.225   3.654   0.291
 5786SOL    HW118257   0.215   3.679   0.387
 5786SOL    HW218258   0.140   3.674   0.242
 5787SOL     OW18259   2.434   1.956   5.131
 5787SOL    HW118260   2.462   2.011   5.053
 5787SOL    HW218261   2.477   1.866   5.125
 5788SOL     OW18262   2.857   1.263   2.000
 5788SOL    HW118263   2.875   1.350   2.045
 5788SOL    HW218264   2.758   1.244   2.001
 5789SOL     OW18265   3.425   5.120   0.367
 5789SOL    HW118266   3.367   5.202   0.372
 5789SOL    HW218267   3.517   5.146   0.338
 5790SOL     OW18268   1.519   4.346   4.638
 5790SOL    HW118269   1.592   4.414   4.650
 5790SOL    HW218270   1.498   4.336   4.540
 5791SOL     OW18271   3.867   1.169   2.253
 5791SOL    HW118272   3.884   1.114   2.171
 5791SOL    HW218273   3.826   1.256   2.226
 5792SOL     OW18274   6.371   2.987   2.731
 5792SOL    HW118275   6.433   2.927   2.782
 5792SOL    HW218276   6.421   3.030   2.656
 5793SOL     OW18277   5.264   0.914   3.713
 5793SOL    HW118278   5.306   0.861   3.787
 5793SOL    HW218279   5.185   0.964   3.750
 5794SOL     OW18280   3.051   1.486   0.501
 5794SOL    HW118281   3.101   1.528   0.577
 5794SOL    HW218282   2.960   1.526   0.494
 5795SOL     OW18283   6.746   6.347   0.504
 5795SOL    HW118284   6.768   6.253   0.528
 5795SOL    HW218285   6.823   6.388   0.455
 5796SOL     OW18286   4.077   1.704   0.093
 5796SOL    HW118287   3.985   1.736   0.113
 5796SOL    HW218288   4.091   1.614   0.134
 5797SOL     OW18289   4.667   2.165   5.952
 5797SOL    HW118290   4.733   2.165   5.877
 5797SOL    HW218291   4.667   2.254   5.997
 5798SOL     OW18292   0.703   4.364   5.206
 5798SOL    HW118293   0.613   4.341   5.242
 5798SOL    HW218294   0.712   4.463   5.198
 5799SOL     OW18295   6.428   0.620   2.849
 5799SOL    HW118296   6.475   0.617   2.760
 5799SOL    HW218297   6.495   0.642   2.920
 5800SOL     OW18298   6.084   6.482   1.615
 5800SOL    HW118299   6.085   6.404   1.552
 5800SOL    HW218300   5.995   6.528   1.611
 5801SOL     OW18301   1.862   1.948   3.250
 5801SOL    HW118302   1.868   1.848   3.258
 5801SOL    HW218303   1.935   1.990   3.304
 5802SOL     OW18304   1.569   4.672   1.328
 5802SOL    HW118305   1.568   4.738   1.254
 5802SOL    HW218306   1.555   4.580   1.291
 5803SOL     OW18307   1.701   4.970   2.593
 5803SOL    HW118308   1.717   5.059   2.549
 5803SOL    HW218309   1.629   4.922   2.543
 5804SOL     OW18310   0.134   4.903   3.954
 5804SOL    HW118311   0.200   4.958   4.005
 5804SOL    HW218312   0.171   4.882   3.864
 5805SOL     OW18313   2.464   3.904   6.197
 5805SOL    HW118314   2.457   3.824   6.138
 5805SOL    HW218315   2.392   3.969   6.173
 5806SOL     OW18316   0.187   5.673   5.336
 5806SOL    HW118317   0.100   5.709   5.304
 5806SOL    HW218318   0.228   5.738   5.401
 5807SOL     OW18319   0.595   3.659   2.098
 5807SOL    HW118320   0.524   3.675   2.166
 5807SOL    HW218321   0.599   3.561   2.075
 5808SOL     OW18322   5.545   5.349   4.881
 5808SOL    HW118323   5.522   5.262   4.923
 5808SOL    HW218324   5.641   5.371   4.901
 5809SOL     OW18325   5.773   1.809   4.939
 5809SOL    HW118326   5.849   1.795   4.876
 5809SOL    HW218327   5.741   1.904   4.932
 5810SOL     OW18328   3.957   1.680   4.416
 5810SOL    HW118329   4.009   1.644   4.338
 5810SOL    HW218330   3.872   1.720   4.383
 5811SOL     OW18331   2.959   0.353   5.682
 5811SOL    HW118332   2.988   0.260   5.704
 5811SOL    HW218333   2.859   0.357   5.676
 5812SOL     OW18334   6.250   2.186   4.345
 5812SOL    HW118335   6.243   2.087   4.358
 5812SOL    HW218336   6.310   2.206   4.268
 5813SOL     OW18337   1.901   1.897   1.037
 5813SOL    HW118338   1.911   1.926   0.942
 5813SOL    HW218339   1.860   1.971   1.090
 5814SOL     OW18340   6.098   4.586   0.844
 5814SOL    HW118341   6.166   4.596   0.771
 5814SOL    HW218342   6.107   4.496   0.886
 5815SOL     OW18343   3.805   2.066   4.375
 5815SOL    HW118344   3.851   2.137   4.320
 5815SOL    HW218345   3.834   2.074   4.470
 5816SOL     OW18346   4.470   5.808   6.841
 5816SOL    HW118347   4.426   5.836   6.755
 5816SOL    HW218348   4.403   5.811   6.915
 5817SOL     OW18349   5.858   3.825   6.418
 5817SOL    HW118350   5.812   3.737   6.432
 5817SOL    HW218351   5.930   3.814   6.350
 5818SOL     OW18352   6.825   5.714   4.752
 5818SOL    HW118353   6.745   5.767   4.781
 5818SOL    HW218354   6.803   5.664   4.669
 5819SOL     OW18355   4.320   6.356   0.052
 5819SOL    HW118356   4.247   6.291   0.034
 5819SOL    HW218357   4.332   6.366   0.151
 5820SOL     OW18358   3.889   5.799   3.814
 5820SOL    HW118359   3.822   5.812   3.887
 5820SOL    HW218360   3.860   5.725   3.755
 5821SOL     OW18361   0.306   0.108   1.423
 5821SOL    HW118362   0.275   0.088   1.516
 5821SOL    HW218363   0.287   0.204   1.402
 5822SOL     OW18364   0.838   2.581   2.140
 5822SOL    HW118365   0.845   2.482   2.128
 5822SOL    HW218366   0.899   2.610   2.214
 5823SOL     OW18367   1.044   1.209   5.626
 5823SOL    HW118368   0.954   1.200   5.584
 5823SOL    HW218369   1.052   1.145   5.703
 5824SOL     OW18370   6.199   5.107   2.691
 5824SOL    HW118371   6.228   5.112   2.596
 5824SOL    HW218372   6.228   5.019   2.731
 5825SOL     OW18373   2.530   2.101   5.318
 5825SOL    HW118374   2.478   2.039   5.259
 5825SOL    HW218375   2.628   2.085   5.305
 5826SOL     OW18376   0.029   5.032   5.610
 5826SOL    HW118377   0.068   4.954   5.660
 5826SOL    HW218378   0.006   5.004   5.517
 5827SOL     OW18379   1.898   4.759   4.637
 5827SOL    HW118380   1.893   4.854   4.604
 5827SOL    HW218381   1.992   4.727   4.631
 5828SOL     OW18382   6.736   2.928   1.671
 5828SOL    HW118383   6.722   3.026   1.689
 5828SOL    HW218384   6.790   2.888   1.745
 5829SOL     OW18385   2.330   1.235   3.196
 5829SOL    HW118386   2.340   1.334   3.185
 5829SOL    HW218387   2.249   1.216   3.251
 5830SOL     OW18388   4.874   7.001   5.317
 5830SOL    HW118389   4.892   0.066   5.353
 5830SOL    HW218390   4.942   6.937   5.353
 5831SOL     OW18391   0.034   0.733   4.812
 5831SOL    HW118392   7.002   0.783   4.749
 5831SOL    HW218393   7.012   0.717   4.898
 5832SOL     OW18394   3.555   4.853   5.972
 5832SOL    HW118395   3.504   4.939   5.965
 5832SOL    HW218396   3.651   4.872   5.989
 5833SOL     OW18397   4.124   3.848   5.365
 5833SOL    HW118398   4.063   3.772   5.384
 5833SOL    HW218399   4.144   3.898   5.449
 5834SOL     OW18400   6.558   3.514   6.902
 5834SOL    HW118401   6.522   3.605   6.924
 5834SOL    HW218402   6.616   3.520   6.822
 5835SOL     OW18403   4.863   3.167   4.141
 5835SOL    HW118404   4.811   3.106   4.082
 5835SOL    HW218405   4.960   3.165   4.115
 5836SOL     OW18406   3.358   6.452   2.778
 5836SOL    HW118407   3.290   6.509   2.825
 5836SOL    HW218408   3.383   6.375   2.836
 5837SOL     OW18409   4.107   4.634   6.353
 5837SOL    HW118410   4.198   4.592   6.359
 5837SOL    HW218411   4.057   4.595   6.276
 5838SOL     OW18412   3.165   2.604   6.624
 5838SOL    HW118413   3.227   2.661   6.571
 5838SOL    HW218414   3.070   2.630   6.604
 5839SOL     OW18415   0.282   1.917   2.212
 5839SOL    HW118416   0.325   2.005   2.191
 5839SOL    HW218417   0.210   1.931   2.279
 5840SOL     OW18418   1.101   5.453   6.215
 5840SOL    HW118419   1.041   5.374   6.230
 5840SOL    HW218420   1.047   5.537   6.214
 5841SOL     OW18421   4.598   1.886   2.579
 5841SOL    HW118422   4.531   1.861   2.648
 5841SOL    HW218423   4.593   1.822   2.502
 5842SOL     OW18424   4.781   3.189   1.405
 5842SOL    HW118425   4.758   3.231   1.492
 5842SOL    HW218426   4.744   3.096   1.401
 5843SOL     OW18427   2.113   3.832   2.583
 5843SOL    HW118428   2.113   3.877   2.493
 5843SOL    HW218429   2.112   3.732   2.570
 5844SOL     OW18430   1.425   6.381   6.161
 5844SOL    HW118431   1.371   6.439   6.222
 5844SOL    HW218432   1.498   6.435   6.118
 5845SOL     OW18433   0.824   0.529   2.244
 5845SOL    HW118434   0.867   0.522   2.334
 5845SOL    HW218435   0.804   0.625   2.223
 5846SOL     OW18436   0.188   2.041   3.682
 5846SOL    HW118437   0.269   2.074   3.634
 5846SOL    HW218438   0.137   2.118   3.719
 5847SOL     OW18439   2.100   2.225   1.820
 5847SOL    HW118440   2.179   2.217   1.759
 5847SOL    HW218441   2.131   2.232   1.915
 5848SOL     OW18442   2.179   5.056   2.980
 5848SOL    HW118443   2.218   5.121   3.045
 5848SOL    HW218444   2.219   4.965   2.994
 5849SOL     OW18445   0.166   0.146   6.785
 5849SOL    HW118446   0.220   0.206   6.726
 5849SOL    HW218447   0.158   0.056   6.741
 5850SOL     OW18448   0.093   3.883   1.990
 5850SOL    HW118449   0.165   3.947   2.015
 5850SOL    HW218450   0.095   3.804   2.051
 5851SOL     OW18451   5.773   3.589   3.348
 5851SOL    HW118452   5.802   3.518   3.283
 5851SOL    HW218453   5.851   3.617   3.403
 5852SOL     OW18454   6.320   6.390   3.402
 5852SOL    HW118455   6.406   6.407   3.450
 5852SOL    HW218456   6.248   6.371   3.468
 5853SOL     OW18457   3.678   5.742   4.408
 5853SOL    HW118458   3.651   5.837   4.399
 5853SOL    HW218459   3.778   5.734   4.399
 5854SOL     OW18460   5.987   4.997   5.972
 5854SOL    HW118461   5.921   5.062   6.010
 5854SOL    HW218462   5.939   4.921   5.929
 5855SOL     OW18463   0.476   1.062   4.585
 5855SOL    HW118464   0.399   1.098   4.638
 5855SOL    HW218465   0.442   1.011   4.506
 5856SOL     OW18466   2.052   5.526   4.166
 5856SOL    HW118467   1.982   5.579   4.215
 5856SOL    HW218468   2.126   5.503   4.228
 5857SOL     OW18469   6.181   2.711   5.715
 5857SOL    HW118470   6.164   2.620   5.753
 5857SOL    HW218471   6.252   2.757   5.768
 5858SOL     OW18472   1.886   2.400   2.142
 5858SOL    HW118473   1.857   2.339   2.069
 5858SOL    HW218474   1.971   2.366   2.183
 5859SOL     OW18475   5.732   6.303   1.792
 5859SOL    HW118476   5.653   6.253   1.756
 5859SOL    HW218477   5.810   6.291   1.731
 5860SOL     OW18478   1.771   3.968   1.881
 5860SOL    HW118479   1.859   4.008   1.906
 5860SOL    HW218480   1.752   3.889   1.939
 5861SOL     OW18481   4.588   0.974   4.580
 5861SOL    HW118482   4.669   1.010   4.533
 5861SOL    HW218483   4.521   0.944   4.512
 5862SOL     OW18484   4.965   5.076   2.608
 5862SOL    HW118485   4.930   4.996   2.559
 5862SOL    HW218486   5.020   5.132   2.546
 5863SOL     OW18487   2.956   0.448   4.688
 5863SOL    HW118488   3.043   0.469   4.643
 5863SOL    HW218489   2.940   0.349   4.685
 5864SOL     OW18490   3.980   3.511   1.468
 5864SOL    HW118491   4.043   3.443   1.430
 5864SOL    HW218492   4.023   3.601   1.467
 5865SOL     OW18493   6.191   0.500   5.449
 5865SOL    HW118494   6.138   0.544   5.521
 5865SOL    HW218495   6.134   0.433   5.402
 5866SOL     OW18496   4.370   5.215   0.806
 5866SOL    HW118497   4.367   5.187   0.902
 5866SOL    HW218498   4.390   5.135   0.749
 5867SOL     OW18499   0.574   3.879   0.820
 5867SOL    HW118500   0.537   3.972   0.829
 5867SOL    HW218501   0.524   3.830   0.748
 5868SOL     OW18502   0.105   1.602   4.986
 5868SOL    HW118503   0.160   1.644   5.058
 5868SOL    HW218504   0.107   1.659   4.904
 5869SOL     OW18505   2.903   6.175   3.780
 5869SOL    HW118506   2.918   6.193   3.877
 5869SOL    HW218507   2.915   6.259   3.728
 5870SOL     OW18508   5.247   6.054   4.760
 5870SOL    HW118509   5.290   6.066   4.850
 5870SOL    HW218510   5.287   5.975   4.714
 5871SOL     OW18511   4.301   3.178   0.921
 5871SOL    HW118512   4.305   3.096   0.864
 5871SOL    HW218513   4.313   3.151   1.017
 5872SOL     OW18514   4.367   5.487   0.705
 5872SOL    HW118515   4.391   5.407   0.760
 5872SOL    HW218516   4.312   5.459   0.627
 5873SOL     OW18517   2.818   2.329   1.039
 5873SOL    HW118518   2.787   2.234   1.026
 5873SOL    HW218519   2.885   2.352   0.969
 5874SOL     OW18520   3.067   3.964   0.089
 5874SOL    HW118521   3.062   3.996   7.021
 5874SOL    HW218522   3.123   4.029   0.142
 5875SOL     OW18523   4.150   1.449   0.253
 5875SOL    HW118524   4.097   1.385   0.197
 5875SOL    HW218525   4.136   1.429   0.350
 5876SOL     OW18526   3.235   3.236   6.765
 5876SOL    HW118527   3.164   3.172   6.734
 5876SOL    HW218528   3.211   3.329   6.736
 5877SOL     OW18529   0.505   6.704   0.809
 5877SOL    HW118530   0.580   6.724   0.747
 5877SOL    HW218531   0.521   6.748   0.897
 5878SOL     OW18532   5.480   4.879   3.597
 5878SOL    HW118533   5.579   4.866   3.590
 5878SOL    HW218534   5.455   4.968   3.560
 5879SOL     OW18535   1.679   2.927   6.057
 5879SOL    HW118536   1.734   2.885   6.129
 5879SOL    HW218537   1.678   2.867   5.977
 5880SOL     OW18538   4.677   4.665   6.899
 5880SOL    HW118539   4.614   4.737   6.871
 5880SOL    HW218540   4.725   4.693   6.983
 5881SOL     OW18541   1.318   6.930   1.933
 5881SOL    HW118542   1.413   6.901   1.948
 5881SOL    HW218543   1.316   7.026   1.905
 5882SOL     OW18544   1.100   6.654   6.065
 5882SOL    HW118545   1.044   6.572   6.076
 5882SOL    HW218546   1.052   6.733   6.103
 5883SOL     OW18547   0.889   1.159   0.216
 5883SOL    HW118548   0.837   1.162   0.130
 5883SOL    HW218549   0.852   1.089   0.276
 5884SOL     OW18550   5.164   0.589   4.827
 5884SOL    HW118551   5.122   0.676   4.799
 5884SOL    HW218552   5.092   0.520   4.836
 5885SOL     OW18553   0.303   5.843   1.864
 5885SOL    HW118554   0.233   5.827   1.794
 5885SOL    HW218555   0.346   5.756   1.889
 5886SOL     OW18556   1.643   2.090   4.039
 5886SOL    HW118557   1.658   2.005   3.988
 5886SOL    HW218558   1.714   2.101   4.108
 5887SOL     OW18559   2.207   2.538   1.931
 5887SOL    HW118560   2.262   2.612   1.971
 5887SOL    HW218561   2.260   2.453   1.931
 5888SOL     OW18562   2.519   6.621   1.821
 5888SOL    HW118563   2.560   6.712   1.828
 5888SOL    HW218564   2.519   6.592   1.725
 5889SOL     OW18565   5.955   1.819   6.514
 5889SOL    HW118566   5.855   1.818   6.510
 5889SOL    HW218567   5.988   1.907   6.479
 5890SOL     OW18568   2.025   0.114   3.153
 5890SOL    HW118569   2.027   0.214   3.146
 5890SOL    HW218570   2.083   0.085   3.229
 5891SOL     OW18571   2.286   4.421   0.543
 5891SOL    HW118572   2.223   4.462   0.477
 5891SOL    HW218573   2.377   4.461   0.532
 5892SOL     OW18574   6.776   5.402   2.071
 5892SOL    HW118575   6.851   5.337   2.082
 5892SOL    HW218576   6.798   5.467   1.997
 5893SOL     OW18577   2.593   4.663   1.645
 5893SOL    HW118578   2.577   4.565   1.655
 5893SOL    HW218579   2.632   4.700   1.729
 5894SOL     OW18580   1.146   5.680   5.560
 5894SOL    HW118581   1.112   5.586   5.562
 5894SOL    HW218582   1.240   5.681   5.526
 5895SOL     OW18583   5.994   3.561   3.491
 5895SOL    HW118584   5.988   3.531   3.586
 5895SOL    HW218585   6.051   3.498   3.439
 5896SOL     OW18586   4.905   1.997   0.498
 5896SOL    HW118587   4.814   2.037   0.502
 5896SOL    HW218588   4.952   2.011   0.585
 5897SOL     OW18589   3.894   1.403   1.161
 5897SOL    HW118590   3.975   1.462   1.159
 5897SOL    HW218591   3.814   1.457   1.134
 5898SOL     OW18592   2.314   1.462   5.297
 5898SOL    HW118593   2.295   1.555   5.266
 5898SOL    HW218594   2.277   1.396   5.231
 5899SOL     OW18595   6.245   6.233   6.594
 5899SOL    HW118596   6.299   6.276   6.667
 5899SOL    HW218597   6.149   6.258   6.605
 5900SOL     OW18598   6.634   4.723   2.926
 5900SOL    HW118599   6.565   4.771   2.979
 5900SOL    HW218600   6.622   4.625   2.936
 5901SOL     OW18601   2.515   1.661   0.458
 5901SOL    HW118602   2.435   1.602   0.470
 5901SOL    HW218603   2.509   1.710   0.372
 5902SOL     OW18604   5.474   3.888   5.648
 5902SOL    HW118605   5.432   3.946   5.579
 5902SOL    HW218606   5.412   3.813   5.672
 5903SOL     OW18607   4.331   3.524   6.689
 5903SOL    HW118608   4.393   3.602   6.678
 5903SOL    HW218609   4.319   3.478   6.601
 5904SOL     OW18610   1.239   4.744   1.103
 5904SOL    HW118611   1.280   4.785   1.184
 5904SOL    HW218612   1.303   4.678   1.063
 5905SOL     OW18613   6.355   0.994   3.798
 5905SOL    HW118614   6.440   0.948   3.771
 5905SOL    HW218615   6.352   1.085   3.757
 5906SOL     OW18616   4.576   1.915   5.091
 5906SOL    HW118617   4.516   1.852   5.041
 5906SOL    HW218618   4.628   1.864   5.160
 5907SOL     OW18619   1.619   6.732   0.445
 5907SOL    HW118620   1.719   6.735   0.440
 5907SOL    HW218621   1.586   6.649   0.400
 5908SOL     OW18622   6.542   4.336   6.936
 5908SOL    HW118623   6.556   4.237   6.941
 5908SOL    HW218624   6.559   4.367   6.842
 5909SOL     OW18625   6.549   5.221   6.750
 5909SOL    HW118626   6.548   5.222   6.850
 5909SOL    HW218627   6.643   5.230   6.718
 5910SOL     OW18628   0.737   4.623   1.080
 5910SOL    HW118629   0.640   4.600   1.073
 5910SOL    HW218630   0.747   4.719   1.106
 5911SOL     OW18631   6.512   5.458   6.613
 5911SOL    HW118632   6.421   5.497   6.624
 5911SOL    HW218633   6.514   5.366   6.654
 5912SOL     OW18634   5.954   3.419   0.037
 5912SOL    HW118635   5.875   3.371   0.075
 5912SOL    HW218636   5.995   3.364   6.990
 5913SOL     OW18637   2.801   2.790   6.104
 5913SOL    HW118638   2.725   2.854   6.092
 5913SOL    HW218639   2.827   2.753   6.015
 5914SOL     OW18640   2.854   5.503   6.219
 5914SOL    HW118641   2.833   5.589   6.265
 5914SOL    HW218642   2.782   5.481   6.153
 5915SOL     OW18643   6.460   3.959   2.202
 5915SOL    HW118644   6.493   3.867   2.221
 5915SOL    HW218645   6.370   3.955   2.159
 5916SOL     OW18646   4.667   6.300   5.723
 5916SOL    HW118647   4.585   6.253   5.756
 5916SOL    HW218648   4.698   6.365   5.791
 5917SOL     OW18649   3.995   3.200   4.170
 5917SOL    HW118650   3.974   3.297   4.182
 5917SOL    HW218651   4.021   3.160   4.258
 5918SOL     OW18652   2.264   3.744   5.255
 5918SOL    HW118653   2.169   3.769   5.278
 5918SOL    HW218654   2.308   3.822   5.210
 5919SOL     OW18655   2.959   2.501   0.447
 5919SOL    HW118656   2.884   2.453   0.492
 5919SOL    HW218657   2.923   2.577   0.393
 5920SOL     OW18658   3.523   6.922   0.223
 5920SOL    HW118659   3.508   6.938   0.321
 5920SOL    HW218660   3.619   6.900   0.207
 5921SOL     OW18661   3.795   5.640   5.522
 5921SOL    HW118662   3.883   5.685   5.506
 5921SOL    HW218663   3.781   5.570   5.452
 5922SOL     OW18664   6.420   5.095   4.022
 5922SOL    HW118665   6.405   5.192   4.037
 5922SOL    HW218666   6.466   5.055   4.101
 5923SOL     OW18667   5.387   0.446   1.991
 5923SOL    HW118668   5.467   0.506   1.985
 5923SOL    HW218669   5.404   0.376   2.061
 5924SOL     OW18670   6.179   2.096   5.340
 5924SOL    HW118671   6.096   2.103   5.395
 5924SOL    HW218672   6.247   2.161   5.374
 5925SOL     OW18673   4.033   5.683   3.333
 5925SOL    HW118674   3.979   5.761   3.365
 5925SOL    HW218675   4.092   5.711   3.257
 5926SOL     OW18676   4.010   5.147   1.957
 5926SOL    HW118677   4.062   5.231   1.968
 5926SOL    HW218678   3.996   5.105   2.047
 5927SOL     OW18679   1.436   4.261   3.549
 5927SOL    HW118680   1.340   4.274   3.522
 5927SOL    HW218681   1.460   4.164   3.539
 5928SOL     OW18682   3.095   0.645   1.887
 5928SOL    HW118683   3.158   0.722   1.876
 5928SOL    HW218684   3.015   0.675   1.941
 5929SOL     OW18685   0.995   6.305   5.654
 5929SOL    HW118686   0.904   6.266   5.665
 5929SOL    HW218687   0.991   6.404   5.673
 5930SOL     OW18688   6.856   1.178   3.415
 5930SOL    HW118689   6.778   1.183   3.353
 5930SOL    HW218690   6.824   1.160   3.508
 5931SOL     OW18691   5.551   5.263   3.171
 5931SOL    HW118692   5.525   5.301   3.082
 5931SOL    HW218693   5.474   5.267   3.233
 5932SOL     OW18694   2.882   5.981   0.943
 5932SOL    HW118695   2.879   5.886   0.974
 5932SOL    HW218696   2.794   6.025   0.960
 5933SOL     OW18697   0.103   5.343   3.125
 5933SOL    HW118698   0.060   5.296   3.048
 5933SOL    HW218699   0.050   5.424   3.148
 5934SOL     OW18700   4.047   3.767   4.329
 5934SOL    HW118701   4.080   3.685   4.376
 5934SOL    HW218702   3.970   3.806   4.379
 5935SOL     OW18703   4.157   3.538   5.137
 5935SOL    HW118704   4.155   3.466   5.206
 5935SOL    HW218705   4.248   3.580   5.134
 5936SOL     OW18706   4.178   3.424   0.142
 5936SOL    HW118707   4.275   3.447   0.152
 5936SOL    HW218708   4.167   3.325   0.142
 5937SOL     OW18709   0.702   4.910   2.302
 5937SOL    HW118710   0.743   4.872   2.385
 5937SOL    HW218711   0.679   4.836   2.240
 5938SOL     OW18712   1.430   5.724   4.226
 5938SOL    HW118713   1.497   5.726   4.151
 5938SOL    HW218714   1.431   5.812   4.273
 5939SOL     OW18715   3.289   0.446   3.547
 5939SOL    HW118716   3.335   0.361   3.575
 5939SOL    HW218717   3.190   0.432   3.548
 5940SOL     OW18718   4.343   5.672   2.344
 5940SOL    HW118719   4.282   5.611   2.294
 5940SOL    HW218720   4.332   5.765   2.311
 5941SOL     OW18721   6.509   3.708   2.238
 5941SOL    HW118722   6.442   3.645   2.276
 5941SOL    HW218723   6.564   3.661   2.169
 5942SOL     OW18724   4.715   2.600   6.746
 5942SOL    HW118725   4.635   2.564   6.698
 5942SOL    HW218726   4.691   2.687   6.789
 5943SOL     OW18727   3.614   5.635   0.974
 5943SOL    HW118728   3.686   5.686   1.021
 5943SOL    HW218729   3.622   5.538   0.996
 5944SOL     OW18730   5.309   1.886   1.487
 5944SOL    HW118731   5.239   1.832   1.533
 5944SOL    HW218732   5.308   1.979   1.524
 5945SOL     OW18733   6.778   5.298   5.366
 5945SOL    HW118734   6.752   5.290   5.462
 5945SOL    HW218735   6.832   5.381   5.353
 5946SOL     OW18736   3.358   3.006   5.598
 5946SOL    HW118737   3.405   2.918   5.599
 5946SOL    HW218738   3.416   3.075   5.555
 5947SOL     OW18739   3.976   3.017   1.883
 5947SOL    HW118740   3.981   3.004   1.982
 5947SOL    HW218741   4.049   3.078   1.854
 5948SOL     OW18742   3.490   4.904   3.754
 5948SOL    HW118743   3.442   4.890   3.840
 5948SOL    HW218744   3.589   4.904   3.771
 5949SOL     OW18745   3.787   3.278   1.305
 5949SOL    HW118746   3.775   3.317   1.397
 5949SOL    HW218747   3.719   3.207   1.289
 5950SOL     OW18748   6.118   3.280   5.537
 5950SOL    HW118749   6.073   3.288   5.626
 5950SOL    HW218750   6.197   3.219   5.545
 5951SOL     OW18751   0.749   5.514   5.012
 5951SOL    HW118752   0.754   5.447   4.937
 5951SOL    HW218753   0.655   5.545   5.023
 5952SOL     OW18754   5.404   5.253   4.211
 5952SOL    HW118755   5.322   5.277   4.264
 5952SOL    HW218756   5.478   5.316   4.234
 5953SOL     OW18757   6.781   2.945   5.700
 5953SOL    HW118758   6.792   3.029   5.648
 5953SOL    HW218759   6.801   2.963   5.796
 5954SOL     OW18760   0.185   4.607   5.823
 5954SOL    HW118761   0.165   4.672   5.750
 5954SOL    HW218762   0.274   4.564   5.806
 5955SOL     OW18763   5.377   5.460   2.456
 5955SOL    HW118764   5.403   5.521   2.530
 5955SOL    HW218765   5.427   5.374   2.463
 5956SOL     OW18766   3.506   1.813   0.285
 5956SOL    HW118767   3.492   1.846   0.378
 5956SOL    HW218768   3.546   1.721   0.287
 5957SOL     OW18769   4.902   0.270   5.369
 5957SOL    HW118770   4.930   0.364   5.389
 5957SOL    HW218771   4.883   0.260   5.272
 5958SOL     OW18772   6.604   6.190   2.872
 5958SOL    HW118773   6.627   6.137   2.790
 5958SOL    HW218774   6.546   6.267   2.847
 5959SOL     OW18775   3.574   1.595   5.489
 5959SOL    HW118776   3.535   1.508   5.460
 5959SOL    HW218777   3.524   1.631   5.568
 5960SOL     OW18778   3.973   6.449   4.733
 5960SOL    HW118779   3.919   6.507   4.794
 5960SOL    HW218780   4.029   6.386   4.786
 5961SOL     OW18781   5.021   0.997   3.868
 5961SOL    HW118782   4.967   0.981   3.786
 5961SOL    HW218783   4.989   0.937   3.942
 5962SOL     OW18784   5.108   5.379   2.063
 5962SOL    HW118785   5.096   5.289   2.106
 5962SOL    HW218786   5.083   5.372   1.966
 5963SOL     OW18787   3.225   2.991   4.809
 5963SOL    HW118788   3.187   2.990   4.901
 5963SOL    HW218789   3.311   2.940   4.807
 5964SOL     OW18790   0.402   5.263   5.739
 5964SOL    HW118791   0.365   5.356   5.739
 5964SOL    HW218792   0.483   5.260   5.798
 5965SOL     OW18793   1.679   2.013   6.243
 5965SOL    HW118794   1.712   2.040   6.152
 5965SOL    HW218795   1.591   1.967   6.234
 5966SOL     OW18796   3.182   5.812   5.176
 5966SOL    HW118797   3.277   5.820   5.146
 5966SOL    HW218798   3.151   5.901   5.210
 5967SOL     OW18799   4.263   6.643   1.439
 5967SOL    HW118800   4.272   6.546   1.417
 5967SOL    HW218801   4.218   6.690   1.364
 5968SOL     OW18802   5.051   0.889   2.610
 5968SOL    HW118803   4.997   0.839   2.543
 5968SOL    HW218804   5.122   0.941   2.563
 5969SOL     OW18805   6.627   1.030   5.864
 5969SOL    HW118806   6.660   1.013   5.957
 5969SOL    HW218807   6.529   1.050   5.867
 5970SOL     OW18808   0.618   4.588   2.681
 5970SOL    HW118809   0.549   4.630   2.741
 5970SOL    HW218810   0.610   4.628   2.590
 5971SOL     OW18811   2.124   0.986   3.116
 5971SOL    HW118812   2.186   0.939   3.053
 5971SOL    HW218813   2.072   1.056   3.066
 5972SOL     OW18814   5.598   6.372   0.283
 5972SOL    HW118815   5.609   6.309   0.360
 5972SOL    HW218816   5.504   6.368   0.249
 5973SOL     OW18817   1.702   5.218   2.447
 5973SOL    HW118818   1.639   5.209   2.370
 5973SOL    HW218819   1.657   5.264   2.523
 5974SOL     OW18820   5.499   4.581   6.767
 5974SOL    HW118821   5.438   4.655   6.794
 5974SOL    HW218822   5.514   4.520   6.845
 5975SOL     OW18823   3.154   2.139   0.109
 5975SOL    HW118824   3.170   2.204   0.184
 5975SOL    HW218825   3.063   2.099   0.118
 5976SOL     OW18826   3.225   4.023   4.538
 5976SOL    HW118827   3.244   4.008   4.440
 5976SOL    HW218828   3.147   3.968   4.565
 5977SOL     OW18829   1.750   4.939   1.863
 5977SOL    HW118830   1.747   4.906   1.957
 5977SOL    HW218831   1.776   4.864   1.802
 5978SOL     OW18832   5.179   5.245   3.497
 5978SOL    HW118833   5.127   5.176   3.546
 5978SOL    HW218834   5.211   5.315   3.562
 5979SOL     OW18835   6.224   0.221   2.881
 5979SOL    HW118836   6.286   0.296   2.905
 5979SOL    HW218837   6.262   0.135   2.913
 5980SOL     OW18838   3.850   3.761   0.273
 5980SOL    HW118839   3.920   3.707   0.227
 5980SOL    HW218840   3.888   3.800   0.357
 5981SOL     OW18841   6.442   0.524   2.258
 5981SOL    HW118842   6.457   0.443   2.200
 5981SOL    HW218843   6.491   0.602   2.219
 5982SOL     OW18844   6.487   2.395   0.207
 5982SOL    HW118845   6.536   2.456   0.269
 5982SOL    HW218846   6.416   2.346   0.257
 5983SOL     OW18847   1.947   1.286   4.880
 5983SOL    HW118848   1.976   1.320   4.790
 5983SOL    HW218849   1.863   1.334   4.907
 5984SOL     OW18850   6.577   6.664   5.079
 5984SOL    HW118851   6.643   6.604   5.124
 5984SOL    HW218852   6.510   6.696   5.146
 5985SOL     OW18853   5.769   2.919   4.065
 5985SOL    HW118854   5.672   2.900   4.079
 5985SOL    HW218855   5.800   2.875   3.981
 5986SOL     OW18856   3.270   3.614   3.521
 5986SOL    HW118857   3.175   3.626   3.551
 5986SOL    HW218858   3.289   3.676   3.445
 5987SOL     OW18859   4.298   1.164   4.975
 5987SOL    HW118860   4.323   1.178   4.879
 5987SOL    HW218861   4.372   1.199   5.033
 5988SOL     OW18862   4.454   6.933   5.076
 5988SOL    HW118863   4.549   6.919   5.103
 5988SOL    HW218864   4.441   6.905   4.981
 5989SOL     OW18865   2.733   5.853   6.469
 5989SOL    HW118866   2.790   5.850   6.552
 5989SOL    HW218867   2.711   5.949   6.448
 5990SOL     OW18868   3.636   4.667   0.455
 5990SOL    HW118869   3.539   4.649   0.471
 5990SOL    HW218870   3.680   4.584   0.422
 5991SOL     OW18871   4.096   5.291   5.672
 5991SOL    HW118872   4.097   5.358   5.598
 5991SOL    HW218873   4.016   5.232   5.662
 5992SOL     OW18874   3.715   0.905   3.545
 5992SOL    HW118875   3.698   0.892   3.447
 5992SOL    HW218876   3.629   0.903   3.595
 5993SOL     OW18877   3.178   6.734   6.220
 5993SOL    HW118878   3.156   6.831   6.233
 5993SOL    HW218879   3.277   6.722   6.226
 5994SOL     OW18880   6.335   1.616   1.797
 5994SOL    HW118881   6.292   1.536   1.838
 5994SOL    HW218882   6.420   1.637   1.844
 5995SOL     OW18883   6.233   3.989   2.766
 5995SOL    HW118884   6.285   4.000   2.851
 5995SOL    HW218885   6.150   4.044   2.770
 5996SOL     OW18886   0.726   5.795   0.957
 5996SOL    HW118887   0.632   5.765   0.943
 5996SOL    HW218888   0.736   5.890   0.926
 5997SOL     OW18889   0.657   6.332   2.573
 5997SOL    HW118890   0.574   6.276   2.581
 5997SOL    HW218891   0.699   6.343   2.663
 5998SOL     OW18892   5.755   2.555   1.873
 5998SOL    HW118893   5.835   2.550   1.813
 5998SOL    HW218894   5.708   2.467   1.874
 5999SOL     OW18895   1.183   1.870   2.521
 5999SOL    HW118896   1.238   1.951   2.544
 5999SOL    HW218897   1.093   1.899   2.488
 6000SOL     OW18898   4.177   6.955   2.035
 6000SOL    HW118899   4.108   6.992   2.097
 6000SOL    HW218900   4.135   6.891   1.971
 6001SOL     OW18901   0.457   4.041   6.414
 6001SOL    HW118902   0.470   4.112   6.483
 6001SOL    HW218903   0.386   4.070   6.350
 6002SOL     OW18904   0.529   0.366   1.001
 6002SOL    HW118905   0.559   0.393   0.910
 6002SOL    HW218906   0.548   0.439   1.066
 6003SOL     OW18907   6.909   1.913   4.460
 6003SOL    HW118908   6.947   2.002   4.482
 6003SOL    HW218909   6.879   1.867   4.543
 6004SOL     OW18910   6.667   4.329   2.748
 6004SOL    HW118911   6.613   4.249   2.724
 6004SOL    HW218912   6.764   4.310   2.732
 6005SOL     OW18913   4.660   4.870   5.164
 6005SOL    HW118914   4.567   4.840   5.144
 6005SOL    HW218915   4.659   4.965   5.195
 6006SOL     OW18916   3.375   6.917   7.010
 6006SOL    HW118917   3.411   6.902   0.075
 6006SOL    HW218918   3.293   6.974   7.015
 6007SOL     OW18919   5.263   3.818   4.807
 6007SOL    HW118920   5.214   3.756   4.869
 6007SOL    HW218921   5.203   3.893   4.781
 6008SOL     OW18922   2.071   5.511   6.262
 6008SOL    HW118923   2.099   5.573   6.335
 6008SOL    HW218924   2.103   5.545   6.174
 6009SOL     OW18925   3.409   0.786   4.908
 6009SOL    HW118926   3.395   0.782   5.007
 6009SOL    HW218927   3.320   0.779   4.862
 6010SOL     OW18928   1.480   4.026   2.302
 6010SOL    HW118929   1.517   3.939   2.333
 6010SOL    HW218930   1.554   4.093   2.294
 6011SOL     OW18931   4.427   2.440   2.787
 6011SOL    HW118932   4.352   2.506   2.788
 6011SOL    HW218933   4.390   2.347   2.789
 6012SOL     OW18934   6.425   1.609   0.581
 6012SOL    HW118935   6.482   1.550   0.638
 6012SOL    HW218936   6.338   1.627   0.627
 6013SOL     OW18937   5.290   1.744   2.977
 6013SOL    HW118938   5.361   1.756   3.047
 6013SOL    HW218939   5.310   1.803   2.899
 6014SOL     OW18940   4.180   1.963   0.815
 6014SOL    HW118941   4.207   1.903   0.739
 6014SOL    HW218942   4.148   2.050   0.779
 6015SOL     OW18943   5.534   1.986   5.730
 6015SOL    HW118944   5.534   2.061   5.665
 6015SOL    HW218945   5.444   1.979   5.773
 6016SOL     OW18946   0.419   1.638   6.524
 6016SOL    HW118947   0.325   1.669   6.531
 6016SOL    HW218948   0.420   1.542   6.495
 6017SOL     OW18949   6.153   4.652   2.676
 6017SOL    HW118950   6.215   4.577   2.655
 6017SOL    HW218951   6.134   4.705   2.593
 6018SOL     OW18952   3.284   1.325   0.025
 6018SOL    HW118953   3.371   1.310   7.003
 6018SOL    HW218954   3.238   1.405   7.013
 6019SOL     OW18955   5.498   1.701   4.630
 6019SOL    HW118956   5.540   1.611   4.637
 6019SOL    HW218957   5.472   1.718   4.534
 6020SOL     OW18958   1.864   6.078   2.125
 6020SOL    HW118959   1.849   5.992   2.174
 6020SOL    HW218960   1.792   6.143   2.148
 6021SOL     OW18961   4.088   0.567   2.287
 6021SOL    HW118962   4.028   0.490   2.309
 6021SOL    HW218963   4.041   0.628   2.223
 6022SOL     OW18964   4.607   0.871   5.187
 6022SOL    HW118965   4.603   0.970   5.200
 6022SOL    HW218966   4.599   0.850   5.089
 6023SOL     OW18967   5.989   1.488   2.435
 6023SOL    HW118968   5.911   1.485   2.498
 6023SOL    HW218969   6.068   1.446   2.479
 6024SOL     OW18970   0.662   4.172   3.128
 6024SOL    HW118971   0.582   4.127   3.090
 6024SOL    HW218972   0.672   4.146   3.224
 6025SOL     OW18973   3.568   1.125   2.029
 6025SOL    HW118974   3.471   1.101   2.034
 6025SOL    HW218975   3.593   1.182   2.107
 6026SOL     OW18976   0.033   3.767   4.139
 6026SOL    HW118977   0.063   3.694   4.078
 6026SOL    HW218978   0.039   3.855   4.090
 6027SOL     OW18979   1.745   4.360   5.437
 6027SOL    HW118980   1.807   4.363   5.360
 6027SOL    HW218981   1.791   4.318   5.515
 6028SOL     OW18982   1.006   3.493   0.487
 6028SOL    HW118983   0.960   3.559   0.427
 6028SOL    HW218984   1.074   3.542   0.542
 6029SOL     OW18985   1.877   6.095   5.405
 6029SOL    HW118986   1.848   6.028   5.337
 6029SOL    HW218987   1.976   6.108   5.399
 6030SOL     OW18988   3.534   6.690   2.918
 6030SOL    HW118989   3.621   6.645   2.898
 6030SOL    HW218990   3.497   6.657   3.004
 6031SOL     OW18991   3.949   5.124   4.088
 6031SOL    HW118992   3.861   5.080   4.103
 6031SOL    HW218993   4.008   5.064   4.035
 6032SOL     OW18994   2.118   3.303   2.871
 6032SOL    HW118995   2.161   3.394   2.868
 6032SOL    HW218996   2.019   3.313   2.857
 6033SOL     OW18997   2.505   2.001   2.462
 6033SOL    HW118998   2.429   1.988   2.527
 6033SOL    HW218999   2.571   1.927   2.473
 6034SOL     OW19000   1.296   6.144   4.829
 6034SOL    HW119001   1.223   6.077   4.843
 6034SOL    HW219002   1.292   6.214   4.900
 6035SOL     OW19003   6.663   0.850   3.280
 6035SOL    HW119004   6.758   0.869   3.307
 6035SOL    HW219005   6.602   0.869   3.357
 6036SOL     OW19006   0.055   6.272   4.125
 6036SOL    HW119007   0.013   6.358   4.097
 6036SOL    HW219008   0.103   6.232   4.047
 6037SOL     OW19009   4.412   4.725   6.398
 6037SOL    HW119010   4.398   4.635   6.355
 6037SOL    HW219011   4.480   4.717   6.471
 6038SOL     OW19012   1.230   3.522   6.412
 6038SOL    HW119013   1.321   3.513   6.371
 6038SOL    HW219014   1.168   3.564   6.346
 6039SOL     OW19015   3.157   2.954   2.821
 6039SOL    HW119016   3.163   2.949   2.721
 6039SOL    HW219017   3.117   3.042   2.847
 6040SOL     OW19018   0.953   1.851   6.441
 6040SOL    HW119019   1.019   1.871   6.369
 6040SOL    HW219020   0.916   1.937   6.477
 6041SOL     OW19021   2.124   1.398   5.055
 6041SOL    HW119022   2.080   1.406   5.145
 6041SOL    HW219023   2.061   1.355   4.991
 6042SOL     OW19024   5.119   5.111   2.173
 6042SOL    HW119025   5.209   5.116   2.129
 6042SOL    HW219026   5.075   5.025   2.146
 6043SOL     OW19027   0.937   4.530   5.112
 6043SOL    HW119028   0.900   4.482   5.192
 6043SOL    HW219029   0.963   4.464   5.042
 6044SOL     OW19030   1.049   2.410   0.712
 6044SOL    HW119031   1.045   2.503   0.748
 6044SOL    HW219032   0.964   2.390   0.663
 6045SOL     OW19033   5.694   5.680   1.436
 6045SOL    HW119034   5.723   5.677   1.532
 6045SOL    HW219035   5.720   5.594   1.391
 6046SOL     OW19036   2.783   1.593   0.446
 6046SOL    HW119037   2.840   1.667   0.482
 6046SOL    HW219038   2.687   1.616   0.458
 6047SOL     OW19039   6.226   1.600   2.186
 6047SOL    HW119040   6.193   1.665   2.255
 6047SOL    HW219041   6.153   1.583   2.119
 6048SOL     OW19042   4.672   6.659   3.489
 6048SOL    HW119043   4.588   6.640   3.438
 6048SOL    HW219044   4.666   6.750   3.530
 6049SOL     OW19045   5.133   3.887   5.813
 6049SOL    HW119046   5.213   3.832   5.791
 6049SOL    HW219047   5.161   3.970   5.861
 6050SOL     OW19048   3.113   4.337   5.401
 6050SOL    HW119049   3.206   4.306   5.381
 6050SOL    HW219050   3.059   4.260   5.435
 6051SOL     OW19051   2.440   1.488   3.889
 6051SOL    HW119052   2.453   1.419   3.961
 6051SOL    HW219053   2.525   1.539   3.877
 6052SOL     OW19054   6.524   6.379   0.169
 6052SOL    HW119055   6.527   6.390   0.268
 6052SOL    HW219056   6.430   6.361   0.140
 6053SOL     OW19057   3.789   0.893   6.702
 6053SOL    HW119058   3.791   0.993   6.703
 6053SOL    HW219059   3.799   0.860   6.608
 6054SOL     OW19060   2.778   4.194   0.489
 6054SOL    HW119061   2.851   4.234   0.545
 6054SOL    HW219062   2.763   4.250   0.408
 6055SOL     OW19063   5.031   1.162   5.344
 6055SOL    HW119064   5.108   1.102   5.368
 6055SOL    HW219065   5.016   1.228   5.417
 6056SOL     OW19066   5.209   3.425   4.956
 6056SOL    HW119067   5.304   3.453   4.972
 6056SOL    HW219068   5.204   3.370   4.873
 6057SOL     OW19069   5.126   2.454   4.659
 6057SOL    HW119070   5.177   2.540   4.665
 6057SOL    HW219071   5.154   2.393   4.733
 6058SOL     OW19072   4.954   2.825   2.569
 6058SOL    HW119073   4.902   2.821   2.654
 6058SOL    HW219074   4.905   2.881   2.503
 6059SOL     OW19075   4.623   5.869   5.529
 6059SOL    HW119076   4.595   5.956   5.487
 6059SOL    HW219077   4.717   5.848   5.501
 6060SOL     OW19078   2.882   4.058   5.979
 6060SOL    HW119079   2.871   4.137   6.040
 6060SOL    HW219080   2.844   3.976   6.022
 6061SOL     OW19081   4.385   2.162   0.487
 6061SOL    HW119082   4.298   2.125   0.455
 6061SOL    HW219083   4.372   2.208   0.575
 6062SOL     OW19084   2.127   0.529   4.502
 6062SOL    HW119085   2.070   0.469   4.446
 6062SOL    HW219086   2.221   0.528   4.467
 6063SOL     OW19087   3.858   1.463   6.829
 6063SOL    HW119088   3.783   1.510   6.876
 6063SOL    HW219089   3.868   1.500   6.737
 6064SOL     OW19090   3.016   6.132   2.357
 6064SOL    HW119091   3.006   6.089   2.447
 6064SOL    HW219092   2.936   6.112   2.301
 6065SOL     OW19093   5.741   0.088   2.327
 6065SOL    HW119094   5.682   0.009   2.311
 6065SOL    HW219095   5.817   0.087   2.262
 6066SOL     OW19096   4.525   1.840   0.461
 6066SOL    HW119097   4.526   1.913   0.529
 6066SOL    HW219098   4.566   1.874   0.376
 6067SOL     OW19099   5.410   2.401   6.556
 6067SOL    HW119100   5.342   2.347   6.605
 6067SOL    HW219101   5.366   2.450   6.481
 6068SOL     OW19102   5.622   2.652   4.874
 6068SOL    HW119103   5.701   2.705   4.904
 6068SOL    HW219104   5.589   2.687   4.787
 6069SOL     OW19105   0.375   3.464   5.287
 6069SOL    HW119106   0.447   3.440   5.222
 6069SOL    HW219107   0.362   3.563   5.287
 6070SOL     OW19108   2.119   1.800   6.191
 6070SOL    HW119109   2.103   1.732   6.120
 6070SOL    HW219110   2.198   1.772   6.247
 6071SOL     OW19111   4.930   5.400   4.790
 6071SOL    HW119112   4.968   5.471   4.849
 6071SOL    HW219113   4.844   5.367   4.830
 6072SOL     OW19114   0.233   1.029   1.769
 6072SOL    HW119115   0.240   0.932   1.747
 6072SOL    HW219116   0.224   1.082   1.685
 6073SOL     OW19117   6.854   3.842   0.507
 6073SOL    HW119118   6.800   3.769   0.464
 6073SOL    HW219119   6.794   3.919   0.528
 6074SOL     OW19120   0.896   6.545   4.476
 6074SOL    HW119121   0.816   6.580   4.428
 6074SOL    HW219122   0.971   6.610   4.468
 6075SOL     OW19123   0.266   2.356   6.520
 6075SOL    HW119124   0.237   2.291   6.591
 6075SOL    HW219125   0.233   2.447   6.544
 6076SOL     OW19126   2.924   5.737   5.240
 6076SOL    HW119127   3.022   5.751   5.223
 6076SOL    HW219128   2.893   5.800   5.311
 6077SOL     OW19129   4.709   5.400   1.956
 6077SOL    HW119130   4.655   5.424   2.036
 6077SOL    HW219131   4.788   5.462   1.948
 6078SOL     OW19132   3.866   4.810   1.866
 6078SOL    HW119133   3.782   4.784   1.914
 6078SOL    HW219134   3.870   4.763   1.778
 6079SOL     OW19135   3.370   3.827   6.045
 6079SOL    HW119136   3.325   3.902   6.094
 6079SOL    HW219137   3.300   3.769   6.004
 6080SOL     OW19138   0.232   1.445   1.821
 6080SOL    HW119139   0.210   1.487   1.909
 6080SOL    HW219140   0.296   1.370   1.834
 6081SOL     OW19141   6.198   3.586   4.731
 6081SOL    HW119142   6.120   3.589   4.794
 6081SOL    HW219143   6.282   3.570   4.782
 6082SOL     OW19144   3.520   1.444   3.641
 6082SOL    HW119145   3.520   1.501   3.559
 6082SOL    HW219146   3.541   1.500   3.721
 6083SOL     OW19147   0.401   5.974   6.178
 6083SOL    HW119148   0.378   5.880   6.203
 6083SOL    HW219149   0.331   6.012   6.118
 6084SOL     OW19150   0.499   5.523   3.880
 6084SOL    HW119151   0.587   5.504   3.925
 6084SOL    HW219152   0.425   5.494   3.940
 6085SOL     OW19153   0.212   4.580   0.004
 6085SOL    HW119154   0.208   4.535   0.093
 6085SOL    HW219155   0.161   4.527   6.964
 6086SOL     OW19156   3.094   1.367   5.135
 6086SOL    HW119157   3.078   1.462   5.162
 6086SOL    HW219158   3.021   1.336   5.075
 6087SOL     OW19159   5.079   6.010   6.881
 6087SOL    HW119160   4.982   6.032   6.894
 6087SOL    HW219161   5.133   6.060   6.949
 6088SOL     OW19162   6.604   6.013   4.701
 6088SOL    HW119163   6.555   5.929   4.723
 6088SOL    HW219164   6.625   6.015   4.603
 6089SOL     OW19165   0.754   3.476   1.194
 6089SOL    HW119166   0.682   3.496   1.261
 6089SOL    HW219167   0.795   3.387   1.214
 6090SOL     OW19168   1.686   6.088   6.355
 6090SOL    HW119169   1.739   6.164   6.317
 6090SOL    HW219170   1.699   6.007   6.297
 6091SOL     OW19171   1.203   1.783   2.249
 6091SOL    HW119172   1.233   1.832   2.168
 6091SOL    HW219173   1.211   1.843   2.329
 6092SOL     OW19174   2.813   0.261   3.234
 6092SOL    HW119175   2.809   0.238   3.137
 6092SOL    HW219176   2.892   0.320   3.251
 6093SOL     OW19177   1.118   2.517   3.083
 6093SOL    HW119178   1.085   2.451   3.016
 6093SOL    HW219179   1.213   2.541   3.062
 6094SOL     OW19180   3.807   0.723   1.060
 6094SOL    HW119181   3.844   0.646   1.112
 6094SOL    HW219182   3.824   0.808   1.108
 6095SOL     OW19183   5.043   2.919   6.597
 6095SOL    HW119184   4.985   2.852   6.642
 6095SOL    HW219185   5.120   2.873   6.553
 6096SOL     OW19186   5.756   0.649   3.452
 6096SOL    HW119187   5.795   0.600   3.375
 6096SOL    HW219188   5.826   0.710   3.491
 6097SOL     OW19189   1.537   0.307   1.878
 6097SOL    HW119190   1.554   0.257   1.963
 6097SOL    HW219191   1.575   0.399   1.884
 6098SOL     OW19192   1.577   2.159   6.440
 6098SOL    HW119193   1.607   2.103   6.363
 6098SOL    HW219194   1.597   2.111   6.526
 6099SOL     OW19195   6.847   5.924   0.080
 6099SOL    HW119196   6.754   5.947   0.050
 6099SOL    HW219197   6.882   5.849   0.023
 6100SOL     OW19198   5.493   2.917   6.817
 6100SOL    HW119199   5.412   2.966   6.850
 6100SOL    HW219200   5.478   2.818   6.824
 6101SOL     OW19201   6.094   1.761   5.626
 6101SOL    HW119202   6.030   1.799   5.559
 6101SOL    HW219203   6.043   1.727   5.705
 6102SOL     OW19204   4.144   0.845   4.117
 6102SOL    HW119205   4.104   0.913   4.180
 6102SOL    HW219206   4.241   0.834   4.137
 6103SOL     OW19207   0.261   1.354   3.255
 6103SOL    HW119208   0.231   1.379   3.347
 6103SOL    HW219209   0.360   1.367   3.247
 6104SOL     OW19210   6.566   2.932   6.241
 6104SOL    HW119211   6.654   2.932   6.194
 6104SOL    HW219212   6.571   2.872   6.321
 6105SOL     OW19213   2.582   0.138   5.921
 6105SOL    HW119214   2.604   0.209   5.854
 6105SOL    HW219215   2.654   0.069   5.921
 6106SOL     OW19216   1.134   4.729   5.835
 6106SOL    HW119217   1.220   4.680   5.851
 6106SOL    HW219218   1.134   4.814   5.887
 6107SOL     OW19219   2.450   5.036   4.381
 6107SOL    HW119220   2.517   4.999   4.317
 6107SOL    HW219221   2.404   5.115   4.340
 6108SOL     OW19222   0.593   2.469   3.439
 6108SOL    HW119223   0.610   2.482   3.537
 6108SOL    HW219224   0.601   2.557   3.393
 6109SOL     OW19225   5.438   3.340   6.158
 6109SOL    HW119226   5.528   3.321   6.119
 6109SOL    HW219227   5.400   3.423   6.116
 6110SOL     OW19228   3.774   3.413   0.009
 6110SOL    HW119229   3.752   3.332   6.981
 6110SOL    HW219230   3.690   3.450   0.048
 6111SOL     OW19231   1.855   4.794   2.726
 6111SOL    HW119232   1.950   4.786   2.697
 6111SOL    HW219233   1.799   4.826   2.649
 6112SOL     OW19234   3.407   1.441   3.344
 6112SOL    HW119235   3.386   1.363   3.402
 6112SOL    HW219236   3.498   1.429   3.303
 6113SOL     OW19237   6.940   0.517   6.040
 6113SOL    HW119238   0.001   0.564   6.034
 6113SOL    HW219239   6.951   0.432   6.092
 6114SOL     OW19240   4.995   4.586   1.293
 6114SOL    HW119241   4.950   4.655   1.350
 6114SOL    HW219242   4.927   4.520   1.261
 6115SOL     OW19243   5.693   5.978   3.003
 6115SOL    HW119244   5.710   6.028   3.088
 6115SOL    HW219245   5.726   6.031   2.925
 6116SOL     OW19246   2.878   1.071   1.251
 6116SOL    HW119247   2.907   1.141   1.186
 6116SOL    HW219248   2.782   1.086   1.276
 6117SOL     OW19249   6.869   0.121   5.814
 6117SOL    HW119250   6.777   0.149   5.842
 6117SOL    HW219251   6.869   0.105   5.715
 6118SOL     OW19252   6.791   1.109   1.833
 6118SOL    HW119253   6.780   1.102   1.733
 6118SOL    HW219254   6.847   1.189   1.854
 6119SOL     OW19255   0.970   3.332   3.787
 6119SOL    HW119256   0.889   3.293   3.744
 6119SOL    HW219257   0.960   3.329   3.886
 6120SOL     OW19258   3.709   6.653   3.732
 6120SOL    HW119259   3.800   6.696   3.740
 6120SOL    HW219260   3.644   6.720   3.697
 6121SOL     OW19261   0.232   3.061   4.437
 6121SOL    HW119262   0.212   3.055   4.535
 6121SOL    HW219263   0.321   3.106   4.424
 6122SOL     OW19264   3.540   6.772   1.476
 6122SOL    HW119265   3.528   6.676   1.500
 6122SOL    HW219266   3.455   6.822   1.495
 6123SOL     OW19267   6.482   0.316   0.016
 6123SOL    HW119268   6.489   0.244   0.086
 6123SOL    HW219269   6.573   0.334   7.005
 6124SOL     OW19270   3.287   0.574   5.721
 6124SOL    HW119271   3.383   0.552   5.739
 6124SOL    HW219272   3.242   0.495   5.680
 6125SOL     OW19273   2.919   5.748   1.078
 6125SOL    HW119274   2.913   5.662   1.026
 6125SOL    HW219275   2.839   5.756   1.137
 6126SOL     OW19276   6.085   6.829   4.458
 6126SOL    HW119277   6.154   6.768   4.419
 6126SOL    HW219278   6.129   6.913   4.489
 6127SOL     OW19279   2.272   0.602   2.356
 6127SOL    HW119280   2.357   0.604   2.410
 6127SOL    HW219281   2.225   0.689   2.365
 6128SOL     OW19282   6.721   3.505   0.681
 6128SOL    HW119283   6.721   3.497   0.780
 6128SOL    HW219284   6.655   3.441   0.642
 6129SOL     OW19285   6.008   4.324   3.500
 6129SOL    HW119286   5.971   4.318   3.593
 6129SOL    HW219287   6.075   4.398   3.496
 6130SOL     OW19288   5.956   1.874   4.138
 6130SOL    HW119289   5.862   1.849   4.163
 6130SOL    HW219290   6.017   1.853   4.214
 6131SOL     OW19291   6.797   1.622   5.376
 6131SOL    HW119292   6.833   1.643   5.466
 6131SOL    HW219293   6.854   1.552   5.332
 6132SOL     OW19294   4.745   1.135   0.487
 6132SOL    HW119295   4.825   1.171   0.535
 6132SOL    HW219296   4.696   1.209   0.442
 6133SOL     OW19297   0.926   2.886   2.681
 6133SOL    HW119298   0.938   2.970   2.733
 6133SOL    HW219299   1.014   2.857   2.644
 6134SOL     OW19300   3.469   4.370   0.354
 6134SOL    HW119301   3.429   4.347   0.443
 6134SOL    HW219302   3.564   4.401   0.367
 6135SOL     OW19303   0.249   6.734   2.028
 6135SOL    HW119304   0.283   6.767   1.939
 6135SOL    HW219305   0.320   6.745   2.097
 6136SOL     OW19306   0.778   2.150   2.324
 6136SOL    HW119307   0.800   2.218   2.394
 6136SOL    HW219308   0.802   2.186   2.234
 6137SOL     OW19309   4.401   1.714   4.959
 6137SOL    HW119310   4.333   1.655   4.916
 6137SOL    HW219311   4.463   1.659   5.016
 6138SOL     OW19312   3.686   6.917   2.859
 6138SOL    HW119313   3.752   6.890   2.929
 6138SOL    HW219314   3.613   6.849   2.853
 6139SOL     OW19315   2.056   2.847   4.509
 6139SOL    HW119316   2.008   2.799   4.436
 6139SOL    HW219317   2.111   2.921   4.470
 6140SOL     OW19318   0.415   6.357   1.349
 6140SOL    HW119319   0.366   6.270   1.345
 6140SOL    HW219320   0.501   6.345   1.398
 6141SOL     OW19321   6.252   5.921   5.084
 6141SOL    HW119322   6.250   5.825   5.055
 6141SOL    HW219323   6.304   5.975   5.019
 6142SOL     OW19324   6.921   5.173   0.940
 6142SOL    HW119325   6.989   5.157   0.868
 6142SOL    HW219326   6.881   5.086   0.968
 6143SOL     OW19327   6.104   4.837   0.251
 6143SOL    HW119328   6.194   4.815   0.289
 6143SOL    HW219329   6.098   4.803   0.157
 6144SOL     OW19330   6.167   4.816   2.427
 6144SOL    HW119331   6.085   4.868   2.446
 6144SOL    HW219332   6.241   4.877   2.399
 6145SOL     OW19333   4.612   5.795   4.210
 6145SOL    HW119334   4.632   5.708   4.254
 6145SOL    HW219335   4.515   5.801   4.189
 6146SOL     OW19336   4.124   1.101   3.710
 6146SOL    HW119337   4.034   1.081   3.673
 6146SOL    HW219338   4.139   1.200   3.710
 6147SOL     OW19339   1.711   4.446   4.138
 6147SOL    HW119340   1.744   4.384   4.066
 6147SOL    HW219341   1.767   4.434   4.220
 6148SOL     OW19342   6.800   0.355   4.685
 6148SOL    HW119343   6.887   0.335   4.731
 6148SOL    HW219344   6.777   0.451   4.697
 6149SOL     OW19345   3.106   4.961   2.750
 6149SOL    HW119346   3.205   4.953   2.758
 6149SOL    HW219347   3.073   4.896   2.681
 6150SOL     OW19348   3.841   4.836   6.781
 6150SOL    HW119349   3.868   4.918   6.731
 6150SOL    HW219350   3.741   4.834   6.790
 6151SOL     OW19351   6.016   4.242   4.320
 6151SOL    HW119352   6.049   4.320   4.268
 6151SOL    HW219353   5.979   4.173   4.258
 6152SOL     OW19354   5.639   5.009   5.451
 6152SOL    HW119355   5.714   5.073   5.432
 6152SOL    HW219356   5.642   4.934   5.385
 6153SOL     OW19357   4.430   3.797   1.609
 6153SOL    HW119358   4.384   3.739   1.676
 6153SOL    HW219359   4.459   3.882   1.652
 6154SOL     OW19360   4.994   1.565   2.440
 6154SOL    HW119361   5.088   1.551   2.472
 6154SOL    HW219362   4.984   1.523   2.350
 6155SOL     OW19363   1.657   2.106   4.515
 6155SOL    HW119364   1.668   2.130   4.612
 6155SOL    HW219365   1.725   2.036   4.491
 6156SOL     OW19366   4.399   4.855   2.564
 6156SOL    HW119367   4.478   4.797   2.544
 6156SOL    HW219368   4.411   4.944   2.519
 6157SOL     OW19369   1.215   1.662   4.343
 6157SOL    HW119370   1.120   1.658   4.314
 6157SOL    HW219371   1.220   1.678   4.442
 6158SOL     OW19372   4.388   0.755   6.639
 6158SOL    HW119373   4.420   0.850   6.632
 6158SOL    HW219374   4.290   0.755   6.656
 6159SOL     OW19375   4.538   2.428   0.776
 6159SOL    HW119376   4.608   2.357   0.776
 6159SOL    HW219377   4.452   2.390   0.744
 6160SOL     OW19378   5.550   6.104   0.392
 6160SOL    HW119379   5.459   6.145   0.397
 6160SOL    HW219380   5.552   6.036   0.319
 6161SOL     OW19381   6.002   2.248   5.714
 6161SOL    HW119382   5.957   2.328   5.755
 6161SOL    HW219383   6.031   2.185   5.787
 6162SOL     OW19384   0.757   5.558   3.970
 6162SOL    HW119385   0.778   5.596   4.060
 6162SOL    HW219386   0.823   5.487   3.947
 6163SOL     OW19387   5.091   6.002   1.793
 6163SOL    HW119388   5.083   6.036   1.887
 6163SOL    HW219389   5.062   6.073   1.729
 6164SOL     OW19390   1.852   3.228   1.862
 6164SOL    HW119391   1.942   3.221   1.818
 6164SOL    HW219392   1.865   3.242   1.960
 6165SOL     OW19393   3.860   6.820   6.279
 6165SOL    HW119394   3.905   6.732   6.297
 6165SOL    HW219395   3.816   6.852   6.363
 6166SOL     OW19396   3.904   0.836   5.394
 6166SOL    HW119397   3.914   0.931   5.426
 6166SOL    HW219398   3.858   0.782   5.464
 6167SOL     OW19399   7.026   4.611   2.143
 6167SOL    HW119400   0.085   4.652   2.174
 6167SOL    HW219401   6.953   4.635   2.206
 6168SOL     OW19402   0.623   3.531   0.481
 6168SOL    HW119403   0.616   3.433   0.458
 6168SOL    HW219404   0.680   3.542   0.562
 6169SOL     OW19405   0.849   3.652   2.444
 6169SOL    HW119406   0.821   3.740   2.480
 6169SOL    HW219407   0.926   3.664   2.381
 6170SOL     OW19408   0.786   3.618   4.890
 6170SOL    HW119409   0.856   3.665   4.837
 6170SOL    HW219410   0.765   3.670   4.973
 6171SOL     OW19411   0.731   1.422   0.389
 6171SOL    HW119412   0.679   1.341   0.360
 6171SOL    HW219413   0.820   1.422   0.343
 6172SOL     OW19414   1.181   2.966   2.922
 6172SOL    HW119415   1.114   2.902   2.960
 6172SOL    HW219416   1.242   2.997   2.995
 6173SOL     OW19417   6.837   5.472   3.522
 6173SOL    HW119418   6.813   5.386   3.477
 6173SOL    HW219419   6.757   5.531   3.527
 6174SOL     OW19420   4.623   5.213   4.095
 6174SOL    HW119421   4.649   5.275   4.169
 6174SOL    HW219422   4.668   5.124   4.107
 6175SOL     OW19423   3.740   0.757   4.230
 6175SOL    HW119424   3.747   0.822   4.154
 6175SOL    HW219425   3.738   0.808   4.316
 6176SOL     OW19426   4.596   3.817   5.339
 6176SOL    HW119427   4.688   3.829   5.303
 6176SOL    HW219428   4.562   3.726   5.315
 6177SOL     OW19429   5.371   1.850   2.209
 6177SOL    HW119430   5.369   1.894   2.119
 6177SOL    HW219431   5.398   1.754   2.199
 6178SOL     OW19432   5.100   3.670   2.195
 6178SOL    HW119433   5.183   3.626   2.229
 6178SOL    HW219434   5.056   3.721   2.270
 6179SOL     OW19435   6.584   4.765   2.082
 6179SOL    HW119436   6.610   4.800   1.992
 6179SOL    HW219437   6.516   4.693   2.072
 6180SOL     OW19438   3.147   5.020   0.994
 6180SOL    HW119439   3.102   5.099   0.952
 6180SOL    HW219440   3.226   5.051   1.047
 6181SOL     OW19441   5.172   6.392   6.042
 6181SOL    HW119442   5.266   6.363   6.055
 6181SOL    HW219443   5.124   6.389   6.130
 6182SOL     OW19444   4.739   2.968   6.307
 6182SOL    HW119445   4.745   2.870   6.325
 6182SOL    HW219446   4.715   3.016   6.391
 6183SOL     OW19447   1.826   2.180   1.995
 6183SOL    HW119448   1.839   2.124   2.078
 6183SOL    HW219449   1.825   2.120   1.915
 6184SOL     OW19450   3.129   0.253   6.230
 6184SOL    HW119451   3.186   0.319   6.180
 6184SOL    HW219452   3.110   0.288   6.321
 6185SOL     OW19453   1.708   4.667   5.875
 6185SOL    HW119454   1.722   4.711   5.964
 6185SOL    HW219455   1.753   4.578   5.875
 6186SOL     OW19456   6.477   1.209   1.971
 6186SOL    HW119457   6.456   1.223   1.874
 6186SOL    HW219458   6.555   1.147   1.979
 6187SOL     OW19459   4.989   3.124   5.020
 6187SOL    HW119460   4.969   3.216   5.051
 6187SOL    HW219461   4.946   3.108   4.931
 6188SOL     OW19462   1.618   1.790   5.835
 6188SOL    HW119463   1.653   1.849   5.762
 6188SOL    HW219464   1.619   1.695   5.805
 6189SOL     OW19465   3.717   5.055   2.716
 6189SOL    HW119466   3.721   4.974   2.775
 6189SOL    HW219467   3.671   5.031   2.630
 6190SOL     OW19468   6.506   3.292   5.241
 6190SOL    HW119469   6.526   3.194   5.240
 6190SOL    HW219470   6.588   3.342   5.268
 6191SOL     OW19471   2.476   3.325   5.945
 6191SOL    HW119472   2.393   3.354   5.993
 6191SOL    HW219473   2.523   3.256   5.999
 6192SOL     OW19474   2.616   2.169   6.572
 6192SOL    HW119475   2.584   2.163   6.477
 6192SOL    HW219476   2.587   2.257   6.611
 6193SOL     OW19477   4.813   6.096   1.200
 6193SOL    HW119478   4.718   6.066   1.209
 6193SOL    HW219479   4.863   6.034   1.140
 6194SOL     OW19480   6.316   0.530   6.326
 6194SOL    HW119481   6.226   0.541   6.285
 6194SOL    HW219482   6.356   0.443   6.296
 6195SOL     OW19483   5.588   6.268   4.681
 6195SOL    HW119484   5.588   6.191   4.617
 6195SOL    HW219485   5.650   6.339   4.647
 6196SOL     OW19486   4.626   4.278   2.538
 6196SOL    HW119487   4.631   4.288   2.438
 6196SOL    HW219488   4.547   4.329   2.572
 6197SOL     OW19489   2.507   5.430   2.257
 6197SOL    HW119490   2.546   5.340   2.276
 6197SOL    HW219491   2.411   5.431   2.283
 6198SOL     OW19492   4.750   6.445   0.290
 6198SOL    HW119493   4.678   6.510   0.266
 6198SOL    HW219494   4.820   6.445   0.218
 6199SOL     OW19495   0.810   0.939   0.348
 6199SOL    HW119496   0.906   0.923   0.368
 6199SOL    HW219497   0.770   0.858   0.306
 6200SOL     OW19498   0.487   1.631   3.938
 6200SOL    HW119499   0.555   1.699   3.911
 6200SOL    HW219500   0.533   1.554   3.981
 6201SOL     OW19501   0.629   3.343   4.295
 6201SOL    HW119502   0.707   3.283   4.310
 6201SOL    HW219503   0.594   3.375   4.383
 6202SOL     OW19504   5.715   1.394   2.283
 6202SOL    HW119505   5.663   1.313   2.310
 6202SOL    HW219506   5.812   1.373   2.280
 6203SOL     OW19507   5.843   5.206   2.059
 6203SOL    HW119508   5.914   5.273   2.080
 6203SOL    HW219509   5.884   5.129   2.010
 6204SOL     OW19510   0.976   6.154   5.095
 6204SOL    HW119511   1.042   6.090   5.135
 6204SOL    HW219512   0.987   6.155   4.995
 6205SOL     OW19513   5.505   4.334   1.357
 6205SOL    HW119514   5.435   4.265   1.343
 6205SOL    HW219515   5.585   4.293   1.400
 6206SOL     OW19516   5.534   1.325   3.236
 6206SOL    HW119517   5.560   1.408   3.188
 6206SOL    HW219518   5.563   1.331   3.332
 6207SOL     OW19519   1.829   6.162   4.632
 6207SOL    HW119520   1.836   6.077   4.684
 6207SOL    HW219521   1.877   6.152   4.545
 6208SOL     OW19522   3.147   2.459   5.685
 6208SOL    HW119523   3.086   2.441   5.762
 6208SOL    HW219524   3.096   2.506   5.613
 6209SOL     OW19525   3.363   5.426   0.639
 6209SOL    HW119526   3.460   5.422   0.664
 6209SOL    HW219527   3.309   5.453   0.719
 6210SOL     OW19528   5.319   3.818   3.029
 6210SOL    HW119529   5.277   3.729   3.008
 6210SOL    HW219530   5.342   3.822   3.126
 6211SOL     OW19531   3.818   5.983   5.612
 6211SOL    HW119532   3.723   5.955   5.600
 6211SOL    HW219533   3.821   6.069   5.663
 6212SOL     OW19534   2.282   4.819   3.995
 6212SOL    HW119535   2.262   4.721   3.991
 6212SOL    HW219536   2.370   4.834   4.040
 6213SOL     OW19537   4.580   6.608   6.830
 6213SOL    HW119538   4.574   6.631   6.733
 6213SOL    HW219539   4.547   6.514   6.844
 6214SOL     OW19540   5.832   5.636   5.606
 6214SOL    HW119541   5.915   5.685   5.633
 6214SOL    HW219542   5.776   5.619   5.687
 6215SOL     OW19543   4.105   3.023   6.011
 6215SOL    HW119544   4.057   3.107   5.985
 6215SOL    HW219545   4.190   3.046   6.059
 6216SOL     OW19546   5.819   2.447   3.010
 6216SOL    HW119547   5.802   2.352   2.985
 6216SOL    HW219548   5.732   2.496   3.013
 6217SOL     OW19549   0.951   5.318   2.111
 6217SOL    HW119550   0.961   5.235   2.165
 6217SOL    HW219551   1.039   5.340   2.067
 6218SOL     OW19552   3.899   6.358   0.188
 6218SOL    HW119553   3.925   6.267   0.217
 6218SOL    HW219554   3.948   6.426   0.244
 6219SOL     OW19555   1.975   0.828   5.228
 6219SOL    HW119556   2.002   0.767   5.153
 6219SOL    HW219557   2.043   0.824   5.301
 6220SOL     OW19558   3.257   0.725   6.734
 6220SOL    HW119559   3.202   0.643   6.747
 6220SOL    HW219560   3.303   0.748   6.820
 6221SOL     OW19561   6.384   6.485   6.532
 6221SOL    HW119562   6.481   6.489   6.555
 6221SOL    HW219563   6.368   6.410   6.469
 6222SOL     OW19564   6.273   0.499   2.456
 6222SOL    HW119565   6.288   0.558   2.536
 6222SOL    HW219566   6.317   0.538   2.376
 6223SOL     OW19567   0.942   5.422   3.171
 6223SOL    HW119568   1.024   5.418   3.228
 6223SOL    HW219569   0.944   5.505   3.115
 6224SOL     OW19570   4.001   1.543   5.584
 6224SOL    HW119571   3.934   1.470   5.567
 6224SOL    HW219572   4.079   1.506   5.634
 6225SOL     OW19573   3.961   2.609   6.894
 6225SOL    HW119574   3.918   2.544   6.958
 6225SOL    HW219575   4.012   2.559   6.825
 6226SOL     OW19576   1.220   1.356   3.535
 6226SOL    HW119577   1.124   1.380   3.520
 6226SOL    HW219578   1.278   1.417   3.481
 6227SOL     OW19579   3.044   4.604   5.353
 6227SOL    HW119580   3.067   4.518   5.397
 6227SOL    HW219581   2.965   4.591   5.292
 6228SOL     OW19582   0.617   2.330   3.906
 6228SOL    HW119583   0.659   2.245   3.874
 6228SOL    HW219584   0.546   2.309   3.973
 6229SOL     OW19585   7.023   3.047   5.298
 6229SOL    HW119586   0.052   3.024   5.218
 6229SOL    HW219587   7.016   2.968   5.358
 6230SOL     OW19588   1.310   2.102   3.557
 6230SOL    HW119589   1.307   2.110   3.457
 6230SOL    HW219590   1.227   2.056   3.589
 6231SOL     OW19591   5.459   5.554   0.695
 6231SOL    HW119592   5.524   5.608   0.641
 6231SOL    HW219593   5.509   5.505   0.767
 6232SOL     OW19594   6.042   1.241   0.794
 6232SOL    HW119595   5.965   1.235   0.729
 6232SOL    HW219596   6.060   1.336   0.815
 6233SOL     OW19597   6.982   3.447   1.863
 6233SOL    HW119598   0.048   3.445   1.901
 6233SOL    HW219599   6.948   3.541   1.864
 6234SOL     OW19600   0.209   0.216   5.132
 6234SOL    HW119601   0.143   0.201   5.206
 6234SOL    HW219602   0.223   0.130   5.083
 6235SOL     OW19603   0.070   0.824   1.645
 6235SOL    HW119604   0.043   0.730   1.624
 6235SOL    HW219605   0.039   0.847   1.737
 6236SOL     OW19606   6.949   4.253   0.720
 6236SOL    HW119607   6.986   4.215   0.635
 6236SOL    HW219608   6.927   4.179   0.784
 6237SOL     OW19609   3.277   6.715   0.233
 6237SOL    HW119610   3.332   6.766   0.300
 6237SOL    HW219611   3.301   6.618   0.237
 6238SOL     OW19612   3.859   6.578   3.472
 6238SOL    HW119613   3.816   6.585   3.562
 6238SOL    HW219614   3.950   6.619   3.475
 6239SOL     OW19615   3.480   0.418   1.768
 6239SOL    HW119616   3.453   0.510   1.739
 6239SOL    HW219617   3.510   0.420   1.863
 6240SOL     OW19618   3.312   3.831   4.790
 6240SOL    HW119619   3.281   3.809   4.882
 6240SOL    HW219620   3.290   3.927   4.770
 6241SOL     OW19621   3.951   0.340   4.055
 6241SOL    HW119622   3.994   0.420   4.096
 6241SOL    HW219623   3.907   0.285   4.126
 6242SOL     OW19624   2.474   0.944   3.859
 6242SOL    HW119625   2.494   1.036   3.826
 6242SOL    HW219626   2.422   0.894   3.789
 6243SOL     OW19627   6.762   0.918   5.361
 6243SOL    HW119628   6.789   1.012   5.340
 6243SOL    HW219629   6.837   0.872   5.407
 6244SOL     OW19630   4.952   4.216   3.488
 6244SOL    HW119631   4.871   4.257   3.446
 6244SOL    HW219632   4.924   4.154   3.561
 6245SOL     OW19633   0.898   5.146   1.765
 6245SOL    HW119634   0.908   5.169   1.862
 6245SOL    HW219635   0.864   5.225   1.715
 6246SOL     OW19636   0.950   0.759   4.342
 6246SOL    HW119637   0.985   0.709   4.421
 6246SOL    HW219638   0.876   0.707   4.300
 6247SOL     OW19639   1.251   5.977   3.374
 6247SOL    HW119640   1.326   6.043   3.366
 6247SOL    HW219641   1.276   5.907   3.440
 6248SOL     OW19642   3.300   3.704   0.191
 6248SOL    HW119643   3.277   3.672   0.282
 6248SOL    HW219644   3.225   3.684   0.128
 6249SOL     OW19645   6.963   2.699   1.585
 6249SOL    HW119646   6.940   2.761   1.510
 6249SOL    HW219647   6.891   2.703   1.655
 6250SOL     OW19648   6.840   6.331   0.835
 6250SOL    HW119649   6.931   6.369   0.851
 6250SOL    HW219650   6.773   6.406   0.834
 6251SOL     OW19651   3.962   5.799   4.400
 6251SOL    HW119652   3.952   5.827   4.304
 6251SOL    HW219653   3.940   5.875   4.460
 6252SOL     OW19654   2.874   4.938   0.162
 6252SOL    HW119655   2.861   5.035   0.142
 6252SOL    HW219656   2.954   4.927   0.220
 6253SOL     OW19657   2.513   4.917   4.786
 6253SOL    HW119658   2.581   4.915   4.860
 6253SOL    HW219659   2.522   5.003   4.736
 6254SOL     OW19660   0.870   6.256   1.186
 6254SOL    HW119661   0.858   6.319   1.109
 6254SOL    HW219662   0.800   6.185   1.181
 6255SOL     OW19663   1.588   2.676   0.761
 6255SOL    HW119664   1.592   2.576   0.757
 6255SOL    HW219665   1.652   2.708   0.831
 6256SOL     OW19666   4.685   5.101   2.717
 6256SOL    HW119667   4.780   5.083   2.690
 6256SOL    HW219668   4.683   5.176   2.783
 6257SOL     OW19669   4.180   3.119   0.281
 6257SOL    HW119670   4.273   3.150   0.299
 6257SOL    HW219671   4.125   3.128   0.364
 6258SOL     OW19672   3.660   0.087   5.519
 6258SOL    HW119673   3.603   0.039   5.586
 6258SOL    HW219674   3.687   0.023   5.447
 6259SOL     OW19675   1.856   1.434   6.074
 6259SOL    HW119676   1.834   1.337   6.083
 6259SOL    HW219677   1.865   1.476   6.164
 6260SOL     OW19678   1.939   0.470   0.960
 6260SOL    HW119679   1.956   0.401   1.030
 6260SOL    HW219680   2.001   0.456   0.883
 6261SOL     OW19681   5.496   6.666   0.944
 6261SOL    HW119682   5.555   6.635   0.870
 6261SOL    HW219683   5.416   6.713   0.906
 6262SOL     OW19684   0.456   6.206   2.700
 6262SOL    HW119685   0.406   6.264   2.765
 6262SOL    HW219686   0.518   6.146   2.751
 6263SOL     OW19687   0.002   6.627   4.823
 6263SOL    HW119688   0.031   6.638   4.728
 6263SOL    HW219689   6.988   6.536   4.835
 6264SOL     OW19690   1.208   6.780   1.042
 6264SOL    HW119691   1.118   6.803   1.081
 6264SOL    HW219692   1.280   6.820   1.099
 6265SOL     OW19693   3.949   2.220   0.454
 6265SOL    HW119694   3.994   2.303   0.420
 6265SOL    HW219695   3.858   2.212   0.412
 6266SOL     OW19696   3.700   6.728   3.290
 6266SOL    HW119697   3.768   6.685   3.351
 6266SOL    HW219698   3.624   6.664   3.276
 6267SOL     OW19699   1.335   6.537   5.210
 6267SOL    HW119700   1.417   6.583   5.177
 6267SOL    HW219701   1.310   6.573   5.300
 6268SOL     OW19702   3.533   0.526   2.232
 6268SOL    HW119703   3.596   0.517   2.309
 6268SOL    HW219704   3.522   0.622   2.209
 6269SOL     OW19705   5.711   6.153   1.425
 6269SOL    HW119706   5.623   6.198   1.416
 6269SOL    HW219707   5.713   6.071   1.368
 6270SOL     OW19708   0.585   6.454   0.193
 6270SOL    HW119709   0.557   6.440   0.098
 6270SOL    HW219710   0.530   6.395   0.253
 6271SOL     OW19711   6.009   2.655   6.797
 6271SOL    HW119712   6.073   2.666   6.721
 6271SOL    HW219713   6.059   2.630   6.879
 6272SOL     OW19714   0.468   0.624   0.006
 6272SOL    HW119715   0.467   0.585   0.098
 6272SOL    HW219716   0.503   0.557   6.968
 6273SOL     OW19717   0.917   6.332   3.556
 6273SOL    HW119718   0.995   6.309   3.498
 6273SOL    HW219719   0.892   6.253   3.612
 6274SOL     OW19720   2.523   6.554   4.633
 6274SOL    HW119721   2.473   6.601   4.560
 6274SOL    HW219722   2.458   6.514   4.697
 6275SOL     OW19723   2.337   6.170   0.543
 6275SOL    HW119724   2.304   6.224   0.465
 6275SOL    HW219725   2.353   6.076   0.514
 6276SOL     OW19726   3.450   5.845   3.297
 6276SOL    HW119727   3.533   5.790   3.307
 6276SOL    HW219728   3.397   5.810   3.219
 6277SOL     OW19729   5.115   1.719   1.068
 6277SOL    HW119730   5.094   1.803   1.117
 6277SOL    HW219731   5.214   1.709   1.059
 6278SOL     OW19732   3.536   0.444   5.875
 6278SOL    HW119733   3.620   0.413   5.919
 6278SOL    HW219734   3.531   0.407   5.782
 6279SOL     OW19735   3.600   6.364   0.584
 6279SOL    HW119736   3.592   6.432   0.511
 6279SOL    HW219737   3.693   6.326   0.586
 6280SOL     OW19738   0.190   1.420   6.519
 6280SOL    HW119739   0.092   1.423   6.535
 6280SOL    HW219740   0.208   1.426   6.421
 6281SOL     OW19741   5.956   5.007   3.751
 6281SOL    HW119742   6.019   5.071   3.707
 6281SOL    HW219743   6.005   4.952   3.819
 6282SOL     OW19744   6.017   3.605   4.928
 6282SOL    HW119745   5.996   3.595   5.025
 6282SOL    HW219746   5.958   3.675   4.888
 6283SOL     OW19747   1.053   5.241   4.567
 6283SOL    HW119748   0.967   5.289   4.580
 6283SOL    HW219749   1.044   5.146   4.599
 6284SOL     OW19750   1.181   5.498   6.589
 6284SOL    HW119751   1.121   5.562   6.541
 6284SOL    HW219752   1.208   5.537   6.677
 6285SOL     OW19753   1.630   3.589   3.666
 6285SOL    HW119754   1.682   3.514   3.626
 6285SOL    HW219755   1.680   3.628   3.743
 6286SOL     OW19756   6.351   3.540   4.291
 6286SOL    HW119757   6.442   3.574   4.313
 6286SOL    HW219758   6.358   3.455   4.240
 6287SOL     OW19759   4.057   4.961   5.591
 6287SOL    HW119760   4.135   4.987   5.648
 6287SOL    HW219761   3.993   5.037   5.586
 6288SOL     OW19762   3.983   4.318   1.120
 6288SOL    HW119763   3.950   4.410   1.142
 6288SOL    HW219764   3.908   4.253   1.131
 6289SOL     OW19765   2.515   4.164   6.709
 6289SOL    HW119766   2.429   4.127   6.673
 6289SOL    HW219767   2.508   4.263   6.717
 6290SOL     OW19768   6.651   5.126   6.457
 6290SOL    HW119769   6.711   5.177   6.518
 6290SOL    HW219770   6.662   5.160   6.364
 6291SOL     OW19771   4.105   3.183   3.088
 6291SOL    HW119772   4.061   3.099   3.122
 6291SOL    HW219773   4.105   3.251   3.161
 6292SOL     OW19774   2.170   2.497   4.629
 6292SOL    HW119775   2.075   2.469   4.616
 6292SOL    HW219776   2.215   2.432   4.690
 6293SOL     OW19777   4.524   1.578   0.531
 6293SOL    HW119778   4.542   1.619   0.620
 6293SOL    HW219779   4.514   1.650   0.462
 6294SOL     OW19780   4.216   0.363   3.408
 6294SOL    HW119781   4.277   0.398   3.337
 6294SOL    HW219782   4.137   0.425   3.417
 6295SOL     OW19783   5.466   5.043   4.939
 6295SOL    HW119784   5.508   4.962   4.897
 6295SOL    HW219785   5.492   5.048   5.035
 6296SOL     OW19786   0.626   4.275   5.709
 6296SOL    HW119787   0.708   4.218   5.712
 6296SOL    HW219788   0.638   4.346   5.641
 6297SOL     OW19789   6.077   7.003   5.166
 6297SOL    HW119790   6.103   0.015   5.255
 6297SOL    HW219791   5.986   0.009   5.141
 6298SOL     OW19792   6.625   4.851   6.437
 6298SOL    HW119793   6.629   4.946   6.468
 6298SOL    HW219794   6.643   4.847   6.338
 6299SOL     OW19795   5.779   2.742   2.175
 6299SOL    HW119796   5.722   2.786   2.106
 6299SOL    HW219797   5.850   2.687   2.130
 6300SOL     OW19798   4.539   1.095   6.857
 6300SOL    HW119799   4.458   1.095   6.799
 6300SOL    HW219800   4.554   1.186   6.895
 6301SOL     OW19801   3.127   6.942   6.508
 6301SOL    HW119802   3.059   6.957   6.580
 6301SOL    HW219803   3.088   6.968   6.420
 6302SOL     OW19804   2.234   1.707   5.272
 6302SOL    HW119805   2.233   1.747   5.180
 6302SOL    HW219806   2.211   1.778   5.339
 6303SOL     OW19807   1.215   6.758   5.690
 6303SOL    HW119808   1.290   6.816   5.659
 6303SOL    HW219809   1.242   6.709   5.772
 6304SOL     OW19810   3.734   1.871   3.266
 6304SOL    HW119811   3.760   1.967   3.269
 6304SOL    HW219812   3.812   1.817   3.234
 6305SOL     OW19813   6.208   6.171   6.883
 6305SOL    HW119814   6.152   6.225   6.946
 6305SOL    HW219815   6.286   6.226   6.853
 6306SOL     OW19816   0.533   3.310   3.723
 6306SOL    HW119817   0.558   3.389   3.668
 6306SOL    HW219818   0.616   3.263   3.753
 6307SOL     OW19819   3.572   3.227   4.191
 6307SOL    HW119820   3.645   3.294   4.175
 6307SOL    HW219821   3.502   3.236   4.120
 6308SOL     OW19822   0.535   1.940   5.932
 6308SOL    HW119823   0.542   2.031   5.891
 6308SOL    HW219824   0.480   1.881   5.873
 6309SOL     OW19825   0.247   6.959   4.355
 6309SOL    HW119826   0.165   7.003   4.393
 6309SOL    HW219827   0.223   6.869   4.320
 6310SOL     OW19828   2.226   6.588   3.094
 6310SOL    HW119829   2.290   6.569   3.169
 6310SOL    HW219830   2.181   6.676   3.109
 6311SOL     OW19831   5.166   1.173   6.961
 6311SOL    HW119832   5.086   1.137   7.008
 6311SOL    HW219833   5.177   1.126   6.873
 6312SOL     OW19834   1.730   6.819   6.621
 6312SOL    HW119835   1.749   6.840   6.525
 6312SOL    HW219836   1.742   6.902   6.676
 6313SOL     OW19837   5.587   6.858   3.608
 6313SOL    HW119838   5.643   6.790   3.655
 6313SOL    HW219839   5.599   6.848   3.509
 6314SOL     OW19840   3.639   0.082   1.370
 6314SOL    HW119841   3.660   0.163   1.316
 6314SOL    HW219842   3.598   0.109   1.457
 6315SOL     OW19843   2.308   2.352   4.845
 6315SOL    HW119844   2.333   2.427   4.906
 6315SOL    HW219845   2.391   2.311   4.807
 6316SOL     OW19846   4.907   1.821   5.910
 6316SOL    HW119847   4.924   1.736   5.960
 6316SOL    HW219848   4.809   1.837   5.904
 6317SOL     OW19849   5.238   4.093   3.043
 6317SOL    HW119850   5.259   4.000   3.012
 6317SOL    HW219851   5.174   4.136   2.979
 6318SOL     OW19852   5.736   0.365   0.083
 6318SOL    HW119853   5.821   0.342   0.131
 6318SOL    HW219854   5.660   0.316   0.125
 6319SOL     OW19855   5.819   1.983   4.697
 6319SOL    HW119856   5.854   2.051   4.633
 6319SOL    HW219857   5.751   2.026   4.757
 6320SOL     OW19858   0.063   0.420   3.563
 6320SOL    HW119859   0.112   0.502   3.533
 6320SOL    HW219860   7.018   0.399   3.496
 6321SOL     OW19861   5.027   3.933   0.268
 6321SOL    HW119862   5.096   3.989   0.223
 6321SOL    HW219863   5.061   3.839   0.277
 6322SOL     OW19864   2.610   1.670   0.714
 6322SOL    HW119865   2.696   1.618   0.712
 6322SOL    HW219866   2.567   1.667   0.624
 6323SOL     OW19867   1.882   3.247   1.489
 6323SOL    HW119868   1.865   3.224   1.393
 6323SOL    HW219869   1.948   3.183   1.527
 6324SOL     OW19870   4.148   1.440   1.006
 6324SOL    HW119871   4.235   1.479   0.977
 6324SOL    HW219872   4.137   1.453   1.105
 6325SOL     OW19873   1.276   2.169   2.601
 6325SOL    HW119874   1.359   2.153   2.547
 6325SOL    HW219875   1.268   2.266   2.621
 6326SOL     OW19876   4.635   5.404   5.670
 6326SOL    HW119877   4.587   5.402   5.583
 6326SOL    HW219878   4.660   5.311   5.697
 6327SOL     OW19879   0.065   1.527   3.408
 6327SOL    HW119880   0.132   1.565   3.473
 6327SOL    HW219881   7.000   1.542   3.444
 6328SOL     OW19882   4.879   4.011   6.925
 6328SOL    HW119883   4.784   3.984   6.909
 6328SOL    HW219884   4.934   3.930   6.943
 6329SOL     OW19885   0.971   2.664   4.692
 6329SOL    HW119886   1.007   2.731   4.627
 6329SOL    HW219887   0.910   2.600   4.644
 6330SOL     OW19888   5.676   0.744   2.746
 6330SOL    HW119889   5.593   0.741   2.691
 6330SOL    HW219890   5.694   0.653   2.784
 6331SOL     OW19891   6.483   2.904   4.829
 6331SOL    HW119892   6.413   2.931   4.894
 6331SOL    HW219893   6.442   2.889   4.739
 6332SOL     OW19894   1.227   2.093   1.555
 6332SOL    HW119895   1.234   2.193   1.560
 6332SOL    HW219896   1.175   2.067   1.474
 6333SOL     OW19897   5.141   0.117   6.857
 6333SOL    HW119898   5.236   0.148   6.851
 6333SOL    HW219899   5.082   0.194   6.882
 6334SOL     OW19900   2.673   1.551   1.698
 6334SOL    HW119901   2.652   1.592   1.787
 6334SOL    HW219902   2.597   1.567   1.636
 6335SOL     OW19903   4.759   1.391   0.707
 6335SOL    HW119904   4.831   1.351   0.650
 6335SOL    HW219905   4.742   1.485   0.679
 6336SOL     OW19906   6.889   4.260   6.535
 6336SOL    HW119907   6.838   4.290   6.454
 6336SOL    HW219908   6.968   4.320   6.548
 6337SOL     OW19909   4.581   6.044   5.111
 6337SOL    HW119910   4.591   5.945   5.113
 6337SOL    HW219911   4.580   6.076   5.016
 6338SOL     OW19912   2.931   1.421   4.530
 6338SOL    HW119913   3.006   1.371   4.487
 6338SOL    HW219914   2.960   1.456   4.618
 6339SOL     OW19915   1.171   3.592   3.019
 6339SOL    HW119916   1.218   3.611   2.933
 6339SOL    HW219917   1.072   3.597   3.004
 6340SOL     OW19918   2.277   3.807   1.330
 6340SOL    HW119919   2.301   3.724   1.379
 6340SOL    HW219920   2.295   3.795   1.233
 6341SOL     OW19921   0.919   3.504   3.332
 6341SOL    HW119922   1.017   3.486   3.342
 6341SOL    HW219923   0.876   3.427   3.286
 6342SOL     OW19924   3.415   1.403   0.897
 6342SOL    HW119925   3.495   1.348   0.871
 6342SOL    HW219926   3.343   1.392   0.828
 6343SOL     OW19927   3.567   6.674   0.085
 6343SOL    HW119928   3.612   6.598   0.039
 6343SOL    HW219929   3.479   6.644   0.122
 6344SOL     OW19930   5.974   2.278   4.023
 6344SOL    HW119931   5.936   2.313   3.938
 6344SOL    HW219932   6.034   2.201   4.004
 6345SOL     OW19933   5.046   3.336   1.812
 6345SOL    HW119934   5.023   3.410   1.876
 6345SOL    HW219935   4.968   3.274   1.804
 6346SOL     OW19936   6.552   4.332   5.098
 6346SOL    HW119937   6.587   4.422   5.075
 6346SOL    HW219938   6.601   4.262   5.046
 6347SOL     OW19939   2.754   1.742   2.091
 6347SOL    HW119940   2.680   1.677   2.110
 6347SOL    HW219941   2.756   1.763   1.993
 6348SOL     OW19942   0.789   1.881   5.811
 6348SOL    HW119943   0.798   1.796   5.759
 6348SOL    HW219944   0.730   1.944   5.761
 6349SOL     OW19945   1.416   0.391   0.185
 6349SOL    HW119946   1.482   0.316   0.183
 6349SOL    HW219947   1.334   0.365   0.133
 6350SOL     OW19948   0.764   4.953   2.913
 6350SOL    HW119949   0.814   4.934   2.829
 6350SOL    HW219950   0.686   5.012   2.893
 6351SOL     OW19951   6.328   3.950   3.811
 6351SOL    HW119952   6.343   4.034   3.757
 6351SOL    HW219953   6.303   3.975   3.904
 6352SOL     OW19954   2.756   0.960   3.543
 6352SOL    HW119955   2.786   1.054   3.561
 6352SOL    HW219956   2.779   0.902   3.622
 6353SOL     OW19957   2.631   5.113   0.247
 6353SOL    HW119958   2.691   5.092   0.324
 6353SOL    HW219959   2.537   5.124   0.279
 6354SOL     OW19960   4.431   5.662   2.712
 6354SOL    HW119961   4.402   5.733   2.648
 6354SOL    HW219962   4.386   5.576   2.688
 6355SOL     OW19963   3.166   5.704   0.715
 6355SOL    HW119964   3.135   5.798   0.723
 6355SOL    HW219965   3.218   5.678   0.797
 6356SOL     OW19966   5.526   4.933   0.027
 6356SOL    HW119967   5.536   4.834   0.012
 6356SOL    HW219968   5.564   4.957   0.116
 6357SOL     OW19969   5.983   2.898   1.793
 6357SOL    HW119970   5.897   2.915   1.841
 6357SOL    HW219971   5.965   2.851   1.706
 6358SOL     OW19972   0.792   2.011   6.778
 6358SOL    HW119973   0.760   1.918   6.756
 6358SOL    HW219974   0.814   2.016   6.875
 6359SOL     OW19975   5.985   6.665   0.424
 6359SOL    HW119976   5.977   6.736   0.494
 6359SOL    HW219977   5.930   6.586   0.450
 6360SOL     OW19978   0.340   3.104   3.861
 6360SOL    HW119979   0.327   3.177   3.795
 6360SOL    HW219980   0.399   3.136   3.935
 6361SOL     OW19981   0.577   0.940   0.775
 6361SOL    HW119982   0.614   0.869   0.714
 6361SOL    HW219983   0.495   0.979   0.733
 6362SOL     OW19984   1.644   6.331   6.860
 6362SOL    HW119985   1.626   6.233   6.847
 6362SOL    HW219986   1.712   6.361   6.793
 6363SOL     OW19987   2.585   4.593   3.855
 6363SOL    HW119988   2.568   4.610   3.758
 6363SOL    HW219989   2.645   4.664   3.891
 6364SOL     OW19990   2.329   1.951   4.814
 6364SOL    HW119991   2.343   2.049   4.799
 6364SOL    HW219992   2.416   1.903   4.809
 6365SOL     OW19993   5.968   5.978   4.942
 6365SOL    HW119994   5.947   5.931   5.028
 6365SOL    HW219995   5.886   5.984   4.886
 6366SOL     OW19996   6.737   6.816   4.915
 6366SOL    HW119997   6.678   6.766   4.978
 6366SOL    HW219998   6.712   6.794   4.821
 6367SOL     OW19999   3.178   1.911   2.593
 6367SOL    HW120000   3.217   1.995   2.630
 6367SOL    HW220001   3.173   1.918   2.493
 6368SOL     OW20002   4.336   4.607   4.353
 6368SOL    HW120003   4.414   4.612   4.415
 6368SOL    HW220004   4.273   4.682   4.375
 6369SOL     OW20005   2.003   6.405   5.099
 6369SOL    HW120006   1.927   6.375   5.041
 6369SOL    HW220007   2.078   6.339   5.094
 6370SOL     OW20008   4.904   4.046   3.743
 6370SOL    HW120009   4.839   4.110   3.785
 6370SOL    HW220010   4.855   3.983   3.683
 6371SOL     OW20011   5.442   3.960   1.888
 6371SOL    HW120012   5.418   4.041   1.941
 6371SOL    HW220013   5.511   3.906   1.938
 6372SOL     OW20014   0.101   0.953   2.530
 6372SOL    HW120015   0.182   1.007   2.506
 6372SOL    HW220016   0.093   0.877   2.466
 6373SOL     OW20017   5.823   3.854   2.368
 6373SOL    HW120018   5.882   3.844   2.288
 6373SOL    HW220019   5.816   3.951   2.393
 6374SOL     OW20020   4.054   2.726   0.091
 6374SOL    HW120021   4.017   2.710   0.000
 6374SOL    HW220022   4.121   2.655   0.112
 6375SOL     OW20023   1.165   2.808   2.547
 6375SOL    HW120024   1.232   2.796   2.474
 6375SOL    HW220025   1.212   2.827   2.633
 6376SOL     OW20026   4.085   1.658   5.894
 6376SOL    HW120027   3.997   1.612   5.876
 6376SOL    HW220028   4.157   1.590   5.901
 6377SOL     OW20029   6.857   1.170   5.819
 6377SOL    HW120030   6.866   1.268   5.799
 6377SOL    HW220031   6.762   1.149   5.841
 6378SOL     OW20032   4.836   5.766   3.549
 6378SOL    HW120033   4.808   5.821   3.627
 6378SOL    HW220034   4.774   5.783   3.472
 6379SOL     OW20035   1.104   4.455   5.539
 6379SOL    HW120036   1.058   4.374   5.503
 6379SOL    HW220037   1.155   4.501   5.466
 6380SOL     OW20038   0.543   2.968   4.187
 6380SOL    HW120039   0.567   2.974   4.284
 6380SOL    HW220040   0.548   2.873   4.157
 6381SOL     OW20041   4.039   2.458   0.378
 6381SOL    HW120042   4.043   2.519   0.457
 6381SOL    HW220043   4.111   2.482   0.313
 6382SOL     OW20044   2.749   1.553   1.424
 6382SOL    HW120045   2.761   1.548   1.523
 6382SOL    HW220046   2.675   1.616   1.402
 6383SOL     OW20047   1.237   2.444   2.258
 6383SOL    HW120048   1.307   2.461   2.328
 6383SOL    HW220049   1.201   2.531   2.225
 6384SOL     OW20050   5.774   2.709   2.455
 6384SOL    HW120051   5.735   2.775   2.520
 6384SOL    HW220052   5.754   2.739   2.362
 6385SOL     OW20053   6.285   4.070   1.735
 6385SOL    HW120054   6.297   3.991   1.674
 6385SOL    HW220055   6.260   4.150   1.680
 6386SOL     OW20056   1.561   4.300   0.681
 6386SOL    HW120057   1.657   4.317   0.703
 6386SOL    HW220058   1.520   4.242   0.752
 6387SOL     OW20059   5.924   1.410   0.275
 6387SOL    HW120060   5.945   1.455   0.361
 6387SOL    HW220061   6.009   1.393   0.224
 6388SOL     OW20062   6.541   4.564   2.527
 6388SOL    HW120063   6.637   4.556   2.555
 6388SOL    HW220064   6.514   4.660   2.525
 6389SOL     OW20065   1.801   6.864   1.001
 6389SOL    HW120066   1.748   6.926   1.058
 6389SOL    HW220067   1.753   6.850   0.914
 6390SOL     OW20068   6.099   0.535   6.667
 6390SOL    HW120069   6.116   0.438   6.654
 6390SOL    HW220070   6.182   0.587   6.645
 6391SOL     OW20071   1.515   1.372   6.152
 6391SOL    HW120072   1.435   1.359   6.211
 6391SOL    HW220073   1.484   1.402   6.062
 6392SOL     OW20074   3.327   6.143   3.900
 6392SOL    HW120075   3.255   6.190   3.951
 6392SOL    HW220076   3.286   6.094   3.823
 6393SOL     OW20077   5.487   6.136   1.724
 6393SOL    HW120078   5.495   6.042   1.757
 6393SOL    HW220079   5.487   6.136   1.624
 6394SOL     OW20080   1.569   4.882   1.085
 6394SOL    HW120081   1.513   4.815   1.037
 6394SOL    HW220082   1.516   4.921   1.161
 6395SOL     OW20083   0.039   3.672   2.385
 6395SOL    HW120084   0.095   3.744   2.344
 6395SOL    HW220085   6.990   3.713   2.436
 6396SOL     OW20086   6.432   3.765   5.944
 6396SOL    HW120087   6.481   3.784   6.029
 6396SOL    HW220088   6.343   3.811   5.945
 6397SOL     OW20089   6.355   0.932   2.239
 6397SOL    HW120090   6.291   1.009   2.243
 6397SOL    HW220091   6.307   0.850   2.208
 6398SOL     OW20092   1.330   6.796   1.325
 6398SOL    HW120093   1.347   6.750   1.412
 6398SOL    HW220094   1.404   6.859   1.305
 6399SOL     OW20095   1.916   0.098   0.014
 6399SOL    HW120096   1.886   0.009   0.049
 6399SOL    HW220097   1.869   0.171   0.064
 6400SOL     OW20098   2.017   5.403   2.714
 6400SOL    HW120099   2.071   5.361   2.641
 6400SOL    HW220100   1.956   5.472   2.675
 6401SOL     OW20101   4.826   4.796   2.982
 6401SOL    HW120102   4.875   4.881   2.964
 6401SOL    HW220103   4.727   4.814   2.983
 6402SOL     OW20104   1.496   3.035   3.749
 6402SOL    HW120105   1.544   3.103   3.694
 6402SOL    HW220106   1.484   2.951   3.697
 6403SOL     OW20107   5.505   6.566   4.896
 6403SOL    HW120108   5.527   6.575   4.799
 6403SOL    HW220109   5.406   6.554   4.906
 6404SOL     OW20110   3.676   1.458   2.573
 6404SOL    HW120111   3.695   1.400   2.652
 6404SOL    HW220112   3.761   1.495   2.537
 6405SOL     OW20113   4.655   1.727   3.957
 6405SOL    HW120114   4.715   1.650   3.981
 6405SOL    HW220115   4.578   1.693   3.902
 6406SOL     OW20116   1.194   3.305   2.607
 6406SOL    HW120117   1.223   3.218   2.645
 6406SOL    HW220118   1.099   3.297   2.574
 6407SOL     OW20119   1.847   6.547   3.199
 6407SOL    HW120120   1.920   6.616   3.206
 6407SOL    HW220121   1.772   6.572   3.259
 6408SOL     OW20122   6.517   0.582   1.123
 6408SOL    HW120123   6.456   0.596   1.045
 6408SOL    HW220124   6.475   0.619   1.206
 6409SOL     OW20125   6.557   4.766   3.345
 6409SOL    HW120126   6.470   4.759   3.394
 6409SOL    HW220127   6.551   4.715   3.259
 6410SOL     OW20128   2.495   1.366   6.479
 6410SOL    HW120129   2.554   1.446   6.472
 6410SOL    HW220130   2.481   1.327   6.387
 6411SOL     OW20131   0.634   2.872   1.960
 6411SOL    HW120132   0.718   2.911   1.922
 6411SOL    HW220133   0.555   2.924   1.928
 6412SOL     OW20134   3.008   0.587   6.380
 6412SOL    HW120135   2.972   0.677   6.402
 6412SOL    HW220136   2.941   0.537   6.326
 6413SOL     OW20137   3.979   4.904   4.475
 6413SOL    HW120138   3.887   4.928   4.446
 6413SOL    HW220139   4.024   4.849   4.404
 6414SOL     OW20140   6.782   6.896   6.488
 6414SOL    HW120141   6.830   6.957   6.425
 6414SOL    HW220142   6.788   6.802   6.455
 6415SOL     OW20143   1.590   3.151   3.179
 6415SOL    HW120144   1.553   3.060   3.162
 6415SOL    HW220145   1.687   3.152   3.158
 6416SOL     OW20146   2.802   6.817   6.465
 6416SOL    HW120147   2.783   6.724   6.497
 6416SOL    HW220148   2.779   6.882   6.537
 6417SOL     OW20149   5.175   2.373   1.147
 6417SOL    HW120150   5.126   2.297   1.190
 6417SOL    HW220151   5.273   2.356   1.149
 6418SOL     OW20152   5.226   4.234   2.751
 6418SOL    HW120153   5.271   4.319   2.779
 6418SOL    HW220154   5.141   4.255   2.703
 6419SOL     OW20155   0.518   5.414   5.247
 6419SOL    HW120156   0.430   5.372   5.266
 6419SOL    HW220157   0.591   5.353   5.278
 6420SOL     OW20158   1.708   1.820   3.898
 6420SOL    HW120159   1.799   1.851   3.871
 6420SOL    HW220160   1.670   1.762   3.826
 6421SOL     OW20161   5.023   0.542   0.984
 6421SOL    HW120162   5.061   0.595   0.907
 6421SOL    HW220163   4.923   0.549   0.982
 6422SOL     OW20164   6.992   1.624   5.623
 6422SOL    HW120165   6.971   1.537   5.667
 6422SOL    HW220166   0.010   1.685   5.688
 6423SOL     OW20167   4.539   5.551   4.928
 6423SOL    HW120168   4.476   5.577   5.001
 6423SOL    HW220169   4.506   5.468   4.883
 6424SOL     OW20170   0.938   3.065   4.633
 6424SOL    HW120171   0.968   3.146   4.682
 6424SOL    HW220172   0.847   3.038   4.663
 6425SOL     OW20173   0.312   5.416   2.814
 6425SOL    HW120174   0.300   5.464   2.728
 6425SOL    HW220175   0.330   5.319   2.797
 6426SOL     OW20176   5.878   4.741   4.059
 6426SOL    HW120177   5.963   4.778   4.021
 6426SOL    HW220178   5.880   4.746   4.159
 6427SOL     OW20179   3.086   3.951   3.306
 6427SOL    HW120180   3.032   3.995   3.377
 6427SOL    HW220181   3.109   4.018   3.235
 6428SOL     OW20182   5.393   2.930   0.096
 6428SOL    HW120183   5.381   2.984   0.179
 6428SOL    HW220184   5.484   2.889   0.095
 6429SOL     OW20185   1.233   0.543   5.265
 6429SOL    HW120186   1.134   0.539   5.271
 6429SOL    HW220187   1.273   0.514   5.352
 6430SOL     OW20188   6.493   0.652   4.969
 6430SOL    HW120189   6.406   0.677   4.927
 6430SOL    HW220190   6.520   0.722   5.034
 6431SOL     OW20191   4.474   5.309   2.821
 6431SOL    HW120192   4.401   5.344   2.763
 6431SOL    HW220193   4.448   5.320   2.917
 6432SOL     OW20194   3.620   4.086   6.093
 6432SOL    HW120195   3.572   4.050   6.172
 6432SOL    HW220196   3.570   4.062   6.009
 6433SOL     OW20197   3.063   5.398   0.235
 6433SOL    HW120198   3.146   5.395   0.291
 6433SOL    HW220199   3.063   5.481   0.180
 6434SOL     OW20200   2.324   6.618   6.185
 6434SOL    HW120201   2.251   6.552   6.170
 6434SOL    HW220202   2.343   6.666   6.100
 6435SOL     OW20203   6.174   6.991   0.193
 6435SOL    HW120204   6.271   6.966   0.182
 6435SOL    HW220205   6.163   0.013   0.280
 6436SOL     OW20206   0.696   3.295   3.451
 6436SOL    HW120207   0.669   3.391   3.448
 6436SOL    HW220208   0.625   3.239   3.409
 6437SOL     OW20209   0.838   1.939   5.450
 6437SOL    HW120210   0.863   1.874   5.522
 6437SOL    HW220211   0.747   1.916   5.416
 6438SOL     OW20212   1.301   5.178   6.237
 6438SOL    HW120213   1.221   5.223   6.197
 6438SOL    HW220214   1.381   5.195   6.180
 6439SOL     OW20215   6.320   1.159   2.740
 6439SOL    HW120216   6.332   1.062   2.763
 6439SOL    HW220217   6.316   1.169   2.641
 6440SOL     OW20218   2.857   1.110   6.747
 6440SOL    HW120219   2.839   1.190   6.689
 6440SOL    HW220220   2.947   1.072   6.726
 6441SOL     OW20221   0.039   1.059   2.773
 6441SOL    HW120222   7.004   1.137   2.760
 6441SOL    HW220223   0.045   1.007   2.688
 6442SOL     OW20224   2.750   2.015   4.789
 6442SOL    HW120225   2.769   2.086   4.721
 6442SOL    HW220226   2.837   1.982   4.827
 6443SOL     OW20227   3.583   2.309   6.290
 6443SOL    HW120228   3.531   2.384   6.332
 6443SOL    HW220229   3.588   2.323   6.191
 6444SOL     OW20230   7.006   2.831   4.943
 6444SOL    HW120231   6.948   2.832   4.862
 6444SOL    HW220232   0.005   2.736   4.964
 6445SOL     OW20233   3.704   3.109   3.121
 6445SOL    HW120234   3.626   3.052   3.093
 6445SOL    HW220235   3.680   3.160   3.204
 6446SOL     OW20236   0.875   2.011   0.065
 6446SOL    HW120237   0.803   2.073   0.096
 6446SOL    HW220238   0.949   2.010   0.132
 6447SOL     OW20239   6.863   4.478   1.870
 6447SOL    HW120240   6.824   4.512   1.955
 6447SOL    HW220241   6.835   4.383   1.855
 6448SOL     OW20242   4.871   5.388   1.375
 6448SOL    HW120243   4.827   5.313   1.326
 6448SOL    HW220244   4.805   5.432   1.435
 6449SOL     OW20245   2.358   5.174   1.709
 6449SOL    HW120246   2.401   5.084   1.719
 6449SOL    HW220247   2.379   5.230   1.788
 6450SOL     OW20248   1.217   4.028   0.365
 6450SOL    HW120249   1.275   4.009   0.286
 6450SOL    HW220250   1.253   4.107   0.415
 6451SOL     OW20251   3.422   1.800   5.951
 6451SOL    HW120252   3.512   1.814   5.993
 6451SOL    HW220253   3.414   1.860   5.871
 6452SOL     OW20254   4.835   3.971   2.577
 6452SOL    HW120255   4.794   4.023   2.652
 6452SOL    HW220256   4.895   3.900   2.615
 6453SOL     OW20257   3.212   6.837   1.157
 6453SOL    HW120258   3.142   6.794   1.099
 6453SOL    HW220259   3.170   6.905   1.216
 6454SOL     OW20260   0.522   1.588   1.914
 6454SOL    HW120261   0.540   1.633   1.826
 6454SOL    HW220262   0.491   1.656   1.980
 6455SOL     OW20263   6.395   3.565   3.517
 6455SOL    HW120264   6.486   3.540   3.485
 6455SOL    HW220265   6.329   3.495   3.488
 6456SOL     OW20266   0.930   0.560   2.955
 6456SOL    HW120267   0.927   0.469   2.915
 6456SOL    HW220268   0.845   0.609   2.934
 6457SOL     OW20269   4.682   6.602   2.006
 6457SOL    HW120270   4.711   6.524   1.950
 6457SOL    HW220271   4.761   6.661   2.023
 6458SOL     OW20272   1.439   4.841   4.602
 6458SOL    HW120273   1.432   4.927   4.553
 6458SOL    HW220274   1.469   4.769   4.539
 6459SOL     OW20275   5.948   2.086   2.937
 6459SOL    HW120276   5.951   2.069   2.838
 6459SOL    HW220277   5.861   2.129   2.960
 6460SOL     OW20278   5.917   5.686   5.945
 6460SOL    HW120279   5.931   5.724   6.036
 6460SOL    HW220280   5.835   5.726   5.904
 6461SOL     OW20281   3.308   5.000   7.019
 6461SOL    HW120282   3.396   5.000   0.039
 6461SOL    HW220283   3.285   5.093   6.989
 6462SOL     OW20284   0.923   2.846   4.265
 6462SOL    HW120285   0.990   2.891   4.207
 6462SOL    HW220286   0.832   2.883   4.245
 6463SOL     OW20287   5.509   0.009   0.578
 6463SOL    HW120288   5.510   6.937   0.561
 6463SOL    HW220289   5.441   0.030   0.648
 6464SOL     OW20290   1.182   5.573   4.974
 6464SOL    HW120291   1.103   5.634   4.974
 6464SOL    HW220292   1.245   5.599   5.047
 6465SOL     OW20293   6.114   2.358   2.081
 6465SOL    HW120294   6.149   2.321   1.995
 6465SOL    HW220295   6.191   2.386   2.138
 6466SOL     OW20296   6.902   2.429   6.678
 6466SOL    HW120297   6.805   2.454   6.671
 6466SOL    HW220298   6.928   2.373   6.600
 6467SOL     OW20299   4.442   0.917   0.553
 6467SOL    HW120300   4.426   1.015   0.566
 6467SOL    HW220301   4.437   0.871   0.642
 6468SOL     OW20302   3.935   6.249   1.541
 6468SOL    HW120303   3.867   6.320   1.519
 6468SOL    HW220304   4.002   6.243   1.467
 6469SOL     OW20305   3.400   2.150   4.195
 6469SOL    HW120306   3.446   2.166   4.108
 6469SOL    HW220307   3.401   2.052   4.215
 6470SOL     OW20308   5.507   2.377   0.568
 6470SOL    HW120309   5.555   2.402   0.652
 6470SOL    HW220310   5.417   2.339   0.591
 6471SOL     OW20311   0.844   6.535   5.411
 6471SOL    HW120312   0.901   6.486   5.345
 6471SOL    HW220313   0.902   6.568   5.486
 6472SOL     OW20314   6.381   5.762   2.535
 6472SOL    HW120315   6.386   5.720   2.444
 6472SOL    HW220316   6.365   5.691   2.603
 6473SOL     OW20317   1.782   1.641   4.754
 6473SOL    HW120318   1.822   1.637   4.663
 6473SOL    HW220319   1.849   1.676   4.819
 6474SOL     OW20320   3.821   5.537   5.781
 6474SOL    HW120321   3.892   5.583   5.834
 6474SOL    HW220322   3.815   5.579   5.691
 6475SOL     OW20323   5.789   5.165   3.910
 6475SOL    HW120324   5.857   5.112   3.860
 6475SOL    HW220325   5.697   5.137   3.881
 6476SOL     OW20326   4.402   2.886   6.369
 6476SOL    HW120327   4.391   2.935   6.283
 6476SOL    HW220328   4.431   2.949   6.441
 6477SOL     OW20329   6.765   5.374   0.723
 6477SOL    HW120330   6.763   5.302   0.792
 6477SOL    HW220331   6.779   5.334   0.632
 6478SOL     OW20332   2.521   6.286   1.916
 6478SOL    HW120333   2.616   6.315   1.921
 6478SOL    HW220334   2.464   6.349   1.970
 6479SOL     OW20335   3.093   5.228   4.396
 6479SOL    HW120336   3.147   5.146   4.379
 6479SOL    HW220337   3.014   5.229   4.334
 6480SOL     OW20338   2.102   1.457   0.028
 6480SOL    HW120339   2.078   1.376   0.082
 6480SOL    HW220340   2.176   1.436   6.992
 6481SOL     OW20341   3.327   2.501   1.709
 6481SOL    HW120342   3.235   2.488   1.672
 6481SOL    HW220343   3.375   2.413   1.710
 6482SOL     OW20344   6.457   2.408   5.641
 6482SOL    HW120345   6.556   2.395   5.641
 6482SOL    HW220346   6.413   2.328   5.683
 6483SOL     OW20347   0.759   6.509   4.055
 6483SOL    HW120348   0.798   6.598   4.077
 6483SOL    HW220349   0.660   6.513   4.062
 6484SOL     OW20350   2.381   1.675   2.430
 6484SOL    HW120351   2.361   1.579   2.451
 6484SOL    HW220352   2.416   1.720   2.512
 6485SOL     OW20353   2.441   5.747   4.289
 6485SOL    HW120354   2.482   5.792   4.368
 6485SOL    HW220355   2.465   5.798   4.206
 6486SOL     OW20356   0.542   5.090   2.870
 6486SOL    HW120357   0.558   5.177   2.825
 6486SOL    HW220358   0.458   5.095   2.924
 6487SOL     OW20359   1.180   6.479   4.349
 6487SOL    HW120360   1.133   6.509   4.266
 6487SOL    HW220361   1.203   6.558   4.405
 6488SOL     OW20362   4.886   5.865   5.194
 6488SOL    HW120363   4.794   5.886   5.230
 6488SOL    HW220364   4.910   5.932   5.124
 6489SOL     OW20365   3.079   3.413   6.310
 6489SOL    HW120366   3.004   3.415   6.376
 6489SOL    HW220367   3.164   3.389   6.356
 6490SOL     OW20368   2.515   1.760   6.481
 6490SOL    HW120369   2.598   1.808   6.510
 6490SOL    HW220370   2.447   1.765   6.554
 6491SOL     OW20371   2.477   0.703   1.515
 6491SOL    HW120372   2.443   0.651   1.593
 6491SOL    HW220373   2.534   0.779   1.548
 6492SOL     OW20374   3.976   3.923   4.565
 6492SOL    HW120375   3.997   3.827   4.585
 6492SOL    HW220376   3.921   3.961   4.640
 6493SOL     OW20377   1.396   4.843   6.386
 6493SOL    HW120378   1.317   4.825   6.445
 6493SOL    HW220379   1.479   4.846   6.441
 6494SOL     OW20380   6.478   6.540   2.436
 6494SOL    HW120381   6.417   6.474   2.392
 6494SOL    HW220382   6.477   6.626   2.384
 6495SOL     OW20383   0.050   0.218   4.430
 6495SOL    HW120384   0.082   0.171   4.511
 6495SOL    HW220385   0.066   0.316   4.440
 6496SOL     OW20386   5.514   6.561   1.198
 6496SOL    HW120387   5.522   6.592   1.103
 6496SOL    HW220388   5.419   6.573   1.229
 6497SOL     OW20389   1.202   0.997   0.727
 6497SOL    HW120390   1.190   1.034   0.634
 6497SOL    HW220391   1.268   1.053   0.776
 6498SOL     OW20392   0.853   3.747   4.338
 6498SOL    HW120393   0.871   3.654   4.306
 6498SOL    HW220394   0.819   3.744   4.432
 6499SOL     OW20395   5.419   3.729   4.580
 6499SOL    HW120396   5.378   3.639   4.566
 6499SOL    HW220397   5.361   3.783   4.640
 6500SOL     OW20398   0.327   4.313   2.043
 6500SOL    HW120399   0.414   4.361   2.038
 6500SOL    HW220400   0.260   4.359   1.984
 6501SOL     OW20401   0.491   1.045   1.353
 6501SOL    HW120402   0.520   1.120   1.412
 6501SOL    HW220403   0.415   1.075   1.296
 6502SOL     OW20404   6.477   3.536   1.456
 6502SOL    HW120405   6.492   3.472   1.532
 6502SOL    HW220406   6.564   3.575   1.428
 6503SOL     OW20407   5.904   0.524   4.301
 6503SOL    HW120408   5.860   0.517   4.390
 6503SOL    HW220409   5.950   0.613   4.294
 6504SOL     OW20410   4.911   6.463   6.723
 6504SOL    HW120411   4.818   6.447   6.757
 6504SOL    HW220412   4.929   6.561   6.722
 6505SOL     OW20413   5.285   6.750   6.866
 6505SOL    HW120414   5.294   6.763   6.768
 6505SOL    HW220415   5.376   6.749   6.909
 6506SOL     OW20416   6.995   3.244   3.514
 6506SOL    HW120417   7.002   3.259   3.415
 6506SOL    HW220418   0.057   3.216   3.550
 6507SOL     OW20419   2.736   5.775   6.223
 6507SOL    HW120420   2.658   5.827   6.188
 6507SOL    HW220421   2.746   5.790   6.321
 6508SOL     OW20422   1.924   0.239   2.887
 6508SOL    HW120423   2.020   0.224   2.867
 6508SOL    HW220424   1.911   0.250   2.986
 6509SOL     OW20425   5.158   1.386   5.227
 6509SOL    HW120426   5.125   1.304   5.273
 6509SOL    HW220427   5.169   1.460   5.293
 6510SOL     OW20428   4.232   5.501   6.941
 6510SOL    HW120429   4.271   5.410   6.927
 6510SOL    HW220430   4.135   5.499   6.918
 6511SOL     OW20431   4.134   0.705   5.337
 6511SOL    HW120432   4.200   0.744   5.273
 6511SOL    HW220433   4.051   0.761   5.338
 6512SOL     OW20434   2.950   6.777   2.774
 6512SOL    HW120435   3.012   6.823   2.838
 6512SOL    HW220436   2.886   6.720   2.825
 6513SOL     OW20437   2.393   6.099   4.141
 6513SOL    HW120438   2.406   6.117   4.239
 6513SOL    HW220439   2.457   6.028   4.112
 6514SOL     OW20440   5.767   0.492   4.567
 6514SOL    HW120441   5.689   0.446   4.526
 6514SOL    HW220442   5.838   0.425   4.588
 6515SOL     OW20443   1.387   3.689   2.491
 6515SOL    HW120444   1.323   3.765   2.487
 6515SOL    HW220445   1.364   3.623   2.419
 6516SOL     OW20446   6.521   3.442   1.940
 6516SOL    HW120447   6.611   3.419   1.976
 6516SOL    HW220448   6.450   3.411   2.004
 6517SOL     OW20449   0.215   1.929   0.850
 6517SOL    HW120450   0.172   2.011   0.888
 6517SOL    HW220451   0.264   1.954   0.766
 6518SOL     OW20452   6.663   0.385   2.389
 6518SOL    HW120453   6.611   0.449   2.331
 6518SOL    HW220454   6.654   0.292   2.353
 6519SOL     OW20455   0.630   0.915   3.210
 6519SOL    HW120456   0.715   0.866   3.193
 6519SOL    HW220457   0.569   0.905   3.131
 6520SOL     OW20458   0.199   5.384   6.665
 6520SOL    HW120459   0.229   5.323   6.593
 6520SOL    HW220460   0.215   5.479   6.638
 6521SOL     OW20461   1.148   2.855   3.337
 6521SOL    HW120462   1.107   2.770   3.370
 6521SOL    HW220463   1.133   2.863   3.238
 6522SOL     OW20464   2.178   4.320   5.438
 6522SOL    HW120465   2.260   4.375   5.418
 6522SOL    HW220466   2.126   4.306   5.353
 6523SOL     OW20467   4.232   6.917   0.337
 6523SOL    HW120468   4.169   6.931   0.413
 6523SOL    HW220469   4.309   6.861   0.368
 6524SOL     OW20470   2.716   2.536   1.720
 6524SOL    HW120471   2.790   2.524   1.785
 6524SOL    HW220472   2.738   2.488   1.635
 6525SOL     OW20473   2.485   5.576   3.456
 6525SOL    HW120474   2.500   5.484   3.494
 6525SOL    HW220475   2.515   5.578   3.361
 6526SOL     OW20476   0.594   0.536   1.232
 6526SOL    HW120477   0.497   0.539   1.258
 6526SOL    HW220478   0.625   0.628   1.210
 6527SOL     OW20479   0.441   2.077   0.298
 6527SOL    HW120480   0.403   1.996   0.253
 6527SOL    HW220481   0.381   2.155   0.279
 6528SOL     OW20482   6.697   1.622   6.200
 6528SOL    HW120483   6.619   1.606   6.138
 6528SOL    HW220484   6.665   1.625   6.294
 6529SOL     OW20485   0.918   0.489   2.510
 6529SOL    HW120486   0.892   0.582   2.536
 6529SOL    HW220487   1.018   0.482   2.504
 6530SOL     OW20488   0.486   1.767   0.924
 6530SOL    HW120489   0.452   1.859   0.946
 6530SOL    HW220490   0.488   1.711   1.007
 6531SOL     OW20491   4.672   3.662   5.553
 6531SOL    HW120492   4.654   3.742   5.495
 6531SOL    HW220493   4.740   3.604   5.509
 6532SOL     OW20494   2.317   1.007   1.252
 6532SOL    HW120495   2.224   1.022   1.283
 6532SOL    HW220496   2.320   0.924   1.196
 6533SOL     OW20497   4.334   6.125   0.403
 6533SOL    HW120498   4.398   6.051   0.427
 6533SOL    HW220499   4.271   6.140   0.479
 6534SOL     OW20500   4.875   5.177   1.932
 6534SOL    HW120501   4.828   5.142   2.013
 6534SOL    HW220502   4.837   5.266   1.907
 6535SOL     OW20503   6.020   4.782   4.701
 6535SOL    HW120504   6.110   4.776   4.659
 6535SOL    HW220505   6.018   4.727   4.785
 6536SOL     OW20506   0.316   1.911   4.937
 6536SOL    HW120507   0.394   1.972   4.924
 6536SOL    HW220508   0.249   1.928   4.864
 6537SOL     OW20509   6.948   4.967   4.491
 6537SOL    HW120510   0.008   4.960   4.441
 6537SOL    HW220511   6.882   4.902   4.451
 6538SOL     OW20512   1.031   3.873   5.314
 6538SOL    HW120513   1.115   3.819   5.305
 6538SOL    HW220514   1.041   3.960   5.265
 6539SOL     OW20515   4.620   0.222   6.727
 6539SOL    HW120516   4.561   0.239   6.649
 6539SOL    HW220517   4.589   0.277   6.805
 6540SOL     OW20518   2.295   2.614   6.239
 6540SOL    HW120519   2.360   2.639   6.168
 6540SOL    HW220520   2.235   2.692   6.258
 6541SOL     OW20521   5.427   2.406   5.736
 6541SOL    HW120522   5.348   2.462   5.712
 6541SOL    HW220523   5.467   2.439   5.821
 6542SOL     OW20524   1.236   3.102   4.487
 6542SOL    HW120525   1.261   3.160   4.564
 6542SOL    HW220526   1.216   3.009   4.520
 6543SOL     OW20527   4.145   2.578   5.868
 6543SOL    HW120528   4.077   2.574   5.795
 6543SOL    HW220529   4.221   2.636   5.840
 6544SOL     OW20530   0.446   6.943   2.547
 6544SOL    HW120531   0.468   6.891   2.465
 6544SOL    HW220532   0.365   6.999   2.531
 6545SOL     OW20533   3.682   6.891   0.659
 6545SOL    HW120534   3.676   6.955   0.736
 6545SOL    HW220535   3.725   6.937   0.582
 6546SOL     OW20536   3.985   4.156   6.553
 6546SOL    HW120537   3.994   4.255   6.553
 6546SOL    HW220538   4.022   4.119   6.638
 6547SOL     OW20539   4.739   0.858   5.948
 6547SOL    HW120540   4.808   0.889   5.883
 6547SOL    HW220541   4.729   0.926   6.021
 6548SOL     OW20542   1.238   2.955   0.283
 6548SOL    HW120543   1.281   2.991   0.365
 6548SOL    HW220544   1.138   2.961   0.291
 6549SOL     OW20545   4.698   0.269   1.900
 6549SOL    HW120546   4.636   0.299   1.828
 6549SOL    HW220547   4.667   0.181   1.935
 6550SOL     OW20548   0.181   0.036   3.755
 6550SOL    HW120549   0.099   7.020   3.792
 6550SOL    HW220550   0.245   6.991   3.725
 6551SOL     OW20551   2.635   3.476   1.723
 6551SOL    HW120552   2.614   3.452   1.628
 6551SOL    HW220553   2.553   3.462   1.779
 6552SOL     OW20554   2.509   0.032   0.826
 6552SOL    HW120555   2.411   0.016   0.833
 6552SOL    HW220556   2.542   7.024   0.738
 6553SOL     OW20557   0.655   1.597   3.325
 6553SOL    HW120558   0.569   1.638   3.356
 6553SOL    HW220559   0.672   1.513   3.377
 6554SOL     OW20560   2.599   0.721   4.743
 6554SOL    HW120561   2.698   0.725   4.727
 6554SOL    HW220562   2.581   0.678   4.831
 6555SOL     OW20563   5.905   1.661   3.774
 6555SOL    HW120564   5.871   1.587   3.716
 6555SOL    HW220565   5.834   1.686   3.840
 6556SOL     OW20566   5.731   3.077   3.037
 6556SOL    HW120567   5.747   3.099   3.134
 6556SOL    HW220568   5.633   3.074   3.020
 6557SOL     OW20569   2.492   0.705   2.490
 6557SOL    HW120570   2.547   0.785   2.465
 6557SOL    HW220571   2.455   0.717   2.582
 6558SOL     OW20572   5.709   5.694   0.481
 6558SOL    HW120573   5.786   5.640   0.515
 6558SOL    HW220574   5.673   5.752   0.554
 6559SOL     OW20575   0.112   3.582   5.948
 6559SOL    HW120576   0.016   3.593   5.975
 6559SOL    HW220577   0.125   3.490   5.910
 6560SOL     OW20578   3.714   5.036   0.982
 6560SOL    HW120579   3.672   4.976   0.915
 6560SOL    HW220580   3.811   5.048   0.960
 6561SOL     OW20581   3.813   4.517   1.150
 6561SOL    HW120582   3.764   4.534   1.065
 6561SOL    HW220583   3.858   4.601   1.180
 6562SOL     OW20584   5.556   2.127   1.353
 6562SOL    HW120585   5.465   2.154   1.386
 6562SOL    HW220586   5.602   2.207   1.314
 6563SOL     OW20587   5.455   0.237   5.778
 6563SOL    HW120588   5.412   0.149   5.796
 6563SOL    HW220589   5.446   0.296   5.859
 6564SOL     OW20590   6.596   3.128   1.997
 6564SOL    HW120591   6.668   3.197   2.005
 6564SOL    HW220592   6.540   3.148   1.917
 6565SOL     OW20593   6.162   6.345   2.716
 6565SOL    HW120594   6.216   6.332   2.799
 6565SOL    HW220595   6.198   6.288   2.642
 6566SOL     OW20596   3.353   5.450   2.080
 6566SOL    HW120597   3.396   5.524   2.132
 6566SOL    HW220598   3.316   5.382   2.143
 6567SOL     OW20599   4.996   1.066   1.762
 6567SOL    HW120600   4.906   1.041   1.798
 6567SOL    HW220601   5.043   1.125   1.828
 6568SOL     OW20602   3.784   2.160   3.211
 6568SOL    HW120603   3.688   2.148   3.235
 6568SOL    HW220604   3.795   2.245   3.160
 6569SOL     OW20605   1.668   3.471   6.374
 6569SOL    HW120606   1.651   3.525   6.292
 6569SOL    HW220607   1.629   3.380   6.362
 6570SOL     OW20608   3.214   1.054   2.835
 6570SOL    HW120609   3.167   0.970   2.863
 6570SOL    HW220610   3.242   1.105   2.917
 6571SOL     OW20611   2.748   5.187   2.474
 6571SOL    HW120612   2.650   5.186   2.457
 6571SOL    HW220613   2.781   5.093   2.489
 6572SOL     OW20614   0.104   4.054   4.126
 6572SOL    HW120615   0.152   4.094   4.048
 6572SOL    HW220616   0.039   4.120   4.163
 6573SOL     OW20617   1.375   0.958   3.370
 6573SOL    HW120618   1.443   1.006   3.426
 6573SOL    HW220619   1.338   0.881   3.422
 6574SOL     OW20620   2.372   5.850   3.272
 6574SOL    HW120621   2.317   5.899   3.338
 6574SOL    HW220622   2.426   5.779   3.319
 6575SOL     OW20623   0.475   6.943   3.470
 6575SOL    HW120624   0.394   7.001   3.476
 6575SOL    HW220625   0.480   6.886   3.552
 6576SOL     OW20626   3.046   5.949   0.736
 6576SOL    HW120627   3.073   6.043   0.715
 6576SOL    HW220628   2.967   5.951   0.797
 6577SOL     OW20629   1.275   1.762   3.585
 6577SOL    HW120630   1.359   1.816   3.582
 6577SOL    HW220631   1.196   1.821   3.565
 6578SOL     OW20632   1.088   5.977   1.870
 6578SOL    HW120633   1.032   6.060   1.871
 6578SOL    HW220634   1.180   5.998   1.902
 6579SOL     OW20635   0.163   2.799   4.275
 6579SOL    HW120636   0.115   2.881   4.309
 6579SOL    HW220637   0.257   2.823   4.254
 6580SOL     OW20638   0.449   1.681   0.498
 6580SOL    HW120639   0.507   1.636   0.566
 6580SOL    HW220640   0.504   1.705   0.418
 6581SOL     OW20641   1.875   0.946   1.118
 6581SOL    HW120642   1.800   0.899   1.164
 6581SOL    HW220643   1.936   0.878   1.076
 6582SOL     OW20644   0.119   0.317   2.577
 6582SOL    HW120645   0.171   0.402   2.589
 6582SOL    HW220646   0.022   0.336   2.590
 6583SOL     OW20647   5.143   6.119   5.191
 6583SOL    HW120648   5.055   6.099   5.147
 6583SOL    HW220649   5.128   6.139   5.287
 6584SOL     OW20650   3.503   2.153   0.823
 6584SOL    HW120651   3.440   2.171   0.899
 6584SOL    HW220652   3.589   2.117   0.859
 6585SOL     OW20653   6.648   6.481   6.623
 6585SOL    HW120654   6.644   6.383   6.642
 6585SOL    HW220655   6.730   6.519   6.665
 6586SOL     OW20656   6.854   1.828   5.987
 6586SOL    HW120657   6.815   1.800   6.075
 6586SOL    HW220658   6.853   1.751   5.924
 6587SOL     OW20659   1.525   4.732   6.664
 6587SOL    HW120660   1.572   4.813   6.629
 6587SOL    HW220661   1.460   4.759   6.735
 6588SOL     OW20662   0.485   3.664   1.243
 6588SOL    HW120663   0.481   3.686   1.145
 6588SOL    HW220664   0.435   3.578   1.259
 6589SOL     OW20665   4.406   1.032   2.090
 6589SOL    HW120666   4.343   1.037   2.168
 6589SOL    HW220667   4.500   1.042   2.123
 6590SOL     OW20668   0.868   0.191   5.769
 6590SOL    HW120669   0.891   0.124   5.840
 6590SOL    HW220670   0.780   0.233   5.790
 6591SOL     OW20671   5.494   6.292   3.848
 6591SOL    HW120672   5.449   6.209   3.817
 6591SOL    HW220673   5.439   6.336   3.919
 6592SOL     OW20674   4.864   0.059   2.703
 6592SOL    HW120675   4.915   0.014   2.629
 6592SOL    HW220676   4.774   0.018   2.711
 6593SOL     OW20677   2.853   2.220   2.260
 6593SOL    HW120678   2.794   2.141   2.247
 6593SOL    HW220679   2.842   2.283   2.183
 6594SOL     OW20680   3.423   1.616   5.707
 6594SOL    HW120681   3.382   1.702   5.739
 6594SOL    HW220682   3.353   1.559   5.665
 6595SOL     OW20683   1.592   3.342   5.694
 6595SOL    HW120684   1.578   3.345   5.793
 6595SOL    HW220685   1.690   3.340   5.674
 6596SOL     OW20686   3.685   6.166   3.457
 6596SOL    HW120687   3.701   6.264   3.464
 6596SOL    HW220688   3.594   6.145   3.493
 6597SOL     OW20689   1.772   5.250   2.116
 6597SOL    HW120690   1.733   5.293   2.035
 6597SOL    HW220691   1.701   5.196   2.162
 6598SOL     OW20692   1.796   4.851   3.835
 6598SOL    HW120693   1.749   4.923   3.783
 6598SOL    HW220694   1.743   4.829   3.917
 6599SOL     OW20695   4.642   6.272   6.439
 6599SOL    HW120696   4.604   6.246   6.351
 6599SOL    HW220697   4.674   6.190   6.487
 6600SOL     OW20698   3.820   6.773   4.516
 6600SOL    HW120699   3.846   6.819   4.431
 6600SOL    HW220700   3.901   6.735   4.560
 6601SOL     OW20701   0.571   1.957   3.521
 6601SOL    HW120702   0.621   1.922   3.600
 6601SOL    HW220703   0.634   1.976   3.446
 6602SOL     OW20704   1.958   0.537   1.618
 6602SOL    HW120705   1.968   0.550   1.519
 6602SOL    HW220706   1.907   0.613   1.657
 6603SOL     OW20707   0.520   2.799   3.781
 6603SOL    HW120708   0.513   2.873   3.714
 6603SOL    HW220709   0.541   2.713   3.734
 6604SOL     OW20710   1.816   6.932   1.565
 6604SOL    HW120711   1.895   6.882   1.601
 6604SOL    HW220712   1.732   6.887   1.594
 6605SOL     OW20713   5.786   6.050   2.335
 6605SOL    HW120714   5.746   6.132   2.374
 6605SOL    HW220715   5.834   5.998   2.407
 6606SOL     OW20716   6.423   4.544   2.035
 6606SOL    HW120717   6.452   4.467   2.092
 6606SOL    HW220718   6.328   4.567   2.057
 6607SOL     OW20719   7.004   5.074   3.365
 6607SOL    HW120720   6.927   5.113   3.313
 6607SOL    HW220721   0.054   5.137   3.362
 6608SOL     OW20722   6.860   6.905   0.206
 6608SOL    HW120723   6.911   6.990   0.215
 6608SOL    HW220724   6.787   6.902   0.276
 6609SOL     OW20725   5.461   1.008   6.399
 6609SOL    HW120726   5.474   1.079   6.469
 6609SOL    HW220727   5.365   1.002   6.374
 6610SOL     OW20728   2.196   6.881   0.090
 6610SOL    HW120729   2.249   6.805   0.052
 6610SOL    HW220730   2.258   6.946   0.134
 6611SOL     OW20731   4.878   2.991   3.433
 6611SOL    HW120732   4.954   2.939   3.470
 6611SOL    HW220733   4.846   3.058   3.501
 6612SOL     OW20734   0.024   2.724   6.083
 6612SOL    HW120735   6.974   2.666   6.111
 6612SOL    HW220736   0.068   2.763   6.164
 6613SOL     OW20737   5.831   6.582   5.288
 6613SOL    HW120738   5.813   6.552   5.194
 6613SOL    HW220739   5.820   6.505   5.351
 6614SOL     OW20740   4.508   6.618   0.184
 6614SOL    HW120741   4.494   6.620   0.085
 6614SOL    HW220742   4.454   6.544   0.224
 6615SOL     OW20743   1.435   5.896   1.139
 6615SOL    HW120744   1.408   5.844   1.220
 6615SOL    HW220745   1.492   5.974   1.166
 6616SOL     OW20746   4.904   0.212   6.077
 6616SOL    HW120747   4.941   0.132   6.124
 6616SOL    HW220748   4.808   0.196   6.054
 6617SOL     OW20749   4.262   5.941   3.421
 6617SOL    HW120750   4.210   6.012   3.469
 6617SOL    HW220751   4.349   5.927   3.469
 6618SOL     OW20752   1.073   1.569   2.344
 6618SOL    HW120753   1.084   1.569   2.444
 6618SOL    HW220754   1.117   1.650   2.306
 6619SOL     OW20755   4.257   0.046   3.734
 6619SOL    HW120756   4.171   0.094   3.753
 6619SOL    HW220757   4.312   0.043   3.817
 6620SOL     OW20758   2.035   3.133   4.784
 6620SOL    HW120759   2.062   3.229   4.772
 6620SOL    HW220760   2.112   3.080   4.818
 6621SOL     OW20761   3.695   2.694   5.382
 6621SOL    HW120762   3.794   2.681   5.375
 6621SOL    HW220763   3.674   2.792   5.379
 6622SOL     OW20764   6.516   5.416   1.720
 6622SOL    HW120765   6.445   5.405   1.650
 6622SOL    HW220766   6.483   5.380   1.807
 6623SOL     OW20767   3.607   3.759   4.783
 6623SOL    HW120768   3.627   3.796   4.693
 6623SOL    HW220769   3.508   3.755   4.796
 6624SOL     OW20770   0.678   3.576   5.401
 6624SOL    HW120771   0.712   3.499   5.454
 6624SOL    HW220772   0.682   3.554   5.303
 6625SOL     OW20773   5.155   1.741   5.176
 6625SOL    HW120774   5.190   1.697   5.259
 6625SOL    HW220775   5.194   1.697   5.095
 6626SOL     OW20776   3.484   6.967   5.682
 6626SOL    HW120777   3.442   6.967   5.773
 6626SOL    HW220778   3.489   6.873   5.647
 6627SOL     OW20779   2.508   6.803   4.373
 6627SOL    HW120780   2.598   6.775   4.405
 6627SOL    HW220781   2.489   6.760   4.285
 6628SOL     OW20782   5.339   5.081   4.013
 6628SOL    HW120783   5.284   5.135   3.949
 6628SOL    HW220784   5.362   5.137   4.092
 6629SOL     OW20785   5.320   5.750   6.149
 6629SOL    HW120786   5.374   5.737   6.066
 6629SOL    HW220787   5.227   5.775   6.125
 6630SOL     OW20788   3.679   2.059   1.454
 6630SOL    HW120789   3.585   2.032   1.435
 6630SOL    HW220790   3.727   1.984   1.500
 6631SOL     OW20791   2.283   5.504   4.339
 6631SOL    HW120792   2.337   5.585   4.314
 6631SOL    HW220793   2.274   5.499   4.439
 6632SOL     OW20794   1.470   1.125   0.814
 6632SOL    HW120795   1.537   1.073   0.867
 6632SOL    HW220796   1.494   1.122   0.717
 6633SOL     OW20797   2.561   4.631   5.773
 6633SOL    HW120798   2.484   4.676   5.728
 6633SOL    HW220799   2.624   4.595   5.704
 6634SOL     OW20800   4.704   1.815   5.302
 6634SOL    HW120801   4.662   1.745   5.360
 6634SOL    HW220802   4.785   1.777   5.258
 6635SOL     OW20803   4.696   4.287   3.410
 6635SOL    HW120804   4.653   4.293   3.320
 6635SOL    HW220805   4.648   4.348   3.474
 6636SOL     OW20806   3.985   1.708   0.714
 6636SOL    HW120807   3.959   1.640   0.783
 6636SOL    HW220808   4.079   1.691   0.684
 6637SOL     OW20809   2.384   6.813   6.386
 6637SOL    HW120810   2.461   6.863   6.346
 6637SOL    HW220811   2.359   6.738   6.325
 6638SOL     OW20812   3.313   3.271   3.074
 6638SOL    HW120813   3.271   3.302   3.159
 6638SOL    HW220814   3.338   3.174   3.083
 6639SOL     OW20815   3.368   3.816   6.844
 6639SOL    HW120816   3.399   3.855   6.931
 6639SOL    HW220817   3.377   3.716   6.847
 6640SOL     OW20818   0.250   1.822   4.536
 6640SOL    HW120819   0.347   1.849   4.535
 6640SOL    HW220820   0.220   1.799   4.444
 6641SOL     OW20821   3.450   1.552   6.830
 6641SOL    HW120822   3.513   1.510   6.895
 6641SOL    HW220823   3.441   1.649   6.851
 6642SOL     OW20824   2.643   5.434   6.014
 6642SOL    HW120825   2.556   5.433   5.964
 6642SOL    HW220826   2.695   5.351   5.993
 6643SOL     OW20827   6.614   6.662   0.041
 6643SOL    HW120828   6.705   6.665   0.000
 6643SOL    HW220829   6.601   6.574   0.087
 6644SOL     OW20830   2.312   6.110   2.589
 6644SOL    HW120831   2.240   6.079   2.528
 6644SOL    HW220832   2.272   6.166   2.662
 6645SOL     OW20833   5.394   3.344   0.840
 6645SOL    HW120834   5.321   3.291   0.882
 6645SOL    HW220835   5.479   3.329   0.891
 6646SOL     OW20836   4.173   1.537   5.352
 6646SOL    HW120837   4.110   1.549   5.429
 6646SOL    HW220838   4.263   1.510   5.386
 6647SOL     OW20839   4.517   6.680   0.606
 6647SOL    HW120840   4.554   6.588   0.617
 6647SOL    HW220841   4.560   6.742   0.672
 6648SOL     OW20842   2.886   6.381   4.840
 6648SOL    HW120843   2.833   6.304   4.806
 6648SOL    HW220844   2.981   6.352   4.856
 6649SOL     OW20845   5.934   2.679   6.053
 6649SOL    HW120846   6.005   2.749   6.045
 6649SOL    HW220847   5.853   2.708   6.003
 6650SOL     OW20848   4.008   1.356   4.786
 6650SOL    HW120849   3.973   1.342   4.879
 6650SOL    HW220850   3.957   1.431   4.743
 6651SOL     OW20851   1.834   1.573   6.303
 6651SOL    HW120852   1.853   1.669   6.323
 6651SOL    HW220853   1.744   1.548   6.338
 6652SOL     OW20854   0.431   4.876   6.981
 6652SOL    HW120855   0.333   4.880   6.997
 6652SOL    HW220856   0.452   4.796   6.925
 6653SOL     OW20857   4.257   2.995   0.700
 6653SOL    HW120858   4.191   3.049   0.646
 6653SOL    HW220859   4.208   2.923   0.749
 6654SOL     OW20860   0.981   5.591   2.583
 6654SOL    HW120861   1.061   5.593   2.524
 6654SOL    HW220862   1.004   5.631   2.672
 6655SOL     OW20863   0.286   6.160   2.225
 6655SOL    HW120864   0.366   6.202   2.267
 6655SOL    HW220865   0.300   6.152   2.127
 6656SOL     OW20866   5.291   1.868   2.710
 6656SOL    HW120867   5.331   1.889   2.621
 6656SOL    HW220868   5.217   1.932   2.730
 6657SOL     OW20869   5.966   3.513   5.181
 6657SOL    HW120870   6.028   3.435   5.190
 6657SOL    HW220871   5.953   3.556   5.270
 6658SOL     OW20872   5.977   0.009   5.759
 6658SOL    HW120873   5.967   0.082   5.827
 6658SOL    HW220874   5.900   6.972   5.767
 6659SOL     OW20875   1.357   3.475   1.342
 6659SOL    HW120876   1.423   3.417   1.388
 6659SOL    HW220877   1.379   3.480   1.244
 6660SOL     OW20878   1.871   4.690   1.774
 6660SOL    HW120879   1.845   4.594   1.768
 6660SOL    HW220880   1.969   4.699   1.754
 6661SOL     OW20881   2.495   0.460   5.591
 6661SOL    HW120882   2.548   0.526   5.646
 6661SOL    HW220883   2.463   0.505   5.508
 6662SOL     OW20884   1.801   0.608   0.699
 6662SOL    HW120885   1.878   0.672   0.708
 6662SOL    HW220886   1.835   0.514   0.706
 6663SOL     OW20887   6.951   6.095   4.993
 6663SOL    HW120888   7.005   6.108   5.076
 6663SOL    HW220889   6.973   6.006   4.952
 6664SOL     OW20890   2.449   0.250   1.113
 6664SOL    HW120891   2.352   0.258   1.139
 6664SOL    HW220892   2.483   0.161   1.142
 6665SOL     OW20893   2.071   6.687   5.452
 6665SOL    HW120894   2.094   6.597   5.488
 6665SOL    HW220895   2.155   6.741   5.442
 6666SOL     OW20896   6.426   5.567   5.898
 6666SOL    HW120897   6.463   5.578   5.991
 6666SOL    HW220898   6.450   5.647   5.844
 6667SOL     OW20899   0.072   6.926   5.311
 6667SOL    HW120900   0.067   6.918   5.212
 6667SOL    HW220901   0.030   6.845   5.353
 6668SOL     OW20902   6.543   6.211   1.268
 6668SOL    HW120903   6.606   6.278   1.305
 6668SOL    HW220904   6.513   6.240   1.177
 6669SOL     OW20905   3.206   2.239   1.666
 6669SOL    HW120906   3.157   2.153   1.678
 6669SOL    HW220907   3.143   2.309   1.632
 6670SOL     OW20908   3.269   1.094   6.285
 6670SOL    HW120909   3.287   1.168   6.348
 6670SOL    HW220910   3.192   1.040   6.318
 6671SOL     OW20911   5.542   6.736   6.992
 6671SOL    HW120912   5.509   6.776   0.051
 6671SOL    HW220913   5.632   6.773   6.969
 6672SOL     OW20914   0.626   2.613   0.292
 6672SOL    HW120915   0.619   2.582   0.387
 6672SOL    HW220916   0.535   2.642   0.261
 6673SOL     OW20917   4.674   4.317   3.797
 6673SOL    HW120918   4.732   4.359   3.867
 6673SOL    HW220919   4.668   4.219   3.813
 6674SOL     OW20920   0.891   3.767   6.840
 6674SOL    HW120921   0.852   3.686   6.796
 6674SOL    HW220922   0.937   3.739   6.925
 6675SOL     OW20923   5.862   2.847   0.298
 6675SOL    HW120924   5.957   2.874   0.310
 6675SOL    HW220925   5.813   2.858   0.385
 6676SOL     OW20926   0.782   3.477   4.082
 6676SOL    HW120927   0.749   3.569   4.059
 6676SOL    HW220928   0.716   3.432   4.142
 6677SOL     OW20929   0.799   1.209   6.666
 6677SOL    HW120930   0.789   1.185   6.570
 6677SOL    HW220931   0.819   1.127   6.720
 6678SOL     OW20932   2.833   4.828   0.547
 6678SOL    HW120933   2.929   4.825   0.519
 6678SOL    HW220934   2.810   4.921   0.576
 6679SOL     OW20935   3.913   0.814   3.985
 6679SOL    HW120936   3.996   0.853   4.025
 6679SOL    HW220937   3.937   0.741   3.921
 6680SOL     OW20938   4.494   6.358   6.854
 6680SOL    HW120939   4.446   6.357   6.943
 6680SOL    HW220940   4.459   6.283   6.798
 6681SOL     OW20941   4.929   5.474   1.134
 6681SOL    HW120942   4.920   5.437   1.226
 6681SOL    HW220943   4.894   5.407   1.068
 6682SOL     OW20944   2.635   5.141   6.751
 6682SOL    HW120945   2.597   5.155   6.842
 6682SOL    HW220946   2.655   5.230   6.709
 6683SOL     OW20947   6.528   3.398   5.590
 6683SOL    HW120948   6.465   3.330   5.628
 6683SOL    HW220949   6.484   3.445   5.513
 6684SOL     OW20950   4.356   6.541   2.090
 6684SOL    HW120951   4.406   6.591   2.161
 6684SOL    HW220952   4.321   6.456   2.129
 6685SOL     OW20953   5.187   2.720   5.966
 6685SOL    HW120954   5.138   2.800   5.929
 6685SOL    HW220955   5.130   2.639   5.955
 6686SOL     OW20956   5.707   5.835   3.573
 6686SOL    HW120957   5.785   5.845   3.635
 6686SOL    HW220958   5.707   5.743   3.534
 6687SOL     OW20959   0.704   2.781   2.592
 6687SOL    HW120960   0.788   2.827   2.620
 6687SOL    HW220961   0.633   2.850   2.576
 6688SOL     OW20962   3.960   4.712   0.834
 6688SOL    HW120963   4.025   4.763   0.890
 6688SOL    HW220964   3.928   4.769   0.759
 6689SOL     OW20965   4.304   3.752   5.802
 6689SOL    HW120966   4.246   3.729   5.879
 6689SOL    HW220967   4.266   3.713   5.718
 6690SOL     OW20968   0.666   6.870   0.959
 6690SOL    HW120969   0.711   6.782   0.944
 6690SOL    HW220970   0.630   6.874   1.053
 6691SOL     OW20971   1.932   0.612   2.449
 6691SOL    HW120972   1.845   0.571   2.422
 6691SOL    HW220973   2.002   0.540   2.456
 6692SOL     OW20974   3.976   3.927   3.035
 6692SOL    HW120975   4.008   4.019   3.010
 6692SOL    HW220976   3.890   3.934   3.085
 6693SOL     OW20977   4.515   2.577   5.118
 6693SOL    HW120978   4.549   2.505   5.178
 6693SOL    HW220979   4.418   2.561   5.097
 6694SOL     OW20980   4.483   6.686   1.289
 6694SOL    HW120981   4.420   6.673   1.365
 6694SOL    HW220982   4.523   6.778   1.295
 6695SOL     OW20983   2.915   2.164   6.787
 6695SOL    HW120984   2.977   2.239   6.809
 6695SOL    HW220985   2.912   2.151   6.688
 6696SOL     OW20986   3.930   2.986   3.743
 6696SOL    HW120987   3.981   3.072   3.753
 6696SOL    HW220988   3.883   2.966   3.830
 6697SOL     OW20989   4.715   2.114   3.331
 6697SOL    HW120990   4.726   2.032   3.388
 6697SOL    HW220991   4.773   2.106   3.251
 6698SOL     OW20992   3.092   3.188   1.074
 6698SOL    HW120993   3.086   3.283   1.041
 6698SOL    HW220994   3.140   3.132   1.007
 6699SOL     OW20995   2.157   0.040   5.610
 6699SOL    HW120996   2.178   0.127   5.565
 6699SOL    HW220997   2.150   6.994   5.541
 6700SOL     OW20998   6.846   1.597   1.705
 6700SOL    HW120999   6.851   1.683   1.756
 6700SOL    HW221000   6.767   1.545   1.735
 6701SOL     OW21001   5.670   5.883   2.017
 6701SOL    HW121002   5.607   5.874   2.094
 6701SOL    HW221003   5.622   5.865   1.932
 6702SOL     OW21004   1.923   2.617   2.020
 6702SOL    HW121005   1.909   2.557   2.098
 6702SOL    HW221006   2.020   2.615   1.994
 6703SOL     OW21007   0.115   0.079   0.661
 6703SOL    HW121008   0.166   0.005   0.705
 6703SOL    HW221009   0.032   0.041   0.620
 6704SOL     OW21010   4.011   2.087   3.877
 6704SOL    HW121011   3.934   2.065   3.817
 6704SOL    HW221012   4.090   2.114   3.821
 6705SOL     OW21013   6.069   2.971   0.634
 6705SOL    HW121014   6.121   3.018   0.705
 6705SOL    HW221015   6.013   2.899   0.674
 6706SOL     OW21016   0.856   5.682   0.735
 6706SOL    HW121017   0.830   5.693   0.831
 6706SOL    HW221018   0.794   5.616   0.691
 6707SOL     OW21019   5.402   6.420   3.527
 6707SOL    HW121020   5.485   6.365   3.517
 6707SOL    HW221021   5.414   6.507   3.480
 6708SOL     OW21022   5.679   5.248   1.345
 6708SOL    HW121023   5.764   5.198   1.365
 6708SOL    HW221024   5.698   5.320   1.279
 6709SOL     OW21025   0.630   5.325   2.712
 6709SOL    HW121026   0.713   5.325   2.657
 6709SOL    HW221027   0.562   5.385   2.669
 6710SOL     OW21028   3.864   0.680   6.890
 6710SOL    HW121029   3.842   0.710   6.797
 6710SOL    HW221030   3.867   0.760   6.951
 6711SOL     OW21031   4.948   6.394   5.887
 6711SOL    HW121032   4.908   6.481   5.915
 6711SOL    HW221033   5.035   6.381   5.934
 6712SOL     OW21034   5.704   3.114   1.286
 6712SOL    HW121035   5.720   3.026   1.332
 6712SOL    HW221036   5.629   3.104   1.221
 6713SOL     OW21037   1.312   0.685   3.133
 6713SOL    HW121038   1.214   0.678   3.151
 6713SOL    HW221039   1.334   0.777   3.102
 6714SOL     OW21040   6.379   1.773   6.928
 6714SOL    HW121041   6.396   1.812   6.838
 6714SOL    HW221042   6.295   1.719   6.926
 6715SOL     OW21043   1.653   0.464   1.357
 6715SOL    HW121044   1.639   0.431   1.451
 6715SOL    HW221045   1.694   0.555   1.360
 6716SOL     OW21046   0.661   5.688   1.903
 6716SOL    HW121047   0.579   5.694   1.961
 6716SOL    HW221048   0.742   5.680   1.962
 6717SOL     OW21049   2.902   2.991   6.305
 6717SOL    HW121050   2.818   3.042   6.320
 6717SOL    HW221051   2.887   2.918   6.239
 6718SOL     OW21052   4.994   6.813   0.794
 6718SOL    HW121053   4.963   6.719   0.805
 6718SOL    HW221054   4.968   6.847   0.704
 6719SOL     OW21055   2.386   7.017   0.246
 6719SOL    HW121056   2.387   0.081   0.204
 6719SOL    HW221057   2.480   6.991   0.270
 6720SOL     OW21058   2.378   0.689   3.637
 6720SOL    HW121059   2.289   0.664   3.600
 6720SOL    HW221060   2.431   0.737   3.566
 6721SOL     OW21061   0.279   6.587   0.729
 6721SOL    HW121062   0.284   6.488   0.713
 6721SOL    HW221063   0.367   6.621   0.760
 6722SOL     OW21064   6.975   2.764   0.231
 6722SOL    HW121065   6.932   2.765   0.321
 6722SOL    HW221066   6.905   2.765   0.160
 6723SOL     OW21067   1.542   6.728   5.182
 6723SOL    HW121068   1.622   6.753   5.127
 6723SOL    HW221069   1.548   6.773   5.271
 6724SOL     OW21070   1.843   3.085   6.231
 6724SOL    HW121071   1.878   3.041   6.148
 6724SOL    HW221072   1.800   3.172   6.206
 6725SOL     OW21073   6.917   2.230   2.230
 6725SOL    HW121074   6.830   2.205   2.272
 6725SOL    HW221075   6.904   2.245   2.132
 6726SOL     OW21076   0.094   2.462   3.767
 6726SOL    HW121077   0.074   2.558   3.783
 6726SOL    HW221078   0.182   2.453   3.720
 6727SOL     OW21079   0.226   4.831   5.605
 6727SOL    HW121080   0.245   4.783   5.519
 6727SOL    HW221081   0.305   4.886   5.631
 6728SOL     OW21082   4.161   2.209   2.919
 6728SOL    HW121083   4.161   2.259   2.833
 6728SOL    HW221084   4.249   2.164   2.933
 6729SOL     OW21085   0.236   1.446   0.231
 6729SOL    HW121086   0.154   1.389   0.218
 6729SOL    HW221087   0.301   1.398   0.289
 6730SOL     OW21088   2.218   6.929   1.128
 6730SOL    HW121089   2.247   6.934   1.033
 6730SOL    HW221090   2.131   6.977   1.139
 6731SOL     OW21091   1.724   6.924   0.753
 6731SOL    HW121092   1.676   6.837   0.745
 6731SOL    HW221093   1.802   6.925   0.692
 6732SOL     OW21094   5.674   4.937   4.600
 6732SOL    HW121095   5.586   4.895   4.575
 6732SOL    HW221096   5.706   4.994   4.524
 6733SOL     OW21097   3.664   5.562   6.383
 6733SOL    HW121098   3.651   5.506   6.464
 6733SOL    HW221099   3.739   5.627   6.399
 6734SOL     OW21100   5.673   2.391   5.462
 6734SOL    HW121101   5.767   2.387   5.429
 6734SOL    HW221102   5.664   2.464   5.529
 6735SOL     OW21103   5.814   3.789   4.901
 6735SOL    HW121104   5.759   3.824   4.826
 6735SOL    HW221105   5.755   3.744   4.968
 6736SOL     OW21106   2.684   3.634   6.121
 6736SOL    HW121107   2.712   3.572   6.048
 6736SOL    HW221108   2.604   3.687   6.092
 6737SOL     OW21109   1.342   3.161   0.808
 6737SOL    HW121110   1.362   3.164   0.906
 6737SOL    HW221111   1.303   3.249   0.780
 6738SOL     OW21112   1.837   5.692   4.260
 6738SOL    HW121113   1.825   5.765   4.192
 6738SOL    HW221114   1.835   5.732   4.351
 6739SOL     OW21115   5.829   6.321   3.821
 6739SOL    HW121116   5.811   6.247   3.886
 6739SOL    HW221117   5.765   6.314   3.744
 6740SOL     OW21118   6.757   0.162   5.522
 6740SOL    HW121119   6.713   0.238   5.570
 6740SOL    HW221120   6.698   0.132   5.447
 6741SOL     OW21121   3.535   2.475   5.354
 6741SOL    HW121122   3.595   2.555   5.363
 6741SOL    HW221123   3.586   2.400   5.311
 6742SOL     OW21124   5.893   5.762   3.267
 6742SOL    HW121125   5.941   5.689   3.220
 6742SOL    HW221126   5.798   5.735   3.283
 6743SOL     OW21127   3.528   4.304   6.667
 6743SOL    HW121128   3.438   4.283   6.628
 6743SOL    HW221129   3.587   4.342   6.596
 6744SOL     OW21130   0.422   6.116   5.506
 6744SOL    HW121131   0.465   6.028   5.487
 6744SOL    HW221132   0.465   6.187   5.449
 6745SOL     OW21133   0.099   6.208   3.364
 6745SOL    HW121134   0.101   6.115   3.326
 6745SOL    HW221135   0.055   6.206   3.454
 6746SOL     OW21136   0.889   6.975   3.863
 6746SOL    HW121137   0.879   0.030   3.920
 6746SOL    HW221138   0.825   6.979   3.787
 6747SOL     OW21139   5.899   0.736   6.783
 6747SOL    HW121140   5.963   0.660   6.774
 6747SOL    HW221141   5.809   0.702   6.807
 6748SOL     OW21142   3.928   1.718   3.183
 6748SOL    HW121143   3.943   1.759   3.092
 6748SOL    HW221144   3.942   1.619   3.178
 6749SOL     OW21145   3.714   4.578   0.896
 6749SOL    HW121146   3.808   4.604   0.874
 6749SOL    HW221147   3.653   4.655   0.878
 6750SOL     OW21148   3.414   1.832   4.083
 6750SOL    HW121149   3.506   1.866   4.061
 6750SOL    HW221150   3.422   1.753   4.144
 6751SOL     OW21151   4.959   0.727   3.099
 6751SOL    HW121152   4.941   0.747   3.195
 6751SOL    HW221153   4.940   0.630   3.082
 6752SOL     OW21154   2.484   0.028   2.729
 6752SOL    HW121155   2.535   0.008   2.813
 6752SOL    HW221156   2.387   0.008   2.744
 6753SOL     OW21157   3.531   1.190   6.103
 6753SOL    HW121158   3.630   1.200   6.117
 6753SOL    HW221159   3.496   1.118   6.163
 6754SOL     OW21160   6.615   0.934   0.791
 6754SOL    HW121161   6.629   1.007   0.857
 6754SOL    HW221162   6.522   0.941   0.753
 6755SOL     OW21163   4.226   2.753   1.325
 6755SOL    HW121164   4.174   2.726   1.244
 6755SOL    HW221165   4.173   2.819   1.379
 6756SOL     OW21166   4.029   6.165   5.161
 6756SOL    HW121167   3.965   6.102   5.206
 6756SOL    HW221168   4.079   6.217   5.230
 6757SOL     OW21169   3.162   2.015   6.883
 6757SOL    HW121170   3.109   2.068   6.818
 6757SOL    HW221171   3.199   2.075   6.954
 6758SOL     OW21172   6.046   3.175   1.748
 6758SOL    HW121173   6.040   3.188   1.847
 6758SOL    HW221174   6.040   3.078   1.726
 6759SOL     OW21175   0.575   3.772   3.039
 6759SOL    HW121176   0.490   3.722   3.020
 6759SOL    HW221177   0.591   3.774   3.138
 6760SOL     OW21178   6.564   3.294   2.352
 6760SOL    HW121179   6.661   3.292   2.330
 6760SOL    HW221180   6.512   3.323   2.272
 6761SOL     OW21181   6.374   2.605   5.034
 6761SOL    HW121182   6.303   2.655   4.985
 6761SOL    HW221183   6.338   2.518   5.067
 6762SOL     OW21184   0.708   4.127   4.422
 6762SOL    HW121185   0.689   4.177   4.506
 6762SOL    HW221186   0.794   4.159   4.383
 6763SOL     OW21187   6.597   5.443   3.852
 6763SOL    HW121188   6.662   5.518   3.847
 6763SOL    HW221189   6.536   5.456   3.931
 6764SOL     OW21190   1.924   5.877   1.920
 6764SOL    HW121191   1.900   5.957   1.866
 6764SOL    HW221192   1.925   5.902   2.017
 6765SOL     OW21193   5.782   4.873   3.584
 6765SOL    HW121194   5.793   4.776   3.560
 6765SOL    HW221195   5.860   4.902   3.640
 6766SOL     OW21196   5.440   6.193   5.409
 6766SOL    HW121197   5.380   6.265   5.443
 6766SOL    HW221198   5.502   6.231   5.341
 6767SOL     OW21199   2.674   0.908   1.580
 6767SOL    HW121200   2.716   0.843   1.643
 6767SOL    HW221201   2.714   0.998   1.592
 6768SOL     OW21202   1.889   0.585   5.460
 6768SOL    HW121203   1.934   0.585   5.550
 6768SOL    HW221204   1.789   0.581   5.473
 6769SOL     OW21205   3.559   0.776   6.810
 6769SOL    HW121206   3.489   0.836   6.769
 6769SOL    HW221207   3.647   0.824   6.809
 6770SOL     OW21208   6.880   0.886   2.183
 6770SOL    HW121209   6.872   0.976   2.225
 6770SOL    HW221210   6.872   0.815   2.254
 6771SOL     OW21211   5.068   1.871   3.466
 6771SOL    HW121212   5.003   1.846   3.538
 6771SOL    HW221213   5.066   1.803   3.394
 6772SOL     OW21214   3.875   2.196   2.918
 6772SOL    HW121215   3.881   2.220   2.821
 6772SOL    HW221216   3.965   2.163   2.949
 6773SOL     OW21217   6.523   4.872   2.506
 6773SOL    HW121218   6.612   4.889   2.548
 6773SOL    HW221219   6.500   4.948   2.446
 6774SOL     OW21220   0.958   2.819   5.541
 6774SOL    HW121221   1.004   2.744   5.494
 6774SOL    HW221222   1.025   2.869   5.597
 6775SOL     OW21223   2.039   2.589   1.655
 6775SOL    HW121224   2.100   2.536   1.597
 6775SOL    HW221225   2.066   2.580   1.751
 6776SOL     OW21226   4.531   5.005   0.010
 6776SOL    HW121227   4.503   4.960   6.951
 6776SOL    HW221228   4.518   4.942   0.086
 6777SOL     OW21229   4.403   4.648   0.609
 6777SOL    HW121230   4.312   4.644   0.568
 6777SOL    HW221231   4.455   4.566   0.584
 6778SOL     OW21232   6.117   5.185   1.695
 6778SOL    HW121233   6.127   5.105   1.635
 6778SOL    HW221234   6.195   5.246   1.682
 6779SOL     OW21235   6.054   5.448   6.679
 6779SOL    HW121236   5.988   5.381   6.644
 6779SOL    HW221237   6.059   5.441   6.778
 6780SOL     OW21238   1.394   2.804   2.307
 6780SOL    HW121239   1.400   2.783   2.209
 6780SOL    HW221240   1.415   2.901   2.321
 6781SOL     OW21241   6.619   1.434   4.342
 6781SOL    HW121242   6.704   1.395   4.377
 6781SOL    HW221243   6.562   1.464   4.419
 6782SOL     OW21244   0.008   0.802   3.653
 6782SOL    HW121245   0.093   0.851   3.671
 6782SOL    HW221246   6.958   0.852   3.694
 6783SOL     OW21247   6.507   1.904   5.768
 6783SOL    HW121248   6.511   1.821   5.712
 6783SOL    HW221249   6.451   1.887   5.850
 6784SOL     OW21250   2.225   3.501   0.974
 6784SOL    HW121251   2.266   3.592   0.982
 6784SOL    HW221252   2.298   3.432   0.973
 6785SOL     OW21253   6.134   5.251   3.640
 6785SOL    HW121254   6.209   5.296   3.592
 6785SOL    HW221255   6.080   5.319   3.689
 6786SOL     OW21256   1.926   2.335   0.263
 6786SOL    HW121257   1.828   2.319   0.278
 6786SOL    HW221258   1.969   2.249   0.235
 6787SOL     OW21259   1.701   2.934   1.041
 6787SOL    HW121260   1.801   2.940   1.043
 6787SOL    HW221261   1.667   2.975   0.957
 6788SOL     OW21262   2.054   4.386   1.227
 6788SOL    HW121263   2.130   4.333   1.189
 6788SOL    HW221264   2.061   4.389   1.327
 6789SOL     OW21265   0.186   5.258   3.362
 6789SOL    HW121266   0.184   5.318   3.442
 6789SOL    HW221267   0.158   5.309   3.281
 6790SOL     OW21268   0.714   3.775   1.363
 6790SOL    HW121269   0.640   3.709   1.347
 6790SOL    HW221270   0.693   3.860   1.314
 6791SOL     OW21271   3.992   2.467   1.344
 6791SOL    HW121272   3.987   2.479   1.443
 6791SOL    HW221273   4.050   2.388   1.323
 6792SOL     OW21274   6.657   5.767   4.978
 6792SOL    HW121275   6.609   5.829   5.039
 6792SOL    HW221276   6.735   5.726   5.026
 6793SOL     OW21277   1.307   2.480   0.967
 6793SOL    HW121278   1.317   2.381   0.975
 6793SOL    HW221279   1.378   2.525   1.020
 6794SOL     OW21280   4.985   1.633   6.098
 6794SOL    HW121281   5.043   1.552   6.086
 6794SOL    HW221282   5.042   1.713   6.115
 6795SOL     OW21283   2.687   6.746   1.247
 6795SOL    HW121284   2.617   6.810   1.278
 6795SOL    HW221285   2.710   6.684   1.322
 6796SOL     OW21286   6.653   0.392   1.960
 6796SOL    HW121287   6.618   0.442   1.880
 6796SOL    HW221288   6.692   0.457   2.025
 6797SOL     OW21289   6.118   2.263   1.822
 6797SOL    HW121290   6.180   2.288   1.748
 6797SOL    HW221291   6.133   2.168   1.849
 6798SOL     OW21292   4.676   6.907   2.247
 6798SOL    HW121293   4.594   6.877   2.199
 6798SOL    HW221294   4.658   6.994   2.293
 6799SOL     OW21295   6.157   6.342   1.853
 6799SOL    HW121296   6.187   6.261   1.803
 6799SOL    HW221297   6.118   6.408   1.789
 6800SOL     OW21298   2.059   3.737   1.687
 6800SOL    HW121299   2.142   3.683   1.675
 6800SOL    HW221300   1.979   3.679   1.672
 6801SOL     OW21301   0.752   0.016   3.091
 6801SOL    HW121302   0.674   6.986   3.066
 6801SOL    HW221303   0.782   7.020   3.184
 6802SOL     OW21304   3.538   6.174   1.109
 6802SOL    HW121305   3.623   6.201   1.062
 6802SOL    HW221306   3.459   6.206   1.056
 6803SOL     OW21307   4.790   2.904   5.920
 6803SOL    HW121308   4.773   2.843   5.843
 6803SOL    HW221309   4.708   2.960   5.937
 6804SOL     OW21310   3.669   5.183   3.692
 6804SOL    HW121311   3.695   5.226   3.779
 6804SOL    HW221312   3.684   5.085   3.697
 6805SOL     OW21313   6.956   4.915   6.479
 6805SOL    HW121314   6.858   4.898   6.483
 6805SOL    HW221315   7.005   4.830   6.463
 6806SOL     OW21316   5.747   0.313   3.322
 6806SOL    HW121317   5.832   0.352   3.288
 6806SOL    HW221318   5.767   0.235   3.381
 6807SOL     OW21319   3.256   2.988   0.403
 6807SOL    HW121320   3.242   3.072   0.351
 6807SOL    HW221321   3.348   2.988   0.443
 6808SOL     OW21322   6.854   2.262   5.293
 6808SOL    HW121323   6.887   2.171   5.270
 6808SOL    HW221324   6.931   2.320   5.320
 6809SOL     OW21325   1.036   2.988   1.539
 6809SOL    HW121326   0.938   2.965   1.540
 6809SOL    HW221327   1.078   2.950   1.456
 6810SOL     OW21328   1.675   1.010   2.399
 6810SOL    HW121329   1.625   0.955   2.332
 6810SOL    HW221330   1.663   0.971   2.490
 6811SOL     OW21331   5.777   3.769   1.285
 6811SOL    HW121332   5.811   3.767   1.191
 6811SOL    HW221333   5.821   3.697   1.338
 6812SOL     OW21334   3.241   3.345   3.311
 6812SOL    HW121335   3.303   3.402   3.366
 6812SOL    HW221336   3.196   3.279   3.371
 6813SOL     OW21337   4.973   2.565   2.481
 6813SOL    HW121338   4.942   2.510   2.559
 6813SOL    HW221339   4.957   2.661   2.500
 6814SOL     OW21340   3.295   1.525   5.971
 6814SOL    HW121341   3.355   1.603   5.953
 6814SOL    HW221342   3.203   1.546   5.939
 6815SOL     OW21343   3.468   6.917   1.192
 6815SOL    HW121344   3.371   6.896   1.192
 6815SOL    HW221345   3.493   6.962   1.278
 6816SOL     OW21346   6.834   6.981   6.753
 6816SOL    HW121347   6.860   6.938   6.666
 6816SOL    HW221348   6.765   0.024   6.736
 6817SOL     OW21349   1.860   2.275   2.725
 6817SOL    HW121350   1.917   2.344   2.770
 6817SOL    HW221351   1.783   2.251   2.784
 6818SOL     OW21352   3.286   6.022   2.350
 6818SOL    HW121353   3.189   6.046   2.342
 6818SOL    HW221354   3.315   6.034   2.444
 6819SOL     OW21355   5.566   1.069   4.242
 6819SOL    HW121356   5.619   0.986   4.258
 6819SOL    HW221357   5.582   1.102   4.149
 6820SOL     OW21358   2.180   5.278   2.519
 6820SOL    HW121359   2.196   5.322   2.431
 6820SOL    HW221360   2.254   5.302   2.582
 6821SOL     OW21361   4.098   2.265   4.655
 6821SOL    HW121362   4.152   2.228   4.731
 6821SOL    HW221363   4.054   2.350   4.684
 6822SOL     OW21364   5.754   2.570   6.731
 6822SOL    HW121365   5.752   2.513   6.813
 6822SOL    HW221366   5.845   2.609   6.719
 6823SOL     OW21367   4.076   3.249   5.153
 6823SOL    HW121368   4.075   3.303   5.237
 6823SOL    HW221369   4.056   3.308   5.075
 6824SOL     OW21370   1.106   1.905   6.224
 6824SOL    HW121371   1.137   1.820   6.180
 6824SOL    HW221372   1.025   1.939   6.178
 6825SOL     OW21373   5.122   6.354   1.759
 6825SOL    HW121374   5.081   6.280   1.705
 6825SOL    HW221375   5.212   6.325   1.792
 6826SOL     OW21376   2.044   3.965   2.813
 6826SOL    HW121377   2.097   3.919   2.742
 6826SOL    HW221378   1.950   3.979   2.781
 6827SOL     OW21379   4.711   5.744   6.031
 6827SOL    HW121380   4.614   5.743   6.005
 6827SOL    HW221381   4.764   5.689   5.967
 6828SOL     OW21382   2.629   2.158   1.524
 6828SOL    HW121383   2.536   2.195   1.528
 6828SOL    HW221384   2.649   2.109   1.609
 6829SOL     OW21385   4.278   6.741   4.056
 6829SOL    HW121386   4.187   6.774   4.083
 6829SOL    HW221387   4.345   6.768   4.125
 6830SOL     OW21388   5.437   0.708   3.830
 6830SOL    HW121389   5.458   0.669   3.740
 6830SOL    HW221390   5.368   0.653   3.876
 6831SOL     OW21391   1.834   0.735   6.912
 6831SOL    HW121392   1.821   0.732   7.011
 6831SOL    HW221393   1.799   0.651   6.871
 6832SOL     OW21394   3.236   4.306   1.157
 6832SOL    HW121395   3.240   4.243   1.080
 6832SOL    HW221396   3.246   4.400   1.125
 6833SOL     OW21397   3.590   4.675   6.569
 6833SOL    HW121398   3.507   4.671   6.514
 6833SOL    HW221399   3.575   4.736   6.647
 6834SOL     OW21400   4.966   6.485   1.100
 6834SOL    HW121401   4.954   6.498   1.002
 6834SOL    HW221402   4.923   6.561   1.149
 6835SOL     OW21403   3.985   0.143   4.418
 6835SOL    HW121404   3.911   0.199   4.454
 6835SOL    HW221405   4.013   0.076   4.487
 6836SOL     OW21406   2.543   5.207   7.004
 6836SOL    HW121407   2.446   5.209   7.027
 6836SOL    HW221408   2.596   5.183   0.060
 6837SOL     OW21409   0.440   1.828   2.005
 6837SOL    HW121410   0.534   1.862   1.993
 6837SOL    HW221411   0.406   1.854   2.095
 6838SOL     OW21412   3.245   6.191   0.391
 6838SOL    HW121413   3.208   6.265   0.334
 6838SOL    HW221414   3.214   6.204   0.485
 6839SOL     OW21415   5.393   0.776   6.789
 6839SOL    HW121416   5.463   0.824   6.736
 6839SOL    HW221417   5.415   0.781   6.886
 6840SOL     OW21418   3.622   0.666   4.755
 6840SOL    HW121419   3.572   0.701   4.834
 6840SOL    HW221420   3.634   0.740   4.688
 6841SOL     OW21421   4.312   4.134   6.841
 6841SOL    HW121422   4.366   4.075   6.900
 6841SOL    HW221423   4.359   4.222   6.830
 6842SOL     OW21424   2.290   4.301   0.795
 6842SOL    HW121425   2.235   4.363   0.850
 6842SOL    HW221426   2.292   4.333   0.700
 6843SOL     OW21427   6.475   0.009   0.567
 6843SOL    HW121428   6.484   0.096   0.518
 6843SOL    HW221429   6.473   0.027   0.666
 6844SOL     OW21430   5.590   0.574   4.154
 6844SOL    HW121431   5.688   0.580   4.168
 6844SOL    HW221432   5.562   0.638   4.082
 6845SOL     OW21433   6.429   3.327   3.135
 6845SOL    HW121434   6.435   3.294   3.229
 6845SOL    HW221435   6.388   3.418   3.134
 6846SOL     OW21436   3.707   3.244   0.272
 6846SOL    HW121437   3.616   3.283   0.260
 6846SOL    HW221438   3.735   3.199   0.186
 6847SOL     OW21439   0.302   3.357   4.588
 6847SOL    HW121440   0.398   3.357   4.562
 6847SOL    HW221441   0.253   3.426   4.534
 6848SOL     OW21442   4.801   5.046   3.816
 6848SOL    HW121443   4.794   5.015   3.721
 6848SOL    HW221444   4.715   5.025   3.864
 6849SOL     OW21445   4.632   4.389   5.681
 6849SOL    HW121446   4.535   4.393   5.657
 6849SOL    HW221447   4.647   4.440   5.765
 6850SOL     OW21448   5.510   3.460   3.055
 6850SOL    HW121449   5.518   3.535   3.121
 6850SOL    HW221450   5.417   3.456   3.019
 6851SOL     OW21451   6.731   2.015   3.581
 6851SOL    HW121452   6.753   1.960   3.500
 6851SOL    HW221453   6.707   2.107   3.552
 6852SOL     OW21454   2.499   4.687   1.381
 6852SOL    HW121455   2.529   4.699   1.476
 6852SOL    HW221456   2.458   4.596   1.371
 6853SOL     OW21457   5.484   4.682   0.329
 6853SOL    HW121458   5.501   4.701   0.233
 6853SOL    HW221459   5.572   4.671   0.377
 6854SOL     OW21460   4.694   0.648   5.577
 6854SOL    HW121461   4.774   0.630   5.634
 6854SOL    HW221462   4.668   0.744   5.586
 6855SOL     OW21463   4.053   6.485   3.819
 6855SOL    HW121464   4.101   6.483   3.906
 6855SOL    HW221465   4.117   6.503   3.745
 6856SOL     OW21466   0.185   2.278   5.174
 6856SOL    HW121467   0.106   2.285   5.236
 6856SOL    HW221468   0.166   2.209   5.104
 6857SOL     OW21469   1.478   2.743   6.595
 6857SOL    HW121470   1.405   2.706   6.537
 6857SOL    HW221471   1.550   2.675   6.604
 6858SOL     OW21472   4.009   3.802   1.931
 6858SOL    HW121473   4.077   3.751   1.984
 6858SOL    HW221474   3.917   3.778   1.963
 6859SOL     OW21475   1.331   1.279   1.106
 6859SOL    HW121476   1.377   1.194   1.130
 6859SOL    HW221477   1.266   1.262   1.032
 6860SOL     OW21478   0.174   5.233   1.645
 6860SOL    HW121479   0.270   5.215   1.664
 6860SOL    HW221480   0.122   5.147   1.651
 6861SOL     OW21481   4.341   4.314   0.128
 6861SOL    HW121482   4.373   4.246   0.194
 6861SOL    HW221483   4.420   4.362   0.089
 6862SOL     OW21484   0.939   5.700   5.769
 6862SOL    HW121485   0.876   5.777   5.757
 6862SOL    HW221486   1.030   5.725   5.734
 6863SOL     OW21487   6.071   6.660   5.925
 6863SOL    HW121488   6.141   6.686   5.858
 6863SOL    HW221489   6.050   6.738   5.984
 6864SOL     OW21490   2.269   4.763   4.881
 6864SOL    HW121491   2.352   4.820   4.878
 6864SOL    HW221492   2.265   4.706   4.799
 6865SOL     OW21493   0.854   6.132   4.711
 6865SOL    HW121494   0.895   6.222   4.723
 6865SOL    HW221495   0.794   6.134   4.631
 6866SOL     OW21496   5.656   5.525   2.972
 6866SOL    HW121497   5.735   5.464   2.961
 6866SOL    HW221498   5.572   5.472   2.961
 6867SOL     OW21499   2.149   3.786   2.310
 6867SOL    HW121500   2.151   3.710   2.245
 6867SOL    HW221501   2.198   3.864   2.271
 6868SOL     OW21502   1.905   6.573   6.397
 6868SOL    HW121503   1.995   6.611   6.377
 6868SOL    HW221504   1.868   6.529   6.314
 6869SOL     OW21505   4.722   0.991   6.204
 6869SOL    HW121506   4.763   0.930   6.271
 6869SOL    HW221507   4.738   1.086   6.231
 6870SOL     OW21508   0.190   4.421   1.270
 6870SOL    HW121509   0.247   4.393   1.348
 6870SOL    HW221510   0.170   4.518   1.277
 6871SOL     OW21511   6.338   4.119   3.345
 6871SOL    HW121512   6.345   4.176   3.426
 6871SOL    HW221513   6.378   4.029   3.364
 6872SOL     OW21514   0.144   2.514   1.615
 6872SOL    HW121515   0.089   2.595   1.594
 6872SOL    HW221516   0.119   2.478   1.704
 6873SOL     OW21517   0.139   3.470   3.732
 6873SOL    HW121518   0.189   3.463   3.819
 6873SOL    HW221519   0.077   3.548   3.735
 6874SOL     OW21520   6.813   5.122   3.199
 6874SOL    HW121521   6.824   5.183   3.121
 6874SOL    HW221522   6.812   5.027   3.167
 6875SOL     OW21523   2.181   2.570   2.424
 6875SOL    HW121524   2.176   2.470   2.422
 6875SOL    HW221525   2.269   2.599   2.386
 6876SOL     OW21526   3.911   6.923   3.989
 6876SOL    HW121527   3.883   6.927   4.085
 6876SOL    HW221528   3.829   6.914   3.931
 6877SOL     OW21529   3.266   4.167   1.408
 6877SOL    HW121530   3.261   4.229   1.330
 6877SOL    HW221531   3.202   4.091   1.394
 6878SOL     OW21532   3.711   1.249   4.474
 6878SOL    HW121533   3.718   1.215   4.568
 6878SOL    HW221534   3.799   1.285   4.444
 6879SOL     OW21535   1.166   2.869   0.572
 6879SOL    HW121536   1.247   2.869   0.631
 6879SOL    HW221537   1.085   2.849   0.627
 6880SOL     OW21538   1.731   5.325   5.955
 6880SOL    HW121539   1.756   5.395   6.022
 6880SOL    HW221540   1.678   5.366   5.881
 6881SOL     OW21541   1.555   3.998   1.522
 6881SOL    HW121542   1.550   3.904   1.487
 6881SOL    HW221543   1.604   4.055   1.456
 6882SOL     OW21544   2.844   0.662   0.358
 6882SOL    HW121545   2.823   0.650   0.455
 6882SOL    HW221546   2.777   0.723   0.316
 6883SOL     OW21547   5.127   2.419   0.227
 6883SOL    HW121548   5.197   2.370   0.279
 6883SOL    HW221549   5.167   2.453   0.142
 6884SOL     OW21550   1.153   4.352   3.501
 6884SOL    HW121551   1.113   4.405   3.576
 6884SOL    HW221552   1.081   4.311   3.446
 6885SOL     OW21553   4.792   4.893   3.573
 6885SOL    HW121554   4.718   4.840   3.613
 6885SOL    HW221555   4.852   4.833   3.521
 6886SOL     OW21556   6.830   1.309   4.409
 6886SOL    HW121557   6.876   1.222   4.394
 6886SOL    HW221558   6.894   1.373   4.451
 6887SOL     OW21559   4.615   5.334   6.809
 6887SOL    HW121560   4.670   5.250   6.807
 6887SOL    HW221561   4.660   5.401   6.868
 6888SOL     OW21562   5.362   5.468   6.532
 6888SOL    HW121563   5.325   5.482   6.440
 6888SOL    HW221564   5.387   5.556   6.572
 6889SOL     OW21565   1.056   2.879   5.914
 6889SOL    HW121566   0.961   2.907   5.925
 6889SOL    HW221567   1.065   2.782   5.937
 6890SOL     OW21568   3.919   6.369   2.043
 6890SOL    HW121569   3.982   6.446   2.039
 6890SOL    HW221570   3.872   6.369   2.132
 6891SOL     OW21571   2.066   4.133   2.312
 6891SOL    HW121572   2.129   4.078   2.257
 6891SOL    HW221573   1.979   4.141   2.264
 6892SOL     OW21574   3.177   1.832   3.890
 6892SOL    HW121575   3.263   1.806   3.934
 6892SOL    HW221576   3.164   1.777   3.808
 6893SOL     OW21577   4.618   4.531   0.303
 6893SOL    HW121578   4.624   4.449   0.360
 6893SOL    HW221579   4.524   4.564   0.303
 6894SOL     OW21580   5.925   4.389   0.754
 6894SOL    HW121581   5.898   4.415   0.661
 6894SOL    HW221582   6.012   4.433   0.777
 6895SOL     OW21583   2.339   5.059   1.143
 6895SOL    HW121584   2.358   5.055   1.045
 6895SOL    HW221585   2.259   5.003   1.164
 6896SOL     OW21586   2.964   1.554   4.084
 6896SOL    HW121587   2.878   1.503   4.084
 6896SOL    HW221588   2.977   1.597   4.174
 6897SOL     OW21589   4.851   3.892   4.913
 6897SOL    HW121590   4.771   3.946   4.938
 6897SOL    HW221591   4.842   3.799   4.950
 6898SOL     OW21592   4.149   1.520   1.272
 6898SOL    HW121593   4.094   1.597   1.303
 6898SOL    HW221594   4.222   1.502   1.338
 6899SOL     OW21595   4.588   6.082   2.260
 6899SOL    HW121596   4.575   6.083   2.359
 6899SOL    HW221597   4.602   6.175   2.227
 6900SOL     OW21598   6.227   5.189   4.964
 6900SOL    HW121599   6.298   5.141   5.016
 6900SOL    HW221600   6.216   5.146   4.875
 6901SOL     OW21601   6.435   6.289   6.228
 6901SOL    HW121602   6.498   6.273   6.152
 6901SOL    HW221603   6.486   6.311   6.310
 6902SOL     OW21604   6.523   5.561   6.170
 6902SOL    HW121605   6.559   5.496   6.236
 6902SOL    HW221606   6.586   5.638   6.161
 6903SOL     OW21607   3.272   5.199   5.051
 6903SOL    HW121608   3.295   5.102   5.045
 6903SOL    HW221609   3.180   5.210   5.087
 6904SOL     OW21610   5.987   0.608   5.679
 6904SOL    HW121611   5.963   0.511   5.681
 6904SOL    HW221612   6.043   0.630   5.758
 6905SOL     OW21613   5.443   5.894   0.229
 6905SOL    HW121614   5.530   5.909   0.181
 6905SOL    HW221615   5.371   5.877   0.162
 6906SOL     OW21616   3.562   1.592   3.859
 6906SOL    HW121617   3.487   1.576   3.923
 6906SOL    HW221618   3.642   1.624   3.909
 6907SOL     OW21619   5.493   2.478   1.668
 6907SOL    HW121620   5.404   2.524   1.665
 6907SOL    HW221621   5.480   2.382   1.692
 6908SOL     OW21622   1.765   5.769   6.672
 6908SOL    HW121623   1.792   5.690   6.617
 6908SOL    HW221624   1.710   5.738   6.750
 6909SOL     OW21625   5.076   3.763   0.864
 6909SOL    HW121626   5.035   3.853   0.852
 6909SOL    HW221627   5.118   3.758   0.955
 6910SOL     OW21628   1.535   3.753   3.414
 6910SOL    HW121629   1.464   3.697   3.372
 6910SOL    HW221630   1.570   3.707   3.495
 6911SOL     OW21631   4.055   6.770   4.220
 6911SOL    HW121632   4.014   6.857   4.249
 6911SOL    HW221633   3.983   6.701   4.212
 6912SOL     OW21634   2.718   3.462   5.906
 6912SOL    HW121635   2.785   3.389   5.919
 6912SOL    HW221636   2.626   3.427   5.925
 6913SOL     OW21637   5.289   6.153   4.297
 6913SOL    HW121638   5.225   6.223   4.330
 6913SOL    HW221639   5.238   6.082   4.248
 6914SOL     OW21640   5.854   4.321   3.725
 6914SOL    HW121641   5.862   4.338   3.823
 6914SOL    HW221642   5.784   4.252   3.708
 6915SOL     OW21643   6.183   2.729   1.803
 6915SOL    HW121644   6.257   2.738   1.869
 6915SOL    HW221645   6.122   2.808   1.810
 6916SOL     OW21646   5.285   1.785   0.006
 6916SOL    HW121647   5.289   1.858   0.074
 6916SOL    HW221648   5.369   1.785   6.978
 6917SOL     OW21649   3.880   6.751   0.885
 6917SOL    HW121650   3.809   6.758   0.955
 6917SOL    HW221651   3.931   6.836   0.880
 6918SOL     OW21652   0.712   2.279   4.265
 6918SOL    HW121653   0.643   2.348   4.242
 6918SOL    HW221654   0.803   2.317   4.248
 6919SOL     OW21655   5.486   5.862   4.414
 6919SOL    HW121656   5.539   5.777   4.411
 6919SOL    HW221657   5.428   5.867   4.332
 6920SOL     OW21658   4.621   6.920   5.424
 6920SOL    HW121659   4.684   6.997   5.415
 6920SOL    HW221660   4.674   6.835   5.432
 6921SOL     OW21661   4.546   6.062   4.182
 6921SOL    HW121662   4.589   5.976   4.210
 6921SOL    HW221663   4.499   6.048   4.094
 6922SOL     OW21664   1.996   5.588   5.482
 6922SOL    HW121665   2.066   5.542   5.427
 6922SOL    HW221666   1.990   5.683   5.455
 6923SOL     OW21667   5.314   5.602   2.727
 6923SOL    HW121668   5.291   5.645   2.815
 6923SOL    HW221669   5.260   5.519   2.716
 6924SOL     OW21670   1.715   4.442   0.260
 6924SOL    HW121671   1.711   4.485   0.169
 6924SOL    HW221672   1.771   4.359   0.255
 6925SOL     OW21673   4.957   5.884   4.494
 6925SOL    HW121674   5.002   5.878   4.583
 6925SOL    HW221675   4.883   5.817   4.490
 6926SOL     OW21676   2.613   2.963   0.759
 6926SOL    HW121677   2.627   3.051   0.805
 6926SOL    HW221678   2.515   2.943   0.752
 6927SOL     OW21679   3.569   2.834   5.836
 6927SOL    HW121680   3.486   2.829   5.892
 6927SOL    HW221681   3.630   2.758   5.859
 6928SOL     OW21682   5.687   5.479   1.206
 6928SOL    HW121683   5.741   5.502   1.125
 6928SOL    HW221684   5.596   5.520   1.197
 6929SOL     OW21685   4.850   5.524   2.196
 6929SOL    HW121686   4.751   5.541   2.188
 6929SOL    HW221687   4.867   5.463   2.274
 6930SOL     OW21688   1.776   0.779   1.829
 6930SOL    HW121689   1.862   0.815   1.793
 6930SOL    HW221690   1.717   0.855   1.857
 6931SOL     OW21691   1.479   1.218   2.454
 6931SOL    HW121692   1.548   1.155   2.419
 6931SOL    HW221693   1.408   1.232   2.385
 6932SOL     OW21694   4.446   0.148   0.363
 6932SOL    HW121695   4.375   0.164   0.295
 6932SOL    HW221696   4.405   0.150   0.455
 6933SOL     OW21697   3.518   6.175   5.578
 6933SOL    HW121698   3.522   6.109   5.653
 6933SOL    HW221699   3.423   6.190   5.551
 6934SOL     OW21700   4.261   3.271   5.933
 6934SOL    HW121701   4.319   3.352   5.928
 6934SOL    HW221702   4.170   3.294   5.900
 6935SOL     OW21703   4.780   5.716   2.913
 6935SOL    HW121704   4.736   5.640   2.866
 6935SOL    HW221705   4.865   5.739   2.867
 6936SOL     OW21706   6.374   3.242   4.222
 6936SOL    HW121707   6.330   3.189   4.295
 6936SOL    HW221708   6.390   3.182   4.144
 6937SOL     OW21709   6.083   5.985   0.882
 6937SOL    HW121710   6.032   5.905   0.852
 6937SOL    HW221711   6.021   6.062   0.895
 6938SOL     OW21712   6.626   2.562   4.931
 6938SOL    HW121713   6.530   2.582   4.952
 6938SOL    HW221714   6.663   2.502   5.002
 6939SOL     OW21715   0.077   5.250   2.318
 6939SOL    HW121716   0.014   5.210   2.385
 6939SOL    HW221717   0.161   5.196   2.314
 6940SOL     OW21718   3.873   0.383   6.745
 6940SOL    HW121719   3.848   0.464   6.798
 6940SOL    HW221720   3.808   0.310   6.763
 6941SOL     OW21721   2.942   3.734   1.922
 6941SOL    HW121722   2.950   3.748   2.021
 6941SOL    HW221723   2.918   3.820   1.878
 6942SOL     OW21724   6.246   6.755   2.536
 6942SOL    HW121725   6.175   6.701   2.581
 6942SOL    HW221726   6.224   6.853   2.544
 6943SOL     OW21727   4.173   6.038   1.026
 6943SOL    HW121728   4.170   6.022   0.927
 6943SOL    HW221729   4.093   6.091   1.054
 6944SOL     OW21730   1.185   4.873   6.571
 6944SOL    HW121731   1.115   4.806   6.597
 6944SOL    HW221732   1.144   4.945   6.516
 6945SOL     OW21733   6.830   1.640   0.325
 6945SOL    HW121734   6.782   1.712   0.274
 6945SOL    HW221735   6.803   1.645   0.421
 6946SOL     OW21736   4.369   0.059   1.137
 6946SOL    HW121737   4.439   0.034   1.204
 6946SOL    HW221738   4.278   0.053   1.179
 6947SOL     OW21739   3.516   5.512   0.192
 6947SOL    HW121740   3.459   5.593   0.180
 6947SOL    HW221741   3.610   5.533   0.162
 6948SOL     OW21742   1.161   6.282   0.811
 6948SOL    HW121743   1.149   6.294   0.712
 6948SOL    HW221744   1.196   6.367   0.851
 6949SOL     OW21745   3.678   6.990   3.338
 6949SOL    HW121746   3.671   6.893   3.315
 6949SOL    HW221747   3.746   0.007   3.280
 6950SOL     OW21748   1.721   1.180   5.222
 6950SOL    HW121749   1.709   1.231   5.137
 6950SOL    HW221750   1.643   1.119   5.236
 6951SOL     OW21751   6.741   5.489   5.877
 6951SOL    HW121752   6.784   5.440   5.953
 6951SOL    HW221753   6.650   5.519   5.905
 6952SOL     OW21754   0.857   5.076   3.162
 6952SOL    HW121755   0.778   5.130   3.193
 6952SOL    HW221756   0.833   5.029   3.077
 6953SOL     OW21757   4.557   6.650   1.022
 6953SOL    HW121758   4.604   6.562   1.015
 6953SOL    HW221759   4.503   6.653   1.106
 6954SOL     OW21760   0.890   3.977   1.920
 6954SOL    HW121761   0.865   3.888   1.959
 6954SOL    HW221762   0.877   3.974   1.821
 6955SOL     OW21763   5.485   0.947   2.074
 6955SOL    HW121764   5.439   0.915   2.157
 6955SOL    HW221765   5.580   0.914   2.073
 6956SOL     OW21766   5.328   5.598   3.404
 6956SOL    HW121767   5.387   5.554   3.472
 6956SOL    HW221768   5.366   5.687   3.379
 6957SOL     OW21769   6.311   5.838   0.953
 6957SOL    HW121770   6.279   5.751   0.916
 6957SOL    HW221771   6.249   5.911   0.925
 6958SOL     OW21772   4.122   3.290   4.699
 6958SOL    HW121773   4.180   3.220   4.739
 6958SOL    HW221774   4.134   3.376   4.748
 6959SOL     OW21775   2.128   3.045   2.971
 6959SOL    HW121776   2.139   3.140   2.942
 6959SOL    HW221777   2.138   3.038   3.070
 6960SOL     OW21778   2.066   3.901   1.485
 6960SOL    HW121779   2.085   3.847   1.567
 6960SOL    HW221780   2.140   3.888   1.419
 6961SOL     OW21781   5.956   0.296   4.521
 6961SOL    HW121782   5.923   0.214   4.474
 6961SOL    HW221783   6.054   0.287   4.539
 6962SOL     OW21784   4.384   5.771   1.505
 6962SOL    HW121785   4.481   5.772   1.530
 6962SOL    HW221786   4.350   5.865   1.500
 6963SOL     OW21787   5.243   5.589   1.270
 6963SOL    HW121788   5.223   5.580   1.367
 6963SOL    HW221789   5.338   5.616   1.257
 6964SOL     OW21790   3.882   1.459   5.877
 6964SOL    HW121791   3.946   1.406   5.822
 6964SOL    HW221792   3.917   1.466   5.971
 6965SOL     OW21793   2.163   1.177   6.971
 6965SOL    HW121794   2.071   1.209   6.997
 6965SOL    HW221795   2.167   1.166   6.871
 6966SOL     OW21796   0.719   1.312   2.622
 6966SOL    HW121797   0.797   1.250   2.614
 6966SOL    HW221798   0.636   1.260   2.642
 6967SOL     OW21799   3.042   0.987   6.397
 6967SOL    HW121800   3.047   1.068   6.455
 6967SOL    HW221801   2.969   0.928   6.430
 6968SOL     OW21802   3.881   1.114   3.616
 6968SOL    HW121803   3.826   1.188   3.655
 6968SOL    HW221804   3.823   1.033   3.604
 6969SOL     OW21805   2.767   2.451   1.467
 6969SOL    HW121806   2.808   2.379   1.411
 6969SOL    HW221807   2.687   2.488   1.420
 6970SOL     OW21808   3.782   3.639   5.609
 6970SOL    HW121809   3.828   3.695   5.677
 6970SOL    HW221810   3.835   3.638   5.524
 6971SOL     OW21811   6.391   4.726   0.626
 6971SOL    HW121812   6.321   4.777   0.676
 6971SOL    HW221813   6.360   4.631   0.614
 6972SOL     OW21814   5.170   4.692   3.277
 6972SOL    HW121815   5.262   4.693   3.315
 6972SOL    HW221816   5.139   4.597   3.267
 6973SOL     OW21817   0.280   2.957   3.035
 6973SOL    HW121818   0.307   2.936   2.941
 6973SOL    HW221819   0.286   2.874   3.090
 6974SOL     OW21820   3.032   3.981   2.419
 6974SOL    HW121821   3.064   3.928   2.497
 6974SOL    HW221822   3.066   4.075   2.425
 6975SOL     OW21823   1.683   6.535   5.318
 6975SOL    HW121824   1.640   6.606   5.262
 6975SOL    HW221825   1.782   6.543   5.311
 6976SOL     OW21826   6.670   4.881   5.795
 6976SOL    HW121827   6.717   4.952   5.742
 6976SOL    HW221828   6.724   4.860   5.877
 6977SOL     OW21829   3.465   2.940   0.824
 6977SOL    HW121830   3.555   2.915   0.858
 6977SOL    HW221831   3.427   2.865   0.771
 6978SOL     OW21832   5.049   2.406   1.991
 6978SOL    HW121833   5.147   2.388   1.995
 6978SOL    HW221834   5.002   2.324   1.958
 6979SOL     OW21835   1.005   3.970   1.334
 6979SOL    HW121836   1.090   4.018   1.356
 6979SOL    HW221837   1.006   3.945   1.237
 6980SOL     OW21838   2.127   0.463   3.302
 6980SOL    HW121839   2.083   0.430   3.219
 6980SOL    HW221840   2.147   0.561   3.293
 6981SOL     OW21841   3.508   3.957   5.462
 6981SOL    HW121842   3.564   3.915   5.533
 6981SOL    HW221843   3.444   4.022   5.503
 6982SOL     OW21844   1.195   1.135   4.744
 6982SOL    HW121845   1.159   1.193   4.817
 6982SOL    HW221846   1.274   1.083   4.777
 6983SOL     OW21847   4.499   1.826   4.620
 6983SOL    HW121848   4.590   1.850   4.653
 6983SOL    HW221849   4.457   1.906   4.578
 6984SOL     OW21850   2.257   1.720   3.394
 6984SOL    HW121851   2.234   1.768   3.309
 6984SOL    HW221852   2.348   1.749   3.425
 6985SOL     OW21853   5.871   5.466   0.914
 6985SOL    HW121854   5.823   5.381   0.940
 6985SOL    HW221855   5.938   5.489   0.985
 6986SOL     OW21856   2.943   6.989   6.735
 6986SOL    HW121857   2.904   0.034   6.792
 6986SOL    HW221858   2.908   6.900   6.765
 6987SOL     OW21859   6.445   1.623   6.084
 6987SOL    HW121860   6.397   1.610   5.997
 6987SOL    HW221861   6.379   1.649   6.155
 6988SOL     OW21862   1.105   0.038   6.762
 6988SOL    HW121863   1.197   0.017   6.729
 6988SOL    HW221864   1.042   6.994   6.731
 6989SOL     OW21865   0.549   4.341   2.797
 6989SOL    HW121866   0.579   4.246   2.790
 6989SOL    HW221867   0.621   4.401   2.759
 6990SOL     OW21868   4.291   2.773   0.982
 6990SOL    HW121869   4.287   2.752   0.884
 6990SOL    HW221870   4.198   2.779   1.018
 6991SOL     OW21871   4.635   4.483   3.588
 6991SOL    HW121872   4.646   4.568   3.639
 6991SOL    HW221873   4.659   4.405   3.646
 6992SOL     OW21874   5.858   0.501   6.521
 6992SOL    HW121875   5.799   0.478   6.598
 6992SOL    HW221876   5.952   0.510   6.553
 6993SOL     OW21877   5.976   6.848   2.246
 6993SOL    HW121878   5.906   6.892   2.189
 6993SOL    HW221879   6.034   6.917   2.288
 6994SOL     OW21880   0.015   2.185   3.829
 6994SOL    HW121881   6.967   2.119   3.837
 6994SOL    HW221882   7.006   2.277   3.846
 6995SOL     OW21883   1.002   3.979   6.393
 6995SOL    HW121884   0.998   3.941   6.486
 6995SOL    HW221885   0.909   3.994   6.359
 6996SOL     OW21886   2.347   0.307   0.248
 6996SOL    HW121887   2.367   0.340   0.340
 6996SOL    HW221888   2.259   0.344   0.219
 6997SOL     OW21889   0.508   4.824   5.020
 6997SOL    HW121890   0.545   4.917   5.013
 6997SOL    HW221891   0.527   4.774   4.935
 6998SOL     OW21892   1.349   1.693   1.296
 6998SOL    HW121893   1.389   1.734   1.214
 6998SOL    HW221894   1.388   1.736   1.377
 6999SOL     OW21895   1.529   3.407   5.980
 6999SOL    HW121896   1.522   3.310   6.001
 6999SOL    HW221897   1.625   3.433   5.972
 7000SOL     OW21898   5.636   6.366   2.058
 7000SOL    HW121899   5.622   6.275   2.097
 7000SOL    HW221900   5.689   6.358   1.973
 7001SOL     OW21901   1.505   3.205   5.287
 7001SOL    HW121902   1.501   3.300   5.255
 7001SOL    HW221903   1.448   3.147   5.229
 7002SOL     OW21904   1.951   5.470   4.464
 7002SOL    HW121905   1.892   5.420   4.527
 7002SOL    HW221906   2.036   5.419   4.450
 7003SOL     OW21907   4.305   5.842   1.151
 7003SOL    HW121908   4.397   5.833   1.113
 7003SOL    HW221909   4.266   5.931   1.125
 7004SOL     OW21910   0.564   5.800   1.253
 7004SOL    HW121911   0.625   5.726   1.224
 7004SOL    HW221912   0.485   5.803   1.193
 7005SOL     OW21913   1.147   0.390   0.881
 7005SOL    HW121914   1.205   0.309   0.890
 7005SOL    HW221915   1.057   0.371   0.922
 7006SOL     OW21916   5.657   5.587   3.453
 7006SOL    HW121917   5.699   5.499   3.475
 7006SOL    HW221918   5.650   5.596   3.353
 7007SOL     OW21919   3.897   0.687   4.576
 7007SOL    HW121920   3.834   0.719   4.506
 7007SOL    HW221921   3.965   0.758   4.594
 7008SOL     OW21922   0.661   4.275   4.112
 7008SOL    HW121923   0.585   4.244   4.170
 7008SOL    HW221924   0.641   4.366   4.077
 7009SOL     OW21925   3.966   6.600   2.786
 7009SOL    HW121926   4.007   6.535   2.849
 7009SOL    HW221927   3.868   6.581   2.776
 7010SOL     OW21928   5.411   4.053   3.957
 7010SOL    HW121929   5.389   3.960   3.988
 7010SOL    HW221930   5.506   4.074   3.980
 7011SOL     OW21931   3.143   6.734   6.739
 7011SOL    HW121932   3.153   6.796   6.662
 7011SOL    HW221933   3.114   6.785   6.820
 7012SOL     OW21934   1.087   1.984   0.992
 7012SOL    HW121935   1.062   2.051   0.922
 7012SOL    HW221936   1.027   1.905   0.985
 7013SOL     OW21937   1.232   6.651   6.739
 7013SOL    HW121938   1.208   6.603   6.654
 7013SOL    HW221939   1.318   6.700   6.726
 7014SOL     OW21940   4.681   3.346   0.570
 7014SOL    HW121941   4.675   3.268   0.633
 7014SOL    HW221942   4.616   3.417   0.598
 7015SOL     OW21943   5.491   4.062   1.203
 7015SOL    HW121944   5.526   4.138   1.148
 7015SOL    HW221945   5.552   4.046   1.281
 7016SOL     OW21946   3.760   4.924   1.241
 7016SOL    HW121947   3.753   4.944   1.143
 7016SOL    HW221948   3.674   4.945   1.286
 7017SOL     OW21949   3.036   5.418   3.259
 7017SOL    HW121950   2.966   5.399   3.328
 7017SOL    HW221951   3.081   5.332   3.233
 7018SOL     OW21952   5.134   3.849   4.096
 7018SOL    HW121953   5.159   3.761   4.057
 7018SOL    HW221954   5.036   3.864   4.084
 7019SOL     OW21955   3.585   4.943   0.502
 7019SOL    HW121956   3.521   4.987   0.439
 7019SOL    HW221957   3.586   4.844   0.486
 7020SOL     OW21958   6.874   4.263   5.252
 7020SOL    HW121959   6.825   4.348   5.236
 7020SOL    HW221960   6.809   4.191   5.276
 7021SOL     OW21961   1.963   2.324   4.537
 7021SOL    HW121962   1.872   2.331   4.577
 7021SOL    HW221963   1.957   2.332   4.438
 7022SOL     OW21964   4.733   7.025   6.641
 7022SOL    HW121965   4.828   7.007   6.665
 7022SOL    HW221966   4.707   0.089   6.675
 7023SOL     OW21967   0.974   3.007   2.381
 7023SOL    HW121968   0.930   2.917   2.372
 7023SOL    HW221969   1.061   3.006   2.332
 7024SOL     OW21970   3.160   3.583   4.418
 7024SOL    HW121971   3.101   3.502   4.419
 7024SOL    HW221972   3.149   3.631   4.332
 7025SOL     OW21973   4.106   0.889   1.229
 7025SOL    HW121974   4.010   0.917   1.230
 7025SOL    HW221975   4.144   0.898   1.321
 7026SOL     OW21976   3.521   2.059   2.137
 7026SOL    HW121977   3.568   2.132   2.089
 7026SOL    HW221978   3.426   2.054   2.105
 7027SOL     OW21979   2.768   5.794   4.431
 7027SOL    HW121980   2.790   5.702   4.397
 7027SOL    HW221981   2.675   5.794   4.467
 7028SOL     OW21982   3.634   1.122   3.264
 7028SOL    HW121983   3.556   1.102   3.323
 7028SOL    HW221984   3.667   1.037   3.222
 7029SOL     OW21985   4.218   4.435   5.409
 7029SOL    HW121986   4.250   4.426   5.315
 7029SOL    HW221987   4.176   4.349   5.438
 7030SOL     OW21988   0.013   1.069   4.618
 7030SOL    HW121989   0.034   1.105   4.527
 7030SOL    HW221990   6.960   1.008   4.611
 7031SOL     OW21991   3.863   6.101   0.003
 7031SOL    HW121992   3.821   6.132   0.089
 7031SOL    HW221993   3.822   6.149   6.953
 7032SOL     OW21994   4.024   1.400   3.722
 7032SOL    HW121995   4.043   1.395   3.624
 7032SOL    HW221996   3.929   1.376   3.738
 7033SOL     OW21997   1.247   2.514   3.598
 7033SOL    HW121998   1.296   2.442   3.648
 7033SOL    HW221999   1.274   2.512   3.502
 7034SOL     OW22000   6.963   1.607   2.816
 7034SOL    HW122001   6.891   1.613   2.884
 7034SOL    HW222002   0.026   1.620   2.859
 7035SOL     OW22003   1.390   0.277   0.797
 7035SOL    HW122004   1.475   0.311   0.756
 7035SOL    HW222005   1.364   0.191   0.752
 7036SOL     OW22006   6.785   1.420   2.454
 7036SOL    HW122007   6.862   1.424   2.518
 7036SOL    HW222008   6.816   1.445   2.363
 7037SOL     OW22009   0.807   1.142   6.322
 7037SOL    HW122010   0.901   1.139   6.355
 7037SOL    HW222011   0.755   1.067   6.362
 7038SOL     OW22012   2.304   4.372   4.758
 7038SOL    HW122013   2.351   4.393   4.843
 7038SOL    HW222014   2.264   4.281   4.762
 7039SOL     OW22015   0.265   6.213   3.112
 7039SOL    HW122016   0.343   6.177   3.061
 7039SOL    HW222017   0.250   6.308   3.087
 7040SOL     OW22018   5.701   2.946   6.103
 7040SOL    HW122019   5.622   2.954   6.163
 7040SOL    HW222020   5.785   2.959   6.155
 7041SOL     OW22021   6.954   1.730   2.290
 7041SOL    HW122022   6.860   1.738   2.323
 7041SOL    HW222023   7.011   1.688   2.361
 7042SOL     OW22024   4.432   6.064   4.466
 7042SOL    HW122025   4.466   6.074   4.373
 7042SOL    HW222026   4.436   5.967   4.493
 7043SOL     OW22027   2.282   4.866   3.331
 7043SOL    HW122028   2.265   4.962   3.307
 7043SOL    HW222029   2.246   4.847   3.422
 7044SOL     OW22030   5.509   5.322   5.207
 7044SOL    HW122031   5.535   5.335   5.303
 7044SOL    HW222032   5.520   5.226   5.183
 7045SOL     OW22033   5.103   5.563   2.368
 7045SOL    HW122034   5.186   5.516   2.397
 7045SOL    HW222035   5.033   5.555   2.439
 7046SOL     OW22036   3.266   1.855   3.287
 7046SOL    HW122037   3.278   1.936   3.345
 7046SOL    HW222038   3.183   1.866   3.232
 7047SOL     OW22039   6.428   0.823   1.908
 7047SOL    HW122040   6.497   0.872   1.961
 7047SOL    HW222041   6.472   0.771   1.835
 7048SOL     OW22042   5.790   6.483   4.642
 7048SOL    HW122043   5.747   6.500   4.553
 7048SOL    HW222044   5.850   6.560   4.665
 7049SOL     OW22045   3.719   2.074   0.955
 7049SOL    HW122046   3.768   2.128   1.024
 7049SOL    HW222047   3.785   2.020   0.903
 7050SOL     OW22048   4.189   3.318   1.404
 7050SOL    HW122049   4.281   3.301   1.439
 7050SOL    HW222050   4.122   3.269   1.460
 7051SOL     OW22051   6.780   6.385   1.302
 7051SOL    HW122052   6.780   6.379   1.402
 7051SOL    HW222053   6.870   6.362   1.267
 7052SOL     OW22054   6.583   0.902   4.201
 7052SOL    HW122055   6.633   0.849   4.133
 7052SOL    HW222056   6.578   0.998   4.172
 7053SOL     OW22057   1.547   3.566   4.548
 7053SOL    HW122058   1.619   3.514   4.502
 7053SOL    HW222059   1.588   3.642   4.598
 7054SOL     OW22060   0.064   6.465   0.884
 7054SOL    HW122061   0.121   6.525   0.827
 7054SOL    HW222062   0.014   6.520   0.950
 7055SOL     OW22063   2.982   0.447   0.305
 7055SOL    HW122064   2.928   0.531   0.313
 7055SOL    HW222065   2.950   0.380   0.372
 7056SOL     OW22066   6.463   4.968   1.517
 7056SOL    HW122067   6.458   5.067   1.524
 7056SOL    HW222068   6.558   4.941   1.496
 7057SOL     OW22069   2.841   4.884   3.774
 7057SOL    HW122070   2.938   4.904   3.766
 7057SOL    HW222071   2.814   4.821   3.701
 7058SOL     OW22072   5.566   2.517   5.964
 7058SOL    HW122073   5.562   2.446   6.034
 7058SOL    HW222074   5.557   2.607   6.007
 7059SOL     OW22075   1.248   0.850   3.999
 7059SOL    HW122076   1.310   0.895   4.065
 7059SOL    HW222077   1.155   0.885   4.012
 7060SOL     OW22078   3.328   0.375   0.716
 7060SOL    HW122079   3.301   0.346   0.808
 7060SOL    HW222080   3.310   0.472   0.705
 7061SOL     OW22081   0.043   2.735   3.653
 7061SOL    HW122082   7.021   2.822   3.665
 7061SOL    HW222083   0.128   2.751   3.602
 7062SOL     OW22084   3.616   2.170   5.249
 7062SOL    HW122085   3.714   2.183   5.234
 7062SOL    HW222086   3.580   2.109   5.178
 7063SOL     OW22087   1.610   6.974   1.973
 7063SOL    HW122088   1.589   6.886   2.015
 7063SOL    HW222089   1.707   6.995   1.983
 7064SOL     OW22090   4.040   2.161   6.975
 7064SOL    HW122091   3.976   2.238   6.988
 7064SOL    HW222092   4.109   2.163   0.021
 7065SOL     OW22093   2.974   4.078   5.108
 7065SOL    HW122094   2.986   4.058   5.011
 7065SOL    HW222095   2.944   4.172   5.120
 7066SOL     OW22096   4.262   0.034   6.120
 7066SOL    HW122097   4.164   0.022   6.103
 7066SOL    HW222098   4.279   0.124   6.160
 7067SOL     OW22099   0.898   3.602   5.582
 7067SOL    HW122100   0.864   3.626   5.491
 7067SOL    HW222101   0.998   3.593   5.580
 7068SOL     OW22102   5.518   4.111   4.659
 7068SOL    HW122103   5.605   4.107   4.709
 7068SOL    HW222104   5.443   4.120   4.723
 7069SOL     OW22105   6.107   1.322   5.482
 7069SOL    HW122106   6.093   1.360   5.391
 7069SOL    HW222107   6.205   1.313   5.500
 7070SOL     OW22108   1.056   6.652   4.176
 7070SOL    HW122109   1.060   6.683   4.081
 7070SOL    HW222110   1.006   6.719   4.231
 7071SOL     OW22111   3.593   5.811   7.016
 7071SOL    HW122112   3.633   5.845   0.075
 7071SOL    HW222113   3.498   5.785   0.005
 7072SOL     OW22114   2.074   5.089   7.012
 7072SOL    HW122115   2.083   5.014   6.946
 7072SOL    HW222116   1.990   5.077   0.039
 7073SOL     OW22117   4.032   0.117   3.516
 7073SOL    HW122118   4.047   0.215   3.517
 7073SOL    HW222119   4.116   0.070   3.543
 7074SOL     OW22120   6.127   2.837   2.717
 7074SOL    HW122121   6.213   2.884   2.697
 7074SOL    HW222122   6.064   2.900   2.763
 7075SOL     OW22123   2.153   4.929   4.372
 7075SOL    HW122124   2.129   4.849   4.427
 7075SOL    HW222125   2.242   4.915   4.328
 7076SOL     OW22126   5.302   3.190   0.357
 7076SOL    HW122127   5.379   3.218   0.414
 7076SOL    HW222128   5.216   3.214   0.403
 7077SOL     OW22129   2.202   3.999   3.766
 7077SOL    HW122130   2.157   4.034   3.684
 7077SOL    HW222131   2.201   3.899   3.765
 7078SOL     OW22132   6.446   6.346   1.058
 7078SOL    HW122133   6.424   6.362   0.962
 7078SOL    HW222134   6.414   6.424   1.113
 7079SOL     OW22135   1.186   6.821   3.594
 7079SOL    HW122136   1.119   6.885   3.556
 7079SOL    HW222137   1.160   6.728   3.570
 7080SOL     OW22138   3.764   1.689   3.989
 7080SOL    HW122139   3.755   1.741   4.073
 7080SOL    HW222140   3.858   1.697   3.955
 7081SOL     OW22141   1.154   5.319   0.380
 7081SOL    HW122142   1.150   5.317   0.280
 7081SOL    HW222143   1.168   5.413   0.411
 7082SOL     OW22144   0.014   4.166   0.471
 7082SOL    HW122145   0.037   4.102   0.398
 7082SOL    HW222146   6.975   4.233   0.437
 7083SOL     OW22147   0.055   1.443   2.312
 7083SOL    HW122148   7.001   1.477   2.263
 7083SOL    HW222149   0.089   1.514   2.373
 7084SOL     OW22150   1.106   5.240   5.836
 7084SOL    HW122151   1.105   5.209   5.741
 7084SOL    HW222152   1.042   5.316   5.847
 7085SOL     OW22153   6.734   2.326   2.730
 7085SOL    HW122154   6.830   2.299   2.731
 7085SOL    HW222155   6.690   2.297   2.815
 7086SOL     OW22156   5.385   1.042   6.015
 7086SOL    HW122157   5.353   0.970   5.953
 7086SOL    HW222158   5.482   1.027   6.036
 7087SOL     OW22159   5.799   4.106   2.867
 7087SOL    HW122160   5.812   4.010   2.843
 7087SOL    HW222161   5.705   4.133   2.849
 7088SOL     OW22162   5.166   2.622   5.324
 7088SOL    HW122163   5.068   2.631   5.339
 7088SOL    HW222164   5.184   2.547   5.260
 7089SOL     OW22165   2.090   3.190   3.416
 7089SOL    HW122166   2.045   3.236   3.493
 7089SOL    HW222167   2.117   3.258   3.348
 7090SOL     OW22168   2.220   1.622   0.231
 7090SOL    HW122169   2.139   1.566   0.216
 7090SOL    HW222170   2.209   1.711   0.187
 7091SOL     OW22171   0.642   0.822   1.248
 7091SOL    HW122172   0.710   0.785   1.311
 7091SOL    HW222173   0.610   0.911   1.281
 7092SOL     OW22174   3.804   2.961   5.626
 7092SOL    HW122175   3.741   3.023   5.672
 7092SOL    HW222176   3.873   2.929   5.691
 7093SOL     OW22177   3.329   4.363   1.612
 7093SOL    HW122178   3.295   4.301   1.541
 7093SOL    HW222179   3.388   4.312   1.675
 7094SOL     OW22180   0.565   0.411   5.707
 7094SOL    HW122181   0.640   0.443   5.650
 7094SOL    HW222182   0.603   0.374   5.793
 7095SOL     OW22183   2.988   4.827   5.893
 7095SOL    HW122184   3.031   4.783   5.814
 7095SOL    HW222185   2.897   4.788   5.907
 7096SOL     OW22186   6.364   7.008   1.579
 7096SOL    HW122187   6.330   0.022   1.494
 7096SOL    HW222188   6.462   0.002   1.588
 7097SOL     OW22189   5.441   0.979   1.793
 7097SOL    HW122190   5.360   1.038   1.800
 7097SOL    HW222191   5.462   0.940   1.882
 7098SOL     OW22192   1.278   5.280   5.546
 7098SOL    HW122193   1.306   5.219   5.471
 7098SOL    HW222194   1.197   5.331   5.519
 7099SOL     OW22195   3.527   1.947   4.386
 7099SOL    HW122196   3.460   1.973   4.456
 7099SOL    HW222197   3.606   2.008   4.391
 7100SOL     OW22198   6.121   2.958   0.378
 7100SOL    HW122199   6.209   2.983   0.337
 7100SOL    HW222200   6.115   2.995   0.471
 7101SOL     OW22201   2.238   0.956   5.046
 7101SOL    HW122202   2.158   0.993   4.998
 7101SOL    HW222203   2.242   0.995   5.138
 7102SOL     OW22204   5.730   0.077   0.759
 7102SOL    HW122205   5.634   0.054   0.745
 7102SOL    HW222206   5.758   0.047   0.850
 7103SOL     OW22207   5.553   5.295   1.718
 7103SOL    HW122208   5.511   5.386   1.723
 7103SOL    HW222209   5.651   5.304   1.704
 7104SOL     OW22210   6.413   3.797   2.682
 7104SOL    HW122211   6.462   3.736   2.744
 7104SOL    HW222212   6.346   3.850   2.734
 7105SOL     OW22213   3.460   3.357   4.819
 7105SOL    HW122214   3.514   3.282   4.858
 7105SOL    HW222215   3.363   3.340   4.834
 7106SOL     OW22216   3.308   2.807   1.431
 7106SOL    HW122217   3.359   2.777   1.512
 7106SOL    HW222218   3.213   2.776   1.437
 7107SOL     OW22219   4.618   0.415   0.610
 7107SOL    HW122220   4.570   0.328   0.618
 7107SOL    HW222221   4.624   0.441   0.513
 7108SOL     OW22222   2.770   5.735   2.968
 7108SOL    HW122223   2.864   5.701   2.975
 7108SOL    HW222224   2.713   5.666   2.923
 7109SOL     OW22225   2.161   1.078   6.725
 7109SOL    HW122226   2.130   1.166   6.690
 7109SOL    HW222227   2.166   1.012   6.651
 7110SOL     OW22228   3.043   5.750   4.193
 7110SOL    HW122229   2.948   5.760   4.165
 7110SOL    HW222230   3.064   5.653   4.207
 7111SOL     OW22231   1.782   2.153   4.270
 7111SOL    HW122232   1.821   2.244   4.270
 7111SOL    HW222233   1.714   2.145   4.343
 7112SOL     OW22234   1.792   5.032   4.275
 7112SOL    HW122235   1.726   4.959   4.259
 7112SOL    HW222236   1.825   5.067   4.188
 7113SOL     OW22237   3.337   4.134   4.904
 7113SOL    HW122238   3.294   4.188   4.977
 7113SOL    HW222239   3.431   4.112   4.930
 7114SOL     OW22240   4.459   5.154   1.353
 7114SOL    HW122241   4.446   5.118   1.446
 7114SOL    HW222242   4.463   5.254   1.357
 7115SOL     OW22243   5.339   3.189   6.571
 7115SOL    HW122244   5.292   3.196   6.483
 7115SOL    HW222245   5.299   3.114   6.624
 7116SOL     OW22246   5.100   4.399   3.323
 7116SOL    HW122247   5.195   4.368   3.317
 7116SOL    HW222248   5.050   4.342   3.389
 7117SOL     OW22249   0.319   0.077   4.797
 7117SOL    HW122250   0.405   0.063   4.748
 7117SOL    HW222251   0.309   0.007   4.868
 7118SOL     OW22252   3.665   4.440   5.859
 7118SOL    HW122253   3.620   4.405   5.941
 7118SOL    HW222254   3.642   4.383   5.781
 7119SOL     OW22255   5.299   0.634   5.085
 7119SOL    HW122256   5.271   0.611   4.992
 7119SOL    HW222257   5.342   0.555   5.128
 7120SOL     OW22258   3.639   1.686   1.437
 7120SOL    HW122259   3.579   1.615   1.473
 7120SOL    HW222260   3.693   1.725   1.512
 7121SOL     OW22261   0.557   6.617   2.882
 7121SOL    HW122262   0.507   6.534   2.857
 7121SOL    HW222263   0.495   6.696   2.876
 7122SOL     OW22264   1.588   0.719   5.563
 7122SOL    HW122265   1.595   0.774   5.645
 7122SOL    HW222266   1.526   0.763   5.498
 7123SOL     OW22267   0.793   4.993   3.645
 7123SOL    HW122268   0.821   4.971   3.738
 7123SOL    HW222269   0.871   4.980   3.583
 7124SOL     OW22270   0.918   2.715   1.599
 7124SOL    HW122271   0.978   2.739   1.523
 7124SOL    HW222272   0.958   2.639   1.651
 7125SOL     OW22273   1.143   1.279   0.913
 7125SOL    HW122274   1.052   1.247   0.941
 7125SOL    HW222275   1.139   1.316   0.820
 7126SOL     OW22276   4.202   6.238   0.625
 7126SOL    HW122277   4.267   6.294   0.677
 7126SOL    HW222278   4.133   6.297   0.583
 7127SOL     OW22279   2.686   6.435   6.088
 7127SOL    HW122280   2.765   6.497   6.090
 7127SOL    HW222281   2.628   6.453   6.167
 7128SOL     OW22282   3.695   4.022   7.009
 7128SOL    HW122283   3.599   3.994   7.006
 7128SOL    HW222284   3.753   3.943   6.987
 7129SOL     OW22285   1.910   1.387   1.036
 7129SOL    HW122286   1.888   1.444   1.115
 7129SOL    HW222287   1.827   1.368   0.984
 7130SOL     OW22288   3.860   6.472   4.481
 7130SOL    HW122289   3.768   6.433   4.473
 7130SOL    HW222290   3.894   6.458   4.573
 7131SOL     OW22291   3.235   0.874   1.788
 7131SOL    HW122292   3.289   0.927   1.853
 7131SOL    HW222293   3.168   0.933   1.744
 7132SOL     OW22294   4.606   4.171   0.468
 7132SOL    HW122295   4.693   4.193   0.425
 7132SOL    HW222296   4.622   4.111   0.547
 7133SOL     OW22297   4.114   4.839   4.992
 7133SOL    HW122298   4.060   4.818   5.073
 7133SOL    HW222299   4.054   4.870   4.918
 7134SOL     OW22300   5.192   6.535   2.618
 7134SOL    HW122301   5.288   6.549   2.643
 7134SOL    HW222302   5.183   6.451   2.565
 7135SOL     OW22303   2.346   2.747   2.879
 7135SOL    HW122304   2.349   2.813   2.954
 7135SOL    HW222305   2.404   2.669   2.900
 7136SOL     OW22306   3.251   1.976   0.707
 7136SOL    HW122307   3.295   2.042   0.768
 7136SOL    HW222308   3.152   1.985   0.714
 7137SOL     OW22309   2.903   1.998   0.263
 7137SOL    HW122310   2.837   2.074   0.266
 7137SOL    HW222311   2.965   2.005   0.342
 7138SOL     OW22312   1.703   1.300   0.886
 7138SOL    HW122313   1.610   1.317   0.855
 7138SOL    HW222314   1.720   1.201   0.885
 7139SOL     OW22315   5.361   4.579   2.441
 7139SOL    HW122316   5.388   4.594   2.346
 7139SOL    HW222317   5.401   4.651   2.498
 7140SOL     OW22318   6.318   4.041   0.801
 7140SOL    HW122319   6.303   3.961   0.743
 7140SOL    HW222320   6.276   4.026   0.891
 7141SOL     OW22321   4.543   0.057   0.922
 7141SOL    HW122322   4.622   0.056   0.983
 7141SOL    HW222323   4.472   7.024   0.959
 7142SOL     OW22324   3.641   6.826   3.954
 7142SOL    HW122325   3.639   6.779   4.042
 7142SOL    HW222326   3.659   6.760   3.881
 7143SOL     OW22327   1.888   3.856   6.823
 7143SOL    HW122328   1.908   3.936   6.880
 7143SOL    HW222329   1.799   3.818   6.849
 7144SOL     OW22330   0.891   0.834   3.205
 7144SOL    HW122331   0.935   0.749   3.177
 7144SOL    HW222332   0.950   0.911   3.182
 7145SOL     OW22333   4.738   0.956   6.713
 7145SOL    HW122334   4.792   0.897   6.773
 7145SOL    HW222335   4.666   1.000   6.767
 7146SOL     OW22336   1.735   1.192   6.120
 7146SOL    HW122337   1.657   1.248   6.148
 7146SOL    HW222338   1.777   1.151   6.201
 7147SOL     OW22339   6.518   6.098   3.322
 7147SOL    HW122340   6.605   6.093   3.273
 7147SOL    HW222341   6.527   6.159   3.401
 7148SOL     OW22342   6.202   6.041   1.815
 7148SOL    HW122343   6.204   6.047   1.915
 7148SOL    HW222344   6.111   6.015   1.785
 7149SOL     OW22345   0.306   4.881   3.679
 7149SOL    HW122346   0.397   4.887   3.638
 7149SOL    HW222347   0.241   4.936   3.625
 7150SOL     OW22348   3.368   3.244   0.128
 7150SOL    HW122349   3.361   3.159   0.075
 7150SOL    HW222350   3.288   3.301   0.110
 7151SOL     OW22351   2.979   6.297   1.292
 7151SOL    HW122352   3.019   6.218   1.337
 7151SOL    HW222353   2.980   6.284   1.193
 7152SOL     OW22354   6.394   0.637   6.579
 7152SOL    HW122355   6.374   0.619   6.482
 7152SOL    HW222356   6.474   0.584   6.607
 7153SOL     OW22357   3.892   5.204   1.592
 7153SOL    HW122358   3.838   5.169   1.668
 7153SOL    HW222359   3.901   5.303   1.599
 7154SOL     OW22360   4.318   6.797   3.146
 7154SOL    HW122361   4.350   6.892   3.152
 7154SOL    HW222362   4.247   6.790   3.076
 7155SOL     OW22363   3.220   3.134   1.321
 7155SOL    HW122364   3.306   3.125   1.271
 7155SOL    HW222365   3.146   3.154   1.257
 7156SOL     OW22366   4.903   3.581   2.501
 7156SOL    HW122367   4.925   3.670   2.460
 7156SOL    HW222368   4.877   3.517   2.429
 7157SOL     OW22369   6.680   4.864   1.826
 7157SOL    HW122370   6.776   4.865   1.797
 7157SOL    HW222371   6.636   4.780   1.794
 7158SOL     OW22372   0.315   6.421   2.826
 7158SOL    HW122373   0.283   6.478   2.750
 7158SOL    HW222374   0.288   6.463   2.912
 7159SOL     OW22375   1.174   4.623   4.018
 7159SOL    HW122376   1.268   4.590   4.026
 7159SOL    HW222377   1.165   4.711   4.066
 7160SOL     OW22378   6.093   6.204   2.410
 7160SOL    HW122379   5.996   6.230   2.415
 7160SOL    HW222380   6.100   6.110   2.376
 7161SOL     OW22381   3.086   3.897   2.929
 7161SOL    HW122382   3.015   3.838   2.889
 7161SOL    HW222383   3.153   3.840   2.976
 7162SOL     OW22384   0.612   4.921   6.551
 7162SOL    HW122385   0.658   4.923   6.639
 7162SOL    HW222386   0.623   4.830   6.510
 7163SOL     OW22387   3.406   0.734   2.559
 7163SOL    HW122388   3.331   0.773   2.505
 7163SOL    HW222389   3.373   0.653   2.608
 7164SOL     OW22390   1.827   0.379   5.073
 7164SOL    HW122391   1.739   0.424   5.086
 7164SOL    HW222392   1.812   0.281   5.060
 7165SOL     OW22393   5.940   5.989   1.791
 7165SOL    HW122394   5.887   6.013   1.873
 7165SOL    HW222395   5.939   6.067   1.728
 7166SOL     OW22396   5.118   1.458   6.885
 7166SOL    HW122397   5.128   1.426   6.979
 7166SOL    HW222398   5.067   1.545   6.884
 7167SOL     OW22399   4.824   2.989   5.188
 7167SOL    HW122400   4.812   3.088   5.184
 7167SOL    HW222401   4.899   2.963   5.126
 7168SOL     OW22402   2.866   2.065   3.107
 7168SOL    HW122403   2.860   2.110   3.018
 7168SOL    HW222404   2.777   2.028   3.133
 7169SOL     OW22405   0.078   4.195   4.637
 7169SOL    HW122406   0.161   4.207   4.690
 7169SOL    HW222407   0.095   4.222   4.542
 7170SOL     OW22408   4.247   6.874   2.563
 7170SOL    HW122409   4.328   6.908   2.515
 7170SOL    HW222410   4.184   6.949   2.578
 7171SOL     OW22411   6.032   3.574   0.867
 7171SOL    HW122412   5.988   3.491   0.902
 7171SOL    HW222413   6.126   3.579   0.901
 7172SOL     OW22414   2.347   1.526   5.566
 7172SOL    HW122415   2.326   1.507   5.470
 7172SOL    HW222416   2.401   1.611   5.572
 7173SOL     OW22417   6.268   4.905   6.742
 7173SOL    HW122418   6.238   4.811   6.761
 7173SOL    HW222419   6.316   4.907   6.654
 7174SOL     OW22420   0.220   5.002   0.924
 7174SOL    HW122421   0.249   5.082   0.977
 7174SOL    HW222422   0.169   5.032   0.844
 7175SOL     OW22423   0.128   3.402   5.137
 7175SOL    HW122424   0.197   3.399   5.209
 7175SOL    HW222425   0.172   3.402   5.047
 7176SOL     OW22426   6.903   1.703   4.762
 7176SOL    HW122427   6.843   1.622   4.763
 7176SOL    HW222428   6.854   1.780   4.803
 7177SOL     OW22429   1.397   4.821   5.561
 7177SOL    HW122430   1.297   4.816   5.566
 7177SOL    HW222431   1.435   4.729   5.561
 7178SOL     OW22432   0.528   1.284   6.120
 7178SOL    HW122433   0.573   1.289   6.209
 7178SOL    HW222434   0.575   1.342   6.054
 7179SOL     OW22435   1.612   4.160   4.240
 7179SOL    HW122436   1.595   4.063   4.254
 7179SOL    HW222437   1.629   4.178   4.143
 7180SOL     OW22438   2.381   3.937   0.613
 7180SOL    HW122439   2.394   3.840   0.635
 7180SOL    HW222440   2.450   3.991   0.660
 7181SOL     OW22441   2.331   1.396   6.661
 7181SOL    HW122442   2.369   1.361   6.575
 7181SOL    HW222443   2.387   1.367   6.737
 7182SOL     OW22444   0.749   3.743   3.268
 7182SOL    HW122445   0.805   3.662   3.281
 7182SOL    HW222446   0.772   3.786   3.181
 7183SOL     OW22447   1.868   6.501   2.407
 7183SOL    HW122448   1.964   6.529   2.403
 7183SOL    HW222449   1.814   6.560   2.347
 7184SOL     OW22450   6.587   0.858   3.734
 7184SOL    HW122451   6.560   0.774   3.782
 7184SOL    HW222452   6.682   0.880   3.757
 7185SOL     OW22453   5.073   0.830   5.574
 7185SOL    HW122454   5.152   0.851   5.632
 7185SOL    HW222455   5.099   0.837   5.478
 7186SOL     OW22456   6.867   1.347   1.509
 7186SOL    HW122457   6.890   1.438   1.542
 7186SOL    HW222458   6.904   1.334   1.417
 7187SOL     OW22459   2.763   3.802   5.381
 7187SOL    HW122460   2.771   3.824   5.478
 7187SOL    HW222461   2.682   3.847   5.344
 7188SOL     OW22462   4.698   5.529   0.161
 7188SOL    HW122463   4.758   5.480   0.098
 7188SOL    HW222464   4.710   5.494   0.254
 7189SOL     OW22465   6.433   3.132   5.588
 7189SOL    HW122466   6.476   3.114   5.499
 7189SOL    HW222467   6.341   3.092   5.589
 7190SOL     OW22468   6.102   6.017   1.189
 7190SOL    HW122469   6.165   6.045   1.261
 7190SOL    HW222470   6.144   6.034   1.099
 7191SOL     OW22471   0.327   4.328   2.969
 7191SOL    HW122472   0.346   4.363   3.061
 7191SOL    HW222473   0.406   4.346   2.910
 7192SOL     OW22474   1.528   4.036   6.392
 7192SOL    HW122475   1.606   4.070   6.340
 7192SOL    HW222476   1.443   4.053   6.341
 7193SOL     OW22477   2.213   1.876   2.818
 7193SOL    HW122478   2.221   1.836   2.910
 7193SOL    HW222479   2.117   1.891   2.796
 7194SOL     OW22480   1.890   2.963   0.016
 7194SOL    HW122481   1.888   2.901   6.964
 7194SOL    HW222482   1.840   3.046   7.020
 7195SOL     OW22483   6.366   4.512   0.034
 7195SOL    HW122484   6.401   4.488   0.124
 7195SOL    HW222485   6.428   4.480   6.990
 7196SOL     OW22486   2.852   3.967   1.708
 7196SOL    HW122487   2.899   4.052   1.730
 7196SOL    HW222488   2.916   3.903   1.667
 7197SOL     OW22489   0.985   3.326   5.187
 7197SOL    HW122490   1.037   3.270   5.123
 7197SOL    HW222491   0.901   3.278   5.212
 7198SOL     OW22492   0.703   1.004   6.844
 7198SOL    HW122493   0.745   0.927   6.893
 7198SOL    HW222494   0.644   0.969   6.771
 7199SOL     OW22495   1.388   0.135   3.029
 7199SOL    HW122496   1.361   0.232   3.027
 7199SOL    HW222497   1.306   0.078   3.022
 7200SOL     OW22498   1.825   3.235   6.717
 7200SOL    HW122499   1.847   3.295   6.640
 7200SOL    HW222500   1.752   3.172   6.690
 7201SOL     OW22501   0.530   5.772   4.164
 7201SOL    HW122502   0.597   5.833   4.206
 7201SOL    HW222503   0.558   5.677   4.179
 7202SOL     OW22504   5.018   6.335   6.499
 7202SOL    HW122505   4.955   6.371   6.568
 7202SOL    HW222506   5.051   6.245   6.527
 7203SOL     OW22507   6.955   1.310   1.892
 7203SOL    HW122508   7.001   1.232   1.933
 7203SOL    HW222509   7.021   1.363   1.839
 7204SOL     OW22510   6.942   1.360   6.621
 7204SOL    HW122511   6.940   1.323   6.528
 7204SOL    HW222512   6.867   1.424   6.634
 7205SOL     OW22513   1.659   3.850   5.146
 7205SOL    HW122514   1.724   3.890   5.211
 7205SOL    HW222515   1.674   3.889   5.055
 7206SOL     OW22516   1.488   1.432   1.312
 7206SOL    HW122517   1.452   1.525   1.311
 7206SOL    HW222518   1.444   1.379   1.240
 7207SOL     OW22519   2.868   0.721   4.669
 7207SOL    HW122520   2.894   0.627   4.692
 7207SOL    HW222521   2.863   0.731   4.570
 7208SOL     OW22522   4.897   0.784   3.351
 7208SOL    HW122523   4.804   0.802   3.383
 7208SOL    HW222524   4.963   0.824   3.415
 7209SOL     OW22525   1.868   2.946   1.911
 7209SOL    HW122526   1.816   2.872   1.868
 7209SOL    HW222527   1.852   3.031   1.860
 7210SOL     OW22528   3.878   2.179   4.130
 7210SOL    HW122529   3.953   2.183   4.063
 7210SOL    HW222530   3.791   2.180   4.081
 7211SOL     OW22531   3.020   6.068   5.098
 7211SOL    HW122532   3.091   6.098   5.035
 7211SOL    HW222533   3.056   6.067   5.191
 7212SOL     OW22534   0.662   5.947   5.459
 7212SOL    HW122535   0.670   6.005   5.379
 7212SOL    HW222536   0.683   5.852   5.434
 7213SOL     OW22537   3.346   6.187   6.299
 7213SOL    HW122538   3.332   6.128   6.219
 7213SOL    HW222539   3.259   6.199   6.347
 7214SOL     OW22540   6.339   0.891   5.470
 7214SOL    HW122541   6.431   0.885   5.509
 7214SOL    HW222542   6.342   0.870   5.373
 7215SOL     OW22543   5.587   3.066   4.514
 7215SOL    HW122544   5.561   3.076   4.418
 7215SOL    HW222545   5.686   3.051   4.520
 7216SOL     OW22546   3.027   6.478   2.415
 7216SOL    HW122547   3.013   6.445   2.321
 7216SOL    HW222548   3.098   6.423   2.459
 7217SOL     OW22549   1.894   3.160   3.176
 7217SOL    HW122550   1.951   3.229   3.221
 7217SOL    HW222551   1.930   3.142   3.085
 7218SOL     OW22552   6.673   2.524   4.352
 7218SOL    HW122553   6.762   2.553   4.387
 7218SOL    HW222554   6.613   2.604   4.345
 7219SOL     OW22555   3.110   0.386   2.087
 7219SOL    HW122556   3.148   0.409   2.177
 7219SOL    HW222557   3.139   0.453   2.020
 7220SOL     OW22558   6.405   4.345   4.160
 7220SOL    HW122559   6.381   4.267   4.218
 7220SOL    HW222560   6.419   4.313   4.066
 7221SOL     OW22561   3.976   6.063   4.661
 7221SOL    HW122562   3.883   6.065   4.699
 7221SOL    HW222563   4.043   6.070   4.735
 7222SOL     OW22564   6.160   6.353   3.646
 7222SOL    HW122565   6.106   6.270   3.654
 7222SOL    HW222566   6.222   6.360   3.725
 7223SOL     OW22567   3.064   0.920   1.116
 7223SOL    HW122568   3.118   0.891   1.195
 7223SOL    HW222569   2.974   0.951   1.147
 7224SOL     OW22570   4.813   2.932   4.522
 7224SOL    HW122571   4.824   3.027   4.492
 7224SOL    HW222572   4.783   2.932   4.618
 7225SOL     OW22573   1.960   6.534   0.691
 7225SOL    HW122574   2.006   6.551   0.779
 7225SOL    HW222575   1.884   6.470   0.706
 7226SOL     OW22576   5.809   7.012   1.014
 7226SOL    HW122577   5.731   7.001   1.076
 7226SOL    HW222578   5.846   6.922   0.992
 7227SOL     OW22579   2.572   1.997   1.771
 7227SOL    HW122580   2.491   1.985   1.714
 7227SOL    HW222581   2.545   2.036   1.860
 7228SOL     OW22582   1.328   0.919   2.815
 7228SOL    HW122583   1.320   0.819   2.814
 7228SOL    HW222584   1.328   0.951   2.910
 7229SOL     OW22585   0.827   6.766   4.724
 7229SOL    HW122586   0.852   6.712   4.643
 7229SOL    HW222587   0.799   6.704   4.798
 7230SOL     OW22588   3.199   6.035   3.654
 7230SOL    HW122589   3.113   6.061   3.697
 7230SOL    HW222590   3.192   5.942   3.620
 7231SOL     OW22591   4.140   0.397   6.808
 7231SOL    HW122592   4.149   0.368   6.903
 7231SOL    HW222593   4.046   0.382   6.777
 7232SOL     OW22594   4.859   6.018   2.989
 7232SOL    HW122595   4.799   6.093   3.015
 7232SOL    HW222596   4.805   5.934   2.977
 7233SOL     OW22597   1.202   0.909   4.986
 7233SOL    HW122598   1.175   0.869   5.073
 7233SOL    HW222599   1.263   0.987   5.002
 7234SOL     OW22600   5.707   2.849   3.285
 7234SOL    HW122601   5.665   2.939   3.297
 7234SOL    HW222602   5.779   2.856   3.216
 7235SOL     OW22603   6.289   4.273   2.077
 7235SOL    HW122604   6.317   4.328   2.156
 7235SOL    HW222605   6.218   4.209   2.104
 7236SOL     OW22606   2.797   2.258   2.553
 7236SOL    HW122607   2.883   2.250   2.603
 7236SOL    HW222608   2.816   2.265   2.455
 7237SOL     OW22609   3.984   7.013   6.134
 7237SOL    HW122610   3.987   6.979   6.040
 7237SOL    HW222611   3.969   6.936   6.196
 7238SOL     OW22612   4.237   2.164   6.009
 7238SOL    HW122613   4.215   2.144   6.104
 7238SOL    HW222614   4.202   2.091   5.951
 7239SOL     OW22615   0.952   2.701   1.936
 7239SOL    HW122616   0.881   2.666   1.998
 7239SOL    HW222617   0.960   2.640   1.858
 7240SOL     OW22618   0.269   1.420   6.210
 7240SOL    HW122619   0.264   1.515   6.178
 7240SOL    HW222620   0.359   1.382   6.188
 7241SOL     OW22621   2.653   0.289   0.833
 7241SOL    HW122622   2.597   0.208   0.853
 7241SOL    HW222623   2.639   0.317   0.738
 7242SOL     OW22624   6.690   5.524   6.417
 7242SOL    HW122625   6.771   5.477   6.452
 7242SOL    HW222626   6.624   5.537   6.491
 7243SOL     OW22627   6.810   4.505   6.212
 7243SOL    HW122628   6.775   4.425   6.260
 7243SOL    HW222629   6.802   4.491   6.114
 7244SOL     OW22630   0.322   0.620   1.311
 7244SOL    HW122631   0.325   0.711   1.353
 7244SOL    HW222632   0.293   0.628   1.216
 7245SOL     OW22633   1.144   2.984   5.287
 7245SOL    HW122634   1.234   2.970   5.245
 7245SOL    HW222635   1.156   3.020   5.379
 7246SOL     OW22636   1.675   0.154   3.581
 7246SOL    HW122637   1.659   0.131   3.676
 7246SOL    HW222638   1.588   0.153   3.531
 7247SOL     OW22639   2.765   1.397   4.906
 7247SOL    HW122640   2.808   1.467   4.848
 7247SOL    HW222641   2.831   1.326   4.927
 7248SOL     OW22642   3.227   0.925   2.458
 7248SOL    HW122643   3.224   0.981   2.375
 7248SOL    HW222644   3.243   0.984   2.537
 7249SOL     OW22645   5.052   4.891   1.938
 7249SOL    HW122646   5.018   4.805   1.901
 7249SOL    HW222647   5.005   4.911   2.024
 7250SOL     OW22648   5.682   5.747   5.825
 7250SOL    HW122649   5.639   5.813   5.886
 7250SOL    HW222650   5.640   5.657   5.838
 7251SOL     OW22651   1.147   6.890   5.114
 7251SOL    HW122652   1.206   6.835   5.173
 7251SOL    HW222653   1.093   6.953   5.170
 7252SOL     OW22654   3.194   3.594   1.911
 7252SOL    HW122655   3.217   3.561   1.820
 7252SOL    HW222656   3.095   3.608   1.917
 7253SOL     OW22657   1.649   5.346   0.007
 7253SOL    HW122658   1.718   5.359   6.963
 7253SOL    HW222659   1.561   5.324   6.991
 7254SOL     OW22660   5.127   5.517   4.594
 7254SOL    HW122661   5.196   5.565   4.648
 7254SOL    HW222662   5.054   5.485   4.654
 7255SOL     OW22663   4.470   3.915   0.126
 7255SOL    HW122664   4.432   3.959   0.207
 7255SOL    HW222665   4.395   3.881   0.069
 7256SOL     OW22666   3.147   6.035   5.339
 7256SOL    HW122667   3.102   6.047   5.428
 7256SOL    HW222668   3.244   6.059   5.347
 7257SOL     OW22669   6.966   1.906   3.678
 7257SOL    HW122670   0.019   1.966   3.678
 7257SOL    HW222671   6.883   1.961   3.688
 7258SOL     OW22672   4.848   2.706   3.198
 7258SOL    HW122673   4.876   2.637   3.131
 7258SOL    HW222674   4.885   2.681   3.287
 7259SOL     OW22675   1.826   3.344   2.110
 7259SOL    HW122676   1.786   3.435   2.118
 7259SOL    HW222677   1.909   3.339   2.166
 7260SOL     OW22678   5.353   1.597   1.747
 7260SOL    HW122679   5.450   1.574   1.757
 7260SOL    HW222680   5.326   1.588   1.651
 7261SOL     OW22681   1.401   4.453   2.027
 7261SOL    HW122682   1.496   4.457   2.058
 7261SOL    HW222683   1.384   4.366   1.981
 7262SOL     OW22684   5.682   2.318   6.480
 7262SOL    HW122685   5.592   2.335   6.522
 7262SOL    HW222686   5.736   2.260   6.541
 7263SOL     OW22687   0.646   6.902   6.837
 7263SOL    HW122688   0.614   6.824   6.890
 7263SOL    HW222689   0.575   6.930   6.772
 7264SOL     OW22690   5.316   1.623   0.274
 7264SOL    HW122691   5.377   1.543   0.275
 7264SOL    HW222692   5.290   1.643   0.180
 7265SOL     OW22693   5.278   5.187   6.468
 7265SOL    HW122694   5.199   5.228   6.422
 7265SOL    HW222695   5.360   5.239   6.445
 7266SOL     OW22696   5.468   0.482   2.846
 7266SOL    HW122697   5.502   0.522   2.931
 7266SOL    HW222698   5.453   0.554   2.778
 7267SOL     OW22699   6.291   6.341   4.778
 7267SOL    HW122700   6.375   6.298   4.745
 7267SOL    HW222701   6.235   6.273   4.824
 7268SOL     OW22702   6.608   5.522   4.167
 7268SOL    HW122703   6.575   5.615   4.181
 7268SOL    HW222704   6.708   5.522   4.159
 7269SOL     OW22705   1.561   6.015   5.958
 7269SOL    HW122706   1.482   6.012   5.897
 7269SOL    HW222707   1.627   6.083   5.925
 7270SOL     OW22708   0.751   2.951   4.929
 7270SOL    HW122709   0.846   2.978   4.946
 7270SOL    HW222710   0.713   3.009   4.857
 7271SOL     OW22711   1.202   4.938   3.853
 7271SOL    HW122712   1.205   4.978   3.945
 7271SOL    HW222713   1.278   4.874   3.843
 7272SOL     OW22714   6.274   5.526   2.656
 7272SOL    HW122715   6.222   5.572   2.727
 7272SOL    HW222716   6.359   5.490   2.695
 7273SOL     OW22717   6.371   4.263   1.050
 7273SOL    HW122718   6.410   4.355   1.057
 7273SOL    HW222719   6.423   4.209   0.984
 7274SOL     OW22720   0.672   5.380   6.414
 7274SOL    HW122721   0.626   5.292   6.398
 7274SOL    HW222722   0.621   5.453   6.367
 7275SOL     OW22723   0.269   5.804   2.689
 7275SOL    HW122724   0.253   5.852   2.775
 7275SOL    HW222725   0.182   5.776   2.649
 7276SOL     OW22726   4.961   0.157   3.136
 7276SOL    HW122727   4.982   0.224   3.207
 7276SOL    HW222728   5.042   0.141   3.080
 7277SOL     OW22729   5.393   0.746   4.251
 7277SOL    HW122730   5.483   0.706   4.233
 7277SOL    HW222731   5.361   0.715   4.341
 7278SOL     OW22732   4.038   2.653   1.127
 7278SOL    HW122733   4.006   2.583   1.190
 7278SOL    HW222734   4.026   2.621   1.033
 7279SOL     OW22735   3.969   4.445   6.564
 7279SOL    HW122736   3.896   4.474   6.627
 7279SOL    HW222737   4.013   4.526   6.526
 7280SOL     OW22738   0.220   1.703   3.934
 7280SOL    HW122739   0.310   1.677   3.969
 7280SOL    HW222740   0.207   1.802   3.945
 7281SOL     OW22741   2.717   1.915   6.570
 7281SOL    HW122742   2.731   1.927   6.668
 7281SOL    HW222743   2.706   2.005   6.527
 7282SOL     OW22744   5.895   5.075   3.416
 7282SOL    HW122745   5.852   4.997   3.460
 7282SOL    HW222746   5.989   5.052   3.392
 7283SOL     OW22747   4.194   1.445   2.503
 7283SOL    HW122748   4.196   1.543   2.523
 7283SOL    HW222749   4.216   1.393   2.585
 7284SOL     OW22750   0.440   2.814   6.076
 7284SOL    HW122751   0.424   2.743   6.144
 7284SOL    HW222752   0.402   2.900   6.108
 7285SOL     OW22753   5.168   3.364   2.315
 7285SOL    HW122754   5.069   3.374   2.324
 7285SOL    HW222755   5.198   3.397   2.225
 7286SOL     OW22756   2.487   1.153   0.747
 7286SOL    HW122757   2.454   1.102   0.668
 7286SOL    HW222758   2.479   1.251   0.728
 7287SOL     OW22759   0.308   2.734   5.850
 7287SOL    HW122760   0.220   2.781   5.855
 7287SOL    HW222761   0.357   2.746   5.937
 7288SOL     OW22762   2.688   1.028   0.876
 7288SOL    HW122763   2.652   0.970   0.949
 7288SOL    HW222764   2.613   1.076   0.831
 7289SOL     OW22765   4.874   2.346   4.648
 7289SOL    HW122766   4.955   2.403   4.637
 7289SOL    HW222767   4.872   2.276   4.577
 7290SOL     OW22768   3.706   0.153   5.135
 7290SOL    HW122769   3.631   0.182   5.194
 7290SOL    HW222770   3.765   0.089   5.185
 7291SOL     OW22771   2.251   6.562   0.690
 7291SOL    HW122772   2.180   6.599   0.749
 7291SOL    HW222773   2.210   6.507   0.618
 7292SOL     OW22774   3.404   1.084   3.417
 7292SOL    HW122775   3.337   1.066   3.344
 7292SOL    HW222776   3.374   1.039   3.501
 7293SOL     OW22777   1.301   1.870   4.806
 7293SOL    HW122778   1.389   1.845   4.767
 7293SOL    HW222779   1.257   1.788   4.843
 7294SOL     OW22780   2.503   4.941   6.511
 7294SOL    HW122781   2.594   4.915   6.477
 7294SOL    HW222782   2.502   5.039   6.531
 7295SOL     OW22783   0.154   2.912   0.957
 7295SOL    HW122784   0.148   2.824   0.911
 7295SOL    HW222785   0.178   2.897   1.054
 7296SOL     OW22786   3.387   5.665   2.245
 7296SOL    HW122787   3.381   5.764   2.232
 7296SOL    HW222788   3.343   5.640   2.331
 7297SOL     OW22789   4.045   0.128   1.797
 7297SOL    HW122790   4.128   0.140   1.851
 7297SOL    HW222791   3.965   0.137   1.857
 7298SOL     OW22792   5.217   4.746   5.907
 7298SOL    HW122793   5.166   4.706   5.831
 7298SOL    HW222794   5.165   4.734   5.992
 7299SOL     OW22795   1.280   2.017   0.088
 7299SOL    HW122796   1.341   1.939   0.099
 7299SOL    HW222797   1.201   2.007   0.149
 7300SOL     OW22798   0.433   6.200   3.331
 7300SOL    HW122799   0.350   6.204   3.275
 7300SOL    HW222800   0.512   6.221   3.274
 7301SOL     OW22801   5.136   1.145   4.828
 7301SOL    HW122802   5.070   1.074   4.855
 7301SOL    HW222803   5.216   1.102   4.787
 7302SOL     OW22804   0.799   2.466   5.017
 7302SOL    HW122805   0.795   2.405   5.096
 7302SOL    HW222806   0.807   2.561   5.050
 7303SOL     OW22807   3.908   0.401   0.381
 7303SOL    HW122808   3.898   0.435   0.475
 7303SOL    HW222809   4.005   0.392   0.359
 7304SOL     OW22810   3.707   5.396   1.339
 7304SOL    HW122811   3.796   5.419   1.297
 7304SOL    HW222812   3.718   5.389   1.438
 7305SOL     OW22813   4.525   1.174   0.127
 7305SOL    HW122814   4.488   1.260   0.163
 7305SOL    HW222815   4.617   1.190   0.092
 7306SOL     OW22816   5.092   1.516   0.668
 7306SOL    HW122817   5.099   1.585   0.740
 7306SOL    HW222818   5.127   1.552   0.582
 7307SOL     OW22819   2.268   6.836   2.517
 7307SOL    HW122820   2.295   6.800   2.606
 7307SOL    HW222821   2.319   6.920   2.498
 7308SOL     OW22822   6.994   3.178   5.651
 7308SOL    HW122823   0.043   3.177   5.585
 7308SOL    HW222824   6.909   3.198   5.603
 7309SOL     OW22825   4.314   5.748   1.775
 7309SOL    HW122826   4.363   5.739   1.688
 7309SOL    HW222827   4.373   5.717   1.850
 7310SOL     OW22828   2.616   4.007   1.112
 7310SOL    HW122829   2.593   4.089   1.060
 7310SOL    HW222830   2.544   3.988   1.178
 7311SOL     OW22831   2.240   2.005   1.666
 7311SOL    HW122832   2.258   1.910   1.693
 7311SOL    HW222833   2.189   2.006   1.580
 7312SOL     OW22834   0.574   3.480   4.523
 7312SOL    HW122835   0.505   3.536   4.569
 7312SOL    HW222836   0.658   3.479   4.577
 7313SOL     OW22837   2.458   1.331   6.894
 7313SOL    HW122838   2.517   1.251   6.892
 7313SOL    HW222839   2.459   1.371   6.986
 7314SOL     OW22840   6.879   5.665   5.747
 7314SOL    HW122841   6.832   5.594   5.798
 7314SOL    HW222842   6.953   5.625   5.694
 7315SOL     OW22843   6.576   0.126   2.314
 7315SOL    HW122844   6.645   0.111   2.244
 7315SOL    HW222845   6.517   0.045   2.321
 7316SOL     OW22846   2.664   4.238   6.193
 7316SOL    HW122847   2.654   4.333   6.220
 7316SOL    HW222848   2.612   4.179   6.255
 7317SOL     OW22849   4.997   1.407   2.861
 7317SOL    HW122850   4.995   1.307   2.858
 7317SOL    HW222851   5.075   1.437   2.916
 7318SOL     OW22852   2.060   0.838   1.812
 7318SOL    HW122853   2.093   0.786   1.733
 7318SOL    HW222854   2.091   0.932   1.806
 7319SOL     OW22855   0.130   3.862   6.478
 7319SOL    HW122856   0.044   3.818   6.453
 7319SOL    HW222857   0.187   3.873   6.396
 7320SOL     OW22858   6.904   3.436   2.266
 7320SOL    HW122859   6.963   3.364   2.301
 7320SOL    HW222860   6.912   3.517   2.324
 7321SOL     OW22861   1.920   0.775   6.154
 7321SOL    HW122862   1.961   0.821   6.076
 7321SOL    HW222863   1.988   0.716   6.198
 7322SOL     OW22864   6.807   2.781   3.385
 7322SOL    HW122865   6.903   2.798   3.362
 7322SOL    HW222866   6.802   2.709   3.454
 7323SOL     OW22867   1.364   2.306   1.691
 7323SOL    HW122868   1.301   2.314   1.768
 7323SOL    HW222869   1.458   2.320   1.722
 7324SOL     OW22870   4.654   5.669   2.436
 7324SOL    HW122871   4.675   5.756   2.480
 7324SOL    HW222872   4.555   5.653   2.437
 7325SOL     OW22873   3.403   6.826   0.471
 7325SOL    HW122874   3.433   6.914   0.507
 7325SOL    HW222875   3.309   6.808   0.501
 7326SOL     OW22876   2.889   6.117   5.869
 7326SOL    HW122877   2.938   6.203   5.851
 7326SOL    HW222878   2.920   6.078   5.955
 7327SOL     OW22879   6.340   1.352   6.390
 7327SOL    HW122880   6.334   1.450   6.374
 7327SOL    HW222881   6.250   1.310   6.373
 7328SOL     OW22882   2.890   0.959   6.165
 7328SOL    HW122883   2.934   0.925   6.082
 7328SOL    HW222884   2.958   0.966   6.238
 7329SOL     OW22885   6.394   3.929   1.504
 7329SOL    HW122886   6.391   3.984   1.420
 7329SOL    HW222887   6.489   3.914   1.530
 7330SOL     OW22888   2.497   2.564   0.365
 7330SOL    HW122889   2.469   2.610   0.281
 7330SOL    HW222890   2.420   2.514   0.403
 7331SOL     OW22891   5.505   6.298   1.422
 7331SOL    HW122892   5.521   6.364   1.495
 7331SOL    HW222893   5.427   6.328   1.367
 7332SOL     OW22894   2.338   6.307   0.041
 7332SOL    HW122895   2.278   6.375   0.083
 7332SOL    HW222896   2.343   6.323   6.969
 7333SOL     OW22897   0.720   2.967   2.259
 7333SOL    HW122898   0.665   2.884   2.253
 7333SOL    HW222899   0.733   3.005   2.167
 7334SOL     OW22900   2.480   5.894   6.223
 7334SOL    HW122901   2.552   5.960   6.241
 7334SOL    HW222902   2.392   5.931   6.253
 7335SOL     OW22903   1.894   2.470   2.946
 7335SOL    HW122904   1.990   2.492   2.927
 7335SOL    HW222905   1.835   2.526   2.888
 7336SOL     OW22906   1.569   6.517   2.833
 7336SOL    HW122907   1.580   6.430   2.879
 7336SOL    HW222908   1.658   6.562   2.823
 7337SOL     OW22909   0.073   3.096   1.609
 7337SOL    HW122910   0.135   3.152   1.554
 7337SOL    HW222911   7.020   3.150   1.635
 7338SOL     OW22912   6.226   1.690   1.564
 7338SOL    HW122913   6.135   1.732   1.564
 7338SOL    HW222914   6.248   1.657   1.655
 7339SOL     OW22915   5.817   6.500   4.195
 7339SOL    HW122916   5.727   6.473   4.229
 7339SOL    HW222917   5.831   6.598   4.212
 7340SOL     OW22918   3.096   1.519   1.133
 7340SOL    HW122919   3.089   1.490   1.038
 7340SOL    HW222920   3.026   1.473   1.187
 7341SOL     OW22921   0.593   3.472   6.389
 7341SOL    HW122922   0.518   3.521   6.434
 7341SOL    HW222923   0.669   3.462   6.452
 7342SOL     OW22924   0.335   1.948   1.127
 7342SOL    HW122925   0.246   1.987   1.102
 7342SOL    HW222926   0.408   2.003   1.087
 7343SOL     OW22927   5.990   3.771   1.086
 7343SOL    HW122928   5.987   3.706   1.011
 7343SOL    HW222929   6.070   3.753   1.143
 7344SOL     OW22930   1.044   1.443   6.194
 7344SOL    HW122931   0.987   1.479   6.268
 7344SOL    HW222932   1.100   1.368   6.230
 7345SOL     OW22933   3.957   4.752   5.711
 7345SOL    HW122934   3.996   4.828   5.660
 7345SOL    HW222935   3.859   4.765   5.723
 7346SOL     OW22936   3.851   5.362   2.115
 7346SOL    HW122937   3.850   5.264   2.136
 7346SOL    HW222938   3.847   5.414   2.200
 7347SOL     OW22939   0.867   1.712   0.595
 7347SOL    HW122940   0.800   1.637   0.596
 7347SOL    HW222941   0.840   1.781   0.662
 7348SOL     OW22942   1.707   4.084   3.926
 7348SOL    HW122943   1.715   4.182   3.906
 7348SOL    HW222944   1.797   4.041   3.917
 7349SOL     OW22945   4.737   1.408   1.627
 7349SOL    HW122946   4.828   1.399   1.588
 7349SOL    HW222947   4.688   1.322   1.619
 7350SOL     OW22948   2.682   2.384   5.598
 7350SOL    HW122949   2.742   2.394   5.519
 7350SOL    HW222950   2.673   2.471   5.645
 7351SOL     OW22951   5.373   5.819   4.670
 7351SOL    HW122952   5.400   5.828   4.574
 7351SOL    HW222953   5.454   5.830   4.728
 7352SOL     OW22954   1.580   1.464   2.933
 7352SOL    HW122955   1.644   1.454   2.857
 7352SOL    HW222956   1.626   1.511   3.009
 7353SOL     OW22957   0.146   0.132   6.151
 7353SOL    HW122958   0.207   0.195   6.198
 7353SOL    HW222959   0.133   0.050   6.207
 7354SOL     OW22960   0.985   1.779   4.676
 7354SOL    HW122961   1.047   1.805   4.602
 7354SOL    HW222962   0.901   1.834   4.668
 7355SOL     OW22963   1.409   0.629   0.913
 7355SOL    HW122964   1.456   0.544   0.935
 7355SOL    HW222965   1.310   0.613   0.910
 7356SOL     OW22966   3.772   3.511   6.259
 7356SOL    HW122967   3.838   3.508   6.184
 7356SOL    HW222968   3.763   3.605   6.293
 7357SOL     OW22969   3.246   6.910   1.834
 7357SOL    HW122970   3.305   6.843   1.879
 7357SOL    HW222971   3.151   6.892   1.857
 7358SOL     OW22972   5.937   3.036   2.831
 7358SOL    HW122973   5.867   3.046   2.902
 7358SOL    HW222974   5.981   3.124   2.814
 7359SOL     OW22975   4.138   1.944   5.805
 7359SOL    HW122976   4.171   1.865   5.856
 7359SOL    HW222977   4.090   1.912   5.722
 7360SOL     OW22978   3.127   3.066   5.719
 7360SOL    HW122979   3.098   2.979   5.759
 7360SOL    HW222980   3.221   3.058   5.687
 7361SOL     OW22981   5.179   0.728   2.215
 7361SOL    HW122982   5.268   0.752   2.255
 7361SOL    HW222983   5.137   0.810   2.176
 7362SOL     OW22984   1.529   5.771   6.436
 7362SOL    HW122985   1.557   5.720   6.517
 7362SOL    HW222986   1.440   5.814   6.452
 7363SOL     OW22987   4.625   1.871   1.216
 7363SOL    HW122988   4.555   1.802   1.199
 7363SOL    HW222989   4.583   1.962   1.216
 7364SOL     OW22990   4.553   0.820   1.804
 7364SOL    HW122991   4.525   0.740   1.857
 7364SOL    HW222992   4.509   0.818   1.715
 7365SOL     OW22993   0.528   6.214   2.075
 7365SOL    HW122994   0.609   6.156   2.078
 7365SOL    HW222995   0.465   6.180   2.004
 7366SOL     OW22996   2.126   6.314   6.335
 7366SOL    HW122997   2.075   6.229   6.328
 7366SOL    HW222998   2.087   6.381   6.272
 7367SOL     OW22999   5.087   2.722   1.350
 7367SOL    HW123000   5.151   2.646   1.340
 7367SOL    HW223001   5.040   2.739   1.264
 7368SOL     OW23002   3.865   2.965   2.661
 7368SOL    HW123003   3.944   2.931   2.713
 7368SOL    HW223004   3.885   3.057   2.627
 7369SOL     OW23005   3.211   1.838   0.310
 7369SOL    HW123006   3.273   1.776   0.262
 7369SOL    HW223007   3.120   1.832   0.269
 7370SOL     OW23008   2.525   0.929   5.087
 7370SOL    HW123009   2.439   0.944   5.039
 7370SOL    HW223010   2.515   0.849   5.148
 7371SOL     OW23011   2.545   6.968   3.349
 7371SOL    HW123012   2.466   0.002   3.341
 7371SOL    HW223013   2.627   7.022   3.369
 7372SOL     OW23014   4.449   0.619   3.983
 7372SOL    HW123015   4.349   0.622   3.978
 7372SOL    HW223016   4.481   0.525   3.965
 7373SOL     OW23017   6.113   1.441   3.788
 7373SOL    HW123018   6.051   1.362   3.782
 7373SOL    HW223019   6.060   1.525   3.786
 7374SOL     OW23020   2.872   1.774   5.028
 7374SOL    HW123021   2.919   1.853   4.988
 7374SOL    HW223022   2.896   1.766   5.124
 7375SOL     OW23023   2.131   2.262   2.260
 7375SOL    HW123024   2.147   2.260   2.359
 7375SOL    HW223025   2.117   2.169   2.227
 7376SOL     OW23026   1.421   1.817   1.016
 7376SOL    HW123027   1.338   1.763   1.005
 7376SOL    HW223028   1.446   1.859   0.929
 7377SOL     OW23029   5.323   4.647   0.742
 7377SOL    HW123030   5.244   4.647   0.681
 7377SOL    HW223031   5.395   4.704   0.702
 7378SOL     OW23032   6.979   0.705   5.416
 7378SOL    HW123033   6.913   0.636   5.387
 7378SOL    HW223034   0.044   0.676   5.390
 7379SOL     OW23035   3.185   1.822   2.200
 7379SOL    HW123036   3.202   1.899   2.139
 7379SOL    HW223037   3.263   1.759   2.197
 7380SOL     OW23038   0.108   4.275   3.782
 7380SOL    HW123039   0.083   4.370   3.798
 7380SOL    HW223040   0.157   4.266   3.695
 7381SOL     OW23041   4.240   3.406   0.766
 7381SOL    HW123042   4.252   3.311   0.796
 7381SOL    HW223043   4.234   3.466   0.845
 7382SOL     OW23044   0.474   1.286   5.076
 7382SOL    HW123045   0.532   1.360   5.043
 7382SOL    HW223046   0.527   1.201   5.079
 7383SOL     OW23047   2.716   6.683   0.785
 7383SOL    HW123048   2.713   6.636   0.873
 7383SOL    HW223049   2.742   6.618   0.713
 7384SOL     OW23050   6.663   6.441   2.598
 7384SOL    HW123051   6.612   6.476   2.519
 7384SOL    HW223052   6.659   6.342   2.600
 7385SOL     OW23053   3.274   5.323   2.304
 7385SOL    HW123054   3.250   5.419   2.321
 7385SOL    HW223055   3.213   5.264   2.358
 7386SOL     OW23056   0.188   2.556   0.172
 7386SOL    HW123057   0.156   2.531   0.264
 7386SOL    HW223058   0.112   2.593   0.119
 7387SOL     OW23059   6.329   5.132   5.864
 7387SOL    HW123060   6.286   5.222   5.856
 7387SOL    HW223061   6.396   5.134   5.938
 7388SOL     OW23062   1.234   5.373   1.661
 7388SOL    HW123063   1.298   5.448   1.678
 7388SOL    HW223064   1.269   5.289   1.701
 7389SOL     OW23065   6.218   3.936   6.319
 7389SOL    HW123066   6.146   3.922   6.251
 7389SOL    HW223067   6.258   4.027   6.307
 7390SOL     OW23068   1.823   2.701   1.790
 7390SOL    HW123069   1.903   2.677   1.735
 7390SOL    HW223070   1.843   2.682   1.886
 7391SOL     OW23071   4.091   3.530   3.823
 7391SOL    HW123072   4.109   3.570   3.913
 7391SOL    HW223073   4.073   3.432   3.833
 7392SOL     OW23074   3.279   5.796   6.528
 7392SOL    HW123075   3.341   5.872   6.550
 7392SOL    HW223076   3.328   5.729   6.472
 7393SOL     OW23077   6.334   4.447   2.643
 7393SOL    HW123078   6.329   4.348   2.651
 7393SOL    HW223079   6.420   4.473   2.598
 7394SOL     OW23080   1.901   3.030   5.692
 7394SOL    HW123081   1.984   3.048   5.744
 7394SOL    HW223082   1.919   2.960   5.623
 7395SOL     OW23083   1.820   3.816   1.415
 7395SOL    HW123084   1.774   3.892   1.369
 7395SOL    HW223085   1.916   3.841   1.433
 7396SOL     OW23086   2.372   6.450   1.161
 7396SOL    HW123087   2.399   6.386   1.232
 7396SOL    HW223088   2.277   6.477   1.174
 7397SOL     OW23089   4.801   5.955   4.779
 7397SOL    HW123090   4.742   5.878   4.804
 7397SOL    HW223091   4.897   5.929   4.791
 7398SOL     OW23092   1.413   4.477   3.741
 7398SOL    HW123093   1.320   4.504   3.717
 7398SOL    HW223094   1.452   4.425   3.666
 7399SOL     OW23095   0.819   2.529   4.500
 7399SOL    HW123096   0.809   2.604   4.434
 7399SOL    HW223097   0.729   2.496   4.527
 7400SOL     OW23098   4.021   2.871   5.789
 7400SOL    HW123099   4.082   2.912   5.722
 7400SOL    HW223100   4.040   2.909   5.880
 7401SOL     OW23101   1.167   2.756   3.740
 7401SOL    HW123102   1.245   2.812   3.767
 7401SOL    HW223103   1.198   2.666   3.711
 7402SOL     OW23104   3.196   4.568   5.997
 7402SOL    HW123105   3.285   4.590   6.036
 7402SOL    HW223106   3.188   4.609   5.906
 7403SOL     OW23107   1.664   4.480   2.099
 7403SOL    HW123108   1.675   4.396   2.152
 7403SOL    HW223109   1.750   4.504   2.055
 7404SOL     OW23110   2.719   4.407   1.680
 7404SOL    HW123111   2.773   4.411   1.596
 7404SOL    HW223112   2.772   4.446   1.755
 7405SOL     OW23113   3.278   5.007   4.371
 7405SOL    HW123114   3.325   4.977   4.454
 7405SOL    HW223115   3.345   5.037   4.304
 7406SOL     OW23116   0.376   2.393   3.710
 7406SOL    HW123117   0.459   2.449   3.714
 7406SOL    HW223118   0.389   2.318   3.645
 7407SOL     OW23119   0.664   6.868   5.284
 7407SOL    HW123120   0.735   6.890   5.352
 7407SOL    HW223121   0.700   6.886   5.193
 7408SOL     OW23122   3.515   4.090   6.359
 7408SOL    HW123123   3.567   4.103   6.443
 7408SOL    HW223124   3.440   4.026   6.376
 7409SOL     OW23125   5.038   3.297   6.775
 7409SOL    HW123126   5.131   3.260   6.783
 7409SOL    HW223127   5.042   3.397   6.773
 7410SOL     OW23128   0.561   0.598   0.436
 7410SOL    HW123129   0.495   0.658   0.481
 7410SOL    HW223130   0.524   0.506   0.429
 7411SOL     OW23131   2.302   0.968   0.066
 7411SOL    HW123132   2.384   1.015   0.099
 7411SOL    HW223133   2.243   1.034   0.019
 7412SOL     OW23134   3.918   0.543   1.216
 7412SOL    HW123135   3.897   0.572   1.309
 7412SOL    HW223136   3.937   0.445   1.214
 7413SOL     OW23137   4.375   4.966   3.756
 7413SOL    HW123138   4.432   4.976   3.837
 7413SOL    HW223139   4.408   5.025   3.683
 7414SOL     OW23140   1.377   0.955   3.090
 7414SOL    HW123141   1.335   0.969   3.180
 7414SOL    HW223142   1.457   1.015   3.082
 7415SOL     OW23143   2.039   4.635   4.352
 7415SOL    HW123144   2.026   4.557   4.414
 7415SOL    HW223145   2.054   4.602   4.259
 7416SOL     OW23146   1.959   0.789   2.072
 7416SOL    HW123147   1.892   0.863   2.073
 7416SOL    HW223148   1.989   0.773   1.978
 7417SOL     OW23149   2.204   2.489   1.209
 7417SOL    HW123150   2.264   2.543   1.150
 7417SOL    HW223151   2.142   2.435   1.153
 7418SOL     OW23152   1.568   5.186   0.460
 7418SOL    HW123153   1.572   5.113   0.391
 7418SOL    HW223154   1.582   5.274   0.415
 7419SOL     OW23155   6.595   4.003   4.110
 7419SOL    HW123156   6.568   3.943   4.034
 7419SOL    HW223157   6.670   3.961   4.161
 7420SOL     OW23158   0.258   6.434   1.584
 7420SOL    HW123159   0.328   6.454   1.653
 7420SOL    HW223160   0.300   6.428   1.494
 7421SOL     OW23161   4.543   3.616   1.057
 7421SOL    HW123162   4.611   3.630   1.128
 7421SOL    HW223163   4.504   3.525   1.065
 7422SOL     OW23164   0.122   4.472   1.882
 7422SOL    HW123165   0.134   4.570   1.900
 7422SOL    HW223166   0.025   4.452   1.870
 7423SOL     OW23167   5.823   2.799   5.531
 7423SOL    HW123168   5.778   2.718   5.571
 7423SOL    HW223169   5.774   2.881   5.561
 7424SOL     OW23170   6.590   1.338   5.738
 7424SOL    HW123171   6.614   1.289   5.654
 7424SOL    HW223172   6.517   1.288   5.786
 7425SOL     OW23173   5.080   6.955   0.318
 7425SOL    HW123174   5.136   0.001   0.358
 7425SOL    HW223175   5.085   6.961   0.218
 7426SOL     OW23176   3.112   1.627   5.195
 7426SOL    HW123177   3.194   1.659   5.242
 7426SOL    HW223178   3.031   1.670   5.235
 7427SOL     OW23179   5.017   0.628   3.988
 7427SOL    HW123180   5.099   0.578   3.960
 7427SOL    HW223181   4.961   0.569   4.047
 7428SOL     OW23182   4.115   1.452   5.100
 7428SOL    HW123183   4.123   1.493   5.191
 7428SOL    HW223184   4.136   1.354   5.106
 7429SOL     OW23185   0.502   6.508   4.086
 7429SOL    HW123186   0.427   6.502   4.020
 7429SOL    HW223187   0.490   6.589   4.144
 7430SOL     OW23188   0.933   3.538   0.987
 7430SOL    HW123189   0.926   3.626   0.940
 7430SOL    HW223190   0.881   3.542   1.072
 7431SOL     OW23191   0.585   2.619   3.152
 7431SOL    HW123192   0.556   2.673   3.074
 7431SOL    HW223193   0.512   2.555   3.177
 7432SOL     OW23194   1.839   0.538   3.479
 7432SOL    HW123195   1.795   0.477   3.413
 7432SOL    HW223196   1.794   0.529   3.568
 7433SOL     OW23197   4.056   6.090   6.440
 7433SOL    HW123198   4.018   6.034   6.514
 7433SOL    HW223199   4.063   6.185   6.470
 7434SOL     OW23200   4.893   5.417   5.434
 7434SOL    HW123201   4.813   5.435   5.378
 7434SOL    HW223202   4.937   5.332   5.405
 7435SOL     OW23203   4.356   6.393   1.332
 7435SOL    HW123204   4.450   6.380   1.364
 7435SOL    HW223205   4.348   6.358   1.238
 7436SOL     OW23206   4.546   4.415   6.550
 7436SOL    HW123207   4.580   4.325   6.577
 7436SOL    HW223208   4.464   4.438   6.603
 7437SOL     OW23209   2.173   6.015   6.767
 7437SOL    HW123210   2.144   6.062   6.683
 7437SOL    HW223211   2.119   5.931   6.777
 7438SOL     OW23212   0.825   6.438   0.330
 7438SOL    HW123213   0.817   6.358   0.389
 7438SOL    HW223214   0.741   6.447   0.276
 7439SOL     OW23215   1.813   6.420   6.152
 7439SOL    HW123216   1.738   6.466   6.104
 7439SOL    HW223217   1.818   6.325   6.124
 7440SOL     OW23218   6.855   2.909   3.770
 7440SOL    HW123219   6.802   2.981   3.727
 7440SOL    HW223220   6.904   2.945   3.849
 7441SOL     OW23221   5.630   0.169   4.346
 7441SOL    HW123222   5.696   0.232   4.304
 7441SOL    HW223223   5.629   0.083   4.294
 7442SOL     OW23224   6.114   1.741   6.764
 7442SOL    HW123225   6.126   1.641   6.765
 7442SOL    HW223226   6.071   1.768   6.678
 7443SOL     OW23227   6.302   6.093   1.361
 7443SOL    HW123228   6.325   6.057   1.452
 7443SOL    HW223229   6.384   6.093   1.304
 7444SOL     OW23230   5.199   2.504   6.999
 7444SOL    HW123231   5.172   2.442   6.926
 7444SOL    HW223232   5.216   2.595   6.961
 7445SOL     OW23233   3.311   0.569   1.101
 7445SOL    HW123234   3.286   0.587   1.197
 7445SOL    HW223235   3.360   0.482   1.096
 7446SOL     OW23236   5.643   3.093   0.375
 7446SOL    HW123237   5.682   3.007   0.404
 7446SOL    HW223238   5.543   3.091   0.388
 7447SOL     OW23239   6.602   4.593   6.839
 7447SOL    HW123240   6.621   4.669   6.900
 7447SOL    HW223241   6.665   4.596   6.761
 7448SOL     OW23242   6.422   6.570   4.824
 7448SOL    HW123243   6.425   6.581   4.923
 7448SOL    HW223244   6.394   6.477   4.801
 7449SOL     OW23245   0.790   4.912   1.103
 7449SOL    HW123246   0.718   4.969   1.144
 7449SOL    HW223247   0.820   4.954   1.017
 7450SOL     OW23248   5.252   2.708   4.670
 7450SOL    HW123249   5.197   2.753   4.740
 7450SOL    HW223250   5.349   2.728   4.687
 7451SOL     OW23251   6.606   6.088   2.595
 7451SOL    HW123252   6.635   5.993   2.598
 7451SOL    HW223253   6.627   6.126   2.505
 7452SOL     OW23254   5.958   6.044   4.160
 7452SOL    HW123255   5.893   6.108   4.201
 7452SOL    HW223256   5.925   5.951   4.171
 7453SOL     OW23257   5.385   5.103   4.649
 7453SOL    HW123258   5.410   5.018   4.602
 7453SOL    HW223259   5.384   5.087   4.747
 7454SOL     OW23260   2.019   2.395   1.043
 7454SOL    HW123261   2.008   2.304   1.002
 7454SOL    HW223262   1.932   2.444   1.039
 7455SOL     OW23263   6.880   3.026   2.027
 7455SOL    HW123264   6.882   2.926   2.024
 7455SOL    HW223265   6.786   3.057   2.042
 7456SOL     OW23266   1.982   1.043   4.974
 7456SOL    HW123267   1.951   1.134   4.945
 7456SOL    HW223268   1.903   0.982   4.979
 7457SOL     OW23269   3.187   0.487   5.143
 7457SOL    HW123270   3.096   0.447   5.150
 7457SOL    HW223271   3.213   0.493   5.047
 7458SOL     OW23272   1.623   0.591   6.460
 7458SOL    HW123273   1.661   0.673   6.503
 7458SOL    HW223274   1.697   0.535   6.423
 7459SOL     OW23275   5.428   0.787   2.306
 7459SOL    HW123276   5.479   0.842   2.372
 7459SOL    HW223277   5.475   0.700   2.291
 7460SOL     OW23278   0.660   5.367   0.493
 7460SOL    HW123279   0.758   5.364   0.512
 7460SOL    HW223280   0.633   5.285   0.442
 7461SOL     OW23281   6.287   0.259   6.608
 7461SOL    HW123282   6.191   0.228   6.608
 7461SOL    HW223283   6.311   0.294   6.699
 7462SOL     OW23284   1.522   4.597   2.290
 7462SOL    HW123285   1.432   4.556   2.274
 7462SOL    HW223286   1.578   4.587   2.207
 7463SOL     OW23287   2.856   4.385   0.257
 7463SOL    HW123288   2.797   4.452   0.212
 7463SOL    HW223289   2.947   4.387   0.216
 7464SOL     OW23290   5.702   6.956   5.830
 7464SOL    HW123291   5.706   6.857   5.843
 7464SOL    HW223292   5.617   6.980   5.784
 7465SOL     OW23293   2.626   5.412   6.664
 7465SOL    HW123294   2.542   5.416   6.610
 7465SOL    HW223295   2.697   5.466   6.620
 7466SOL     OW23296   6.852   0.812   5.016
 7466SOL    HW123297   6.921   0.833   5.086
 7466SOL    HW223298   6.823   0.717   5.025
 7467SOL     OW23299   0.080   1.905   6.166
 7467SOL    HW123300   0.165   1.943   6.130
 7467SOL    HW223301   0.011   1.902   6.093
 7468SOL     OW23302   5.480   2.887   4.081
 7468SOL    HW123303   5.387   2.871   4.116
 7468SOL    HW223304   5.478   2.883   3.981
 7469SOL     OW23305   6.990   0.380   6.620
 7469SOL    HW123306   6.905   0.348   6.579
 7469SOL    HW223307   0.040   0.328   6.583
 7470SOL     OW23308   5.521   3.354   3.442
 7470SOL    HW123309   5.518   3.397   3.532
 7470SOL    HW223310   5.505   3.423   3.372
 7471SOL     OW23311   4.869   6.642   5.991
 7471SOL    HW123312   4.870   6.707   5.916
 7471SOL    HW223313   4.920   6.679   6.069
 7472SOL     OW23314   6.195   0.940   5.803
 7472SOL    HW123315   6.206   0.962   5.706
 7472SOL    HW223316   6.113   0.987   5.838
 7473SOL     OW23317   5.239   5.445   3.698
 7473SOL    HW123318   5.306   5.514   3.727
 7473SOL    HW223319   5.150   5.489   3.686
 7474SOL     OW23320   6.928   2.061   6.328
 7474SOL    HW123321   6.993   1.999   6.284
 7474SOL    HW223322   6.836   2.022   6.322
 7475SOL     OW23323   4.496   2.366   2.197
 7475SOL    HW123324   4.531   2.447   2.243
 7475SOL    HW223325   4.543   2.355   2.109
 7476SOL     OW23326   3.252   1.198   3.066
 7476SOL    HW123327   3.338   1.247   3.084
 7476SOL    HW223328   3.175   1.257   3.088
 7477SOL     OW23329   6.362   2.325   5.148
 7477SOL    HW123330   6.285   2.276   5.106
 7477SOL    HW223331   6.344   2.336   5.245
 7478SOL     OW23332   6.418   3.861   5.633
 7478SOL    HW123333   6.485   3.844   5.706
 7478SOL    HW223334   6.326   3.841   5.668
 7479SOL     OW23335   4.336   2.126   2.012
 7479SOL    HW123336   4.386   2.185   2.076
 7479SOL    HW223337   4.286   2.057   2.064
 7480SOL     OW23338   1.514   4.887   2.371
 7480SOL    HW123339   1.478   4.799   2.340
 7480SOL    HW223340   1.440   4.940   2.413
 7481SOL     OW23341   5.893   5.196   1.060
 7481SOL    HW123342   5.915   5.139   0.981
 7481SOL    HW223343   5.951   5.169   1.137
 7482SOL     OW23344   4.675   2.425   3.037
 7482SOL    HW123345   4.763   2.454   2.999
 7482SOL    HW223346   4.602   2.484   3.001
 7483SOL     OW23347   4.941   3.118   4.742
 7483SOL    HW123348   4.970   3.025   4.762
 7483SOL    HW223349   4.920   3.126   4.644
 7484SOL     OW23350   1.640   6.213   4.235
 7484SOL    HW123351   1.591   6.260   4.308
 7484SOL    HW223352   1.616   6.253   4.147
 7485SOL     OW23353   2.777   0.343   4.942
 7485SOL    HW123354   2.698   0.282   4.942
 7485SOL    HW223355   2.834   0.324   4.862
 7486SOL     OW23356   1.519   6.553   6.887
 7486SOL    HW123357   1.565   6.468   6.861
 7486SOL    HW223358   1.435   6.533   6.937
 7487SOL     OW23359   2.372   0.872   3.039
 7487SOL    HW123360   2.432   0.948   3.062
 7487SOL    HW223361   2.424   0.802   2.989
 7488SOL     OW23362   2.402   5.610   5.169
 7488SOL    HW123363   2.491   5.581   5.132
 7488SOL    HW223364   2.416   5.662   5.253
 7489SOL     OW23365   6.548   3.436   6.395
 7489SOL    HW123366   6.471   3.380   6.425
 7489SOL    HW223367   6.574   3.408   6.302
 7490SOL     OW23368   1.342   0.454   3.529
 7490SOL    HW123369   1.426   0.501   3.501
 7490SOL    HW223370   1.356   0.413   3.619
 7491SOL     OW23371   4.694   3.224   6.442
 7491SOL    HW123372   4.767   3.190   6.501
 7491SOL    HW223373   4.705   3.322   6.428
 7492SOL     OW23374   2.110   0.401   3.582
 7492SOL    HW123375   2.085   0.477   3.642
 7492SOL    HW223376   2.117   0.434   3.487
 7493SOL     OW23377   0.200   2.343   6.231
 7493SOL    HW123378   0.198   2.323   6.329
 7493SOL    HW223379   0.294   2.357   6.201
 7494SOL     OW23380   5.930   1.438   3.446
 7494SOL    HW123381   5.875   1.489   3.512
 7494SOL    HW223382   5.872   1.370   3.401
 7495SOL     OW23383   1.069   2.776   6.486
 7495SOL    HW123384   1.135   2.702   6.477
 7495SOL    HW223385   1.052   2.818   6.397
 7496SOL     OW23386   6.138   3.590   4.003
 7496SOL    HW123387   6.065   3.528   3.974
 7496SOL    HW223388   6.197   3.610   3.926
 7497SOL     OW23389   1.811   4.480   1.148
 7497SOL    HW123390   1.810   4.579   1.136
 7497SOL    HW223391   1.901   4.451   1.181
 7498SOL     OW23392   3.215   0.983   4.562
 7498SOL    HW123393   3.312   1.008   4.552
 7498SOL    HW223394   3.163   1.065   4.585
 7499SOL     OW23395   4.545   2.302   3.263
 7499SOL    HW123396   4.598   2.224   3.297
 7499SOL    HW223397   4.581   2.330   3.174
 7500SOL     OW23398   3.807   5.535   3.288
 7500SOL    HW123399   3.795   5.442   3.320
 7500SOL    HW223400   3.905   5.556   3.284
 7501SOL     OW23401   5.058   4.328   4.424
 7501SOL    HW123402   5.095   4.255   4.367
 7501SOL    HW223403   4.959   4.314   4.435
 7502SOL     OW23404   3.466   0.748   4.520
 7502SOL    HW123405   3.411   0.735   4.437
 7502SOL    HW223406   3.406   0.754   4.599
 7503SOL     OW23407   2.435   6.936   1.303
 7503SOL    HW123408   2.351   6.939   1.248
 7503SOL    HW223409   2.412   6.949   1.399
 7504SOL     OW23410   1.083   6.562   3.595
 7504SOL    HW123411   1.013   6.502   3.556
 7504SOL    HW223412   1.089   6.545   3.693
 7505SOL     OW23413   1.125   2.448   6.258
 7505SOL    HW123414   1.152   2.483   6.347
 7505SOL    HW223415   1.179   2.367   6.235
 7506SOL     OW23416   5.292   2.353   3.874
 7506SOL    HW123417   5.305   2.446   3.906
 7506SOL    HW223418   5.377   2.302   3.883
 7507SOL     OW23419   5.921   1.802   2.526
 7507SOL    HW123420   5.834   1.785   2.573
 7507SOL    HW223421   5.954   1.717   2.486
 7508SOL     OW23422   2.135   5.672   0.796
 7508SOL    HW123423   2.103   5.738   0.728
 7508SOL    HW223424   2.119   5.709   0.888
 7509SOL     OW23425   6.250   4.242   0.616
 7509SOL    HW123426   6.235   4.183   0.696
 7509SOL    HW223427   6.175   4.229   0.551
 7510SOL     OW23428   3.747   3.460   4.949
 7510SOL    HW123429   3.663   3.490   4.902
 7510SOL    HW223430   3.806   3.539   4.965
 7511SOL     OW23431   3.029   5.954   3.338
 7511SOL    HW123432   3.053   5.861   3.365
 7511SOL    HW223433   2.938   5.977   3.372
 7512SOL     OW23434   3.151   1.242   6.711
 7512SOL    HW123435   3.148   1.196   6.800
 7512SOL    HW223436   3.119   1.337   6.722
 7513SOL     OW23437   1.460   1.045   1.514
 7513SOL    HW123438   1.442   1.073   1.420
 7513SOL    HW223439   1.406   1.101   1.577
 7514SOL     OW23440   2.400   4.991   2.571
 7514SOL    HW123441   2.372   4.935   2.650
 7514SOL    HW223442   2.482   5.042   2.595
 7515SOL     OW23443   6.779   4.766   4.354
 7515SOL    HW123444   6.696   4.729   4.395
 7515SOL    HW223445   6.835   4.692   4.320
 7516SOL     OW23446   6.922   5.441   6.082
 7516SOL    HW123447   6.933   5.495   6.165
 7516SOL    HW223448   7.011   5.404   6.054
 7517SOL     OW23449   0.672   2.155   0.149
 7517SOL    HW123450   0.583   2.142   0.194
 7517SOL    HW223451   0.665   2.231   0.084
 7518SOL     OW23452   4.991   3.417   4.495
 7518SOL    HW123453   4.969   3.487   4.427
 7518SOL    HW223454   5.080   3.435   4.535
 7519SOL     OW23455   6.705   6.275   5.039
 7519SOL    HW123456   6.763   6.197   5.065
 7519SOL    HW223457   6.751   6.328   4.969
 7520SOL     OW23458   2.210   0.270   2.877
 7520SOL    HW123459   2.209   0.367   2.853
 7520SOL    HW223460   2.288   0.251   2.937
 7521SOL     OW23461   5.387   2.628   5.525
 7521SOL    HW123462   5.397   2.727   5.537
 7521SOL    HW223463   5.309   2.610   5.465
 7522SOL     OW23464   1.277   1.006   5.803
 7522SOL    HW123465   1.369   1.040   5.824
 7522SOL    HW223466   1.214   1.034   5.875
 7523SOL     OW23467   4.941   0.612   6.494
 7523SOL    HW123468   4.900   0.550   6.561
 7523SOL    HW223469   5.035   0.582   6.475
 7524SOL     OW23470   0.757   2.639   5.309
 7524SOL    HW123471   0.793   2.682   5.226
 7524SOL    HW223472   0.748   2.541   5.294
 7525SOL     OW23473   3.852   7.020   0.442
 7525SOL    HW123474   3.853   6.963   0.360
 7525SOL    HW223475   3.775   0.058   0.437
 7526SOL     OW23476   2.933   3.029   1.602
 7526SOL    HW123477   2.886   3.088   1.667
 7526SOL    HW223478   2.907   2.933   1.617
 7527SOL     OW23479   3.420   5.752   3.980
 7527SOL    HW123480   3.353   5.785   3.914
 7527SOL    HW223481   3.372   5.714   4.059
 7528SOL     OW23482   6.277   2.363   6.048
 7528SOL    HW123483   6.356   2.423   6.063
 7528SOL    HW223484   6.246   2.371   5.953
 7529SOL     OW23485   5.743   1.187   4.775
 7529SOL    HW123486   5.743   1.116   4.845
 7529SOL    HW223487   5.740   1.277   4.819
 7530SOL     OW23488   6.436   2.002   1.783
 7530SOL    HW123489   6.346   2.045   1.795
 7530SOL    HW223490   6.459   1.999   1.685
 7531SOL     OW23491   5.358   3.158   4.270
 7531SOL    HW123492   5.387   3.217   4.346
 7531SOL    HW223493   5.398   3.191   4.185
 7532SOL     OW23494   4.896   6.288   0.809
 7532SOL    HW123495   4.961   6.228   0.856
 7532SOL    HW223496   4.884   6.258   0.715
 7533SOL     OW23497   3.477   1.880   1.803
 7533SOL    HW123498   3.576   1.887   1.809
 7533SOL    HW223499   3.434   1.955   1.854
 7534SOL     OW23500   4.776   5.605   4.483
 7534SOL    HW123501   4.753   5.515   4.520
 7534SOL    HW223502   4.815   5.594   4.391
 7535SOL     OW23503   1.790   6.782   5.058
 7535SOL    HW123504   1.822   6.754   4.968
 7535SOL    HW223505   1.850   6.742   5.128
 7536SOL     OW23506   5.041   4.936   4.038
 7536SOL    HW123507   5.021   5.001   3.964
 7536SOL    HW223508   5.073   4.986   4.118
 7537SOL     OW23509   1.605   5.179   2.821
 7537SOL    HW123510   1.569   5.156   2.912
 7537SOL    HW223511   1.614   5.278   2.813
 7538SOL     OW23512   1.765   2.282   1.415
 7538SOL    HW123513   1.714   2.368   1.408
 7538SOL    HW223514   1.821   2.284   1.498
 7539SOL     OW23515   1.605   3.905   4.330
 7539SOL    HW123516   1.627   3.814   4.295
 7539SOL    HW223517   1.585   3.900   4.428
 7540SOL     OW23518   4.116   0.515   4.588
 7540SOL    HW123519   4.028   0.553   4.559
 7540SOL    HW223520   4.150   0.452   4.518
 7541SOL     OW23521   0.549   3.964   5.267
 7541SOL    HW123522   0.640   4.006   5.264
 7541SOL    HW223523   0.480   4.033   5.244
 7542SOL     OW23524   0.157   6.015   0.347
 7542SOL    HW123525   0.223   5.962   0.295
 7542SOL    HW223526   0.189   6.025   0.441
 7543SOL     OW23527   3.592   1.057   5.209
 7543SOL    HW123528   3.500   1.040   5.244
 7543SOL    HW223529   3.629   0.971   5.171
 7544SOL     OW23530   6.359   2.545   4.550
 7544SOL    HW123531   6.394   2.480   4.617
 7544SOL    HW223532   6.321   2.625   4.597
 7545SOL     OW23533   0.949   6.067   6.042
 7545SOL    HW123534   0.996   6.146   6.002
 7545SOL    HW223535   0.943   6.079   6.141
 7546SOL     OW23536   5.022   2.029   1.052
 7546SOL    HW123537   4.968   1.985   0.981
 7546SOL    HW223538   5.118   2.000   1.044
 7547SOL     OW23539   5.399   1.705   1.039
 7547SOL    HW123540   5.458   1.644   1.090
 7547SOL    HW223541   5.391   1.673   0.944
 7548SOL     OW23542   4.834   2.328   6.235
 7548SOL    HW123543   4.825   2.230   6.220
 7548SOL    HW223544   4.772   2.377   6.173
 7549SOL     OW23545   3.527   3.474   6.407
 7549SOL    HW123546   3.619   3.467   6.368
 7549SOL    HW223547   3.508   3.570   6.430
 7550SOL     OW23548   1.794   4.343   3.882
 7550SOL    HW123549   1.861   4.282   3.841
 7550SOL    HW223550   1.792   4.429   3.831
 7551SOL     OW23551   6.108   2.935   5.199
 7551SOL    HW123552   6.024   2.988   5.192
 7551SOL    HW223553   6.086   2.842   5.230
 7552SOL     OW23554   1.629   5.747   4.041
 7552SOL    HW123555   1.686   5.664   4.046
 7552SOL    HW223556   1.618   5.773   3.945
 7553SOL     OW23557   4.661   6.958   5.713
 7553SOL    HW123558   4.631   6.961   5.618
 7553SOL    HW223559   4.581   6.958   5.773
 7554SOL     OW23560   4.833   0.844   6.436
 7554SOL    HW123561   4.744   0.852   6.482
 7554SOL    HW223562   4.870   0.753   6.453
 7555SOL     OW23563   3.301   5.384   6.281
 7555SOL    HW123564   3.210   5.398   6.320
 7555SOL    HW223565   3.345   5.472   6.265
 7556SOL     OW23566   2.502   1.995   0.048
 7556SOL    HW123567   2.538   2.037   0.131
 7556SOL    HW223568   2.564   2.014   6.998
 7557SOL     OW23569   5.043   0.712   6.092
 7557SOL    HW123570   5.048   0.625   6.141
 7557SOL    HW223571   4.957   0.716   6.041
 7558SOL     OW23572   2.264   2.868   4.271
 7558SOL    HW123573   2.345   2.851   4.214
 7558SOL    HW223574   2.293   2.894   4.363
 7559SOL     OW23575   3.646   3.094   5.827
 7559SOL    HW123576   3.622   2.997   5.834
 7559SOL    HW223577   3.689   3.124   5.912
 7560SOL     OW23578   5.370   7.022   0.015
 7560SOL    HW123579   5.381   6.945   0.078
 7560SOL    HW223580   5.280   7.019   7.000
 7561SOL     OW23581   6.744   3.200   5.564
 7561SOL    HW123582   6.667   3.225   5.623
 7561SOL    HW223583   6.752   3.266   5.489
 7562SOL     OW23584   0.420   4.647   5.443
 7562SOL    HW123585   0.461   4.558   5.459
 7562SOL    HW223586   0.491   4.714   5.421
 7563SOL     OW23587   3.333   6.931   1.581
 7563SOL    HW123588   3.271   6.912   1.657
 7563SOL    HW223589   3.423   6.956   1.616
 7564SOL     OW23590   3.798   0.234   4.610
 7564SOL    HW123591   3.768   0.182   4.690
 7564SOL    HW223592   3.773   0.330   4.620
 7565SOL     OW23593   5.798   3.995   6.119
 7565SOL    HW123594   5.736   4.014   6.195
 7565SOL    HW223595   5.780   4.059   6.044
 7566SOL     OW23596   5.853   5.286   2.335
 7566SOL    HW123597   5.813   5.255   2.249
 7566SOL    HW223598   5.845   5.214   2.404
 7567SOL     OW23599   1.499   1.135   5.913
 7567SOL    HW123600   1.470   1.227   5.888
 7567SOL    HW223601   1.570   1.139   5.983
 7568SOL     OW23602   5.790   4.675   2.379
 7568SOL    HW123603   5.773   4.764   2.421
 7568SOL    HW223604   5.801   4.606   2.451
 7569SOL     OW23605   2.736   4.767   5.965
 7569SOL    HW123606   2.689   4.693   5.916
 7569SOL    HW223607   2.764   4.734   6.055
 7570SOL     OW23608   5.127   4.084   4.331
 7570SOL    HW123609   5.215   4.041   4.352
 7570SOL    HW223610   5.054   4.016   4.338
 7571SOL     OW23611   4.861   3.891   3.517
 7571SOL    HW123612   4.817   3.890   3.427
 7571SOL    HW223613   4.920   3.810   3.526
 7572SOL     OW23614   5.035   0.521   2.731
 7572SOL    HW123615   5.108   0.551   2.670
 7572SOL    HW223616   5.075   0.478   2.812
 7573SOL     OW23617   6.674   0.421   5.271
 7573SOL    HW123618   6.613   0.386   5.199
 7573SOL    HW223619   6.621   0.439   5.354
 7574SOL     OW23620   5.714   0.678   4.758
 7574SOL    HW123621   5.747   0.616   4.685
 7574SOL    HW223622   5.742   0.642   4.847
 7575SOL     OW23623   5.410   0.192   6.793
 7575SOL    HW123624   5.413   0.166   6.697
 7575SOL    HW223625   5.451   0.120   6.848
 7576SOL     OW23626   4.782   3.209   0.346
 7576SOL    HW123627   4.725   3.152   0.287
 7576SOL    HW223628   4.728   3.242   0.423
 7577SOL     OW23629   0.441   6.371   6.733
 7577SOL    HW123630   0.347   6.399   6.752
 7577SOL    HW223631   0.442   6.275   6.705
 7578SOL     OW23632   2.903   5.349   2.303
 7578SOL    HW123633   2.838   5.298   2.360
 7578SOL    HW223634   2.880   5.334   2.206
 7579SOL     OW23635   0.385   1.769   1.315
 7579SOL    HW123636   0.320   1.760   1.391
 7579SOL    HW223637   0.351   1.837   1.250
 7580SOL     OW23638   0.670   4.098   3.399
 7580SOL    HW123639   0.761   4.097   3.357
 7580SOL    HW223640   0.675   4.065   3.493
 7581SOL     OW23641   0.904   2.005   1.333
 7581SOL    HW123642   1.001   1.995   1.311
 7581SOL    HW223643   0.850   1.942   1.277
 7582SOL     OW23644   4.009   1.759   3.788
 7582SOL    HW123645   4.098   1.733   3.826
 7582SOL    HW223646   4.016   1.761   3.688
 7583SOL     OW23647   5.138   3.118   2.036
 7583SOL    HW123648   5.205   3.156   1.973
 7583SOL    HW223649   5.087   3.045   1.990
 7584SOL     OW23650   1.479   6.974   2.783
 7584SOL    HW123651   1.533   0.008   2.841
 7584SOL    HW223652   1.517   6.882   2.786
 7585SOL     OW23653   1.792   2.675   5.819
 7585SOL    HW123654   1.763   2.717   5.733
 7585SOL    HW223655   1.861   2.605   5.801
 7586SOL     OW23656   1.948   6.733   3.420
 7586SOL    HW123657   1.970   6.795   3.496
 7586SOL    HW223658   1.905   6.650   3.456
 7587SOL     OW23659   2.636   1.584   6.786
 7587SOL    HW123660   2.582   1.530   6.851
 7587SOL    HW223661   2.715   1.530   6.756
 7588SOL     OW23662   2.330   2.225   3.462
 7588SOL    HW123663   2.341   2.324   3.468
 7588SOL    HW223664   2.307   2.188   3.552
 7589SOL     OW23665   0.368   0.870   2.740
 7589SOL    HW123666   0.442   0.818   2.697
 7589SOL    HW223667   0.355   0.956   2.691
 7590SOL     OW23668   4.766   1.784   6.865
 7590SOL    HW123669   4.835   1.829   6.922
 7590SOL    HW223670   4.810   1.718   6.804
 7591SOL     OW23671   5.219   4.497   0.261
 7591SOL    HW123672   5.247   4.578   0.210
 7591SOL    HW223673   5.278   4.486   0.341
 7592SOL     OW23674   6.328   5.573   4.274
 7592SOL    HW123675   6.388   5.650   4.253
 7592SOL    HW223676   6.305   5.574   4.371
 7593SOL     OW23677   6.806   2.889   6.861
 7593SOL    HW123678   6.725   2.901   6.919
 7593SOL    HW223679   6.828   2.792   6.855
 7594SOL     OW23680   2.189   4.478   1.502
 7594SOL    HW123681   2.149   4.456   1.591
 7594SOL    HW223682   2.167   4.572   1.478
 7595SOL     OW23683   6.144   3.459   6.001
 7595SOL    HW123684   6.144   3.548   6.047
 7595SOL    HW223685   6.230   3.447   5.953
 7596SOL     OW23686   3.384   6.827   4.312
 7596SOL    HW123687   3.407   6.799   4.406
 7596SOL    HW223688   3.455   6.889   4.278
 7597SOL     OW23689   2.280   6.234   3.107
 7597SOL    HW123690   2.321   6.152   3.067
 7597SOL    HW223691   2.243   6.291   3.034
 7598SOL     OW23692   6.295   0.674   3.486
 7598SOL    HW123693   6.200   0.699   3.506
 7598SOL    HW223694   6.297   0.590   3.432
 7599SOL     OW23695   5.467   1.861   1.898
 7599SOL    HW123696   5.557   1.902   1.886
 7599SOL    HW223697   5.473   1.762   1.887
 7600SOL     OW23698   0.987   0.922   4.122
 7600SOL    HW123699   0.982   0.867   4.206
 7600SOL    HW223700   0.945   1.011   4.139
 7601SOL     OW23701   2.520   4.674   1.981
 7601SOL    HW123702   2.560   4.626   2.060
 7601SOL    HW223703   2.591   4.729   1.937
 7602SOL     OW23704   1.077   3.080   6.887
 7602SOL    HW123705   1.111   3.110   6.797
 7602SOL    HW223706   1.146   3.102   6.957
 7603SOL     OW23707   2.462   6.239   6.529
 7603SOL    HW123708   2.443   6.297   6.608
 7603SOL    HW223709   2.443   6.290   6.445
 7604SOL     OW23710   0.924   2.720   5.093
 7604SOL    HW123711   1.010   2.673   5.110
 7604SOL    HW223712   0.940   2.800   5.036
 7605SOL     OW23713   1.169   0.455   0.605
 7605SOL    HW123714   1.177   0.438   0.703
 7605SOL    HW223715   1.239   0.405   0.556
 7606SOL     OW23716   5.386   3.045   4.711
 7606SOL    HW123717   5.451   3.000   4.773
 7606SOL    HW223718   5.427   3.055   4.621
 7607SOL     OW23719   4.758   5.470   0.421
 7607SOL    HW123720   4.700   5.487   0.501
 7607SOL    HW223721   4.847   5.435   0.451
 7608SOL     OW23722   4.960   3.136   0.879
 7608SOL    HW123723   4.886   3.151   0.813
 7608SOL    HW223724   4.950   3.045   0.920
 7609SOL     OW23725   1.747   3.386   4.428
 7609SOL    HW123726   1.842   3.354   4.438
 7609SOL    HW223727   1.698   3.324   4.366
 7610SOL     OW23728   3.795   4.638   6.116
 7610SOL    HW123729   3.875   4.589   6.152
 7610SOL    HW223730   3.743   4.578   6.056
 7611SOL     OW23731   5.178   4.410   1.214
 7611SOL    HW123732   5.202   4.420   1.118
 7611SOL    HW223733   5.133   4.493   1.246
 7612SOL     OW23734   4.781   2.857   2.790
 7612SOL    HW123735   4.754   2.913   2.869
 7612SOL    HW223736   4.721   2.777   2.784
 7613SOL     OW23737   0.495   1.584   1.144
 7613SOL    HW123738   0.446   1.633   1.216
 7613SOL    HW223739   0.468   1.488   1.145
 7614SOL     OW23740   5.443   3.244   1.604
 7614SOL    HW123741   5.535   3.216   1.575
 7614SOL    HW223742   5.445   3.340   1.632
 7615SOL     OW23743   4.878   4.175   6.449
 7615SOL    HW123744   4.905   4.201   6.542
 7615SOL    HW223745   4.860   4.257   6.395
 7616SOL     OW23746   6.683   6.594   4.516
 7616SOL    HW123747   6.647   6.675   4.563
 7616SOL    HW223748   6.634   6.581   4.430
 7617SOL     OW23749   4.391   6.425   3.398
 7617SOL    HW123750   4.413   6.513   3.356
 7617SOL    HW223751   4.469   6.363   3.389
 7618SOL     OW23752   0.898   3.026   6.530
 7618SOL    HW123753   0.949   3.084   6.467
 7618SOL    HW223754   0.952   2.945   6.553
 7619SOL     OW23755   6.982   3.209   4.780
 7619SOL    HW123756   6.961   3.240   4.687
 7619SOL    HW223757   6.898   3.206   4.834
 7620SOL     OW23758   4.070   5.665   1.751
 7620SOL    HW123759   4.046   5.683   1.655
 7620SOL    HW223760   4.170   5.672   1.761
 7621SOL     OW23761   0.252   0.939   0.920
 7621SOL    HW123762   0.305   1.019   0.893
 7621SOL    HW223763   0.171   0.931   0.862
 7622SOL     OW23764   4.909   4.739   6.776
 7622SOL    HW123765   4.823   4.707   6.815
 7622SOL    HW223766   4.892   4.777   6.685
 7623SOL     OW23767   4.249   4.570   0.831
 7623SOL    HW123768   4.149   4.568   0.827
 7623SOL    HW223769   4.284   4.628   0.757
 7624SOL     OW23770   7.002   3.699   3.804
 7624SOL    HW123771   6.933   3.696   3.877
 7624SOL    HW223772   0.005   3.794   3.790
 7625SOL     OW23773   5.876   1.160   6.664
 7625SOL    HW123774   5.817   1.198   6.736
 7625SOL    HW223775   5.960   1.124   6.704
 7626SOL     OW23776   6.248   0.654   5.860
 7626SOL    HW123777   6.328   0.636   5.802
 7626SOL    HW223778   6.216   0.747   5.843
 7627SOL     OW23779   3.334   2.446   0.261
 7627SOL    HW123780   3.389   2.368   0.231
 7627SOL    HW223781   3.254   2.413   0.311
 7628SOL     OW23782   3.705   3.074   1.837
 7628SOL    HW123783   3.673   3.118   1.921
 7628SOL    HW223784   3.804   3.062   1.841
 7629SOL     OW23785   0.246   3.995   3.219
 7629SOL    HW123786   0.197   3.963   3.138
 7629SOL    HW223787   0.296   3.918   3.260
 7630SOL     OW23788   1.251   0.705   6.910
 7630SOL    HW123789   1.314   0.648   6.856
 7630SOL    HW223790   1.300   0.744   6.988
 7631SOL     OW23791   1.053   1.266   5.227
 7631SOL    HW123792   1.010   1.354   5.247
 7631SOL    HW223793   1.150   1.270   5.253
 7632SOL     OW23794   4.494   4.538   1.002
 7632SOL    HW123795   4.406   4.521   0.958
 7632SOL    HW223796   4.490   4.623   1.054
 7633SOL     OW23797   5.316   0.769   1.539
 7633SOL    HW123798   5.343   0.681   1.578
 7633SOL    HW223799   5.240   0.806   1.592
 7634SOL     OW23800   2.396   1.256   1.443
 7634SOL    HW123801   2.393   1.301   1.353
 7634SOL    HW223802   2.483   1.208   1.453
 7635SOL     OW23803   3.164   4.943   4.746
 7635SOL    HW123804   3.147   5.040   4.731
 7635SOL    HW223805   3.080   4.891   4.730
 7636SOL     OW23806   1.194   3.576   3.590
 7636SOL    HW123807   1.233   3.638   3.659
 7636SOL    HW223808   1.174   3.627   3.507
 7637SOL     OW23809   2.750   5.946   2.748
 7637SOL    HW123810   2.763   5.919   2.843
 7637SOL    HW223811   2.782   5.873   2.687
 7638SOL     OW23812   1.626   5.819   2.700
 7638SOL    HW123813   1.577   5.840   2.784
 7638SOL    HW223814   1.595   5.880   2.627
 7639SOL     OW23815   0.211   1.314   0.589
 7639SOL    HW123816   0.160   1.373   0.652
 7639SOL    HW223817   0.277   1.369   0.538
 7640SOL     OW23818   2.403   2.939   6.549
 7640SOL    HW123819   2.324   2.910   6.495
 7640SOL    HW223820   2.373   2.974   6.637
 7641SOL     OW23821   6.955   3.408   2.617
 7641SOL    HW123822   7.007   3.390   2.534
 7641SOL    HW223823   6.881   3.340   2.625
 7642SOL     OW23824   4.670   1.012   2.210
 7642SOL    HW123825   4.659   0.940   2.278
 7642SOL    HW223826   4.690   1.099   2.256
 7643SOL     OW23827   4.867   1.583   2.693
 7643SOL    HW123828   4.905   1.577   2.600
 7643SOL    HW223829   4.920   1.525   2.754
 7644SOL     OW23830   4.967   2.931   1.936
 7644SOL    HW123831   4.981   2.832   1.943
 7644SOL    HW223832   4.883   2.956   1.982
 7645SOL     OW23833   4.905   3.511   5.951
 7645SOL    HW123834   4.841   3.571   5.904
 7645SOL    HW223835   4.954   3.562   6.022
 7646SOL     OW23836   0.355   2.689   3.557
 7646SOL    HW123837   0.327   2.649   3.469
 7646SOL    HW223838   0.366   2.788   3.546
 7647SOL     OW23839   6.977   2.409   4.801
 7647SOL    HW123840   6.883   2.420   4.768
 7647SOL    HW223841   6.992   2.467   4.880
 7648SOL     OW23842   2.024   1.755   2.484
 7648SOL    HW123843   1.948   1.800   2.437
 7648SOL    HW223844   1.989   1.690   2.551
 7649SOL     OW23845   1.798   0.767   4.072
 7649SOL    HW123846   1.808   0.751   3.973
 7649SOL    HW223847   1.859   0.706   4.122
 7650SOL     OW23848   6.031   0.645   0.904
 7650SOL    HW123849   5.961   0.700   0.857
 7650SOL    HW223850   6.121   0.669   0.868
 7651SOL     OW23851   2.296   6.768   4.845
 7651SOL    HW123852   2.303   6.754   4.746
 7651SOL    HW223853   2.311   6.864   4.866
 7652SOL     OW23854   5.463   2.040   5.084
 7652SOL    HW123855   5.436   2.101   5.159
 7652SOL    HW223856   5.544   1.988   5.111
 7653SOL     OW23857   1.070   1.594   0.438
 7653SOL    HW123858   0.990   1.632   0.483
 7653SOL    HW223859   1.042   1.517   0.379
 7654SOL     OW23860   5.106   3.021   4.215
 7654SOL    HW123861   5.166   3.081   4.268
 7654SOL    HW223862   5.026   2.996   4.271
 7655SOL     OW23863   3.867   7.022   3.700
 7655SOL    HW123864   3.907   0.053   3.629
 7655SOL    HW223865   3.934   7.007   3.773
 7656SOL     OW23866   3.951   3.813   6.614
 7656SOL    HW123867   3.955   3.810   6.514
 7656SOL    HW223868   3.997   3.895   6.647
 7657SOL     OW23869   2.278   2.116   3.720
 7657SOL    HW123870   2.241   2.167   3.797
 7657SOL    HW223871   2.208   2.054   3.685
 7658SOL     OW23872   2.294   0.504   0.925
 7658SOL    HW123873   2.305   0.433   0.994
 7658SOL    HW223874   2.371   0.568   0.931
 7659SOL     OW23875   4.533   4.852   0.227
 7659SOL    HW123876   4.516   4.756   0.203
 7659SOL    HW223877   4.631   4.866   0.238
 7660SOL     OW23878   0.109   5.856   4.198
 7660SOL    HW123879   0.117   5.860   4.099
 7660SOL    HW223880   0.016   5.827   4.223
 7661SOL     OW23881   5.515   2.191   5.575
 7661SOL    HW123882   5.588   2.241   5.529
 7661SOL    HW223883   5.459   2.255   5.629
 7662SOL     OW23884   0.989   2.407   3.600
 7662SOL    HW123885   0.973   2.371   3.692
 7662SOL    HW223886   1.083   2.440   3.593
 7663SOL     OW23887   5.459   4.867   6.165
 7663SOL    HW123888   5.372   4.915   6.165
 7663SOL    HW223889   5.496   4.863   6.072
 7664SOL     OW23890   4.246   0.975   2.324
 7664SOL    HW123891   4.152   0.947   2.305
 7664SOL    HW223892   4.250   1.026   2.410
 7665SOL     OW23893   5.801   0.756   5.178
 7665SOL    HW123894   5.781   0.709   5.265
 7665SOL    HW223895   5.715   0.788   5.138
 7666SOL     OW23896   0.732   4.863   3.315
 7666SOL    HW123897   0.662   4.930   3.290
 7666SOL    HW223898   0.808   4.910   3.361
 7667SOL     OW23899   4.340   0.357   2.308
 7667SOL    HW123900   4.334   0.449   2.346
 7667SOL    HW223901   4.414   0.354   2.241
 7668SOL     OW23902   2.830   4.881   0.892
 7668SOL    HW123903   2.863   4.925   0.809
 7668SOL    HW223904   2.757   4.937   0.932
 7669SOL     OW23905   4.345   1.128   5.425
 7669SOL    HW123906   4.331   1.046   5.370
 7669SOL    HW223907   4.374   1.102   5.518
 7670SOL     OW23908   1.148   5.643   0.720
 7670SOL    HW123909   1.060   5.682   0.748
 7670SOL    HW223910   1.177   5.575   0.787
 7671SOL     OW23911   3.939   0.711   2.108
 7671SOL    HW123912   3.857   0.768   2.121
 7671SOL    HW223913   3.991   0.745   2.030
 7672SOL     OW23914   6.923   5.608   3.090
 7672SOL    HW123915   6.857   5.622   3.164
 7672SOL    HW223916   7.004   5.664   3.107
 7673SOL     OW23917   1.548   5.843   2.141
 7673SOL    HW123918   1.550   5.899   2.057
 7673SOL    HW223919   1.456   5.808   2.155
 7674SOL     OW23920   4.887   0.871   4.074
 7674SOL    HW123921   4.902   0.783   4.119
 7674SOL    HW223922   4.789   0.884   4.058
 7675SOL     OW23923   5.756   6.609   3.270
 7675SOL    HW123924   5.761   6.562   3.358
 7675SOL    HW223925   5.726   6.704   3.285
 7676SOL     OW23926   3.009   2.559   6.228
 7676SOL    HW123927   3.107   2.575   6.215
 7676SOL    HW223928   2.958   2.643   6.210
 7677SOL     OW23929   0.681   4.274   1.209
 7677SOL    HW123930   0.657   4.370   1.195
 7677SOL    HW223931   0.607   4.216   1.176
 7678SOL     OW23932   2.406   2.623   5.327
 7678SOL    HW123933   2.462   2.554   5.280
 7678SOL    HW223934   2.465   2.699   5.356
 7679SOL     OW23935   2.445   5.634   5.671
 7679SOL    HW123936   2.455   5.548   5.621
 7679SOL    HW223937   2.516   5.640   5.741
 7680SOL     OW23938   1.570   0.581   0.578
 7680SOL    HW123939   1.657   0.617   0.612
 7680SOL    HW223940   1.496   0.643   0.605
 7681SOL     OW23941   2.739   1.210   0.454
 7681SOL    HW123942   2.834   1.198   0.424
 7681SOL    HW223943   2.711   1.130   0.507
 7682SOL     OW23944   4.658   0.714   2.265
 7682SOL    HW123945   4.589   0.719   2.193
 7682SOL    HW223946   4.729   0.648   2.238
 7683SOL     OW23947   0.223   1.562   4.616
 7683SOL    HW123948   0.302   1.513   4.578
 7683SOL    HW223949   0.234   1.660   4.600
 7684SOL     OW23950   4.323   2.140   0.973
 7684SOL    HW123951   4.285   2.060   0.926
 7684SOL    HW223952   4.281   2.150   1.063
 7685SOL     OW23953   3.027   1.455   6.313
 7685SOL    HW123954   2.960   1.504   6.258
 7685SOL    HW223955   3.011   1.474   6.410
 7686SOL     OW23956   6.665   0.003   3.929
 7686SOL    HW123957   6.603   6.959   3.898
 7686SOL    HW223958   6.629   0.046   4.012
 7687SOL     OW23959   5.555   5.260   4.508
 7687SOL    HW123960   5.584   5.350   4.540
 7687SOL    HW223961   5.474   5.232   4.560
 7688SOL     OW23962   0.061   6.024   5.602
 7688SOL    HW123963   0.098   6.047   5.692
 7688SOL    HW223964   7.017   6.091   5.577
 7689SOL     OW23965   5.588   6.277   2.642
 7689SOL    HW123966   5.537   6.229   2.571
 7689SOL    HW223967   5.532   6.353   2.677
 7690SOL     OW23968   4.960   5.395   0.793
 7690SOL    HW123969   5.031   5.462   0.771
 7690SOL    HW223970   4.987   5.345   0.875
 7691SOL     OW23971   5.832   3.842   2.854
 7691SOL    HW123972   5.858   3.782   2.779
 7691SOL    HW223973   5.735   3.830   2.874
 7692SOL     OW23974   0.762   6.068   2.071
 7692SOL    HW123975   0.818   5.986   2.073
 7692SOL    HW223976   0.802   6.135   2.008
 7693SOL     OW23977   2.851   0.409   0.998
 7693SOL    HW123978   2.866   0.500   0.961
 7693SOL    HW223979   2.773   0.367   0.951
 7694SOL     OW23980   6.065   2.775   3.625
 7694SOL    HW123981   5.982   2.754   3.574
 7694SOL    HW223982   6.092   2.695   3.679
 7695SOL     OW23983   5.631   1.141   1.603
 7695SOL    HW123984   5.589   1.099   1.684
 7695SOL    HW223985   5.588   1.106   1.520
 7696SOL     OW23986   6.621   2.042   6.049
 7696SOL    HW123987   6.632   1.973   6.121
 7696SOL    HW223988   6.694   2.032   5.982
 7697SOL     OW23989   2.587   0.910   2.803
 7697SOL    HW123990   2.570   0.813   2.822
 7697SOL    HW223991   2.650   0.947   2.871
 7698SOL     OW23992   5.953   1.037   4.619
 7698SOL    HW123993   5.907   1.079   4.697
 7698SOL    HW223994   6.048   1.017   4.643
 7699SOL     OW23995   2.537   5.330   6.337
 7699SOL    HW123996   2.482   5.385   6.399
 7699SOL    HW223997   2.484   5.307   6.256
 7700SOL     OW23998   4.503   5.847   3.596
 7700SOL    HW123999   4.456   5.771   3.640
 7700SOL    HW224000   4.576   5.880   3.655
 7701SOL     OW24001   0.314   2.558   6.807
 7701SOL    HW124002   0.264   2.639   6.778
 7701SOL    HW224003   0.411   2.580   6.816
 7702SOL     OW24004   4.694   5.454   5.226
 7702SOL    HW124005   4.643   5.514   5.287
 7702SOL    HW224006   4.630   5.399   5.172
 7703SOL     OW24007   6.654   6.155   6.426
 7703SOL    HW124008   6.570   6.107   6.450
 7703SOL    HW224009   6.718   6.090   6.385
 7704SOL     OW24010   5.830   1.213   3.285
 7704SOL    HW124011   5.743   1.178   3.321
 7704SOL    HW224012   5.863   1.152   3.212
 7705SOL     OW24013   2.316   6.070   1.167
 7705SOL    HW124014   2.313   6.122   1.081
 7705SOL    HW224015   2.232   6.089   1.219
 7706SOL     OW24016   3.832   2.989   4.418
 7706SOL    HW124017   3.849   2.937   4.502
 7706SOL    HW224018   3.750   2.952   4.372
 7707SOL     OW24019   0.662   4.655   6.485
 7707SOL    HW124020   0.745   4.619   6.528
 7707SOL    HW224021   0.628   4.589   6.418
 7708SOL     OW24022   1.606   6.323   4.660
 7708SOL    HW124023   1.564   6.326   4.570
 7708SOL    HW224024   1.684   6.259   4.659
 7709SOL     OW24025   7.026   4.766   1.901
 7709SOL    HW124026   0.001   4.735   1.996
 7709SOL    HW224027   0.093   4.771   1.866
 7710SOL     OW24028   1.648   2.412   0.718
 7710SOL    HW124029   1.558   2.386   0.683
 7710SOL    HW224030   1.718   2.385   0.652
 7711SOL     OW24031   5.767   5.958   5.670
 7711SOL    HW124032   5.855   5.979   5.714
 7711SOL    HW224033   5.727   5.878   5.714
 7712SOL     OW24034   6.260   5.374   0.456
 7712SOL    HW124035   6.216   5.382   0.366
 7712SOL    HW224036   6.342   5.317   0.448
 7713SOL     OW24037   1.796   3.383   0.351
 7713SOL    HW124038   1.881   3.410   0.306
 7713SOL    HW224039   1.818   3.340   0.439
 7714SOL     OW24040   0.148   5.660   5.051
 7714SOL    HW124041   0.153   5.653   5.151
 7714SOL    HW224042   0.151   5.568   5.011
 7715SOL     OW24043   3.163   2.991   6.465
 7715SOL    HW124044   3.086   3.014   6.405
 7715SOL    HW224045   3.137   3.009   6.560
 7716SOL     OW24046   6.616   4.832   0.525
 7716SOL    HW124047   6.654   4.744   0.495
 7716SOL    HW224048   6.533   4.815   0.579
 7717SOL     OW24049   1.118   1.902   5.536
 7717SOL    HW124050   1.104   1.968   5.610
 7717SOL    HW224051   1.188   1.937   5.474
 7718SOL     OW24052   6.517   3.751   3.157
 7718SOL    HW124053   6.524   3.819   3.230
 7718SOL    HW224054   6.607   3.712   3.140
 7719SOL     OW24055   1.254   3.945   4.615
 7719SOL    HW124056   1.261   3.898   4.527
 7719SOL    HW224057   1.165   3.991   4.622
 7720SOL     OW24058   6.717   2.696   6.008
 7720SOL    HW124059   6.761   2.676   5.921
 7720SOL    HW224060   6.736   2.622   6.073
 7721SOL     OW24061   0.553   6.165   2.339
 7721SOL    HW124062   0.560   6.173   2.240
 7721SOL    HW224063   0.568   6.255   2.381
 7722SOL     OW24064   1.862   4.543   3.387
 7722SOL    HW124065   1.822   4.598   3.313
 7722SOL    HW224066   1.789   4.491   3.433
 7723SOL     OW24067   3.873   3.835   6.938
 7723SOL    HW124068   3.938   3.772   6.979
 7723SOL    HW224069   3.884   3.835   6.839
 7724SOL     OW24070   3.214   4.581   0.395
 7724SOL    HW124071   3.186   4.667   0.439
 7724SOL    HW224072   3.248   4.601   0.303
 7725SOL     OW24073   6.085   1.911   3.100
 7725SOL    HW124074   6.168   1.965   3.112
 7725SOL    HW224075   6.028   1.953   3.029
 7726SOL     OW24076   1.717   3.931   6.536
 7726SOL    HW124077   1.631   3.939   6.485
 7726SOL    HW224078   1.713   3.990   6.617
 7727SOL     OW24079   6.188   2.657   2.142
 7727SOL    HW124080   6.108   2.646   2.084
 7727SOL    HW224081   6.159   2.662   2.238
 7728SOL     OW24082   2.257   2.981   4.848
 7728SOL    HW124083   2.318   2.976   4.927
 7728SOL    HW224084   2.190   2.907   4.854
 7729SOL     OW24085   5.855   1.197   2.101
 7729SOL    HW124086   5.938   1.166   2.056
 7729SOL    HW224087   5.836   1.139   2.181
 7730SOL     OW24088   0.152   4.741   6.475
 7730SOL    HW124089   0.203   4.784   6.401
 7730SOL    HW224090   0.216   4.705   6.543
 7731SOL     OW24091   6.653   6.969   7.025
 7731SOL    HW124092   6.608   6.880   0.001
 7731SOL    HW224093   6.733   6.967   0.058
 7732SOL     OW24094   4.192   0.423   0.380
 7732SOL    HW124095   4.236   0.389   0.297
 7732SOL    HW224096   4.227   0.515   0.401
 7733SOL     OW24097   6.258   5.403   2.222
 7733SOL    HW124098   6.220   5.362   2.305
 7733SOL    HW224099   6.352   5.371   2.209
 7734SOL     OW24100   1.885   5.009   4.547
 7734SOL    HW124101   1.894   5.033   4.450
 7734SOL    HW224102   1.843   5.085   4.597
 7735SOL     OW24103   6.035   5.826   6.653
 7735SOL    HW124104   6.042   5.796   6.558
 7735SOL    HW224105   6.019   5.925   6.656
 7736SOL     OW24106   2.272   3.171   0.168
 7736SOL    HW124107   2.304   3.089   0.216
 7736SOL    HW224108   2.232   3.145   0.080
 7737SOL     OW24109   3.678   6.997   2.074
 7737SOL    HW124110   3.600   6.973   2.131
 7737SOL    HW224111   3.754   6.935   2.092
 7738SOL     OW24112   2.867   5.173   0.361
 7738SOL    HW124113   2.923   5.140   0.437
 7738SOL    HW224114   2.907   5.256   0.323
 7739SOL     OW24115   1.800   2.017   1.773
 7739SOL    HW124116   1.836   1.972   1.692
 7739SOL    HW224117   1.709   2.054   1.755
 7740SOL     OW24118   2.029   1.230   2.981
 7740SOL    HW124119   1.982   1.195   2.900
 7740SOL    HW224120   2.120   1.264   2.955
 7741SOL     OW24121   0.262   3.947   4.897
 7741SOL    HW124122   0.353   3.965   4.860
 7741SOL    HW224123   0.243   3.849   4.890
 7742SOL     OW24124   4.243   1.713   3.910
 7742SOL    HW124125   4.325   1.666   3.880
 7742SOL    HW224126   4.267   1.804   3.945
 7743SOL     OW24127   4.383   1.673   6.642
 7743SOL    HW124128   4.418   1.683   6.735
 7743SOL    HW224129   4.296   1.624   6.644
 7744SOL     OW24130   1.529   6.449   3.558
 7744SOL    HW124131   1.508   6.538   3.597
 7744SOL    HW224132   1.481   6.378   3.609
 7745SOL     OW24133   2.860   0.107   0.775
 7745SOL    HW124134   2.890   0.060   0.858
 7745SOL    HW224135   2.801   0.184   0.800
 7746SOL     OW24136   1.159   0.029   0.453
 7746SOL    HW124137   1.228   0.083   0.405
 7746SOL    HW224138   1.072   0.036   0.405
 7747SOL     OW24139   6.624   5.942   1.266
 7747SOL    HW124140   6.587   6.034   1.280
 7747SOL    HW224141   6.714   5.936   1.308
 7748SOL     OW24142   3.516   4.165   3.612
 7748SOL    HW124143   3.471   4.088   3.566
 7748SOL    HW224144   3.472   4.181   3.700
 7749SOL     OW24145   3.574   3.730   3.814
 7749SOL    HW124146   3.584   3.796   3.888
 7749SOL    HW224147   3.655   3.733   3.755
 7750SOL     OW24148   6.585   5.915   6.689
 7750SOL    HW124149   6.523   5.933   6.766
 7750SOL    HW224150   6.532   5.903   6.606
 7751SOL     OW24151   0.600   2.245   2.835
 7751SOL    HW124152   0.590   2.215   2.740
 7751SOL    HW224153   0.563   2.175   2.896
 7752SOL     OW24154   5.549   5.901   5.094
 7752SOL    HW124155   5.633   5.849   5.111
 7752SOL    HW224156   5.473   5.858   5.143
 7753SOL     OW24157   2.658   0.791   4.012
 7753SOL    HW124158   2.643   0.851   3.933
 7753SOL    HW224159   2.603   0.822   4.089
 7754SOL     OW24160   5.538   6.524   1.637
 7754SOL    HW124161   5.483   6.608   1.641
 7754SOL    HW224162   5.605   6.525   1.712
 7755SOL     OW24163   1.376   1.894   5.921
 7755SOL    HW124164   1.407   1.984   5.890
 7755SOL    HW224165   1.451   1.828   5.913
 7756SOL     OW24166   3.397   4.895   2.642
 7756SOL    HW124167   3.470   4.855   2.698
 7756SOL    HW224168   3.412   4.872   2.546
 7757SOL     OW24169   4.854   5.862   4.014
 7757SOL    HW124170   4.774   5.847   4.071
 7757SOL    HW224171   4.906   5.777   4.005
 7758SOL     OW24172   1.873   2.134   6.731
 7758SOL    HW124173   1.813   2.103   6.804
 7758SOL    HW224174   1.930   2.058   6.700
 7759SOL     OW24175   1.196   1.639   4.879
 7759SOL    HW124176   1.166   1.561   4.825
 7759SOL    HW224177   1.121   1.671   4.937
 7760SOL     OW24178   5.636   2.949   2.620
 7760SOL    HW124179   5.657   2.942   2.718
 7760SOL    HW224180   5.603   3.041   2.600
 7761SOL     OW24181   1.473   0.038   6.262
 7761SOL    HW124182   1.539   0.113   6.267
 7761SOL    HW224183   1.466   0.007   6.167
 7762SOL     OW24184   4.441   0.850   4.377
 7762SOL    HW124185   4.427   0.901   4.293
 7762SOL    HW224186   4.387   0.765   4.375
 7763SOL     OW24187   0.927   1.458   1.172
 7763SOL    HW124188   0.888   1.516   1.243
 7763SOL    HW224189   1.027   1.467   1.173
 7764SOL     OW24190   3.549   2.889   3.009
 7764SOL    HW124191   3.458   2.932   3.016
 7764SOL    HW224192   3.553   2.810   3.071
 7765SOL     OW24193   6.028   2.883   4.196
 7765SOL    HW124194   6.080   2.832   4.127
 7765SOL    HW224195   5.944   2.919   4.155
 7766SOL     OW24196   5.266   1.764   0.479
 7766SOL    HW124197   5.167   1.770   0.468
 7766SOL    HW224198   5.302   1.698   0.413
 7767SOL     OW24199   3.986   6.155   3.489
 7767SOL    HW124200   3.891   6.186   3.486
 7767SOL    HW224201   4.044   6.222   3.443
 7768SOL     OW24202   4.362   5.085   2.383
 7768SOL    HW124203   4.352   5.056   2.288
 7768SOL    HW224204   4.275   5.074   2.430
 7769SOL     OW24205   4.912   2.274   2.566
 7769SOL    HW124206   4.819   2.311   2.560
 7769SOL    HW224207   4.909   2.174   2.556
 7770SOL     OW24208   1.101   3.573   2.619
 7770SOL    HW124209   1.088   3.578   2.520
 7770SOL    HW224210   1.126   3.480   2.644
 7771SOL     OW24211   2.703   2.393   5.002
 7771SOL    HW124212   2.640   2.429   4.932
 7771SOL    HW224213   2.766   2.466   5.029
 7772SOL     OW24214   5.147   1.018   3.350
 7772SOL    HW124215   5.142   1.003   3.252
 7772SOL    HW224216   5.141   0.930   3.398
 7773SOL     OW24217   3.364   5.573   5.186
 7773SOL    HW124218   3.406   5.607   5.270
 7773SOL    HW224219   3.283   5.628   5.164
 7774SOL     OW24220   6.151   2.787   6.562
 7774SOL    HW124221   6.095   2.869   6.574
 7774SOL    HW224222   6.155   2.764   6.464
 7775SOL     OW24223   4.143   6.858   2.932
 7775SOL    HW124224   4.082   6.800   2.879
 7775SOL    HW224225   4.112   6.953   2.927
 7776SOL     OW24226   3.284   4.229   6.581
 7776SOL    HW124227   3.271   4.269   6.490
 7776SOL    HW224228   3.209   4.257   6.641
 7777SOL     OW24229   1.731   0.877   5.153
 7777SOL    HW124230   1.721   0.822   5.070
 7777SOL    HW224231   1.823   0.866   5.190
 7778SOL     OW24232   4.739   6.110   0.264
 7778SOL    HW124233   4.692   6.043   0.320
 7778SOL    HW224234   4.677   6.144   0.193
 7779SOL     OW24235   2.919   3.149   0.863
 7779SOL    HW124236   2.919   3.159   0.962
 7779SOL    HW224237   3.009   3.120   0.831
 7780SOL     OW24238   1.440   5.209   5.026
 7780SOL    HW124239   1.444   5.167   4.935
 7780SOL    HW224240   1.460   5.141   5.095
 7781SOL     OW24241   1.639   5.011   6.863
 7781SOL    HW124242   1.579   4.939   6.898
 7781SOL    HW224243   1.585   5.077   6.812
 7782SOL     OW24244   1.229   4.380   5.792
 7782SOL    HW124245   1.191   4.417   5.707
 7782SOL    HW224246   1.264   4.455   5.848
 7783SOL     OW24247   1.932   5.832   5.230
 7783SOL    HW124248   1.935   5.892   5.150
 7783SOL    HW224249   1.861   5.762   5.216
 7784SOL     OW24250   3.117   2.814   0.223
 7784SOL    HW124251   3.181   2.843   0.294
 7784SOL    HW224252   3.153   2.734   0.176
 7785SOL     OW24253   1.990   6.618   4.047
 7785SOL    HW124254   2.075   6.648   4.091
 7785SOL    HW224255   2.005   6.611   3.948
 7786SOL     OW24256   2.878   5.859   6.700
 7786SOL    HW124257   2.937   5.920   6.753
 7786SOL    HW224258   2.802   5.828   6.757
 7787SOL     OW24259   2.563   2.941   6.066
 7787SOL    HW124260   2.576   3.039   6.080
 7787SOL    HW224261   2.467   2.918   6.079
 7788SOL     OW24262   1.796   6.727   2.238
 7788SOL    HW124263   1.867   6.747   2.307
 7788SOL    HW224264   1.827   6.653   2.179
 7789SOL     OW24265   3.150   0.007   0.234
 7789SOL    HW124266   3.114   6.949   0.197
 7789SOL    HW224267   3.142   0.006   0.334
 7790SOL     OW24268   5.832   5.143   2.625
 7790SOL    HW124269   5.871   5.105   2.709
 7790SOL    HW224270   5.789   5.231   2.645
 7791SOL     OW24271   2.502   6.151   3.855
 7791SOL    HW124272   2.566   6.197   3.793
 7791SOL    HW224273   2.497   6.202   3.941
 7792SOL     OW24274   1.992   5.173   5.953
 7792SOL    HW124275   2.044   5.213   6.028
 7792SOL    HW224276   1.901   5.215   5.948
 7793SOL     OW24277   2.846   0.495   6.849
 7793SOL    HW124278   2.882   0.585   6.827
 7793SOL    HW224279   2.849   0.481   6.948
 7794SOL     OW24280   5.565   5.318   3.665
 7794SOL    HW124281   5.561   5.227   3.707
 7794SOL    HW224282   5.630   5.316   3.589
 7795SOL     OW24283   2.103   3.571   5.541
 7795SOL    HW124284   2.169   3.512   5.493
 7795SOL    HW224285   2.052   3.625   5.475
 7796SOL     OW24286   3.299   3.785   3.290
 7796SOL    HW124287   3.236   3.863   3.289
 7796SOL    HW224288   3.347   3.780   3.203
 7797SOL     OW24289   0.883   6.706   3.267
 7797SOL    HW124290   0.832   6.645   3.327
 7797SOL    HW224291   0.856   6.801   3.283
 7798SOL     OW24292   1.553   4.834   6.129
 7798SOL    HW124293   1.496   4.824   6.211
 7798SOL    HW224294   1.495   4.826   6.048
 7799SOL     OW24295   0.452   6.434   1.791
 7799SOL    HW124296   0.497   6.345   1.798
 7799SOL    HW224297   0.398   6.451   1.874
 7800SOL     OW24298   1.470   5.320   0.974
 7800SOL    HW124299   1.548   5.375   0.944
 7800SOL    HW224300   1.496   5.224   0.977
 7801SOL     OW24301   1.594   2.338   1.863
 7801SOL    HW124302   1.590   2.305   1.957
 7801SOL    HW224303   1.672   2.298   1.816
 7802SOL     OW24304   5.862   1.912   1.206
 7802SOL    HW124305   5.851   1.977   1.282
 7802SOL    HW224306   5.955   1.877   1.205
 7803SOL     OW24307   4.116   2.428   6.399
 7803SOL    HW124308   4.197   2.370   6.395
 7803SOL    HW224309   4.090   2.455   6.307
 7804SOL     OW24310   5.316   1.308   4.574
 7804SOL    HW124311   5.337   1.307   4.476
 7804SOL    HW224312   5.328   1.216   4.611
 7805SOL     OW24313   5.613   1.498   1.104
 7805SOL    HW124314   5.592   1.437   1.180
 7805SOL    HW224315   5.651   1.583   1.139
 7806SOL     OW24316   5.770   2.293   6.014
 7806SOL    HW124317   5.790   2.339   6.100
 7806SOL    HW224318   5.787   2.356   5.938
 7807SOL     OW24319   0.486   4.296   5.434
 7807SOL    HW124320   0.419   4.262   5.501
 7807SOL    HW224321   0.576   4.301   5.476
 7808SOL     OW24322   6.936   2.776   4.634
 7808SOL    HW124323   6.850   2.769   4.684
 7808SOL    HW224324   6.918   2.772   4.536
 7809SOL     OW24325   2.364   5.845   4.757
 7809SOL    HW124326   2.319   5.757   4.741
 7809SOL    HW224327   2.306   5.919   4.722
 7810SOL     OW24328   3.572   6.985   5.008
 7810SOL    HW124329   3.596   6.938   4.923
 7810SOL    HW224330   3.634   0.035   5.022
 7811SOL     OW24331   0.538   4.903   3.532
 7811SOL    HW124332   0.552   4.861   3.443
 7811SOL    HW224333   0.617   4.958   3.557
 7812SOL     OW24334   1.512   1.904   3.623
 7812SOL    HW124335   1.472   1.991   3.595
 7812SOL    HW224336   1.588   1.880   3.563
 7813SOL     OW24337   3.614   2.775   6.702
 7813SOL    HW124338   3.622   2.870   6.733
 7813SOL    HW224339   3.603   2.715   6.781
 7814SOL     OW24340   6.578   3.138   3.831
 7814SOL    HW124341   6.639   3.115   3.755
 7814SOL    HW224342   6.623   3.113   3.917
 7815SOL     OW24343   5.143   0.357   6.465
 7815SOL    HW124344   5.180   0.401   6.547
 7815SOL    HW224345   5.121   0.262   6.485
 7816SOL     OW24346   1.492   2.403   6.478
 7816SOL    HW124347   1.524   2.312   6.453
 7816SOL    HW224348   1.550   2.440   6.551
 7817SOL     OW24349   5.526   4.295   3.421
 7817SOL    HW124350   5.453   4.292   3.353
 7817SOL    HW224351   5.599   4.355   3.390
 7818SOL     OW24352   4.451   1.126   3.080
 7818SOL    HW124353   4.513   1.150   3.154
 7818SOL    HW224354   4.371   1.186   3.082
 7819SOL     OW24355   6.510   2.915   2.174
 7819SOL    HW124356   6.549   2.974   2.103
 7819SOL    HW224357   6.459   2.971   2.240
 7820SOL     OW24358   1.249   2.286   4.336
 7820SOL    HW124359   1.198   2.206   4.303
 7820SOL    HW224360   1.192   2.338   4.399
 7821SOL     OW24361   5.216   5.941   1.460
 7821SOL    HW124362   5.207   5.980   1.551
 7821SOL    HW224363   5.282   5.866   1.462
 7822SOL     OW24364   0.559   0.753   5.747
 7822SOL    HW124365   0.462   0.749   5.725
 7822SOL    HW224366   0.589   0.848   5.754
 7823SOL     OW24367   2.557   3.971   5.362
 7823SOL    HW124368   2.505   4.002   5.441
 7823SOL    HW224369   2.495   3.959   5.284
 7824SOL     OW24370   6.005   1.252   4.436
 7824SOL    HW124371   5.993   1.187   4.511
 7824SOL    HW224372   6.101   1.279   4.430
 7825SOL     OW24373   0.996   2.833   0.962
 7825SOL    HW124374   1.009   2.907   0.896
 7825SOL    HW224375   1.054   2.755   0.935
 7826SOL     OW24376   6.397   1.259   1.300
 7826SOL    HW124377   6.334   1.264   1.223
 7826SOL    HW224378   6.487   1.293   1.272
 7827SOL     OW24379   1.865   5.809   1.244
 7827SOL    HW124380   1.924   5.877   1.289
 7827SOL    HW224381   1.782   5.797   1.298
 7828SOL     OW24382   0.183   4.851   0.026
 7828SOL    HW124383   0.203   4.754   0.013
 7828SOL    HW224384   0.099   4.861   0.079
 7829SOL     OW24385   2.038   3.469   1.548
 7829SOL    HW124386   1.974   3.399   1.514
 7829SOL    HW224387   2.088   3.433   1.626
 7830SOL     OW24388   2.558   5.041   5.234
 7830SOL    HW124389   2.612   4.971   5.188
 7830SOL    HW224390   2.558   5.125   5.180
 7831SOL     OW24391   1.600   6.788   1.632
 7831SOL    HW124392   1.616   6.706   1.576
 7831SOL    HW224393   1.502   6.803   1.640
 7832SOL     OW24394   5.708   0.846   4.291
 7832SOL    HW124395   5.780   0.812   4.230
 7832SOL    HW224396   5.742   0.847   4.385
 7833SOL     OW24397   0.351   0.826   5.416
 7833SOL    HW124398   0.339   0.802   5.512
 7833SOL    HW224399   0.445   0.858   5.401
 7834SOL     OW24400   6.727   1.208   3.646
 7834SOL    HW124401   6.648   1.227   3.705
 7834SOL    HW224402   6.788   1.287   3.647
 7835SOL     OW24403   3.606   2.164   5.522
 7835SOL    HW124404   3.568   2.254   5.544
 7835SOL    HW224405   3.601   2.150   5.423
 7836SOL     OW24406   3.265   3.221   5.036
 7836SOL    HW124407   3.213   3.205   5.120
 7836SOL    HW224408   3.212   3.280   4.975
 7837SOL     OW24409   4.403   5.255   7.010
 7837SOL    HW124410   4.439   5.169   0.018
 7837SOL    HW224411   4.464   5.291   6.939
 7838SOL     OW24412   4.222   6.705   0.956
 7838SOL    HW124413   4.270   6.753   0.882
 7838SOL    HW224414   4.145   6.761   0.988
 7839SOL     OW24415   5.554   4.364   4.856
 7839SOL    HW124416   5.642   4.317   4.856
 7839SOL    HW224417   5.511   4.356   4.946
 7840SOL     OW24418   6.653   3.289   4.162
 7840SOL    HW124419   6.568   3.280   4.212
 7840SOL    HW224420   6.673   3.203   4.114
 7841SOL     OW24421   3.616   1.928   6.356
 7841SOL    HW124422   3.539   1.987   6.330
 7841SOL    HW224423   3.591   1.874   6.436
 7842SOL     OW24424   2.320   2.093   2.686
 7842SOL    HW124425   2.413   2.107   2.720
 7842SOL    HW224426   2.276   2.020   2.738
 7843SOL     OW24427   0.738   6.109   3.340
 7843SOL    HW124428   0.671   6.037   3.322
 7843SOL    HW224429   0.742   6.170   3.261
 7844SOL     OW24430   2.787   1.008   2.938
 7844SOL    HW124431   2.860   0.976   2.998
 7844SOL    HW224432   2.809   1.100   2.906
 7845SOL     OW24433   5.073   2.044   2.755
 7845SOL    HW124434   5.010   2.018   2.683
 7845SOL    HW224435   5.115   2.133   2.733
 7846SOL     OW24436   0.274   2.229   0.904
 7846SOL    HW124437   0.290   2.225   0.806
 7846SOL    HW224438   0.351   2.188   0.952
 7847SOL     OW24439   6.443   1.332   3.326
 7847SOL    HW124440   6.470   1.428   3.319
 7847SOL    HW224441   6.345   1.323   3.307
 7848SOL     OW24442   3.389   4.974   0.685
 7848SOL    HW124443   3.395   5.070   0.713
 7848SOL    HW224444   3.462   4.955   0.619
 7849SOL     OW24445   6.518   4.480   4.795
 7849SOL    HW124446   6.507   4.558   4.857
 7849SOL    HW224447   6.448   4.484   4.724
 7850SOL     OW24448   0.634   1.432   4.053
 7850SOL    HW124449   0.671   1.368   4.120
 7850SOL    HW224450   0.616   1.385   3.967
 7851SOL     OW24451   6.773   2.039   1.297
 7851SOL    HW124452   6.784   2.070   1.391
 7851SOL    HW224453   6.740   2.115   1.240
 7852SOL     OW24454   3.464   1.880   6.612
 7852SOL    HW124455   3.366   1.897   6.625
 7852SOL    HW224456   3.517   1.943   6.669
 7853SOL     OW24457   4.867   2.572   1.472
 7853SOL    HW124458   4.932   2.516   1.522
 7853SOL    HW224459   4.910   2.660   1.449
 7854SOL     OW24460   3.474   3.475   6.055
 7854SOL    HW124461   3.438   3.404   6.116
 7854SOL    HW224462   3.543   3.527   6.104
 7855SOL     OW24463   4.457   6.684   4.658
 7855SOL    HW124464   4.452   6.753   4.729
 7855SOL    HW224465   4.523   6.613   4.685
 7856SOL     OW24466   6.470   5.602   5.137
 7856SOL    HW124467   6.495   5.506   5.128
 7856SOL    HW224468   6.395   5.623   5.075
 7857SOL     OW24469   4.532   2.892   0.307
 7857SOL    HW124470   4.622   2.858   0.281
 7857SOL    HW224471   4.493   2.947   0.233
 7858SOL     OW24472   6.481   6.341   4.389
 7858SOL    HW124473   6.399   6.287   4.368
 7858SOL    HW224474   6.517   6.313   4.478
 7859SOL     OW24475   4.449   3.203   6.363
 7859SOL    HW124476   4.545   3.212   6.390
 7859SOL    HW224477   4.394   3.177   6.443
 7860SOL     OW24478   4.443   0.974   4.133
 7860SOL    HW124479   4.380   0.987   4.056
 7860SOL    HW224480   4.510   1.048   4.135
 7861SOL     OW24481   3.360   4.628   1.660
 7861SOL    HW124482   3.444   4.631   1.713
 7861SOL    HW224483   3.344   4.534   1.629
 7862SOL     OW24484   2.163   5.420   1.996
 7862SOL    HW124485   2.121   5.502   1.957
 7862SOL    HW224486   2.096   5.346   1.998
 7863SOL     OW24487   0.086   3.974   4.387
 7863SOL    HW124488   7.018   4.002   4.399
 7863SOL    HW224489   0.115   3.993   4.293
 7864SOL     OW24490   0.546   5.038   5.506
 7864SOL    HW124491   0.486   5.020   5.584
 7864SOL    HW224492   0.491   5.048   5.423
 7865SOL     OW24493   6.685   5.997   3.924
 7865SOL    HW124494   6.629   6.011   3.843
 7865SOL    HW224495   6.636   6.029   4.005
 7866SOL     OW24496   0.773   0.640   5.619
 7866SOL    HW124497   0.795   0.724   5.570
 7866SOL    HW224498   0.678   0.642   5.648
 7867SOL     OW24499   6.210   6.060   3.429
 7867SOL    HW124500   6.305   6.071   3.458
 7867SOL    HW224501   6.202   6.088   3.333
 7868SOL     OW24502   4.573   6.049   1.532
 7868SOL    HW124503   4.642   6.119   1.551
 7868SOL    HW224504   4.599   5.963   1.575
 7869SOL     OW24505   5.248   4.381   6.571
 7869SOL    HW124506   5.213   4.346   6.659
 7869SOL    HW224507   5.335   4.337   6.550
 7870SOL     OW24508   5.300   6.351   4.051
 7870SOL    HW124509   5.231   6.392   3.992
 7870SOL    HW224510   5.275   6.256   4.071
 7871SOL     OW24511   4.509   2.001   1.533
 7871SOL    HW124512   4.448   1.947   1.475
 7871SOL    HW224513   4.595   2.018   1.485
 7872SOL     OW24514   2.177   3.669   3.079
 7872SOL    HW124515   2.160   3.657   2.981
 7872SOL    HW224516   2.254   3.611   3.107
 7873SOL     OW24517   5.912   6.617   6.753
 7873SOL    HW124518   5.968   6.630   6.671
 7873SOL    HW224519   5.939   6.684   6.822
 7874SOL     OW24520   4.759   2.372   0.526
 7874SOL    HW124521   4.703   2.442   0.481
 7874SOL    HW224522   4.819   2.330   0.458
 7875SOL     OW24523   4.561   2.458   6.555
 7875SOL    HW124524   4.487   2.400   6.588
 7875SOL    HW224525   4.527   2.518   6.482
 7876SOL     OW24526   1.301   6.550   3.380
 7876SOL    HW124527   1.284   6.572   3.476
 7876SOL    HW224528   1.318   6.635   3.329
 7877SOL     OW24529   0.547   1.639   2.802
 7877SOL    HW124530   0.477   1.583   2.758
 7877SOL    HW224531   0.636   1.615   2.765
 7878SOL     OW24532   4.739   4.624   4.813
 7878SOL    HW124533   4.660   4.565   4.825
 7878SOL    HW224534   4.784   4.604   4.726
 7879SOL     OW24535   3.841   5.061   3.212
 7879SOL    HW124536   3.769   4.994   3.226
 7879SOL    HW224537   3.837   5.097   3.119
 7880SOL     OW24538   1.966   4.125   2.002
 7880SOL    HW124539   2.016   4.040   2.021
 7880SOL    HW224540   2.031   4.200   1.995
 7881SOL     OW24541   5.691   4.370   5.302
 7881SOL    HW124542   5.606   4.368   5.249
 7881SOL    HW224543   5.755   4.434   5.260
 7882SOL     OW24544   1.649   3.735   2.046
 7882SOL    HW124545   1.577   3.682   2.000
 7882SOL    HW224546   1.704   3.673   2.102
 7883SOL     OW24547   0.877   0.563   6.987
 7883SOL    HW124548   0.803   0.495   6.979
 7883SOL    HW224549   0.965   0.518   6.971
 7884SOL     OW24550   1.861   4.129   4.762
 7884SOL    HW124551   1.863   4.145   4.663
 7884SOL    HW224552   1.922   4.194   4.808
 7885SOL     OW24553   6.641   5.306   1.022
 7885SOL    HW124554   6.723   5.268   0.978
 7885SOL    HW224555   6.567   5.312   0.955
 7886SOL     OW24556   3.941   5.726   0.223
 7886SOL    HW124557   3.849   5.738   0.261
 7886SOL    HW224558   4.005   5.783   0.273
 7887SOL     OW24559   3.053   2.178   5.922
 7887SOL    HW124560   3.029   2.082   5.911
 7887SOL    HW224561   3.151   2.185   5.943
 7888SOL     OW24562   6.625   0.390   5.650
 7888SOL    HW124563   6.568   0.435   5.581
 7888SOL    HW224564   6.696   0.454   5.681
 7889SOL     OW24565   1.688   3.723   2.565
 7889SOL    HW124566   1.732   3.759   2.483
 7889SOL    HW224567   1.591   3.708   2.548
 7890SOL     OW24568   1.752   3.105   2.846
 7890SOL    HW124569   1.755   3.203   2.864
 7890SOL    HW224570   1.705   3.089   2.759
 7891SOL     OW24571   1.810   3.184   3.690
 7891SOL    HW124572   1.779   3.235   3.609
 7891SOL    HW224573   1.828   3.089   3.665
 7892SOL     OW24574   2.318   1.669   4.093
 7892SOL    HW124575   2.291   1.586   4.143
 7892SOL    HW224576   2.368   1.644   4.011
 7893SOL     OW24577   6.868   6.563   2.774
 7893SOL    HW124578   6.870   6.641   2.711
 7893SOL    HW224579   6.787   6.507   2.756
 7894SOL     OW24580   2.985   0.541   1.318
 7894SOL    HW124581   3.068   0.594   1.334
 7894SOL    HW224582   3.009   0.445   1.304
 7895SOL     OW24583   6.401   1.169   5.913
 7895SOL    HW124584   6.323   1.108   5.919
 7895SOL    HW224585   6.389   1.245   5.977
 7896SOL     OW24586   4.803   3.740   6.689
 7896SOL    HW124587   4.902   3.749   6.680
 7896SOL    HW224588   4.782   3.693   6.776
 7897SOL     OW24589   2.748   4.106   6.908
 7897SOL    HW124590   2.767   4.204   6.900
 7897SOL    HW224591   2.716   4.085   7.001
 7898SOL     OW24592   5.189   1.719   3.845
 7898SOL    HW124593   5.153   1.806   3.811
 7898SOL    HW224594   5.195   1.654   3.770
 7899SOL     OW24595   6.047   1.011   1.337
 7899SOL    HW124596   6.098   1.098   1.334
 7899SOL    HW224597   6.022   0.984   1.245
 7900SOL     OW24598   1.655   6.145   1.560
 7900SOL    HW124599   1.662   6.207   1.482
 7900SOL    HW224600   1.559   6.121   1.576
 7901SOL     OW24601   4.997   1.166   6.188
 7901SOL    HW124602   4.921   1.184   6.250
 7901SOL    HW224603   5.080   1.212   6.221
 7902SOL     OW24604   5.433   5.553   1.717
 7902SOL    HW124605   5.494   5.553   1.795
 7902SOL    HW224606   5.350   5.605   1.738
 7903SOL     OW24607   5.786   1.694   0.481
 7903SOL    HW124608   5.794   1.688   0.381
 7903SOL    HW224609   5.699   1.737   0.505
 7904SOL     OW24610   5.569   6.809   3.335
 7904SOL    HW124611   5.488   6.781   3.387
 7904SOL    HW224612   5.548   6.809   3.237
 7905SOL     OW24613   4.601   2.624   0.585
 7905SOL    HW124614   4.582   2.557   0.657
 7905SOL    HW224615   4.588   2.716   0.621
 7906SOL     OW24616   0.169   5.361   0.342
 7906SOL    HW124617   0.137   5.455   0.348
 7906SOL    HW224618   0.150   5.313   0.428
 7907SOL     OW24619   5.727   1.998   3.753
 7907SOL    HW124620   5.774   2.000   3.665
 7907SOL    HW224621   5.653   1.930   3.750
 7908SOL     OW24622   0.492   1.496   4.853
 7908SOL    HW124623   0.455   1.552   4.779
 7908SOL    HW224624   0.420   1.437   4.889
 7909SOL     OW24625   5.204   3.643   5.247
 7909SOL    HW124626   5.171   3.669   5.156
 7909SOL    HW224627   5.165   3.704   5.316
 7910SOL     OW24628   2.857   3.183   5.731
 7910SOL    HW124629   2.946   3.140   5.714
 7910SOL    HW224630   2.841   3.255   5.665
 7911SOL     OW24631   1.288   2.951   6.223
 7911SOL    HW124632   1.302   3.027   6.286
 7911SOL    HW224633   1.194   2.916   6.232
 7912SOL     OW24634   0.187   5.120   0.188
 7912SOL    HW124635   0.168   5.209   0.228
 7912SOL    HW224636   0.252   5.130   0.113
 7913SOL     OW24637   1.278   5.278   1.230
 7913SOL    HW124638   1.321   5.289   1.140
 7913SOL    HW224639   1.222   5.195   1.230
 7914SOL     OW24640   6.998   4.673   6.027
 7914SOL    HW124641   0.070   4.688   6.032
 7914SOL    HW224642   6.980   4.583   5.987
 7915SOL     OW24643   4.842   3.011   2.404
 7915SOL    HW124644   4.882   3.089   2.355
 7915SOL    HW224645   4.793   2.953   2.338
 7916SOL     OW24646   0.020   3.796   5.780
 7916SOL    HW124647   0.070   3.726   5.831
 7916SOL    HW224648   7.016   3.759   5.693
 7917SOL     OW24649   3.354   3.385   3.626
 7917SOL    HW124650   3.422   3.412   3.695
 7917SOL    HW224651   3.316   3.466   3.583
 7918SOL     OW24652   0.324   1.834   0.224
 7918SOL    HW124653   0.252   1.779   0.267
 7918SOL    HW224654   0.413   1.792   0.240
 7919SOL     OW24655   1.165   4.743   3.019
 7919SOL    HW124656   1.084   4.735   3.077
 7919SOL    HW224657   1.183   4.656   2.974
 7920SOL     OW24658   0.542   5.270   1.369
 7920SOL    HW124659   0.534   5.318   1.281
 7920SOL    HW224660   0.635   5.282   1.404
 7921SOL     OW24661   4.367   5.912   0.723
 7921SOL    HW124662   4.276   5.951   0.739
 7921SOL    HW224663   4.431   5.985   0.699
 7922SOL     OW24664   6.361   5.728   0.367
 7922SOL    HW124665   6.279   5.770   0.326
 7922SOL    HW224666   6.337   5.685   0.454
 7923SOL     OW24667   3.048   0.683   2.193
 7923SOL    HW124668   3.014   0.727   2.277
 7923SOL    HW224669   2.976   0.684   2.124
 7924SOL     OW24670   4.010   6.203   2.741
 7924SOL    HW124671   4.098   6.211   2.694
 7924SOL    HW224672   3.990   6.289   2.788
 7925SOL     OW24673   0.622   1.973   6.258
 7925SOL    HW124674   0.641   1.885   6.303
 7925SOL    HW224675   0.572   2.033   6.321
 7926SOL     OW24676   4.862   1.131   4.902
 7926SOL    HW124677   4.911   1.127   4.989
 7926SOL    HW224678   4.913   1.188   4.838
 7927SOL     OW24679   4.245   5.547   4.751
 7927SOL    HW124680   4.189   5.573   4.673
 7927SOL    HW224681   4.309   5.475   4.724
 7928SOL     OW24682   1.515   2.796   4.359
 7928SOL    HW124683   1.498   2.890   4.330
 7928SOL    HW224684   1.428   2.752   4.384
 7929SOL     OW24685   3.840   4.126   5.485
 7929SOL    HW124686   3.827   4.041   5.434
 7929SOL    HW224687   3.824   4.109   5.582
 7930SOL     OW24688   4.567   5.746   3.882
 7930SOL    HW124689   4.643   5.765   3.820
 7930SOL    HW224690   4.595   5.680   3.951
 7931SOL     OW24691   1.359   1.654   6.384
 7931SOL    HW124692   1.324   1.733   6.433
 7931SOL    HW224693   1.451   1.632   6.417
 7932SOL     OW24694   3.307   6.481   0.006
 7932SOL    HW124695   3.347   6.475   0.098
 7932SOL    HW224696   3.372   6.525   6.971
 7933SOL     OW24697   0.304   6.490   0.319
 7933SOL    HW124698   0.260   6.415   0.269
 7933SOL    HW224699   0.330   6.562   0.254
 7934SOL     OW24700   2.367   4.541   6.973
 7934SOL    HW124701   2.364   4.638   6.994
 7934SOL    HW224702   2.397   4.528   6.878
 7935SOL     OW24703   5.752   5.835   6.999
 7935SOL    HW124704   5.666   5.784   6.989
 7935SOL    HW224705   5.762   5.867   0.066
 7936SOL     OW24706   3.800   4.842   2.913
 7936SOL    HW124707   3.728   4.875   2.974
 7936SOL    HW224708   3.889   4.852   2.959
 7937SOL     OW24709   5.976   6.963   3.846
 7937SOL    HW124710   6.008   6.994   3.756
 7937SOL    HW224711   6.037   6.892   3.881
 7938SOL     OW24712   6.000   4.688   5.320
 7938SOL    HW124713   6.010   4.653   5.413
 7938SOL    HW224714   5.923   4.643   5.275
 7939SOL     OW24715   0.693   2.444   5.796
 7939SOL    HW124716   0.763   2.514   5.781
 7939SOL    HW224717   0.605   2.476   5.762
 7940SOL     OW24718   1.980   4.125   2.562
 7940SOL    HW124719   2.007   4.121   2.465
 7940SOL    HW224720   1.917   4.050   2.582
 7941SOL     OW24721   6.818   0.046   0.820
 7941SOL    HW124722   6.914   0.062   0.843
 7941SOL    HW224723   6.765   0.029   0.903
 7942SOL     OW24724   6.386   6.042   2.963
 7942SOL    HW124725   6.329   6.109   3.010
 7942SOL    HW224726   6.469   6.087   2.930
 7943SOL     OW24727   5.734   2.443   0.347
 7943SOL    HW124728   5.678   2.491   0.415
 7943SOL    HW224729   5.698   2.460   0.256
 7944SOL     OW24730   0.207   3.079   1.258
 7944SOL    HW124731   0.161   3.147   1.315
 7944SOL    HW224732   0.303   3.105   1.247
 7945SOL     OW24733   5.457   6.682   2.458
 7945SOL    HW124734   5.506   6.596   2.474
 7945SOL    HW224735   5.496   6.754   2.516
 7946SOL     OW24736   2.452   2.367   5.751
 7946SOL    HW124737   2.524   2.336   5.689
 7946SOL    HW224738   2.394   2.434   5.705
 7947SOL     OW24739   3.934   2.955   6.220
 7947SOL    HW124740   3.921   2.863   6.257
 7947SOL    HW224741   4.009   2.954   6.154
 7948SOL     OW24742   0.619   6.137   1.110
 7948SOL    HW124743   0.565   6.060   1.141
 7948SOL    HW224744   0.594   6.219   1.163
 7949SOL     OW24745   4.451   4.536   4.122
 7949SOL    HW124746   4.523   4.468   4.135
 7949SOL    HW224747   4.417   4.567   4.210
 7950SOL     OW24748   4.989   5.530   3.667
 7950SOL    HW124749   4.933   5.462   3.714
 7950SOL    HW224750   4.940   5.617   3.663
 7951SOL     OW24751   1.599   3.660   1.182
 7951SOL    HW124752   1.680   3.627   1.134
 7951SOL    HW224753   1.519   3.608   1.151
 7952SOL     OW24754   0.770   3.547   6.709
 7952SOL    HW124755   0.724   3.624   6.664
 7952SOL    HW224756   0.704   3.474   6.724
 7953SOL     OW24757   2.037   2.700   3.195
 7953SOL    HW124758   2.012   2.649   3.277
 7953SOL    HW224759   2.098   2.645   3.138
 7954SOL     OW24760   4.585   4.539   5.395
 7954SOL    HW124761   4.664   4.496   5.440
 7954SOL    HW224762   4.604   4.637   5.382
 7955SOL     OW24763   1.318   6.590   6.253
 7955SOL    HW124764   1.396   6.647   6.276
 7955SOL    HW224765   1.253   6.642   6.198
 7956SOL     OW24766   2.155   5.934   2.927
 7956SOL    HW124767   2.100   5.941   2.844
 7956SOL    HW224768   2.095   5.912   3.004
 7957SOL     OW24769   2.157   1.255   0.528
 7957SOL    HW124770   2.231   1.322   0.517
 7957SOL    HW224771   2.128   1.254   0.624
 7958SOL     OW24772   3.322   5.709   4.262
 7958SOL    HW124773   3.335   5.619   4.302
 7958SOL    HW224774   3.224   5.724   4.245
 7959SOL     OW24775   4.266   5.626   1.307
 7959SOL    HW124776   4.312   5.662   1.389
 7959SOL    HW224777   4.274   5.692   1.233
 7960SOL     OW24778   3.562   1.788   0.853
 7960SOL    HW124779   3.606   1.877   0.840
 7960SOL    HW224780   3.630   1.722   0.885
 7961SOL     OW24781   0.862   6.159   0.405
 7961SOL    HW124782   0.799   6.081   0.397
 7961SOL    HW224783   0.941   6.145   0.345
 7962SOL     OW24784   1.856   0.368   0.439
 7962SOL    HW124785   1.821   0.396   0.349
 7962SOL    HW224786   1.939   0.419   0.459
 7963SOL     OW24787   6.756   0.533   3.391
 7963SOL    HW124788   6.839   0.588   3.380
 7963SOL    HW224789   6.712   0.557   3.478
 7964SOL     OW24790   6.536   5.177   3.207
 7964SOL    HW124791   6.625   5.149   3.243
 7964SOL    HW224792   6.539   5.274   3.182
 7965SOL     OW24793   3.313   3.302   6.466
 7965SOL    HW124794   3.398   3.349   6.444
 7965SOL    HW224795   3.332   3.205   6.479
 7966SOL     OW24796   0.442   3.372   5.547
 7966SOL    HW124797   0.538   3.347   5.554
 7966SOL    HW224798   0.421   3.401   5.454
 7967SOL     OW24799   3.054   6.263   4.040
 7967SOL    HW124800   3.051   6.173   4.083
 7967SOL    HW224801   3.145   6.303   4.049
 7968SOL     OW24802   1.973   2.515   3.407
 7968SOL    HW124803   1.916   2.453   3.352
 7968SOL    HW224804   1.923   2.543   3.489
 7969SOL     OW24805   4.497   0.003   2.513
 7969SOL    HW124806   4.533   0.072   2.450
 7969SOL    HW224807   4.559   7.021   2.591
 7970SOL     OW24808   0.110   3.177   3.040
 7970SOL    HW124809   0.142   3.084   3.024
 7970SOL    HW224810   0.155   3.239   2.975
 7971SOL     OW24811   3.885   1.433   0.803
 7971SOL    HW124812   3.874   1.476   0.892
 7971SOL    HW224813   3.965   1.373   0.804
 7972SOL     OW24814   0.895   3.889   1.584
 7972SOL    HW124815   0.825   3.841   1.532
 7972SOL    HW224816   0.949   3.947   1.522
 7973SOL     OW24817   5.044   4.025   3.309
 7973SOL    HW124818   5.059   4.086   3.232
 7973SOL    HW224819   5.022   4.078   3.391
 7974SOL     OW24820   5.616   0.351   4.813
 7974SOL    HW124821   5.701   0.393   4.845
 7974SOL    HW224822   5.547   0.421   4.797
 7975SOL     OW24823   5.929   0.652   3.171
 7975SOL    HW124824   5.991   0.646   3.093
 7975SOL    HW224825   5.948   0.735   3.223
 7976SOL     OW24826   0.612   0.642   6.045
 7976SOL    HW124827   0.680   0.572   6.068
 7976SOL    HW224828   0.617   0.661   5.947
 7977SOL     OW24829   4.575   5.142   1.839
 7977SOL    HW124830   4.641   5.207   1.875
 7977SOL    HW224831   4.570   5.063   1.899
 7978SOL     OW24832   5.812   3.437   6.172
 7978SOL    HW124833   5.761   3.519   6.198
 7978SOL    HW224834   5.876   3.459   6.098
 7979SOL     OW24835   3.731   0.658   5.529
 7979SOL    HW124836   3.796   0.583   5.521
 7979SOL    HW224837   3.692   0.659   5.621
 7980SOL     OW24838   2.669   6.061   0.126
 7980SOL    HW124839   2.624   6.031   0.042
 7980SOL    HW224840   2.689   5.982   0.184
 7981SOL     OW24841   0.219   6.084   2.593
 7981SOL    HW124842   0.276   6.165   2.598
 7981SOL    HW224843   0.266   6.007   2.635
 7982SOL     OW24844   7.003   2.064   0.222
 7982SOL    HW124845   6.998   2.155   0.181
 7982SOL    HW224846   0.032   2.068   0.305
 7983SOL     OW24847   5.502   2.041   2.574
 7983SOL    HW124848   5.420   2.096   2.571
 7983SOL    HW224849   5.583   2.100   2.577
 7984SOL     OW24850   1.609   2.044   1.465
 7984SOL    HW124851   1.679   2.112   1.442
 7984SOL    HW224852   1.540   2.042   1.393
 7985SOL     OW24853   2.459   6.918   3.629
 7985SOL    HW124854   2.436   7.012   3.656
 7985SOL    HW224855   2.467   6.913   3.529
 7986SOL     OW24856   3.123   0.487   6.793
 7986SOL    HW124857   3.179   0.417   6.749
 7986SOL    HW224858   3.028   0.455   6.799
 7987SOL     OW24859   1.091   3.495   6.859
 7987SOL    HW124860   1.172   3.525   6.808
 7987SOL    HW224861   1.060   3.407   6.822
 7988SOL     OW24862   1.636   1.730   4.155
 7988SOL    HW124863   1.665   1.761   4.064
 7988SOL    HW224864   1.539   1.749   4.167
 7989SOL     OW24865   3.258   2.520   5.328
 7989SOL    HW124866   3.352   2.486   5.323
 7989SOL    HW224867   3.199   2.463   5.270
 7990SOL     OW24868   5.999   3.838   3.808
 7990SOL    HW124869   5.963   3.752   3.844
 7990SOL    HW224870   6.062   3.818   3.732
 7991SOL     OW24871   6.509   0.409   5.059
 7991SOL    HW124872   6.415   0.379   5.070
 7991SOL    HW224873   6.510   0.504   5.029
 7992SOL     OW24874   1.552   6.724   0.703
 7992SOL    HW124875   1.487   6.796   0.723
 7992SOL    HW224876   1.559   6.712   0.604
 7993SOL     OW24877   1.585   6.090   6.796
 7993SOL    HW124878   1.666   6.053   6.749
 7993SOL    HW224879   1.504   6.045   6.760
 7994SOL     OW24880   4.535   0.270   3.087
 7994SOL    HW124881   4.564   0.276   3.182
 7994SOL    HW224882   4.615   0.259   3.028
 7995SOL     OW24883   3.976   5.138   3.590
 7995SOL    HW124884   3.936   5.211   3.536
 7995SOL    HW224885   4.053   5.174   3.644
 7996SOL     OW24886   3.044   6.846   5.060
 7996SOL    HW124887   3.014   6.751   5.071
 7996SOL    HW224888   3.080   6.859   4.968
 7997SOL     OW24889   6.901   1.291   0.819
 7997SOL    HW124890   6.950   1.371   0.783
 7997SOL    HW224891   6.954   1.249   0.892
 7998SOL     OW24892   3.918   5.338   1.197
 7998SOL    HW124893   4.003   5.388   1.213
 7998SOL    HW224894   3.924   5.248   1.241
 7999SOL     OW24895   1.342   0.529   6.424
 7999SOL    HW124896   1.431   0.573   6.436
 7999SOL    HW224897   1.269   0.591   6.452
 8000SOL     OW24898   5.860   0.977   6.957
 8000SOL    HW124899   5.859   0.944   0.024
 8000SOL    HW224900   5.866   0.900   6.894
 8001SOL     OW24901   3.944   6.167   1.142
 8001SOL    HW124902   4.003   6.196   1.218
 8001SOL    HW224903   3.892   6.245   1.108
 8002SOL     OW24904   0.638   2.675   5.543
 8002SOL    HW124905   0.682   2.642   5.459
 8002SOL    HW224906   0.707   2.681   5.616
 8003SOL     OW24907   2.333   4.711   2.463
 8003SOL    HW124908   2.425   4.750   2.471
 8003SOL    HW224909   2.276   4.770   2.406
 8004SOL     OW24910   1.747   3.904   3.283
 8004SOL    HW124911   1.695   3.872   3.363
 8004SOL    HW224912   1.724   3.847   3.204
 8005SOL     OW24913   3.596   1.823   2.261
 8005SOL    HW124914   3.533   1.744   2.258
 8005SOL    HW224915   3.557   1.898   2.208
 8006SOL     OW24916   2.821   6.743   0.377
 8006SOL    HW124917   2.739   6.801   0.375
 8006SOL    HW224918   2.799   6.656   0.419
 8007SOL     OW24919   1.295   0.138   4.590
 8007SOL    HW124920   1.327   0.057   4.640
 8007SOL    HW224921   1.264   0.110   4.499
 8008SOL     OW24922   4.664   6.903   6.177
 8008SOL    HW124923   4.652   6.914   6.276
 8008SOL    HW224924   4.598   6.837   6.143
 8009SOL     OW24925   6.355   0.697   3.183
 8009SOL    HW124926   6.410   0.615   3.201
 8009SOL    HW224927   6.388   0.772   3.239
 8010SOL     OW24928   1.360   1.401   0.316
 8010SOL    HW124929   1.369   1.473   0.247
 8010SOL    HW224930   1.356   1.444   0.407
 8011SOL     OW24931   2.494   3.001   1.113
 8011SOL    HW124932   2.438   3.028   1.191
 8011SOL    HW224933   2.463   2.912   1.079
 8012SOL     OW24934   2.508   6.134   1.535
 8012SOL    HW124935   2.510   6.155   1.633
 8012SOL    HW224936   2.596   6.157   1.494
 8013SOL     OW24937   0.415   4.990   4.234
 8013SOL    HW124938   0.385   4.936   4.313
 8013SOL    HW224939   0.454   4.928   4.165
 8014SOL     OW24940   0.730   6.061   5.202
 8014SOL    HW124941   0.731   5.976   5.148
 8014SOL    HW224942   0.806   6.119   5.173
 8015SOL     OW24943   2.917   1.273   0.101
 8015SOL    HW124944   2.973   1.356   0.103
 8015SOL    HW224945   2.952   1.210   0.032
 8016SOL     OW24946   4.423   0.230   6.527
 8016SOL    HW124947   4.492   0.219   6.455
 8016SOL    HW224948   4.392   0.325   6.529
 8017SOL     OW24949   7.021   5.611   6.530
 8017SOL    HW124950   0.089   5.643   6.525
 8017SOL    HW224951   6.960   5.690   6.532
 8018SOL     OW24952   3.918   2.700   6.335
 8018SOL    HW124953   4.011   2.699   6.372
 8018SOL    HW224954   3.853   2.671   6.406
 8019SOL     OW24955   2.328   3.594   6.833
 8019SOL    HW124956   2.344   3.580   6.931
 8019SOL    HW224957   2.241   3.552   6.807
 8020SOL     OW24958   6.544   5.772   0.689
 8020SOL    HW124959   6.533   5.871   0.681
 8020SOL    HW224960   6.462   5.726   0.655
 8021SOL     OW24961   1.078   2.358   1.427
 8021SOL    HW124962   1.178   2.353   1.415
 8021SOL    HW224963   1.040   2.420   1.360
 8022SOL     OW24964   4.233   0.565   2.805
 8022SOL    HW124965   4.203   0.660   2.793
 8022SOL    HW224966   4.332   0.561   2.807
 8023SOL     OW24967   5.862   5.707   2.918
 8023SOL    HW124968   5.852   5.785   2.979
 8023SOL    HW224969   5.784   5.645   2.930
 8024SOL     OW24970   3.545   5.297   7.014
 8024SOL    HW124971   3.566   5.361   0.061
 8024SOL    HW224972   3.448   5.303   6.991
 8025SOL     OW24973   2.309   6.008   6.419
 8025SOL    HW124974   2.219   6.037   6.386
 8025SOL    HW224975   2.352   6.082   6.470
 8026SOL     OW24976   0.744   4.910   6.785
 8026SOL    HW124977   0.705   4.975   6.850
 8026SOL    HW224978   0.806   4.847   6.833
 8027SOL     OW24979   3.922   1.931   5.585
 8027SOL    HW124980   3.986   1.985   5.529
 8027SOL    HW224981   3.878   1.863   5.527
 8028SOL     OW24982   3.283   5.330   5.317
 8028SOL    HW124983   3.305   5.255   5.254
 8028SOL    HW224984   3.299   5.417   5.272
 8029SOL     OW24985   5.329   3.501   0.391
 8029SOL    HW124986   5.422   3.514   0.355
 8029SOL    HW224987   5.335   3.471   0.486
 8030SOL     OW24988   5.161   4.292   6.944
 8030SOL    HW124989   5.192   4.381   6.909
 8030SOL    HW224990   5.062   4.296   6.958
 8031SOL     OW24991   4.716   5.860   2.640
 8031SOL    HW124992   4.793   5.924   2.639
 8031SOL    HW224993   4.677   5.856   2.732
 8032SOL     OW24994   5.996   4.613   6.093
 8032SOL    HW124995   5.913   4.625   6.148
 8032SOL    HW224996   6.076   4.634   6.148
 8033SOL     OW24997   5.129   3.865   6.928
 8033SOL    HW124998   5.144   3.780   6.977
 8033SOL    HW224999   5.149   3.943   6.988
 8034SOL     OW25000   6.100   1.364   4.968
 8034SOL    HW125001   6.144   1.281   4.935
 8034SOL    HW225002   6.011   1.375   4.923
 8035SOL     OW25003   4.648   0.568   5.052
 8035SOL    HW125004   4.576   0.516   5.005
 8035SOL    HW225005   4.641   0.552   5.151
 8036SOL     OW25006   0.671   3.870   2.462
 8036SOL    HW125007   0.669   3.938   2.389
 8036SOL    HW225008   0.583   3.822   2.465
 8037SOL     OW25009   1.491   3.545   2.234
 8037SOL    HW125010   1.479   3.491   2.151
 8037SOL    HW225011   1.588   3.545   2.260
 8038SOL     OW25012   4.750   0.913   2.824
 8038SOL    HW125013   4.790   0.968   2.896
 8038SOL    HW225014   4.719   0.972   2.749
 8039SOL     OW25015   1.124   0.037   3.368
 8039SOL    HW125016   1.109   0.062   3.464
 8039SOL    HW225017   1.144   0.120   3.315
 8040SOL     OW25018   1.384   5.852   0.681
 8040SOL    HW125019   1.399   5.949   0.703
 8040SOL    HW225020   1.329   5.810   0.754
 8041SOL     OW25021   2.951   2.122   1.954
 8041SOL    HW125022   2.871   2.067   1.978
 8041SOL    HW225023   2.936   2.217   1.983
 8042SOL     OW25024   3.938   3.039   3.263
 8042SOL    HW125025   3.863   3.067   3.203
 8042SOL    HW225026   3.907   2.966   3.324
 8043SOL     OW25027   3.799   6.524   1.589
 8043SOL    HW125028   3.763   6.588   1.520
 8043SOL    HW225029   3.723   6.490   1.645
 8044SOL     OW25030   3.492   3.427   0.379
 8044SOL    HW125031   3.532   3.508   0.336
 8044SOL    HW225032   3.504   3.433   0.478
 8045SOL     OW25033   5.369   0.340   1.592
 8045SOL    HW125034   5.316   0.392   1.658
 8045SOL    HW225035   5.308   0.290   1.532
 8046SOL     OW25036   6.667   4.820   6.973
 8046SOL    HW125037   6.711   4.862   0.026
 8046SOL    HW225038   6.568   4.833   6.979
 8047SOL     OW25039   3.640   5.026   5.188
 8047SOL    HW125040   3.587   4.951   5.228
 8047SOL    HW225041   3.736   5.001   5.185
 8048SOL     OW25042   5.312   0.651   5.960
 8048SOL    HW125043   5.355   0.573   6.006
 8048SOL    HW225044   5.217   0.659   5.990
 8049SOL     OW25045   1.536   0.256   1.222
 8049SOL    HW125046   1.487   0.220   1.301
 8049SOL    HW225047   1.573   0.346   1.245
 8050SOL     OW25048   0.798   4.659   1.958
 8050SOL    HW125049   0.752   4.660   1.870
 8050SOL    HW225050   0.740   4.704   2.027
 8051SOL     OW25051   4.906   6.337   3.410
 8051SOL    HW125052   4.983   6.315   3.471
 8051SOL    HW225053   4.909   6.434   3.386
 8052SOL     OW25054   3.655   1.386   1.800
 8052SOL    HW125055   3.716   1.378   1.722
 8052SOL    HW225056   3.594   1.465   1.787
 8053SOL     OW25057   3.743   3.997   3.133
 8053SOL    HW125058   3.726   3.967   3.226
 8053SOL    HW225059   3.656   4.011   3.085
 8054SOL     OW25060   5.491   6.675   4.629
 8054SOL    HW125061   5.408   6.639   4.586
 8054SOL    HW225062   5.466   6.749   4.692
 8055SOL     OW25063   0.472   0.389   6.107
 8055SOL    HW125064   0.414   0.344   6.040
 8055SOL    HW225065   0.483   0.485   6.083
 8056SOL     OW25066   4.264   1.044   3.940
 8056SOL    HW125067   4.215   1.050   3.853
 8056SOL    HW225068   4.236   1.119   4.000
 8057SOL     OW25069   2.551   2.509   2.859
 8057SOL    HW125070   2.583   2.491   2.766
 8057SOL    HW225071   2.621   2.478   2.924
 8058SOL     OW25072   3.875   0.443   2.895
 8058SOL    HW125073   3.950   0.432   2.960
 8058SOL    HW225074   3.792   0.469   2.944
 8059SOL     OW25075   4.420   2.453   4.695
 8059SOL    HW125076   4.395   2.356   4.707
 8059SOL    HW225077   4.366   2.509   4.758
 8060SOL     OW25078   0.282   1.227   4.261
 8060SOL    HW125079   0.266   1.273   4.173
 8060SOL    HW225080   0.345   1.282   4.316
 8061SOL     OW25081   6.558   7.004   1.352
 8061SOL    HW125082   6.460   7.021   1.341
 8061SOL    HW225083   6.575   6.906   1.352
 8062SOL     OW25084   2.730   4.952   4.509
 8062SOL    HW125085   2.672   5.019   4.555
 8062SOL    HW225086   2.795   4.913   4.574
 8063SOL     OW25087   1.871   2.940   0.680
 8063SOL    HW125088   1.913   2.944   0.589
 8063SOL    HW225089   1.928   2.991   0.745
 8064SOL     OW25090   6.944   5.045   1.697
 8064SOL    HW125091   6.957   5.000   1.786
 8064SOL    HW225092   6.896   5.132   1.711
 8065SOL     OW25093   4.424   6.687   3.844
 8065SOL    HW125094   4.430   6.590   3.867
 8065SOL    HW225095   4.358   6.732   3.904
 8066SOL     OW25096   1.190   1.654   6.146
 8066SOL    HW125097   1.261   1.667   6.215
 8066SOL    HW225098   1.149   1.564   6.157
 8067SOL     OW25099   4.700   3.133   1.678
 8067SOL    HW125100   4.683   3.089   1.765
 8067SOL    HW225101   4.733   3.066   1.612
 8068SOL     OW25102   5.823   4.552   6.674
 8068SOL    HW125103   5.724   4.545   6.661
 8068SOL    HW225104   5.843   4.574   6.770
 8069SOL     OW25105   1.956   6.218   1.148
 8069SOL    HW125106   1.968   6.133   1.198
 8069SOL    HW225107   1.998   6.210   1.057
 8070SOL     OW25108   2.615   3.567   0.546
 8070SOL    HW125109   2.584   3.478   0.512
 8070SOL    HW225110   2.562   3.592   0.627
 8071SOL     OW25111   3.132   6.284   4.884
 8071SOL    HW125112   3.188   6.318   4.959
 8071SOL    HW225113   3.190   6.235   4.818
 8072SOL     OW25114   3.277   0.695   0.007
 8072SOL    HW125115   3.372   0.666   0.023
 8072SOL    HW225116   3.220   0.615   7.018
 8073SOL     OW25117   4.321   6.519   6.126
 8073SOL    HW125118   4.355   6.612   6.140
 8073SOL    HW225119   4.227   6.523   6.091
 8074SOL     OW25120   3.045   3.033   6.700
 8074SOL    HW125121   3.000   2.955   6.657
 8074SOL    HW225122   3.009   3.045   6.793
 8075SOL     OW25123   6.693   1.001   1.074
 8075SOL    HW125124   6.707   1.009   1.172
 8075SOL    HW225125   6.596   1.006   1.053
 8076SOL     OW25126   5.161   2.496   5.753
 8076SOL    HW125127   5.149   2.475   5.850
 8076SOL    HW225128   5.072   2.510   5.710
 8077SOL     OW25129   1.211   6.250   1.788
 8077SOL    HW125130   1.274   6.321   1.757
 8077SOL    HW225131   1.125   6.258   1.738
 8078SOL     OW25132   6.156   1.691   0.172
 8078SOL    HW125133   6.181   1.627   0.099
 8078SOL    HW225134   6.179   1.784   0.144
 8079SOL     OW25135   5.477   1.517   3.556
 8079SOL    HW125136   5.537   1.438   3.541
 8079SOL    HW225137   5.426   1.536   3.473
 8080SOL     OW25138   0.775   4.064   0.127
 8080SOL    HW125139   0.710   4.125   0.171
 8080SOL    HW225140   0.839   4.028   0.196
 8081SOL     OW25141   4.865   0.275   5.098
 8081SOL    HW125142   4.799   0.209   5.061
 8081SOL    HW225143   4.899   0.334   5.025
 8082SOL     OW25144   5.755   0.682   1.785
 8082SOL    HW125145   5.701   0.708   1.705
 8082SOL    HW225146   5.815   0.758   1.811
 8083SOL     OW25147   5.224   3.016   2.284
 8083SOL    HW125148   5.188   3.047   2.196
 8083SOL    HW225149   5.180   3.069   2.357
 8084SOL     OW25150   5.555   6.919   1.075
 8084SOL    HW125151   5.541   6.827   1.039
 8084SOL    HW225152   5.494   6.934   1.153
 8085SOL     OW25153   6.020   0.358   2.761
 8085SOL    HW125154   5.975   0.293   2.700
 8085SOL    HW225155   6.107   0.320   2.793
 8086SOL     OW25156   4.627   0.822   3.982
 8086SOL    HW125157   4.596   0.731   3.957
 8086SOL    HW225158   4.562   0.864   4.044
 8087SOL     OW25159   2.568   1.779   1.282
 8087SOL    HW125160   2.506   1.766   1.359
 8087SOL    HW225161   2.519   1.767   1.196
 8088SOL     OW25162   5.871   1.929   1.846
 8088SOL    HW125163   5.881   1.910   1.944
 8088SOL    HW225164   5.878   2.027   1.831
 8089SOL     OW25165   5.195   2.698   0.630
 8089SOL    HW125166   5.104   2.732   0.653
 8089SOL    HW225167   5.192   2.599   0.620
 8090SOL     OW25168   4.350   2.331   6.710
 8090SOL    HW125169   4.349   2.280   6.796
 8090SOL    HW225170   4.257   2.359   6.686
 8091SOL     OW25171   2.694   3.882   6.768
 8091SOL    HW125172   2.688   3.979   6.791
 8091SOL    HW225173   2.604   3.848   6.742
 8092SOL     OW25174   0.989   2.144   5.083
 8092SOL    HW125175   0.949   2.095   5.006
 8092SOL    HW225176   1.060   2.206   5.050
 8093SOL     OW25177   4.951   5.587   1.916
 8093SOL    HW125178   4.946   5.683   1.889
 8093SOL    HW225179   4.954   5.529   1.835
 8094SOL     OW25180   1.941   3.987   4.323
 8094SOL    HW125181   2.006   4.049   4.368
 8094SOL    HW225182   1.848   4.007   4.355
 8095SOL     OW25183   5.651   4.362   4.194
 8095SOL    HW125184   5.597   4.444   4.177
 8095SOL    HW225185   5.621   4.318   4.278
 8096SOL     OW25186   3.215   5.611   3.710
 8096SOL    HW125187   3.280   5.559   3.765
 8096SOL    HW225188   3.200   5.701   3.751
 8097SOL     OW25189   4.828   0.260   3.484
 8097SOL    HW125190   4.818   0.332   3.553
 8097SOL    HW225191   4.919   0.265   3.444
 8098SOL     OW25192   2.006   6.730   4.488
 8098SOL    HW125193   1.924   6.745   4.433
 8098SOL    HW225194   2.022   6.632   4.498
 8099SOL     OW25195   6.116   0.625   3.994
 8099SOL    HW125196   6.179   0.700   3.972
 8099SOL    HW225197   6.145   0.582   4.079
 8100SOL     OW25198   0.495   6.744   0.011
 8100SOL    HW125199   0.399   6.731   7.017
 8100SOL    HW225200   0.506   6.821   0.074
 8101SOL     OW25201   2.641   0.360   4.646
 8101SOL    HW125202   2.722   0.414   4.669
 8101SOL    HW225203   2.669   0.270   4.612
 8102SOL     OW25204   1.127   4.975   5.406
 8102SOL    HW125205   1.126   4.905   5.335
 8102SOL    HW225206   1.221   5.005   5.421
 8103SOL     OW25207   4.552   0.856   0.273
 8103SOL    HW125208   4.525   0.888   0.364
 8103SOL    HW225209   4.551   0.933   0.209
 8104SOL     OW25210   2.984   6.373   5.792
 8104SOL    HW125211   2.943   6.446   5.738
 8104SOL    HW225212   3.080   6.394   5.808
 8105SOL     OW25213   1.542   2.160   3.315
 8105SOL    HW125214   1.592   2.075   3.298
 8105SOL    HW225215   1.458   2.161   3.262
 8106SOL     OW25216   2.423   5.898   3.785
 8106SOL    HW125217   2.499   5.880   3.723
 8106SOL    HW225218   2.438   5.985   3.832
 8107SOL     OW25219   1.669   5.643   5.311
 8107SOL    HW125220   1.677   5.580   5.234
 8107SOL    HW225221   1.720   5.607   5.389
 8108SOL     OW25222   5.526   2.680   5.186
 8108SOL    HW125223   5.498   2.691   5.090
 8108SOL    HW225224   5.497   2.591   5.219
 8109SOL     OW25225   0.935   3.933   4.153
 8109SOL    HW125226   1.033   3.922   4.136
 8109SOL    HW225227   0.909   3.883   4.236
 8110SOL     OW25228   3.644   6.782   1.035
 8110SOL    HW125229   3.573   6.824   1.092
 8110SOL    HW225230   3.603   6.745   0.952
 8111SOL     OW25231   4.016   0.276   6.044
 8111SOL    HW125232   4.072   0.356   6.066
 8111SOL    HW225233   4.018   0.212   6.121
 8112SOL     OW25234   1.377   1.114   5.011
 8112SOL    HW125235   1.386   1.208   5.044
 8112SOL    HW225236   1.443   1.098   4.938
 8113SOL     OW25237   2.621   3.479   7.019
 8113SOL    HW125238   2.674   3.561   6.997
 8113SOL    HW225239   2.538   3.505   0.040
 8114SOL     OW25240   1.927   2.896   2.182
 8114SOL    HW125241   1.917   2.884   2.083
 8114SOL    HW225242   2.024   2.890   2.206
 8115SOL     OW25243   3.861   1.377   1.602
 8115SOL    HW125244   3.933   1.310   1.591
 8115SOL    HW225245   3.901   1.467   1.618
 8116SOL     OW25246   4.529   6.770   4.175
 8116SOL    HW125247   4.520   6.671   4.165
 8116SOL    HW225248   4.625   6.794   4.186
 8117SOL     OW25249   2.143   0.987   4.428
 8117SOL    HW125250   2.081   1.065   4.431
 8117SOL    HW225251   2.104   0.910   4.478
 8118SOL     OW25252   6.716   3.451   5.773
 8118SOL    HW125253   6.793   3.497   5.728
 8118SOL    HW225254   6.643   3.436   5.707
 8119SOL     OW25255   0.024   5.395   5.164
 8119SOL    HW125256   0.054   5.310   5.121
 8119SOL    HW225257   0.067   5.403   5.254
 8120SOL     OW25258   3.742   4.562   6.813
 8120SOL    HW125259   3.683   4.551   6.733
 8120SOL    HW225260   3.771   4.658   6.820
 8121SOL     OW25261   6.798   5.301   2.987
 8121SOL    HW125262   6.847   5.275   2.903
 8121SOL    HW225263   6.759   5.392   2.975
 8122SOL     OW25264   0.500   5.545   2.578
 8122SOL    HW125265   0.451   5.575   2.496
 8122SOL    HW225266   0.586   5.596   2.587
 8123SOL     OW25267   6.998   6.967   6.982
 8123SOL    HW125268   6.957   7.003   6.899
 8123SOL    HW225269   6.933   6.977   0.031
 8124SOL     OW25270   0.415   5.893   0.989
 8124SOL    HW125271   0.399   5.975   0.935
 8124SOL    HW225272   0.330   5.865   1.034
 8125SOL     OW25273   0.505   6.126   3.013
 8125SOL    HW125274   0.519   6.056   3.084
 8125SOL    HW225275   0.534   6.090   2.925
 8126SOL     OW25276   6.200   3.853   2.511
 8126SOL    HW125277   6.290   3.838   2.551
 8126SOL    HW225278   6.138   3.892   2.580
 8127SOL     OW25279   2.351   5.896   0.881
 8127SOL    HW125280   2.365   5.995   0.880
 8127SOL    HW225281   2.278   5.873   0.945
 8128SOL     OW25282   3.096   3.072   0.638
 8128SOL    HW125283   3.004   3.045   0.609
 8128SOL    HW225284   3.163   3.004   0.606
 8129SOL     OW25285   4.626   1.511   5.662
 8129SOL    HW125286   4.594   1.537   5.753
 8129SOL    HW225287   4.726   1.519   5.657
 8130SOL     OW25288   0.650   4.925   6.225
 8130SOL    HW125289   0.681   4.858   6.158
 8130SOL    HW225290   0.718   4.933   6.298
 8131SOL     OW25291   2.461   0.641   0.636
 8131SOL    HW125292   2.538   0.702   0.615
 8131SOL    HW225293   2.474   0.603   0.728
 8132SOL     OW25294   5.880   6.193   6.375
 8132SOL    HW125295   5.861   6.101   6.411
 8132SOL    HW225296   5.970   6.195   6.333
 8133SOL     OW25297   3.349   4.842   2.086
 8133SOL    HW125298   3.438   4.832   2.043
 8133SOL    HW225299   3.277   4.830   2.018
 8134SOL     OW25300   1.744   1.402   4.499
 8134SOL    HW125301   1.823   1.462   4.512
 8134SOL    HW225302   1.669   1.454   4.456
 8135SOL     OW25303   2.480   5.568   1.714
 8135SOL    HW125304   2.457   5.628   1.791
 8135SOL    HW225305   2.572   5.590   1.682
 8136SOL     OW25306   4.754   4.539   2.806
 8136SOL    HW125307   4.738   4.524   2.708
 8136SOL    HW225308   4.830   4.603   2.817
 8137SOL     OW25309   2.430   1.084   4.403
 8137SOL    HW125310   2.430   1.184   4.405
 8137SOL    HW225311   2.340   1.049   4.429
 8138SOL     OW25312   5.973   2.382   1.054
 8138SOL    HW125313   5.963   2.446   0.977
 8138SOL    HW225314   5.957   2.288   1.021
 8139SOL     OW25315   1.831   2.392   3.192
 8139SOL    HW125316   1.871   2.432   3.109
 8139SOL    HW225317   1.732   2.409   3.193
 8140SOL     OW25318   3.414   0.032   0.591
 8140SOL    HW125319   3.389   0.108   0.531
 8140SOL    HW225320   3.500   0.054   0.638
 8141SOL     OW25321   4.788   6.696   5.439
 8141SOL    HW125322   4.748   6.659   5.355
 8141SOL    HW225323   4.876   6.738   5.418
 8142SOL     OW25324   2.226   5.291   1.013
 8142SOL    HW125325   2.273   5.218   1.061
 8142SOL    HW225326   2.145   5.254   0.967
 8143SOL     OW25327   5.159   4.892   0.863
 8143SOL    HW125328   5.240   4.834   0.871
 8143SOL    HW225329   5.093   4.849   0.802
 8144SOL     OW25330   1.151   6.021   5.292
 8144SOL    HW125331   1.228   6.085   5.298
 8144SOL    HW225332   1.112   6.008   5.383
 8145SOL     OW25333   4.948   4.783   0.750
 8145SOL    HW125334   4.869   4.827   0.708
 8145SOL    HW225335   4.995   4.728   0.682
 8146SOL     OW25336   6.245   6.902   5.609
 8146SOL    HW125337   6.154   6.917   5.647
 8146SOL    HW225338   6.241   6.831   5.539
 8147SOL     OW25339   6.674   0.732   0.529
 8147SOL    HW125340   6.725   0.744   0.614
 8147SOL    HW225341   6.635   0.819   0.500
 8148SOL     OW25342   4.216   5.045   6.696
 8148SOL    HW125343   4.257   5.025   6.607
 8148SOL    HW225344   4.220   4.964   6.754
 8149SOL     OW25345   1.879   6.221   3.429
 8149SOL    HW125346   1.972   6.233   3.394
 8149SOL    HW225347   1.863   6.124   3.448
 8150SOL     OW25348   1.234   3.791   1.009
 8150SOL    HW125349   1.160   3.848   1.046
 8150SOL    HW225350   1.322   3.833   1.032
 8151SOL     OW25351   5.783   5.482   3.894
 8151SOL    HW125352   5.783   5.403   3.956
 8151SOL    HW225353   5.690   5.518   3.886
 8152SOL     OW25354   5.542   2.657   3.433
 8152SOL    HW125355   5.457   2.677   3.483
 8152SOL    HW225356   5.570   2.738   3.381
 8153SOL     OW25357   0.594   1.274   2.869
 8153SOL    HW125358   0.673   1.331   2.889
 8153SOL    HW225359   0.550   1.247   2.955
 8154SOL     OW25360   3.556   0.131   2.795
 8154SOL    HW125361   3.584   0.035   2.790
 8154SOL    HW225362   3.560   0.172   2.704
 8155SOL     OW25363   1.477   3.959   2.035
 8155SOL    HW125364   1.565   3.912   2.045
 8155SOL    HW225365   1.446   3.991   2.125
 8156SOL     OW25366   4.743   6.196   1.744
 8156SOL    HW125367   4.660   6.240   1.710
 8156SOL    HW225368   4.720   6.130   1.815
 8157SOL     OW25369   6.470   4.443   5.958
 8157SOL    HW125370   6.540   4.416   5.892
 8157SOL    HW225371   6.424   4.526   5.925
 8158SOL     OW25372   4.968   4.953   6.934
 8158SOL    HW125373   5.010   4.927   7.021
 8158SOL    HW225374   4.954   4.871   6.878
 8159SOL     OW25375   3.564   6.006   5.798
 8159SOL    HW125376   3.558   6.006   5.897
 8159SOL    HW225377   3.554   5.913   5.764
 8160SOL     OW25378   4.493   0.350   3.930
 8160SOL    HW125379   4.591   0.333   3.925
 8160SOL    HW225380   4.444   0.263   3.921
 8161SOL     OW25381   6.166   3.868   6.572
 8161SOL    HW125382   6.074   3.899   6.597
 8161SOL    HW225383   6.186   3.894   6.478
 8162SOL     OW25384   6.830   5.210   6.684
 8162SOL    HW125385   6.878   5.293   6.710
 8162SOL    HW225386   6.865   5.133   6.738
 8163SOL     OW25387   2.177   4.981   5.595
 8163SOL    HW125388   2.260   5.008   5.644
 8163SOL    HW225389   2.140   4.897   5.635
 8164SOL     OW25390   4.471   1.367   6.922
 8164SOL    HW125391   4.376   1.359   6.893
 8164SOL    HW225392   4.475   1.392   7.019
 8165SOL     OW25393   6.891   3.743   6.337
 8165SOL    HW125394   6.885   3.669   6.404
 8165SOL    HW225395   6.852   3.827   6.376
 8166SOL     OW25396   2.199   0.752   3.325
 8166SOL    HW125397   2.293   0.718   3.327
 8166SOL    HW225398   2.192   0.827   3.260
 8167SOL     OW25399   0.282   0.986   3.232
 8167SOL    HW125400   0.211   1.053   3.253
 8167SOL    HW225401   0.319   0.949   3.317
 8168SOL     OW25402   2.614   0.064   1.572
 8168SOL    HW125403   2.639   0.154   1.608
 8168SOL    HW225404   2.692   0.002   1.577
 8169SOL     OW25405   3.937   1.857   0.449
 8169SOL    HW125406   3.874   1.927   0.484
 8169SOL    HW225407   3.959   1.793   0.523
 8170SOL     OW25408   6.297   4.644   1.147
 8170SOL    HW125409   6.346   4.655   1.233
 8170SOL    HW225410   6.199   4.634   1.164
 8171SOL     OW25411   1.940   1.479   6.842
 8171SOL    HW125412   1.850   1.504   6.878
 8171SOL    HW225413   2.007   1.476   6.916
 8172SOL     OW25414   0.046   1.892   1.686
 8172SOL    HW125415   0.141   1.884   1.716
 8172SOL    HW225416   7.016   1.925   1.761
 8173SOL     OW25417   5.200   1.935   2.454
 8173SOL    HW125418   5.242   1.876   2.385
 8173SOL    HW225419   5.239   2.027   2.447
 8174SOL     OW25420   0.711   6.909   2.758
 8174SOL    HW125421   0.656   6.955   2.688
 8174SOL    HW225422   0.652   6.855   2.816
 8175SOL     OW25423   0.509   2.785   4.399
 8175SOL    HW125424   0.473   2.746   4.484
 8175SOL    HW225425   0.464   2.743   4.321
 8176SOL     OW25426   2.313   4.548   1.891
 8176SOL    HW125427   2.369   4.473   1.855
 8176SOL    HW225428   2.372   4.617   1.931
 8177SOL     OW25429   4.637   1.079   3.386
 8177SOL    HW125430   4.623   1.112   3.479
 8177SOL    HW225431   4.687   0.993   3.388
 8178SOL     OW25432   3.693   6.599   1.251
 8178SOL    HW125433   3.608   6.608   1.304
 8178SOL    HW225434   3.684   6.647   1.164
 8179SOL     OW25435   5.744   0.970   4.951
 8179SOL    HW125436   5.805   0.990   5.027
 8179SOL    HW225437   5.650   0.960   4.985
 8180SOL     OW25438   5.956   0.787   0.158
 8180SOL    HW125439   6.030   0.813   0.096
 8180SOL    HW225440   5.960   0.689   0.177
 8181SOL     OW25441   1.514   1.112   0.548
 8181SOL    HW125442   1.416   1.121   0.528
 8181SOL    HW225443   1.564   1.096   0.463
 8182SOL     OW25444   3.723   3.779   5.039
 8182SOL    HW125445   3.675   3.693   5.053
 8182SOL    HW225446   3.688   3.824   4.956
 8183SOL     OW25447   6.174   2.245   4.712
 8183SOL    HW125448   6.179   2.145   4.705
 8183SOL    HW225449   6.265   2.281   4.732
 8184SOL     OW25450   0.454   0.114   0.689
 8184SOL    HW125451   0.544   0.083   0.719
 8184SOL    HW225452   0.464   0.178   0.613
 8185SOL     OW25453   2.102   0.416   0.755
 8185SOL    HW125454   2.104   0.458   0.664
 8185SOL    HW225455   2.185   0.443   0.805
 8186SOL     OW25456   2.387   4.448   5.320
 8186SOL    HW125457   2.483   4.434   5.344
 8186SOL    HW225458   2.366   4.546   5.320
 8187SOL     OW25459   2.105   0.667   5.028
 8187SOL    HW125460   2.167   0.602   4.983
 8187SOL    HW225461   2.156   0.750   5.051
 8188SOL     OW25462   4.740   2.834   3.774
 8188SOL    HW125463   4.761   2.741   3.803
 8188SOL    HW225464   4.691   2.832   3.687
 8189SOL     OW25465   5.476   5.435   2.165
 8189SOL    HW125466   5.501   5.343   2.137
 8189SOL    HW225467   5.441   5.433   2.259
 8190SOL     OW25468   4.860   4.146   4.002
 8190SOL    HW125469   4.954   4.125   3.975
 8190SOL    HW225470   4.849   4.130   4.100
 8191SOL     OW25471   4.217   5.334   2.371
 8191SOL    HW125472   4.296   5.286   2.331
 8191SOL    HW225473   4.145   5.268   2.392
 8192SOL     OW25474   1.584   6.060   2.559
 8192SOL    HW125475   1.491   6.092   2.542
 8192SOL    HW225476   1.631   6.045   2.472
 8193SOL     OW25477   5.871   5.129   5.351
 8193SOL    HW125478   5.919   5.159   5.268
 8193SOL    HW225479   5.862   5.207   5.414
 8194SOL     OW25480   4.593   1.164   1.018
 8194SOL    HW125481   4.693   1.166   1.017
 8194SOL    HW225482   4.558   1.199   0.931
 8195SOL     OW25483   6.768   0.336   3.109
 8195SOL    HW125484   6.837   0.344   3.181
 8195SOL    HW225485   6.717   0.250   3.121
 8196SOL     OW25486   4.575   6.139   0.031
 8196SOL    HW125487   4.537   6.202   6.991
 8196SOL    HW225488   4.503   6.081   0.068
 8197SOL     OW25489   3.641   1.274   0.781
 8197SOL    HW125490   3.634   1.181   0.746
 8197SOL    HW225491   3.719   1.320   0.738
 8198SOL     OW25492   3.696   6.508   2.770
 8198SOL    HW125493   3.690   6.409   2.785
 8198SOL    HW225494   3.653   6.531   2.683
 8199SOL     OW25495   5.653   3.688   5.668
 8199SOL    HW125496   5.591   3.767   5.664
 8199SOL    HW225497   5.618   3.616   5.608
 8200SOL     OW25498   5.518   4.509   1.606
 8200SOL    HW125499   5.492   4.606   1.607
 8200SOL    HW225500   5.436   4.453   1.593
 8201SOL     OW25501   6.527   1.150   5.099
 8201SOL    HW125502   6.434   1.153   5.136
 8201SOL    HW225503   6.557   1.243   5.077
 8202SOL     OW25504   0.412   5.256   3.791
 8202SOL    HW125505   0.323   5.245   3.746
 8202SOL    HW225506   0.406   5.331   3.857
 8203SOL     OW25507   2.673   2.070   6.832
 8203SOL    HW125508   2.616   2.122   6.767
 8203SOL    HW225509   2.759   2.119   6.847
 8204SOL     OW25510   3.880   4.006   0.167
 8204SOL    HW125511   3.804   4.036   0.110
 8204SOL    HW225512   3.876   3.907   0.178
 8205SOL     OW25513   6.851   4.399   6.992
 8205SOL    HW125514   6.897   4.416   6.905
 8205SOL    HW225515   6.757   4.432   6.987
 8206SOL     OW25516   4.666   2.421   6.941
 8206SOL    HW125517   4.695   2.430   0.009
 8206SOL    HW225518   4.710   2.492   6.885
 8207SOL     OW25519   3.343   3.304   4.352
 8207SOL    HW125520   3.422   3.253   4.318
 8207SOL    HW225521   3.372   3.395   4.380
 8208SOL     OW25522   1.019   0.865   0.901
 8208SOL    HW125523   1.086   0.916   0.847
 8208SOL    HW225524   1.065   0.789   0.948
 8209SOL     OW25525   0.305   0.796   4.791
 8209SOL    HW125526   0.208   0.772   4.797
 8209SOL    HW225527   0.319   0.889   4.825
 8210SOL     OW25528   2.280   2.380   0.725
 8210SOL    HW125529   2.215   2.308   0.747
 8210SOL    HW225530   2.262   2.414   0.633
 8211SOL     OW25531   3.832   4.368   1.400
 8211SOL    HW125532   3.772   4.297   1.364
 8211SOL    HW225533   3.811   4.455   1.357
 8212SOL     OW25534   1.029   2.398   2.841
 8212SOL    HW125535   1.112   2.365   2.796
 8212SOL    HW225536   0.991   2.474   2.789
 8213SOL     OW25537   0.051   4.840   1.485
 8213SOL    HW125538   0.036   4.760   1.542
 8213SOL    HW225539   0.027   4.923   1.536
 8214SOL     OW25540   6.301   5.009   3.810
 8214SOL    HW125541   6.342   5.029   3.898
 8214SOL    HW225542   6.287   5.094   3.759
 8215SOL     OW25543   3.597   5.744   5.706
 8215SOL    HW125544   3.594   5.670   5.772
 8215SOL    HW225545   3.646   5.714   5.624
 8216SOL     OW25546   5.862   5.708   4.017
 8216SOL    HW125547   5.812   5.631   3.978
 8216SOL    HW225548   5.944   5.674   4.065
 8217SOL     OW25549   1.477   4.830   0.604
 8217SOL    HW125550   1.520   4.750   0.647
 8217SOL    HW225551   1.549   4.893   0.574
 8218SOL     OW25552   6.914   0.034   6.330
 8218SOL    HW125553   7.008   0.031   6.363
 8218SOL    HW225554   6.912   0.014   6.232
 8219SOL     OW25555   4.147   2.040   0.412
 8219SOL    HW125556   4.089   2.121   0.419
 8219SOL    HW225557   4.090   1.958   0.407
 8220SOL     OW25558   3.575   2.864   3.319
 8220SOL    HW125559   3.658   2.896   3.365
 8220SOL    HW225560   3.513   2.941   3.305
 8221SOL     OW25561   5.529   6.262   4.205
 8221SOL    HW125562   5.464   6.216   4.265
 8221SOL    HW225563   5.480   6.316   4.137
 8222SOL     OW25564   5.313   1.343   2.252
 8222SOL    HW125565   5.364   1.299   2.178
 8222SOL    HW225566   5.355   1.320   2.340
 8223SOL     OW25567   1.113   4.892   6.216
 8223SOL    HW125568   1.101   4.946   6.133
 8223SOL    HW225569   1.194   4.924   6.265
 8224SOL     OW25570   6.591   0.999   2.706
 8224SOL    HW125571   6.507   1.012   2.758
 8224SOL    HW225572   6.569   0.967   2.614
 8225SOL     OW25573   3.833   0.965   0.020
 8225SOL    HW125574   3.827   1.057   7.008
 8225SOL    HW225575   3.756   0.950   0.082
 8226SOL     OW25576   4.214   6.749   1.694
 8226SOL    HW125577   4.238   6.686   1.619
 8226SOL    HW225578   4.296   6.798   1.724
 8227SOL     OW25579   6.210   2.368   3.493
 8227SOL    HW125580   6.223   2.421   3.409
 8227SOL    HW225581   6.236   2.273   3.476
 8228SOL     OW25582   6.782   2.064   5.818
 8228SOL    HW125583   6.859   2.127   5.829
 8228SOL    HW225584   6.816   1.970   5.815
 8229SOL     OW25585   3.783   3.929   0.821
 8229SOL    HW125586   3.730   3.873   0.758
 8229SOL    HW225587   3.825   3.869   0.890
 8230SOL     OW25588   3.796   0.071   4.828
 8230SOL    HW125589   3.893   0.081   4.807
 8230SOL    HW225590   3.764   7.008   4.795
 8231SOL     OW25591   4.006   5.196   0.549
 8231SOL    HW125592   3.911   5.177   0.574
 8231SOL    HW225593   4.059   5.216   0.631
 8232SOL     OW25594   4.714   1.623   1.441
 8232SOL    HW125595   4.727   1.550   1.508
 8232SOL    HW225596   4.720   1.711   1.487
 8233SOL     OW25597   1.316   6.023   6.633
 8233SOL    HW125598   1.381   6.078   6.582
 8233SOL    HW225599   1.286   5.945   6.578
 8234SOL     OW25600   2.927   4.667   6.563
 8234SOL    HW125601   3.004   4.623   6.516
 8234SOL    HW225602   2.936   4.655   6.661
 8235SOL     OW25603   1.167   3.991   6.981
 8235SOL    HW125604   1.091   4.056   6.984
 8235SOL    HW225605   1.130   3.898   6.984
 8236SOL     OW25606   0.304   4.556   0.586
 8236SOL    HW125607   0.388   4.573   0.637
 8236SOL    HW225608   0.321   4.489   0.514
 8237SOL     OW25609   4.110   6.681   4.635
 8237SOL    HW125610   4.196   6.681   4.686
 8237SOL    HW225611   4.052   6.607   4.669
 8238SOL     OW25612   1.039   5.054   6.903
 8238SOL    HW125613   0.960   5.003   6.867
 8238SOL    HW225614   1.047   5.141   6.853
 8239SOL     OW25615   6.062   0.889   5.419
 8239SOL    HW125616   6.097   0.923   5.332
 8239SOL    HW225617   6.133   0.837   5.466
 8240SOL     OW25618   3.388   4.029   2.323
 8240SOL    HW125619   3.477   4.073   2.311
 8240SOL    HW225620   3.375   3.961   2.251
 8241SOL     OW25621   4.087   0.388   0.056
 8241SOL    HW125622   4.183   0.412   0.071
 8241SOL    HW225623   4.031   0.470   0.065
 8242SOL     OW25624   0.403   4.995   5.717
 8242SOL    HW125625   0.415   5.094   5.728
 8242SOL    HW225626   0.415   4.950   5.805
 8243SOL     OW25627   0.539   3.000   0.696
 8243SOL    HW125628   0.517   2.980   0.601
 8243SOL    HW225629   0.611   3.070   0.699
 8244SOL     OW25630   0.488   0.158   4.597
 8244SOL    HW125631   0.559   0.094   4.568
 8244SOL    HW225632   0.474   0.228   4.526
 8245SOL     OW25633   4.112   2.211   3.188
 8245SOL    HW125634   4.013   2.203   3.176
 8245SOL    HW225635   4.155   2.223   3.098
 8246SOL     OW25636   0.853   2.675   5.772
 8246SOL    HW125637   0.924   2.680   5.842
 8246SOL    HW225638   0.874   2.741   5.699
 8247SOL     OW25639   1.131   6.623   2.797
 8247SOL    HW125640   1.147   6.566   2.878
 8247SOL    HW225641   1.097   6.565   2.722
 8248SOL     OW25642   6.173   5.405   4.498
 8248SOL    HW125643   6.079   5.422   4.530
 8248SOL    HW225644   6.173   5.328   4.435
 8249SOL     OW25645   1.603   2.748   4.776
 8249SOL    HW125646   1.702   2.732   4.766
 8249SOL    HW225647   1.586   2.845   4.792
 8250SOL     OW25648   3.429   4.016   1.927
 8250SOL    HW125649   3.496   3.979   1.992
 8250SOL    HW225650   3.337   3.991   1.956
 8251SOL     OW25651   5.508   3.441   3.719
 8251SOL    HW125652   5.535   3.360   3.772
 8251SOL    HW225653   5.567   3.518   3.743
 8252SOL     OW25654   3.267   1.462   5.565
 8252SOL    HW125655   3.314   1.416   5.489
 8252SOL    HW225656   3.169   1.445   5.558
 8253SOL     OW25657   4.358   4.392   5.643
 8253SOL    HW125658   4.316   4.413   5.554
 8253SOL    HW225659   4.287   4.364   5.708
 8254SOL     OW25660   4.713   4.425   5.127
 8254SOL    HW125661   4.749   4.386   5.043
 8254SOL    HW225662   4.788   4.443   5.191
 8255SOL     OW25663   2.166   0.067   5.157
 8255SOL    HW125664   2.170   0.060   5.058
 8255SOL    HW225665   2.238   0.129   5.189
 8256SOL     OW25666   6.250   0.001   2.573
 8256SOL    HW125667   6.302   0.087   2.568
 8256SOL    HW225668   6.227   7.010   2.669
 8257SOL     OW25669   6.022   3.455   3.745
 8257SOL    HW125670   6.121   3.455   3.750
 8257SOL    HW225671   5.987   3.362   3.754
 8258SOL     OW25672   5.546   2.082   0.655
 8258SOL    HW125673   5.486   2.162   0.661
 8258SOL    HW225674   5.562   2.045   0.747
 8259SOL     OW25675   4.002   2.120   3.547
 8259SOL    HW125676   4.026   2.062   3.469
 8259SOL    HW225677   4.085   2.148   3.595
 8260SOL     OW25678   3.061   6.451   1.530
 8260SOL    HW125679   3.063   6.416   1.437
 8260SOL    HW225680   2.982   6.413   1.579
 8261SOL     OW25681   5.947   0.341   2.013
 8261SOL    HW125682   5.971   0.432   2.047
 8261SOL    HW225683   5.852   0.321   2.038
 8262SOL     OW25684   0.138   2.784   6.687
 8262SOL    HW125685   0.096   2.826   6.767
 8262SOL    HW225686   0.170   2.855   6.624
 8263SOL     OW25687   1.413   2.298   6.847
 8263SOL    HW125688   1.417   2.198   6.839
 8263SOL    HW225689   1.320   2.326   6.869
 8264SOL     OW25690   3.042   6.042   3.069
 8264SOL    HW125691   3.082   6.131   3.050
 8264SOL    HW225692   3.041   6.025   3.167
 8265SOL     OW25693   0.710   0.055   0.770
 8265SOL    HW125694   0.704   7.004   0.832
 8265SOL    HW225695   0.705   0.140   0.822
 8266SOL     OW25696   2.158   1.146   3.403
 8266SOL    HW125697   2.135   1.051   3.379
 8266SOL    HW225698   2.189   1.150   3.498
 8267SOL     OW25699   1.260   2.898   1.387
 8267SOL    HW125700   1.336   2.939   1.336
 8267SOL    HW225701   1.241   2.807   1.352
 8268SOL     OW25702   1.896   6.129   6.103
 8268SOL    HW125703   1.844   6.110   6.020
 8268SOL    HW225704   1.958   6.053   6.123
 8269SOL     OW25705   4.152   1.952   2.085
 8269SOL    HW125706   4.097   2.036   2.083
 8269SOL    HW225707   4.106   1.883   2.140
 8270SOL     OW25708   2.788   0.023   5.611
 8270SOL    HW125709   2.854   6.975   5.614
 8270SOL    HW225710   2.813   0.088   5.539
 8271SOL     OW25711   0.429   0.463   3.319
 8271SOL    HW125712   0.334   0.450   3.291
 8271SOL    HW225713   0.490   0.447   3.241
 8272SOL     OW25714   5.034   2.069   2.269
 8272SOL    HW125715   5.106   2.024   2.320
 8272SOL    HW225716   5.055   2.167   2.260
 8273SOL     OW25717   3.092   0.749   0.383
 8273SOL    HW125718   3.018   0.684   0.364
 8273SOL    HW225719   3.065   0.810   0.457
 8274SOL     OW25720   5.569   5.065   3.832
 8274SOL    HW125721   5.554   4.992   3.765
 8274SOL    HW225722   5.513   5.048   3.913
 8275SOL     OW25723   5.354   1.337   5.579
 8275SOL    HW125724   5.447   1.301   5.578
 8275SOL    HW225725   5.355   1.432   5.609
 8276SOL     OW25726   0.886   1.764   3.697
 8276SOL    HW125727   0.890   1.863   3.683
 8276SOL    HW225728   0.939   1.739   3.777
 8277SOL     OW25729   0.234   0.052   0.017
 8277SOL    HW125730   0.142   0.012   0.018
 8277SOL    HW225731   0.255   0.087   6.953
 8278SOL     OW25732   2.667   2.120   5.595
 8278SOL    HW125733   2.589   2.089   5.541
 8278SOL    HW225734   2.657   2.217   5.616
 8279SOL     OW25735   1.726   6.566   4.556
 8279SOL    HW125736   1.644   6.510   4.541
 8279SOL    HW225737   1.799   6.534   4.497
 8280SOL     OW25738   2.177   4.049   0.828
 8280SOL    HW125739   2.213   4.142   0.817
 8280SOL    HW225740   2.171   4.005   0.739
 8281SOL     OW25741   3.095   4.603   1.651
 8281SOL    HW125742   3.193   4.609   1.670
 8281SOL    HW225743   3.050   4.551   1.724
 8282SOL     OW25744   4.734   3.686   6.958
 8282SOL    HW125745   4.692   3.603   6.994
 8282SOL    HW225746   4.755   3.749   0.006
 8283SOL     OW25747   1.842   5.569   6.057
 8283SOL    HW125748   1.928   5.548   6.104
 8283SOL    HW225749   1.819   5.666   6.071
 8284SOL     OW25750   0.973   3.931   1.051
 8284SOL    HW125751   0.886   3.917   1.096
 8284SOL    HW225752   0.972   3.888   0.960
 8285SOL     OW25753   3.221   4.094   4.222
 8285SOL    HW125754   3.172   4.141   4.148
 8285SOL    HW225755   3.249   4.003   4.191
 8286SOL     OW25756   5.912   2.450   6.226
 8286SOL    HW125757   5.908   2.487   6.319
 8286SOL    HW225758   5.934   2.524   6.162
 8287SOL     OW25759   1.881   5.394   4.001
 8287SOL    HW125760   1.955   5.430   4.058
 8287SOL    HW225761   1.848   5.466   3.940
 8288SOL     OW25762   3.235   1.846   1.671
 8288SOL    HW125763   3.253   1.842   1.573
 8288SOL    HW225764   3.322   1.852   1.721
 8289SOL     OW25765   0.759   5.388   0.979
 8289SOL    HW125766   0.700   5.415   1.055
 8289SOL    HW225767   0.704   5.377   0.896
 8290SOL     OW25768   6.281   1.269   1.572
 8290SOL    HW125769   6.217   1.346   1.579
 8290SOL    HW225770   6.326   1.273   1.483
 8291SOL     OW25771   5.313   6.273   5.779
 8291SOL    HW125772   5.359   6.336   5.843
 8291SOL    HW225773   5.279   6.325   5.700
 8292SOL     OW25774   2.648   6.568   6.749
 8292SOL    HW125775   2.566   6.571   6.693
 8292SOL    HW225776   2.724   6.531   6.696
 8293SOL     OW25777   3.215   5.953   0.245
 8293SOL    HW125778   3.198   6.046   0.278
 8293SOL    HW225779   3.184   5.887   0.313
 8294SOL     OW25780   5.279   4.158   4.832
 8294SOL    HW125781   5.200   4.097   4.824
 8294SOL    HW225782   5.271   4.213   4.915
 8295SOL     OW25783   5.177   5.132   1.661
 8295SOL    HW125784   5.161   5.114   1.564
 8295SOL    HW225785   5.264   5.090   1.689
 8296SOL     OW25786   1.122   5.099   6.459
 8296SOL    HW125787   1.218   5.121   6.472
 8296SOL    HW225788   1.088   5.147   6.378
 8297SOL     OW25789   6.138   2.582   2.653
 8297SOL    HW125790   6.125   2.680   2.665
 8297SOL    HW225791   6.149   2.538   2.743
 8298SOL     OW25792   6.677   1.315   1.228
 8298SOL    HW125793   6.763   1.274   1.260
 8298SOL    HW225794   6.669   1.302   1.129
 8299SOL     OW25795   6.807   3.041   1.206
 8299SOL    HW125796   6.860   2.977   1.261
 8299SOL    HW225797   6.868   3.093   1.146
 8300SOL     OW25798   0.311   5.634   4.742
 8300SOL    HW125799   0.377   5.704   4.769
 8300SOL    HW225800   0.331   5.602   4.650
 8301SOL     OW25801   3.923   1.913   1.161
 8301SOL    HW125802   3.927   2.000   1.113
 8301SOL    HW225803   3.828   1.883   1.171
 8302SOL     OW25804   5.655   6.643   0.308
 8302SOL    HW125805   5.659   6.544   0.299
 8302SOL    HW225806   5.743   6.682   0.281
 8303SOL     OW25807   6.569   0.479   3.619
 8303SOL    HW125808   6.473   0.501   3.605
 8303SOL    HW225809   6.610   0.546   3.681
 8304SOL     OW25810   0.184   3.712   0.551
 8304SOL    HW125811   0.118   3.639   0.570
 8304SOL    HW225812   0.147   3.799   0.583
 8305SOL     OW25813   4.495   5.099   4.503
 8305SOL    HW125814   4.401   5.068   4.511
 8305SOL    HW225815   4.557   5.029   4.538
 8306SOL     OW25816   6.900   2.671   6.529
 8306SOL    HW125817   6.926   2.687   6.624
 8306SOL    HW225818   6.809   2.629   6.526
 8307SOL     OW25819   3.822   5.460   1.583
 8307SOL    HW125820   3.803   5.465   1.681
 8307SOL    HW225821   3.839   5.552   1.548
 8308SOL     OW25822   4.018   5.688   1.436
 8308SOL    HW125823   3.945   5.722   1.377
 8308SOL    HW225824   4.105   5.692   1.386
 8309SOL     OW25825   6.882   5.327   3.783
 8309SOL    HW125826   6.840   5.366   3.701
 8309SOL    HW225827   6.817   5.267   3.830
 8310SOL     OW25828   0.044   4.514   0.692
 8310SOL    HW125829   0.131   4.516   0.644
 8310SOL    HW225830   0.014   4.419   0.704
 8311SOL     OW25831   0.611   1.836   4.310
 8311SOL    HW125832   0.525   1.876   4.343
 8311SOL    HW225833   0.686   1.897   4.335
 8312SOL     OW25834   4.933   0.529   0.112
 8312SOL    HW125835   4.935   0.434   0.081
 8312SOL    HW225836   4.966   0.588   0.039
 8313SOL     OW25837   5.062   0.156   1.662
 8313SOL    HW125838   5.013   0.124   1.744
 8313SOL    HW225839   5.025   0.244   1.634
 8314SOL     OW25840   4.810   0.747   0.247
 8314SOL    HW125841   4.839   0.668   0.193
 8314SOL    HW225842   4.713   0.765   0.231
 8315SOL     OW25843   4.021   3.164   1.209
 8315SOL    HW125844   3.942   3.224   1.219
 8315SOL    HW225845   4.098   3.204   1.260
 8316SOL     OW25846   0.192   2.505   2.282
 8316SOL    HW125847   0.261   2.548   2.340
 8316SOL    HW225848   0.212   2.524   2.186
 8317SOL     OW25849   1.875   2.598   2.531
 8317SOL    HW125850   1.803   2.603   2.461
 8317SOL    HW225851   1.962   2.574   2.487
 8318SOL     OW25852   4.591   1.217   4.898
 8318SOL    HW125853   4.556   1.196   4.990
 8318SOL    HW225854   4.690   1.202   4.896
 8319SOL     OW25855   2.285   2.325   6.676
 8319SOL    HW125856   2.202   2.378   6.694
 8319SOL    HW225857   2.267   2.256   6.606
 8320SOL     OW25858   3.215   3.104   1.585
 8320SOL    HW125859   3.228   3.108   1.486
 8320SOL    HW225860   3.125   3.068   1.606
 8321SOL     OW25861   6.819   0.990   6.808
 8321SOL    HW125862   6.778   1.022   6.723
 8321SOL    HW225863   6.913   0.961   6.791
 8322SOL     OW25864   6.920   6.991   0.562
 8322SOL    HW125865   6.965   6.902   0.566
 8322SOL    HW225866   6.845   6.993   0.628
 8323SOL     OW25867   5.484   5.704   2.358
 8323SOL    HW125868   5.427   5.623   2.377
 8323SOL    HW225869   5.579   5.683   2.378
 8324SOL     OW25870   5.240   6.648   1.285
 8324SOL    HW125871   5.271   6.741   1.304
 8324SOL    HW225872   5.191   6.612   1.365
 8325SOL     OW25873   2.611   3.571   5.547
 8325SOL    HW125874   2.530   3.629   5.559
 8325SOL    HW225875   2.685   3.605   5.604
 8326SOL     OW25876   5.321   3.673   5.709
 8326SOL    HW125877   5.379   3.624   5.774
 8326SOL    HW225878   5.252   3.610   5.673
 8327SOL     OW25879   6.615   1.320   6.460
 8327SOL    HW125880   6.535   1.356   6.413
 8327SOL    HW225881   6.627   1.368   6.547
 8328SOL     OW25882   2.683   5.613   5.509
 8328SOL    HW125883   2.709   5.566   5.594
 8328SOL    HW225884   2.630   5.695   5.531
 8329SOL     OW25885   1.001   2.869   6.234
 8329SOL    HW125886   0.945   2.796   6.194
 8329SOL    HW225887   0.962   2.958   6.210
 8330SOL     OW25888   3.077   0.994   0.626
 8330SOL    HW125889   3.090   1.001   0.725
 8330SOL    HW225890   3.080   1.086   0.586
 8331SOL     OW25891   3.013   1.264   1.442
 8331SOL    HW125892   2.967   1.295   1.358
 8331SOL    HW225893   2.984   1.321   1.519
 8332SOL     OW25894   5.511   5.237   2.469
 8332SOL    HW125895   5.570   5.178   2.413
 8332SOL    HW225896   5.487   5.189   2.554
 8333SOL     OW25897   0.535   6.750   6.414
 8333SOL    HW125898   0.523   6.660   6.456
 8333SOL    HW225899   0.481   6.754   6.330
 8334SOL     OW25900   3.996   1.827   4.074
 8334SOL    HW125901   4.009   1.857   3.979
 8334SOL    HW225902   4.060   1.752   4.093
 8335SOL     OW25903   6.393   6.352   6.797
 8335SOL    HW125904   6.477   6.307   6.768
 8335SOL    HW225905   6.407   6.451   6.801
 8336SOL     OW25906   6.495   5.750   2.831
 8336SOL    HW125907   6.440   5.826   2.794
 8336SOL    HW225908   6.437   5.693   2.889
 8337SOL     OW25909   1.555   6.374   2.511
 8337SOL    HW125910   1.477   6.316   2.534
 8337SOL    HW225911   1.537   6.468   2.538
 8338SOL     OW25912   2.582   5.243   1.546
 8338SOL    HW125913   2.491   5.219   1.513
 8338SOL    HW225914   2.584   5.241   1.646
 8339SOL     OW25915   5.596   0.440   1.476
 8339SOL    HW125916   5.613   0.535   1.502
 8339SOL    HW225917   5.538   0.396   1.545
 8340SOL     OW25918   5.204   3.139   1.649
 8340SOL    HW125919   5.301   3.141   1.624
 8340SOL    HW225920   5.183   3.217   1.708
 8341SOL     OW25921   2.200   6.065   0.017
 8341SOL    HW125922   2.256   6.148   0.019
 8341SOL    HW225923   2.207   6.023   6.953
 8342SOL     OW25924   4.506   6.965   1.341
 8342SOL    HW125925   4.444   7.005   1.409
 8342SOL    HW225926   4.598   6.960   1.379
 8343SOL     OW25927   1.459   5.161   5.797
 8343SOL    HW125928   1.547   5.177   5.753
 8343SOL    HW225929   1.387   5.208   5.746
 8344SOL     OW25930   4.887   6.652   5.056
 8344SOL    HW125931   4.917   6.737   5.012
 8344SOL    HW225932   4.960   6.617   5.115
 8345SOL     OW25933   4.779   1.450   3.407
 8345SOL    HW125934   4.749   1.401   3.325
 8345SOL    HW225935   4.856   1.401   3.449
 8346SOL     OW25936   2.997   4.570   0.741
 8346SOL    HW125937   3.001   4.524   0.829
 8346SOL    HW225938   3.064   4.644   0.739
 8347SOL     OW25939   3.418   5.503   4.754
 8347SOL    HW125940   3.410   5.416   4.705
 8347SOL    HW225941   3.371   5.575   4.703
 8348SOL     OW25942   2.120   0.429   2.518
 8348SOL    HW125943   2.149   0.333   2.516
 8348SOL    HW225944   2.187   0.485   2.469
 8349SOL     OW25945   5.843   6.630   1.579
 8349SOL    HW125946   5.809   6.641   1.672
 8349SOL    HW225947   5.767   6.628   1.515
 8350SOL     OW25948   4.463   0.422   4.926
 8350SOL    HW125949   4.399   0.466   4.862
 8350SOL    HW225950   4.435   0.327   4.941
 8351SOL     OW25951   5.028   4.583   4.344
 8351SOL    HW125952   5.059   4.492   4.371
 8351SOL    HW225953   5.106   4.647   4.345
 8352SOL     OW25954   0.128   6.764   3.212
 8352SOL    HW125955   0.128   6.838   3.144
 8352SOL    HW225956   0.221   6.735   3.230
 8353SOL     OW25957   6.685   3.889   1.557
 8353SOL    HW125958   6.725   3.797   1.560
 8353SOL    HW225959   6.735   3.945   1.491
 8354SOL     OW25960   3.745   6.905   6.548
 8354SOL    HW125961   3.737   6.999   6.583
 8354SOL    HW225962   3.694   6.843   6.607
 8355SOL     OW25963   2.899   0.761   6.795
 8355SOL    HW125964   2.980   0.819   6.806
 8355SOL    HW225965   2.817   0.815   6.813
 8356SOL     OW25966   1.778   6.368   0.971
 8356SOL    HW125967   1.826   6.290   1.010
 8356SOL    HW225968   1.771   6.441   1.038
 8357SOL     OW25969   3.857   0.442   5.169
 8357SOL    HW125970   3.798   0.523   5.166
 8357SOL    HW225971   3.837   0.389   5.251
 8358SOL     OW25972   0.837   4.096   5.761
 8358SOL    HW125973   0.783   4.015   5.787
 8358SOL    HW225974   0.921   4.098   5.816
 8359SOL     OW25975   2.931   0.356   5.171
 8359SOL    HW125976   2.965   0.263   5.183
 8359SOL    HW225977   2.876   0.362   5.089
 8360SOL     OW25978   3.753   5.974   1.451
 8360SOL    HW125979   3.739   6.021   1.539
 8360SOL    HW225980   3.752   6.041   1.377
 8361SOL     OW25981   3.134   6.890   2.941
 8361SOL    HW125982   3.128   6.854   3.034
 8361SOL    HW225983   3.107   6.986   2.941
 8362SOL     OW25984   3.590   2.533   0.803
 8362SOL    HW125985   3.494   2.540   0.831
 8362SOL    HW225986   3.595   2.506   0.707
 8363SOL     OW25987   0.693   2.736   6.462
 8363SOL    HW125988   0.759   2.791   6.513
 8363SOL    HW225989   0.606   2.784   6.457
 8364SOL     OW25990   0.572   3.495   2.385
 8364SOL    HW125991   0.516   3.566   2.342
 8364SOL    HW225992   0.643   3.538   2.441
 8365SOL     OW25993   2.053   3.861   1.944
 8365SOL    HW125994   2.076   3.809   1.862
 8365SOL    HW225995   2.031   3.798   2.018
 8366SOL     OW25996   2.639   5.561   2.061
 8366SOL    HW125997   2.594   5.516   2.138
 8366SOL    HW225998   2.582   5.637   2.029
 8367SOL     OW25999   4.010   6.211   3.757
 8367SOL    HW126000   4.026   6.309   3.772
 8367SOL    HW226001   3.986   6.195   3.662
 8368SOL     OW26002   2.236   6.750   6.759
 8368SOL    HW126003   2.141   6.770   6.783
 8368SOL    HW226004   2.271   6.822   6.698
 8369SOL     OW26005   2.092   0.097   6.723
 8369SOL    HW126006   2.073   0.047   6.808
 8369SOL    HW226007   2.157   0.045   6.668
 8370SOL     OW26008   2.819   2.076   5.296
 8370SOL    HW126009   2.829   2.113   5.204
 8370SOL    HW226010   2.841   2.147   5.363
 8371SOL     OW26011   2.220   4.701   1.143
 8371SOL    HW126012   2.172   4.784   1.172
 8371SOL    HW226013   2.215   4.633   1.216
 8372SOL     OW26014   0.588   5.422   2.191
 8372SOL    HW126015   0.621   5.510   2.224
 8372SOL    HW226016   0.620   5.407   2.097
 8373SOL     OW26017   1.664   0.115   3.854
 8373SOL    HW126018   1.622   0.182   3.916
 8373SOL    HW226019   1.671   0.026   3.900
 8374SOL     OW26020   0.133   1.147   5.436
 8374SOL    HW126021   0.228   1.126   5.413
 8374SOL    HW226022   0.086   1.179   5.353
 8375SOL     OW26023   4.167   6.905   5.053
 8375SOL    HW126024   4.263   6.909   5.079
 8375SOL    HW226025   4.127   6.818   5.083
 8376SOL     OW26026   1.754   0.443   3.983
 8376SOL    HW126027   1.661   0.457   4.018
 8376SOL    HW226028   1.820   0.451   4.058
 8377SOL     OW26029   5.359   6.066   1.266
 8377SOL    HW126030   5.294   6.021   1.328
 8377SOL    HW226031   5.373   6.161   1.296
 8378SOL     OW26032   4.187   4.722   2.443
 8378SOL    HW126033   4.251   4.768   2.505
 8378SOL    HW226034   4.094   4.734   2.476
 8379SOL     OW26035   5.770   2.325   1.272
 8379SOL    HW126036   5.835   2.381   1.221
 8379SOL    HW226037   5.742   2.375   1.354
 8380SOL     OW26038   0.134   0.700   2.415
 8380SOL    HW126039   0.035   0.696   2.425
 8380SOL    HW226040   0.160   0.673   2.322
 8381SOL     OW26041   0.215   3.114   4.707
 8381SOL    HW126042   0.125   3.138   4.742
 8381SOL    HW226043   0.252   3.191   4.654
 8382SOL     OW26044   2.630   0.957   2.479
 8382SOL    HW126045   2.672   0.993   2.563
 8382SOL    HW226046   2.700   0.948   2.409
 8383SOL     OW26047   2.399   0.252   6.084
 8383SOL    HW126048   2.449   0.210   6.008
 8383SOL    HW226049   2.340   0.183   6.127
 8384SOL     OW26050   6.768   1.239   0.578
 8384SOL    HW126051   6.802   1.245   0.672
 8384SOL    HW226052   6.815   1.307   0.522
 8385SOL     OW26053   6.534   1.716   1.501
 8385SOL    HW126054   6.575   1.795   1.546
 8385SOL    HW226055   6.434   1.725   1.503
 8386SOL     OW26056   1.163   4.583   2.056
 8386SOL    HW126057   1.093   4.567   1.987
 8386SOL    HW226058   1.248   4.537   2.030
 8387SOL     OW26059   2.035   1.099   2.241
 8387SOL    HW126060   1.986   1.149   2.312
 8387SOL    HW226061   2.053   1.006   2.273
 8388SOL     OW26062   2.226   6.329   0.328
 8388SOL    HW126063   2.155   6.280   0.278
 8388SOL    HW226064   2.211   6.428   0.319
 8389SOL     OW26065   6.503   2.986   3.144
 8389SOL    HW126066   6.411   2.951   3.124
 8389SOL    HW226067   6.504   3.025   3.236
 8390SOL     OW26068   4.028   1.030   6.316
 8390SOL    HW126069   4.014   1.113   6.263
 8390SOL    HW226070   3.943   0.976   6.317
 8391SOL     OW26071   6.445   5.348   0.839
 8391SOL    HW126072   6.392   5.292   0.775
 8391SOL    HW226073   6.471   5.433   0.793
 8392SOL     OW26074   6.562   3.763   4.407
 8392SOL    HW126075   6.638   3.817   4.372
 8392SOL    HW226076   6.492   3.825   4.444
 8393SOL     OW26077   6.847   0.260   2.732
 8393SOL    HW126078   6.816   0.318   2.808
 8393SOL    HW226079   6.767   0.229   2.680
 8394SOL     OW26080   6.357   2.320   0.748
 8394SOL    HW126081   6.272   2.364   0.718
 8394SOL    HW226082   6.354   2.224   0.723
 8395SOL     OW26083   2.790   6.297   5.467
 8395SOL    HW126084   2.809   6.276   5.371
 8395SOL    HW226085   2.834   6.383   5.492
 8396SOL     OW26086   4.803   5.362   3.803
 8396SOL    HW126087   4.818   5.264   3.811
 8396SOL    HW226088   4.705   5.379   3.788
 8397SOL     OW26089   1.288   0.785   2.352
 8397SOL    HW126090   1.316   0.691   2.371
 8397SOL    HW226091   1.195   0.799   2.385
 8398SOL     OW26092   4.042   2.391   6.668
 8398SOL    HW126093   4.072   2.375   6.574
 8398SOL    HW226094   3.991   2.312   6.701
 8399SOL     OW26095   5.857   6.936   6.620
 8399SOL    HW126096   5.827   6.870   6.551
 8399SOL    HW226097   5.953   6.920   6.642
 8400SOL     OW26098   2.086   0.583   4.157
 8400SOL    HW126099   2.161   0.641   4.189
 8400SOL    HW226100   2.073   0.508   4.221
 8401SOL     OW26101   2.703   1.170   5.139
 8401SOL    HW126102   2.647   1.101   5.094
 8401SOL    HW226103   2.693   1.257   5.092
 8402SOL     OW26104   4.918   2.014   6.828
 8402SOL    HW126105   4.836   2.034   6.882
 8402SOL    HW226106   4.904   2.044   6.734
 8403SOL     OW26107   6.662   3.430   4.636
 8403SOL    HW126108   6.713   3.429   4.551
 8403SOL    HW226109   6.649   3.336   4.668
 8404SOL     OW26110   3.825   6.715   5.775
 8404SOL    HW126111   3.869   6.714   5.865
 8404SOL    HW226112   3.842   6.803   5.731
 8405SOL     OW26113   2.105   1.350   5.529
 8405SOL    HW126114   2.040   1.362   5.454
 8405SOL    HW226115   2.169   1.427   5.530
 8406SOL     OW26116   4.412   0.465   0.066
 8406SOL    HW126117   4.470   0.393   0.105
 8406SOL    HW226118   4.428   0.471   6.995
 8407SOL     OW26119   3.913   5.921   3.351
 8407SOL    HW126120   3.943   5.971   3.270
 8407SOL    HW226121   3.931   5.977   3.433
 8408SOL     OW26122   5.458   4.595   1.335
 8408SOL    HW126123   5.474   4.498   1.355
 8408SOL    HW226124   5.408   4.603   1.249
 8409SOL     OW26125   4.829   1.715   3.330
 8409SOL    HW126126   4.758   1.777   3.363
 8409SOL    HW226127   4.806   1.621   3.354
 8410SOL     OW26128   5.759   0.758   1.270
 8410SOL    HW126129   5.767   0.812   1.354
 8410SOL    HW226130   5.756   0.661   1.294
 8411SOL     OW26131   0.589   5.723   0.278
 8411SOL    HW126132   0.647   5.712   0.198
 8411SOL    HW226133   0.516   5.654   0.277
 8412SOL     OW26134   3.324   2.539   0.898
 8412SOL    HW126135   3.333   2.477   0.976
 8412SOL    HW226136   3.269   2.618   0.925
 8413SOL     OW26137   5.064   5.781   6.460
 8413SOL    HW126138   5.096   5.874   6.438
 8413SOL    HW226139   5.082   5.762   6.556
 8414SOL     OW26140   3.138   7.004   3.511
 8414SOL    HW126141   3.112   6.909   3.528
 8414SOL    HW226142   3.075   0.039   3.557
 8415SOL     OW26143   1.058   5.892   4.604
 8415SOL    HW126144   0.963   5.865   4.620
 8415SOL    HW226145   1.103   5.822   4.548
 8416SOL     OW26146   6.412   1.873   3.504
 8416SOL    HW126147   6.481   1.927   3.552
 8416SOL    HW226148   6.398   1.786   3.551
 8417SOL     OW26149   0.719   2.936   6.087
 8417SOL    HW126150   0.743   2.996   6.011
 8417SOL    HW226151   0.625   2.904   6.076
 8418SOL     OW26152   6.285   5.268   1.098
 8418SOL    HW126153   6.337   5.279   1.013
 8418SOL    HW226154   6.236   5.181   1.096
 8419SOL     OW26155   5.635   0.161   1.683
 8419SOL    HW126156   5.695   0.241   1.676
 8419SOL    HW226157   5.541   0.188   1.664
 8420SOL     OW26158   4.197   0.351   0.948
 8420SOL    HW126159   4.205   0.253   0.928
 8420SOL    HW226160   4.288   0.393   0.941
 8421SOL     OW26161   3.323   5.403   0.368
 8421SOL    HW126162   3.336   5.438   0.461
 8421SOL    HW226163   3.389   5.446   0.306
 8422SOL     OW26164   4.116   1.320   2.052
 8422SOL    HW126165   4.200   1.339   2.104
 8422SOL    HW226166   4.097   1.222   2.054
 8423SOL     OW26167   3.685   4.768   5.726
 8423SOL    HW126168   3.632   4.791   5.808
 8423SOL    HW226169   3.642   4.692   5.678
 8424SOL     OW26170   1.514   2.089   2.494
 8424SOL    HW126171   1.549   1.995   2.488
 8424SOL    HW226172   1.569   2.149   2.437
 8425SOL     OW26173   4.095   4.273   6.293
 8425SOL    HW126174   3.998   4.260   6.314
 8425SOL    HW226175   4.145   4.295   6.376
 8426SOL     OW26176   3.866   3.212   2.917
 8426SOL    HW126177   3.964   3.206   2.936
 8426SOL    HW226178   3.816   3.174   2.995
 8427SOL     OW26179   3.738   3.620   3.621
 8427SOL    HW126180   3.677   3.600   3.544
 8427SOL    HW226181   3.798   3.542   3.638
 8428SOL     OW26182   0.305   6.093   1.319
 8428SOL    HW126183   0.360   6.012   1.338
 8428SOL    HW226184   0.223   6.067   1.267
 8429SOL     OW26185   1.733   5.816   5.789
 8429SOL    HW126186   1.732   5.887   5.719
 8429SOL    HW226187   1.684   5.849   5.870
 8430SOL     OW26188   3.414   4.918   3.999
 8430SOL    HW126189   3.452   4.988   4.059
 8430SOL    HW226190   3.315   4.911   4.014
 8431SOL     OW26191   3.902   3.878   0.536
 8431SOL    HW126192   3.966   3.828   0.594
 8431SOL    HW226193   3.808   3.850   0.558
 8432SOL     OW26194   6.220   5.646   5.042
 8432SOL    HW126195   6.154   5.594   5.095
 8432SOL    HW226196   6.259   5.587   4.970
 8433SOL     OW26197   4.452   3.245   6.840
 8433SOL    HW126198   4.433   3.340   6.814
 8433SOL    HW226199   4.366   3.193   6.842
 8434SOL     OW26200   2.670   0.921   4.503
 8434SOL    HW126201   2.643   0.851   4.569
 8434SOL    HW226202   2.591   0.980   4.485
 8435SOL     OW26203   5.862   0.038   2.066
 8435SOL    HW126204   5.815   0.013   1.981
 8435SOL    HW226205   5.954   0.072   2.044
 8436SOL     OW26206   3.107   6.467   3.230
 8436SOL    HW126207   3.034   6.411   3.269
 8436SOL    HW226208   3.178   6.408   3.191
 8437SOL     OW26209   1.928   1.603   3.803
 8437SOL    HW126210   1.955   1.673   3.737
 8437SOL    HW226211   1.830   1.587   3.795
 8438SOL     OW26212   2.393   4.283   2.971
 8438SOL    HW126213   2.324   4.210   2.972
 8438SOL    HW226214   2.402   4.320   2.879
 8439SOL     OW26215   5.922   4.512   2.781
 8439SOL    HW126216   6.006   4.566   2.772
 8439SOL    HW226217   5.888   4.487   2.691
 8440SOL     OW26218   3.174   1.716   3.614
 8440SOL    HW126219   3.234   1.784   3.572
 8440SOL    HW226220   3.090   1.707   3.559
 8441SOL     OW26221   5.435   6.815   0.208
 8441SOL    HW126222   5.358   6.779   0.260
 8441SOL    HW226223   5.519   6.771   0.239
 8442SOL     OW26224   3.775   2.295   5.731
 8442SOL    HW126225   3.683   2.328   5.710
 8442SOL    HW226226   3.774   2.196   5.746
 8443SOL     OW26227   2.470   4.634   3.585
 8443SOL    HW126228   2.452   4.536   3.583
 8443SOL    HW226229   2.459   4.672   3.493
 8444SOL     OW26230   3.021   6.549   4.221
 8444SOL    HW126231   3.016   6.450   4.213
 8444SOL    HW226232   3.060   6.573   4.310
 8445SOL     OW26233   2.632   0.439   1.199
 8445SOL    HW126234   2.717   0.443   1.146
 8445SOL    HW226235   2.564   0.386   1.149
 8446SOL     OW26236   5.717   5.496   6.180
 8446SOL    HW126237   5.725   5.591   6.151
 8446SOL    HW226238   5.792   5.474   6.242
 8447SOL     OW26239   4.103   1.374   1.773
 8447SOL    HW126240   4.080   1.367   1.870
 8447SOL    HW226241   4.185   1.319   1.754
 8448SOL     OW26242   4.117   5.981   3.877
 8448SOL    HW126243   4.110   6.070   3.831
 8448SOL    HW226244   4.029   5.933   3.871
 8449SOL     OW26245   0.293   3.256   3.609
 8449SOL    HW126246   0.234   3.336   3.623
 8449SOL    HW226247   0.377   3.268   3.661
 8450SOL     OW26248   1.000   1.037   1.285
 8450SOL    HW126249   0.954   1.059   1.199
 8450SOL    HW226250   0.953   0.961   1.330
 8451SOL     OW26251   3.005   1.517   0.076
 8451SOL    HW126252   2.940   1.587   0.104
 8451SOL    HW226253   3.030   1.530   7.007
 8452SOL     OW26254   6.208   2.933   3.465
 8452SOL    HW126255   6.155   2.869   3.521
 8452SOL    HW226256   6.302   2.937   3.499
 8453SOL     OW26257   0.390   4.993   0.353
 8453SOL    HW126258   0.356   4.934   0.426
 8453SOL    HW226259   0.314   5.042   0.311
 8454SOL     OW26260   0.058   5.494   1.364
 8454SOL    HW126261   0.055   5.456   1.271
 8454SOL    HW226262   0.131   5.450   1.415
 8455SOL     OW26263   0.341   1.852   1.748
 8455SOL    HW126264   0.364   1.812   1.837
 8455SOL    HW226265   0.395   1.808   1.677
 8456SOL     OW26266   4.874   6.613   3.333
 8456SOL    HW126267   4.866   6.683   3.262
 8456SOL    HW226268   4.795   6.618   3.394
 8457SOL     OW26269   0.180   6.654   4.255
 8457SOL    HW126270   0.105   6.591   4.236
 8457SOL    HW226271   0.239   6.615   4.326
 8458SOL     OW26272   2.640   0.843   0.258
 8458SOL    HW126273   2.622   0.935   0.222
 8458SOL    HW226274   2.617   0.775   0.188
 8459SOL     OW26275   2.786   6.003   2.184
 8459SOL    HW126276   2.809   6.025   2.089
 8459SOL    HW226277   2.759   6.086   2.232
 8460SOL     OW26278   4.497   4.206   5.250
 8460SOL    HW126279   4.449   4.136   5.303
 8460SOL    HW226280   4.579   4.167   5.209
 8461SOL     OW26281   1.048   2.851   4.517
 8461SOL    HW126282   1.003   2.844   4.428
 8461SOL    HW226283   1.013   2.931   4.566
 8462SOL     OW26284   1.992   3.022   6.691
 8462SOL    HW126285   1.940   3.104   6.716
 8462SOL    HW226286   2.054   3.044   6.616
 8463SOL     OW26287   6.889   0.268   1.713
 8463SOL    HW126288   6.953   0.256   1.789
 8463SOL    HW226289   6.909   0.203   1.641
 8464SOL     OW26290   5.407   4.829   4.601
 8464SOL    HW126291   5.449   4.748   4.640
 8464SOL    HW226292   5.337   4.802   4.535
 8465SOL     OW26293   0.736   3.175   0.665
 8465SOL    HW126294   0.744   3.275   0.667
 8465SOL    HW226295   0.739   3.143   0.570
 8466SOL     OW26296   0.658   6.663   4.449
 8466SOL    HW126297   0.570   6.689   4.409
 8466SOL    HW226298   0.643   6.616   4.535
 8467SOL     OW26299   3.122   6.215   0.667
 8467SOL    HW126300   3.208   6.231   0.716
 8467SOL    HW226301   3.047   6.261   0.716
 8468SOL     OW26302   3.295   1.660   0.139
 8468SOL    HW126303   3.314   1.709   0.054
 8468SOL    HW226304   3.216   1.600   0.125
 8469SOL     OW26305   3.538   2.669   6.954
 8469SOL    HW126306   3.568   2.708   0.015
 8469SOL    HW226307   3.453   2.713   6.926
 8470SOL     OW26308   1.350   3.501   0.468
 8470SOL    HW126309   1.431   3.557   0.457
 8470SOL    HW226310   1.377   3.405   0.477
 8471SOL     OW26311   3.026   1.626   2.502
 8471SOL    HW126312   3.078   1.672   2.574
 8471SOL    HW226313   2.986   1.695   2.440
 8472SOL     OW26314   0.644   0.385   4.146
 8472SOL    HW126315   0.639   0.425   4.055
 8472SOL    HW226316   0.621   0.288   4.141
 8473SOL     OW26317   6.012   5.024   6.637
 8473SOL    HW126318   6.081   5.028   6.709
 8473SOL    HW226319   6.052   4.983   6.555
 8474SOL     OW26320   3.424   3.086   2.082
 8474SOL    HW126321   3.346   3.058   2.138
 8474SOL    HW226322   3.391   3.139   2.004
 8475SOL     OW26323   0.344   1.666   3.268
 8475SOL    HW126324   0.343   1.682   3.169
 8475SOL    HW226325   0.291   1.583   3.289
 8476SOL     OW26326   6.727   0.979   1.348
 8476SOL    HW126327   6.711   1.051   1.415
 8476SOL    HW226328   6.727   0.890   1.394
 8477SOL     OW26329   3.890   6.646   2.336
 8477SOL    HW126330   3.969   6.621   2.393
 8477SOL    HW226331   3.816   6.580   2.351
 8478SOL     OW26332   1.124   0.587   5.999
 8478SOL    HW126333   1.066   0.547   5.929
 8478SOL    HW226334   1.067   0.625   6.072
 8479SOL     OW26335   6.284   2.605   0.915
 8479SOL    HW126336   6.355   2.655   0.864
 8479SOL    HW226337   6.227   2.555   0.850
 8480SOL     OW26338   3.666   0.889   0.238
 8480SOL    HW126339   3.718   0.825   0.294
 8480SOL    HW226340   3.647   0.972   0.291
 8481SOL     OW26341   4.458   1.606   3.818
 8481SOL    HW126342   4.505   1.587   3.732
 8481SOL    HW226343   4.474   1.530   3.881
 8482SOL     OW26344   3.402   0.063   3.148
 8482SOL    HW126345   3.424   0.150   3.192
 8482SOL    HW226346   3.470   0.043   3.077
 8483SOL     OW26347   4.165   5.524   2.165
 8483SOL    HW126348   4.163   5.457   2.239
 8483SOL    HW226349   4.110   5.492   2.089
 8484SOL     OW26350   0.456   5.662   2.886
 8484SOL    HW126351   0.420   5.569   2.876
 8484SOL    HW226352   0.411   5.722   2.820
 8485SOL     OW26353   2.810   3.837   6.512
 8485SOL    HW126354   2.900   3.879   6.504
 8485SOL    HW226355   2.779   3.843   6.607
 8486SOL     OW26356   4.994   1.131   2.755
 8486SOL    HW126357   5.016   1.041   2.718
 8486SOL    HW226358   4.974   1.194   2.680
 8487SOL     OW26359   5.703   0.779   0.277
 8487SOL    HW126360   5.797   0.803   0.255
 8487SOL    HW226361   5.699   0.744   0.370
 8488SOL     OW26362   5.755   4.623   4.917
 8488SOL    HW126363   5.850   4.602   4.892
 8488SOL    HW226364   5.695   4.549   4.886
 8489SOL     OW26365   6.404   0.626   1.357
 8489SOL    HW126366   6.368   0.533   1.357
 8489SOL    HW226367   6.347   0.684   1.414
 8490SOL     OW26368   4.339   6.472   4.440
 8490SOL    HW126369   4.250   6.443   4.404
 8490SOL    HW226370   4.333   6.566   4.472
 8491SOL     OW26371   2.203   0.446   1.644
 8491SOL    HW126372   2.243   0.397   1.567
 8491SOL    HW226373   2.104   0.451   1.633
 8492SOL     OW26374   4.449   4.366   6.829
 8492SOL    HW126375   4.476   4.400   6.919
 8492SOL    HW226376   4.358   4.400   6.806
 8493SOL     OW26377   2.641   2.332   6.174
 8493SOL    HW126378   2.640   2.298   6.269
 8493SOL    HW226379   2.732   2.316   6.135
 8494SOL     OW26380   2.691   4.781   0.299
 8494SOL    HW126381   2.732   4.767   0.389
 8494SOL    HW226382   2.757   4.828   0.240
 8495SOL     OW26383   6.623   3.690   0.430
 8495SOL    HW126384   6.652   3.640   0.348
 8495SOL    HW226385   6.523   3.689   0.436
 8496SOL     OW26386   0.709   2.148   1.508
 8496SOL    HW126387   0.729   2.097   1.424
 8496SOL    HW226388   0.794   2.185   1.546
 8497SOL     OW26389   6.709   0.704   4.031
 8497SOL    HW126390   6.803   0.735   4.016
 8497SOL    HW226391   6.675   0.659   3.948
 8498SOL     OW26392   0.023   6.168   2.795
 8498SOL    HW126393   0.013   6.077   2.836
 8498SOL    HW226394   0.083   6.162   2.715
 8499SOL     OW26395   2.493   5.504   6.899
 8499SOL    HW126396   2.509   5.498   6.801
 8499SOL    HW226397   2.505   5.414   6.941
 8500SOL     OW26398   1.627   0.864   5.793
 8500SOL    HW126399   1.691   0.931   5.830
 8500SOL    HW226400   1.656   0.772   5.819
 8501SOL     OW26401   0.595   2.712   0.741
 8501SOL    HW126402   0.594   2.803   0.698
 8501SOL    HW226403   0.522   2.708   0.810
 8502SOL     OW26404   2.132   5.070   1.582
 8502SOL    HW126405   2.086   5.143   1.532
 8502SOL    HW226406   2.209   5.108   1.634
 8503SOL     OW26407   1.076   5.882   3.157
 8503SOL    HW126408   1.043   5.960   3.104
 8503SOL    HW226409   1.160   5.907   3.205
 8504SOL     OW26410   2.005   5.721   3.755
 8504SOL    HW126411   2.083   5.674   3.795
 8504SOL    HW226412   1.998   5.814   3.792
 8505SOL     OW26413   4.861   3.868   4.018
 8505SOL    HW126414   4.793   3.852   4.090
 8505SOL    HW226415   4.829   3.942   3.959
 8506SOL     OW26416   6.621   1.426   0.701
 8506SOL    HW126417   6.669   1.355   0.649
 8506SOL    HW226418   6.605   1.394   0.795
 8507SOL     OW26419   3.333   1.024   5.457
 8507SOL    HW126420   3.259   1.082   5.424
 8507SOL    HW226421   3.296   0.956   5.521
 8508SOL     OW26422   6.680   2.379   5.116
 8508SOL    HW126423   6.585   2.358   5.140
 8508SOL    HW226424   6.741   2.313   5.159
 8509SOL     OW26425   5.170   1.539   3.621
 8509SOL    HW126426   5.093   1.478   3.604
 8509SOL    HW226427   5.232   1.537   3.543
 8510SOL     OW26428   5.468   4.981   3.166
 8510SOL    HW126429   5.387   4.928   3.192
 8510SOL    HW226430   5.457   5.076   3.198
 8511SOL     OW26431   5.882   3.553   1.734
 8511SOL    HW126432   5.809   3.506   1.783
 8511SOL    HW226433   5.884   3.522   1.639
 8512SOL     OW26434   2.698   2.705   0.786
 8512SOL    HW126435   2.772   2.733   0.847
 8512SOL    HW226436   2.654   2.786   0.748
 8513SOL     OW26437   4.736   3.642   1.249
 8513SOL    HW126438   4.781   3.554   1.231
 8513SOL    HW226439   4.709   3.646   1.345
 8514SOL     OW26440   2.523   1.876   3.861
 8514SOL    HW126441   2.582   1.945   3.820
 8514SOL    HW226442   2.475   1.914   3.939
 8515SOL     OW26443   5.970   1.378   6.891
 8515SOL    HW126444   5.872   1.368   6.876
 8515SOL    HW226445   6.018   1.299   6.852
 8516SOL     OW26446   6.665   2.249   1.147
 8516SOL    HW126447   6.651   2.338   1.191
 8516SOL    HW226448   6.577   2.215   1.114
 8517SOL     OW26449   1.589   2.612   5.983
 8517SOL    HW126450   1.618   2.555   6.060
 8517SOL    HW226451   1.668   2.636   5.927
 8518SOL     OW26452   5.106   4.254   6.115
 8518SOL    HW126453   5.032   4.194   6.143
 8518SOL    HW226454   5.139   4.306   6.195
 8519SOL     OW26455   1.607   5.138   1.270
 8519SOL    HW126456   1.631   5.198   1.194
 8519SOL    HW226457   1.604   5.191   1.355
 8520SOL     OW26458   3.492   3.216   6.708
 8520SOL    HW126459   3.542   3.300   6.730
 8520SOL    HW226460   3.398   3.225   6.741
 8521SOL     OW26461   2.359   4.766   5.614
 8521SOL    HW126462   2.367   4.767   5.514
 8521SOL    HW226463   2.263   4.757   5.640
 8522SOL     OW26464   1.537   7.013   1.314
 8522SOL    HW126465   1.529   0.061   1.380
 8522SOL    HW226466   1.629   6.974   1.320
 8523SOL     OW26467   1.714   5.989   0.003
 8523SOL    HW126468   1.629   5.977   0.055
 8523SOL    HW226469   1.692   6.018   6.937
 8524SOL     OW26470   0.407   2.815   5.348
 8524SOL    HW126471   0.505   2.821   5.367
 8524SOL    HW226472   0.356   2.856   5.424
 8525SOL     OW26473   6.342   4.900   1.779
 8525SOL    HW126474   6.257   4.853   1.752
 8525SOL    HW226475   6.395   4.921   1.696
 8526SOL     OW26476   3.935   6.138   0.366
 8526SOL    HW126477   3.926   6.181   0.455
 8526SOL    HW226478   3.978   6.048   0.376
 8527SOL     OW26479   3.101   0.948   6.726
 8527SOL    HW126480   3.176   0.883   6.733
 8527SOL    HW226481   3.114   1.021   6.794
 8528SOL     OW26482   4.070   0.999   6.820
 8528SOL    HW126483   3.988   1.037   6.778
 8528SOL    HW226484   4.052   0.906   6.851
 8529SOL     OW26485   1.322   0.039   0.662
 8529SOL    HW126486   1.293   6.976   0.695
 8529SOL    HW226487   1.254   0.075   0.599
 8530SOL     OW26488   4.119   4.213   5.529
 8530SOL    HW126489   4.024   4.205   5.499
 8530SOL    HW226490   4.155   4.122   5.548
 8531SOL     OW26491   0.041   4.810   2.525
 8531SOL    HW126492   7.025   4.896   2.553
 8531SOL    HW226493   6.997   4.741   2.510
 8532SOL     OW26494   4.376   5.315   4.725
 8532SOL    HW126495   4.298   5.270   4.769
 8532SOL    HW226496   4.401   5.265   4.642
 8533SOL     OW26497   1.925   5.913   0.176
 8533SOL    HW126498   1.945   6.002   0.215
 8533SOL    HW226499   1.849   5.921   0.111
 8534SOL     OW26500   5.888   2.034   4.370
 8534SOL    HW126501   5.985   2.057   4.361
 8534SOL    HW226502   5.833   2.108   4.334
 8535SOL     OW26503   6.648   1.142   3.195
 8535SOL    HW126504   6.565   1.186   3.229
 8535SOL    HW226505   6.628   1.046   3.174
 8536SOL     OW26506   6.845   1.989   4.822
 8536SOL    HW126507   6.835   2.046   4.740
 8536SOL    HW226508   6.938   1.950   4.824
 8537SOL     OW26509   5.141   0.776   3.504
 8537SOL    HW126510   5.223   0.780   3.562
 8537SOL    HW226511   5.069   0.726   3.551
 8538SOL     OW26512   1.411   0.940   0.189
 8538SOL    HW126513   1.340   1.010   0.187
 8538SOL    HW226514   1.487   0.970   0.247
 8539SOL     OW26515   6.297   1.124   2.478
 8539SOL    HW126516   6.362   1.133   2.402
 8539SOL    HW226517   6.260   1.031   2.480
 8540SOL     OW26518   5.570   0.586   6.187
 8540SOL    HW126519   5.493   0.628   6.236
 8540SOL    HW226520   5.592   0.498   6.229
 8541SOL     OW26521   2.819   1.969   3.676
 8541SOL    HW126522   2.742   2.024   3.706
 8541SOL    HW226523   2.897   2.029   3.657
 8542SOL     OW26524   4.306   4.971   6.451
 8542SOL    HW126525   4.357   4.892   6.416
 8542SOL    HW226526   4.208   4.957   6.435
 8543SOL     OW26527   2.693   2.060   1.266
 8543SOL    HW126528   2.663   1.965   1.260
 8543SOL    HW226529   2.668   2.097   1.356
 8544SOL     OW26530   5.392   3.391   3.997
 8544SOL    HW126531   5.427   3.326   3.930
 8544SOL    HW226532   5.346   3.466   3.949
 8545SOL     OW26533   4.129   0.282   5.268
 8545SOL    HW126534   4.150   0.378   5.247
 8545SOL    HW226535   4.098   0.235   5.185
 8546SOL     OW26536   5.630   1.934   4.409
 8546SOL    HW126537   5.724   1.965   4.393
 8546SOL    HW226538   5.590   1.985   4.485
 8547SOL     OW26539   1.358   6.277   5.907
 8547SOL    HW126540   1.360   6.197   5.848
 8547SOL    HW226541   1.421   6.265   5.983
 8548SOL     OW26542   6.111   2.882   6.061
 8548SOL    HW126543   6.055   2.954   6.019
 8548SOL    HW226544   6.199   2.876   6.013
 8549SOL     OW26545   1.019   2.970   3.778
 8549SOL    HW126546   1.099   3.028   3.790
 8549SOL    HW226547   1.047   2.877   3.756
 8550SOL     OW26548   2.034   4.862   0.302
 8550SOL    HW126549   2.006   4.936   0.364
 8550SOL    HW226550   2.122   4.826   0.332
 8551SOL     OW26551   3.619   4.253   5.671
 8551SOL    HW126552   3.550   4.197   5.627
 8551SOL    HW226553   3.696   4.195   5.699
 8552SOL     OW26554   2.501   6.714   3.430
 8552SOL    HW126555   2.568   6.665   3.486
 8552SOL    HW226556   2.545   6.792   3.386
 8553SOL     OW26557   5.080   4.392   6.353
 8553SOL    HW126558   5.149   4.379   6.424
 8553SOL    HW226559   5.012   4.459   6.384
 8554SOL     OW26560   0.521   5.094   0.571
 8554SOL    HW126561   0.471   5.054   0.494
 8554SOL    HW226562   0.618   5.073   0.562
 8555SOL     OW26563   1.186   0.419   2.515
 8555SOL    HW126564   1.250   0.478   2.563
 8555SOL    HW226565   1.236   0.348   2.465
 8556SOL     OW26566   0.578   6.548   4.687
 8556SOL    HW126567   0.625   6.520   4.771
 8556SOL    HW226568   0.511   6.478   4.661
 8557SOL     OW26569   6.177   0.604   2.712
 8557SOL    HW126570   6.246   0.611   2.785
 8557SOL    HW226571   6.121   0.523   2.727
 8558SOL     OW26572   2.902   5.674   3.261
 8558SOL    HW126573   2.955   5.592   3.281
 8558SOL    HW226574   2.811   5.648   3.228
 8559SOL     OW26575   6.613   0.718   2.155
 8559SOL    HW126576   6.639   0.805   2.113
 8559SOL    HW226577   6.692   0.657   2.158
 8560SOL     OW26578   0.331   6.108   1.920
 8560SOL    HW126579   0.297   6.018   1.895
 8560SOL    HW226580   0.276   6.178   1.873
 8561SOL     OW26581   3.680   0.125   2.369
 8561SOL    HW126582   3.726   0.036   2.372
 8561SOL    HW226583   3.650   0.143   2.275
 8562SOL     OW26584   4.800   6.352   5.018
 8562SOL    HW126585   4.705   6.351   4.988
 8562SOL    HW226586   4.852   6.414   4.960
 8563SOL     OW26587   2.746   4.667   6.980
 8563SOL    HW126588   2.702   4.753   6.954
 8563SOL    HW226589   2.687   4.618   0.017
 8564SOL     OW26590   2.891   1.293   3.786
 8564SOL    HW126591   2.964   1.361   3.779
 8564SOL    HW226592   2.828   1.304   3.710
 8565SOL     OW26593   4.547   6.031   1.220
 8565SOL    HW126594   4.509   6.034   1.313
 8565SOL    HW226595   4.535   5.939   1.182
 8566SOL     OW26596   1.179   0.529   1.280
 8566SOL    HW126597   1.237   0.580   1.343
 8566SOL    HW226598   1.169   0.435   1.313
 8567SOL     OW26599   6.495   1.390   2.487
 8567SOL    HW126600   6.594   1.397   2.498
 8567SOL    HW226601   6.474   1.364   2.393
 8568SOL     OW26602   5.335   1.278   5.905
 8568SOL    HW126603   5.422   1.324   5.890
 8568SOL    HW226604   5.352   1.185   5.936
 8569SOL     OW26605   5.072   1.812   5.677
 8569SOL    HW126606   5.038   1.869   5.603
 8569SOL    HW226607   5.012   1.822   5.757
 8570SOL     OW26608   1.320   2.467   5.323
 8570SOL    HW126609   1.404   2.518   5.342
 8570SOL    HW226610   1.324   2.430   5.230
 8571SOL     OW26611   0.907   5.432   5.881
 8571SOL    HW126612   0.904   5.499   5.807
 8571SOL    HW226613   0.856   5.467   5.960
 8572SOL     OW26614   3.307   5.093   6.221
 8572SOL    HW126615   3.320   5.190   6.241
 8572SOL    HW226616   3.396   5.047   6.225
 8573SOL     OW26617   3.405   0.087   6.253
 8573SOL    HW126618   3.329   0.151   6.247
 8573SOL    HW226619   3.395   0.031   6.335
 8574SOL     OW26620   0.174   6.121   5.843
 8574SOL    HW126621   0.270   6.142   5.861
 8574SOL    HW226622   0.135   6.077   5.924
 8575SOL     OW26623   2.920   2.715   5.869
 8575SOL    HW126624   2.929   2.616   5.855
 8575SOL    HW226625   3.010   2.756   5.882
 8576SOL     OW26626   1.103   6.116   0.256
 8576SOL    HW126627   1.141   6.086   0.343
 8576SOL    HW226628   1.163   6.184   0.214
 8577SOL     OW26629   0.279   5.660   4.236
 8577SOL    HW126630   0.206   5.726   4.216
 8577SOL    HW226631   0.367   5.700   4.209
 8578SOL     OW26632   5.139   0.504   4.332
 8578SOL    HW126633   5.156   0.416   4.376
 8578SOL    HW226634   5.221   0.532   4.281
 8579SOL     OW26635   1.424   0.048   3.431
 8579SOL    HW126636   1.464   6.988   3.401
 8579SOL    HW226637   1.328   0.050   3.406
 8580SOL     OW26638   2.024   6.810   2.405
 8580SOL    HW126639   1.963   6.883   2.438
 8580SOL    HW226640   2.112   6.817   2.453
 8581SOL     OW26641   3.262   3.204   1.845
 8581SOL    HW126642   3.251   3.168   1.753
 8581SOL    HW226643   3.185   3.174   1.902
 8582SOL     OW26644   4.125   4.764   2.180
 8582SOL    HW126645   4.027   4.781   2.175
 8582SOL    HW226646   4.150   4.735   2.273
 8583SOL     OW26647   5.524   0.751   5.511
 8583SOL    HW126648   5.538   0.692   5.432
 8583SOL    HW226649   5.608   0.802   5.530
 8584SOL     OW26650   0.290   3.763   6.243
 8584SOL    HW126651   0.327   3.710   6.319
 8584SOL    HW226652   0.365   3.802   6.189
 8585SOL     OW26653   0.660   6.377   5.550
 8585SOL    HW126654   0.588   6.438   5.581
 8585SOL    HW226655   0.731   6.430   5.503
 8586SOL     OW26656   3.063   6.733   3.543
 8586SOL    HW126657   2.994   6.708   3.475
 8586SOL    HW226658   3.110   6.651   3.574
 8587SOL     OW26659   1.645   6.822   2.984
 8587SOL    HW126660   1.695   6.875   3.054
 8587SOL    HW226661   1.598   6.746   3.028
 8588SOL     OW26662   2.550   0.523   6.815
 8588SOL    HW126663   2.636   0.550   6.774
 8588SOL    HW226664   2.567   0.453   6.884
 8589SOL     OW26665   5.076   2.967   3.828
 8589SOL    HW126666   5.047   2.896   3.763
 8589SOL    HW226667   5.022   2.960   3.912
 8590SOL     OW26668   6.725   6.390   4.227
 8590SOL    HW126669   6.717   6.396   4.128
 8590SOL    HW226670   6.642   6.352   4.265
 8591SOL     OW26671   0.864   4.443   6.497
 8591SOL    HW126672   0.913   4.409   6.417
 8591SOL    HW226673   0.894   4.393   6.578
 8592SOL     OW26674   6.885   3.485   0.307
 8592SOL    HW126675   6.942   3.414   0.267
 8592SOL    HW226676   6.794   3.481   0.267
 8593SOL     OW26677   1.172   0.199   2.104
 8593SOL    HW126678   1.079   0.162   2.094
 8593SOL    HW226679   1.226   0.175   2.024
 8594SOL     OW26680   3.497   3.198   5.157
 8594SOL    HW126681   3.408   3.211   5.113
 8594SOL    HW226682   3.570   3.205   5.089
 8595SOL     OW26683   1.939   1.687   3.290
 8595SOL    HW126684   1.963   1.629   3.368
 8595SOL    HW226685   1.933   1.632   3.207
 8596SOL     OW26686   6.403   5.794   3.425
 8596SOL    HW126687   6.307   5.808   3.450
 8596SOL    HW226688   6.413   5.798   3.326
 8597SOL     OW26689   4.852   1.518   1.035
 8597SOL    HW126690   4.937   1.476   1.004
 8597SOL    HW226691   4.783   1.448   1.048
 8598SOL     OW26692   0.015   5.583   1.067
 8598SOL    HW126693   6.952   5.624   1.083
 8598SOL    HW226694   0.009   5.484   1.077
 8599SOL     OW26695   0.642   2.514   3.707
 8599SOL    HW126696   0.650   2.437   3.770
 8599SOL    HW226697   0.727   2.568   3.709
 8600SOL     OW26698   4.956   5.081   6.123
 8600SOL    HW126699   4.914   5.171   6.116
 8600SOL    HW226700   4.886   5.010   6.117
 8601SOL     OW26701   0.960   0.584   5.277
 8601SOL    HW126702   0.887   0.523   5.308
 8601SOL    HW226703   0.925   0.647   5.208
 8602SOL     OW26704   3.213   5.785   3.516
 8602SOL    HW126705   3.290   5.806   3.455
 8602SOL    HW226706   3.235   5.704   3.570
 8603SOL     OW26707   3.844   5.445   0.615
 8603SOL    HW126708   3.897   5.376   0.566
 8603SOL    HW226709   3.905   5.521   0.641
 8604SOL     OW26710   0.164   3.010   3.550
 8604SOL    HW126711   0.221   3.091   3.541
 8604SOL    HW226712   0.141   2.995   3.646
 8605SOL     OW26713   3.090   4.845   4.220
 8605SOL    HW126714   3.158   4.874   4.287
 8605SOL    HW226715   3.008   4.813   4.268
 8606SOL     OW26716   1.822   4.617   6.318
 8606SOL    HW126717   1.823   4.715   6.300
 8606SOL    HW226718   1.762   4.571   6.253
 8607SOL     OW26719   3.529   5.976   0.582
 8607SOL    HW126720   3.506   5.926   0.499
 8607SOL    HW226721   3.523   5.915   0.661
 8608SOL     OW26722   4.397   5.287   3.106
 8608SOL    HW126723   4.333   5.299   3.182
 8608SOL    HW226724   4.484   5.332   3.128
 8609SOL     OW26725   4.839   0.900   3.659
 8609SOL    HW126726   4.753   0.951   3.671
 8609SOL    HW226727   4.843   0.827   3.727
 8610SOL     OW26728   1.286   1.181   2.658
 8610SOL    HW126729   1.363   1.199   2.597
 8610SOL    HW226730   1.307   1.103   2.717
 8611SOL     OW26731   2.252   1.803   4.368
 8611SOL    HW126732   2.203   1.886   4.343
 8611SOL    HW226733   2.221   1.727   4.311
 8612SOL     OW26734   3.112   3.094   0.166
 8612SOL    HW126735   3.178   3.035   0.119
 8612SOL    HW226736   3.046   3.038   0.214
 8613SOL     OW26737   2.351   2.236   1.578
 8613SOL    HW126738   2.307   2.160   1.626
 8613SOL    HW226739   2.339   2.225   1.479
 8614SOL     OW26740   0.519   3.510   2.779
 8614SOL    HW126741   0.483   3.474   2.866
 8614SOL    HW226742   0.442   3.532   2.719
 8615SOL     OW26743   5.184   2.008   5.275
 8615SOL    HW126744   5.124   2.005   5.355
 8615SOL    HW226745   5.177   1.921   5.226
 8616SOL     OW26746   2.130   5.415   1.383
 8616SOL    HW126747   2.209   5.358   1.359
 8616SOL    HW226748   2.140   5.448   1.477
 8617SOL     OW26749   6.653   1.039   6.591
 8617SOL    HW126750   6.628   1.007   6.500
 8617SOL    HW226751   6.571   1.072   6.638
 8618SOL     OW26752   5.889   6.664   1.173
 8618SOL    HW126753   5.906   6.651   1.075
 8618SOL    HW226754   5.929   6.589   1.225
 8619SOL     OW26755   3.571   5.044   2.112
 8619SOL    HW126756   3.633   4.975   2.074
 8619SOL    HW226757   3.480   5.004   2.123
 8620SOL     OW26758   0.209   0.076   3.461
 8620SOL    HW126759   0.253   0.128   3.387
 8620SOL    HW226760   0.210   0.130   3.545
 8621SOL     OW26761   5.935   1.675   2.962
 8621SOL    HW126762   5.946   1.762   3.009
 8621SOL    HW226763   6.024   1.645   2.926
 8622SOL     OW26764   5.208   4.053   0.097
 8622SOL    HW126765   5.304   4.072   0.119
 8622SOL    HW226766   5.169   4.131   0.049
 8623SOL     OW26767   1.261   3.853   3.125
 8623SOL    HW126768   1.356   3.835   3.152
 8623SOL    HW226769   1.216   3.766   3.104
 8624SOL     OW26770   1.362   3.740   3.838
 8624SOL    HW126771   1.432   3.716   3.771
 8624SOL    HW226772   1.380   3.831   3.875
 8625SOL     OW26773   4.920   6.869   4.891
 8625SOL    HW126774   4.903   6.901   4.798
 8625SOL    HW226775   5.016   6.881   4.913
 8626SOL     OW26776   3.632   2.942   5.219
 8626SOL    HW126777   3.718   2.979   5.254
 8626SOL    HW226778   3.562   3.014   5.218
 8627SOL     OW26779   0.600   1.001   3.701
 8627SOL    HW126780   0.660   0.965   3.631
 8627SOL    HW226781   0.517   1.038   3.659
 8628SOL     OW26782   5.901   0.079   1.386
 8628SOL    HW126783   5.913   7.020   1.436
 8628SOL    HW226784   5.956   0.077   1.303
 8629SOL     OW26785   1.390   5.065   5.337
 8629SOL    HW126786   1.375   5.010   5.255
 8629SOL    HW226787   1.488   5.075   5.354
 8630SOL     OW26788   5.917   4.621   4.442
 8630SOL    HW126789   5.911   4.613   4.541
 8630SOL    HW226790   5.832   4.588   4.401
 8631SOL     OW26791   3.064   5.931   6.367
 8631SOL    HW126792   2.981   5.886   6.399
 8631SOL    HW226793   3.145   5.886   6.406
 8632SOL     OW26794   3.106   6.928   4.151
 8632SOL    HW126795   3.034   6.901   4.216
 8632SOL    HW226796   3.193   6.935   4.199
 8633SOL     OW26797   5.051   1.356   4.980
 8633SOL    HW126798   5.083   1.379   5.072
 8633SOL    HW226799   5.085   1.266   4.954
 8634SOL     OW26800   5.478   3.235   0.596
 8634SOL    HW126801   5.423   3.263   0.675
 8634SOL    HW226802   5.574   3.232   0.622
 8635SOL     OW26803   6.199   4.440   6.835
 8635SOL    HW126804   6.244   4.357   6.801
 8635SOL    HW226805   6.247   4.472   6.917
 8636SOL     OW26806   5.214   6.183   0.637
 8636SOL    HW126807   5.262   6.161   0.722
 8636SOL    HW226808   5.240   6.116   0.567
 8637SOL     OW26809   1.959   1.244   0.176
 8637SOL    HW126810   1.949   1.211   0.270
 8637SOL    HW226811   1.873   1.232   0.127
 8638SOL     OW26812   2.329   3.049   6.801
 8638SOL    HW126813   2.391   3.128   6.789
 8638SOL    HW226814   2.269   3.066   6.879
 8639SOL     OW26815   5.971   1.823   1.587
 8639SOL    HW126816   5.948   1.847   1.681
 8639SOL    HW226817   5.916   1.879   1.524
 8640SOL     OW26818   4.408   4.054   0.715
 8640SOL    HW126819   4.324   4.011   0.748
 8640SOL    HW226820   4.385   4.131   0.655
 8641SOL     OW26821   6.528   4.848   3.997
 8641SOL    HW126822   6.600   4.880   4.058
 8641SOL    HW226823   6.483   4.927   3.954
 8642SOL     OW26824   3.420   1.017   2.661
 8642SOL    HW126825   3.454   0.923   2.659
 8642SOL    HW226826   3.353   1.027   2.734
 8643SOL     OW26827   3.972   0.017   0.061
 8643SOL    HW126828   3.910   0.085   0.099
 8643SOL    HW226829   3.956   0.008   6.989
 8644SOL     OW26830   4.671   2.774   5.641
 8644SOL    HW126831   4.655   2.679   5.615
 8644SOL    HW226832   4.761   2.804   5.607
 8645SOL     OW26833   4.570   4.243   1.439
 8645SOL    HW126834   4.585   4.302   1.519
 8645SOL    HW226835   4.610   4.286   1.358
 8646SOL     OW26836   6.548   1.547   1.254
 8646SOL    HW126837   6.563   1.582   1.346
 8646SOL    HW226838   6.601   1.463   1.241
 8647SOL     OW26839   2.685   5.025   6.174
 8647SOL    HW126840   2.750   4.992   6.105
 8647SOL    HW226841   2.592   5.001   6.147
 8648SOL     OW26842   6.110   0.907   3.721
 8648SOL    HW126843   6.055   0.948   3.794
 8648SOL    HW226844   6.207   0.918   3.743
 8649SOL     OW26845   5.653   4.157   0.077
 8649SOL    HW126846   5.639   4.081   0.013
 8649SOL    HW226847   5.568   4.174   0.127
 8650SOL     OW26848   1.479   4.149   6.087
 8650SOL    HW126849   1.427   4.213   6.144
 8650SOL    HW226850   1.577   4.157   6.110
 8651SOL     OW26851   3.588   1.021   0.656
 8651SOL    HW126852   3.540   0.946   0.610
 8651SOL    HW226853   3.656   0.984   0.719
 8652SOL     OW26854   1.400   3.563   3.233
 8652SOL    HW126855   1.429   3.478   3.278
 8652SOL    HW226856   1.340   3.542   3.156
 8653SOL     OW26857   5.862   1.374   6.296
 8653SOL    HW126858   5.943   1.318   6.277
 8653SOL    HW226859   5.890   1.456   6.346
 8654SOL     OW26860   1.180   5.763   1.506
 8654SOL    HW126861   1.100   5.712   1.473
 8654SOL    HW226862   1.184   5.852   1.461
 8655SOL     OW26863   5.975   1.000   3.951
 8655SOL    HW126864   5.912   0.925   3.973
 8655SOL    HW226865   6.001   1.047   4.036
 8656SOL     OW26866   6.475   1.122   0.983
 8656SOL    HW126867   6.420   1.086   0.908
 8656SOL    HW226868   6.415   1.155   1.056
 8657SOL     OW26869   4.766   5.132   7.023
 8657SOL    HW126870   4.678   5.086   0.002
 8657SOL    HW226871   4.833   5.070   6.983
 8658SOL     OW26872   4.307   6.645   6.982
 8658SOL    HW126873   4.282   6.552   7.009
 8658SOL    HW226874   4.254   6.711   0.009
 8659SOL     OW26875   4.438   1.196   3.587
 8659SOL    HW126876   4.387   1.112   3.570
 8659SOL    HW226877   4.391   1.274   3.544
 8660SOL     OW26878   5.514   3.869   0.659
 8660SOL    HW126879   5.557   3.907   0.577
 8660SOL    HW226880   5.576   3.803   0.701
 8661SOL     OW26881   5.984   4.112   1.197
 8661SOL    HW126882   6.000   4.098   1.099
 8661SOL    HW226883   5.934   4.033   1.234
 8662SOL     OW26884   4.637   5.777   1.627
 8662SOL    HW126885   4.722   5.759   1.577
 8662SOL    HW226886   4.607   5.694   1.673
 8663SOL     OW26887   2.847   5.983   1.275
 8663SOL    HW126888   2.789   5.927   1.215
 8663SOL    HW226889   2.884   5.926   1.348
 8664SOL     OW26890   3.289   5.783   1.658
 8664SOL    HW126891   3.326   5.796   1.565
 8664SOL    HW226892   3.304   5.689   1.687
 8665SOL     OW26893   5.813   5.871   5.199
 8665SOL    HW126894   5.839   5.790   5.252
 8665SOL    HW226895   5.862   5.951   5.233
 8666SOL     OW26896   4.945   1.720   4.656
 8666SOL    HW126897   4.935   1.682   4.564
 8666SOL    HW226898   4.974   1.649   4.719
 8667SOL     OW26899   4.813   2.965   3.115
 8667SOL    HW126900   4.790   3.022   3.194
 8667SOL    HW226901   4.827   2.871   3.145
 8668SOL     OW26902   5.719   3.170   3.297
 8668SOL    HW126903   5.793   3.234   3.318
 8668SOL    HW226904   5.636   3.199   3.345
 8669SOL     OW26905   2.360   6.298   6.780
 8669SOL    HW126906   2.319   6.211   6.809
 8669SOL    HW226907   2.297   6.346   6.720
 8670SOL     OW26908   3.589   4.985   5.521
 8670SOL    HW126909   3.509   5.023   5.567
 8670SOL    HW226910   3.634   4.919   5.581
 8671SOL     OW26911   5.610   1.740   2.908
 8671SOL    HW126912   5.596   1.817   2.971
 8671SOL    HW226913   5.623   1.774   2.815
 8672SOL     OW26914   2.276   5.219   3.558
 8672SOL    HW126915   2.326   5.134   3.577
 8672SOL    HW226916   2.230   5.249   3.641
 8673SOL     OW26917   6.563   2.142   6.731
 8673SOL    HW126918   6.650   2.177   6.766
 8673SOL    HW226919   6.523   2.208   6.668
 8674SOL     OW26920   5.958   5.737   2.059
 8674SOL    HW126921   6.012   5.737   2.143
 8674SOL    HW226922   5.878   5.796   2.070
 8675SOL     OW26923   3.807   2.172   4.889
 8675SOL    HW126924   3.847   2.151   4.978
 8675SOL    HW226925   3.715   2.210   4.903
 8676SOL     OW26926   4.226   0.112   2.676
 8676SOL    HW126927   4.319   0.114   2.713
 8676SOL    HW226928   4.195   0.205   2.659
 8677SOL     OW26929   2.443   6.551   5.515
 8677SOL    HW126930   2.397   6.495   5.584
 8677SOL    HW226931   2.541   6.531   5.516
 8678SOL     OW26932   6.983   0.387   1.100
 8678SOL    HW126933   6.923   0.458   1.064
 8678SOL    HW226934   0.046   0.426   1.122
 8679SOL     OW26935   6.502   2.750   4.352
 8679SOL    HW126936   6.541   2.823   4.408
 8679SOL    HW226937   6.442   2.694   4.408
 8680SOL     OW26938   0.806   4.315   1.691
 8680SOL    HW126939   0.813   4.324   1.591
 8680SOL    HW226940   0.891   4.348   1.733
 8681SOL     OW26941   4.800   5.139   6.656
 8681SOL    HW126942   4.860   5.199   6.710
 8681SOL    HW226943   4.773   5.187   6.573
 8682SOL     OW26944   4.661   6.795   1.559
 8682SOL    HW126945   4.623   6.827   1.645
 8682SOL    HW226946   4.701   6.872   1.509
 8683SOL     OW26947   1.736   2.309   2.488
 8683SOL    HW126948   1.780   2.394   2.457
 8683SOL    HW226949   1.771   2.284   2.578
 8684SOL     OW26950   0.686   2.735   4.729
 8684SOL    HW126951   0.636   2.771   4.807
 8684SOL    HW226952   0.784   2.731   4.750
 8685SOL     OW26953   0.702   2.373   5.285
 8685SOL    HW126954   0.772   2.303   5.297
 8685SOL    HW226955   0.612   2.334   5.304
 8686SOL     OW26956   6.987   1.308   1.256
 8686SOL    HW126957   6.994   1.212   1.226
 8686SOL    HW226958   6.998   1.368   1.177
 8687SOL     OW26959   3.955   5.480   2.708
 8687SOL    HW126960   3.997   5.400   2.752
 8687SOL    HW226961   3.859   5.461   2.689
 8688SOL     OW26962   3.088   6.320   6.985
 8688SOL    HW126963   3.093   6.226   7.020
 8688SOL    HW226964   3.176   6.366   6.999
 8689SOL     OW26965   3.147   4.611   1.389
 8689SOL    HW126966   3.139   4.657   1.477
 8689SOL    HW226967   3.239   4.624   1.353
 8690SOL     OW26968   1.806   2.942   3.365
 8690SOL    HW126969   1.782   2.880   3.290
 8690SOL    HW226970   1.815   3.035   3.330
 8691SOL     OW26971   3.508   2.079   6.851
 8691SOL    HW126972   3.424   2.132   6.837
 8691SOL    HW226973   3.517   2.055   6.948
 8692SOL     OW26974   2.909   1.748   3.476
 8692SOL    HW126975   2.841   1.683   3.512
 8692SOL    HW226976   2.902   1.834   3.527
 8693SOL     OW26977   6.453   1.307   0.382
 8693SOL    HW126978   6.443   1.329   0.285
 8693SOL    HW226979   6.520   1.368   0.424
 8694SOL     OW26980   3.583   1.212   4.948
 8694SOL    HW126981   3.577   1.113   4.931
 8694SOL    HW226982   3.524   1.235   5.026
 8695SOL     OW26983   4.298   2.730   5.664
 8695SOL    HW126984   4.365   2.804   5.667
 8695SOL    HW226985   4.264   2.719   5.571
 8696SOL     OW26986   2.303   5.927   0.414
 8696SOL    HW126987   2.390   5.880   0.430
 8696SOL    HW226988   2.256   5.885   0.336
 8697SOL     OW26989   6.529   2.958   6.986
 8697SOL    HW126990   6.497   3.025   6.920
 8697SOL    HW226991   6.475   2.874   6.978
 8698SOL     OW26992   5.929   5.676   4.425
 8698SOL    HW126993   5.969   5.639   4.341
 8698SOL    HW226994   5.961   5.769   4.439
 8699SOL     OW26995   2.170   2.464   5.137
 8699SOL    HW126996   2.265   2.431   5.139
 8699SOL    HW226997   2.124   2.426   5.057
 8700SOL     OW26998   1.289   0.540   4.133
 8700SOL    HW126999   1.276   0.625   4.186
 8700SOL    HW227000   1.378   0.544   4.087
 8701SOL     OW27001   1.772   0.703   0.148
 8701SOL    HW127002   1.700   0.667   0.207
 8701SOL    HW227003   1.823   0.774   0.197
 8702SOL     OW27004   5.445   4.424   0.423
 8702SOL    HW127005   5.479   4.504   0.373
 8702SOL    HW227006   5.504   4.406   0.501
 8703SOL     OW27007   3.253   5.558   1.192
 8703SOL    HW127008   3.243   5.655   1.214
 8703SOL    HW227009   3.271   5.507   1.276
 8704SOL     OW27010   6.745   3.604   3.125
 8704SOL    HW127011   6.756   3.504   3.118
 8704SOL    HW227012   6.831   3.648   3.100
 8705SOL     OW27013   5.206   0.794   0.527
 8705SOL    HW127014   5.299   0.822   0.550
 8705SOL    HW227015   5.205   0.754   0.435
 8706SOL     OW27016   4.493   1.947   6.096
 8706SOL    HW127017   4.562   2.003   6.052
 8706SOL    HW227018   4.478   1.979   6.190
 8707SOL     OW27019   6.406   2.460   6.996
 8707SOL    HW127020   6.439   2.442   0.061
 8707SOL    HW227021   6.349   2.383   6.965
 8708SOL     OW27022   3.992   1.780   2.227
 8708SOL    HW127023   3.926   1.783   2.302
 8708SOL    HW227024   4.000   1.687   2.192
 8709SOL     OW27025   6.852   5.809   6.607
 8709SOL    HW127026   6.769   5.861   6.627
 8709SOL    HW227027   6.921   5.829   6.676
 8710SOL     OW27028   2.220   2.963   3.528
 8710SOL    HW127029   2.201   3.043   3.470
 8710SOL    HW227030   2.234   2.994   3.622
 8711SOL     OW27031   1.226   6.016   2.734
 8711SOL    HW127032   1.198   6.037   2.828
 8711SOL    HW227033   1.258   5.921   2.730
 8712SOL     OW27034   4.300   2.238   4.861
 8712SOL    HW127035   4.393   2.201   4.862
 8712SOL    HW227036   4.290   2.305   4.934
 8713SOL     OW27037   0.678   3.977   3.662
 8713SOL    HW127038   0.694   3.989   3.760
 8713SOL    HW227039   0.658   3.881   3.643
 8714SOL     OW27040   1.036   0.704   6.234
 8714SOL    HW127041   0.977   0.730   6.311
 8714SOL    HW227042   1.128   0.738   6.251
 8715SOL     OW27043   5.103   0.626   0.738
 8715SOL    HW127044   5.125   0.698   0.672
 8715SOL    HW227045   5.057   0.550   0.692
 8716SOL     OW27046   0.958   0.063   0.983
 8716SOL    HW127047   0.885   0.120   1.022
 8716SOL    HW227048   0.971   0.087   0.887
 8717SOL     OW27049   3.770   3.240   3.597
 8717SOL    HW127050   3.852   3.292   3.573
 8717SOL    HW227051   3.750   3.251   3.694
 8718SOL     OW27052   0.390   3.495   4.273
 8718SOL    HW127053   0.488   3.493   4.291
 8718SOL    HW227054   0.345   3.554   4.340
 8719SOL     OW27055   2.217   0.122   6.236
 8719SOL    HW127056   2.161   0.150   6.313
 8719SOL    HW227057   2.240   0.025   6.244
 8720SOL     OW27058   6.389   5.308   5.396
 8720SOL    HW127059   6.338   5.239   5.448
 8720SOL    HW227060   6.331   5.343   5.322
 8721SOL     OW27061   6.570   2.539   3.057
 8721SOL    HW127062   6.549   2.624   3.107
 8721SOL    HW227063   6.669   2.524   3.058
 8722SOL     OW27064   4.108   1.571   6.529
 8722SOL    HW127065   4.131   1.543   6.622
 8722SOL    HW227066   4.035   1.639   6.531
 8723SOL     OW27067   4.669   5.509   1.501
 8723SOL    HW127068   4.594   5.519   1.436
 8723SOL    HW227069   4.632   5.486   1.591
 8724SOL     OW27070   6.069   0.170   6.092
 8724SOL    HW127071   6.106   0.261   6.073
 8724SOL    HW227072   5.989   0.153   6.034
 8725SOL     OW27073   2.229   0.203   6.990
 8725SOL    HW127074   2.199   0.285   0.012
 8725SOL    HW227075   2.152   0.139   6.982
 8726SOL     OW27076   6.049   0.072   1.755
 8726SOL    HW127077   6.088   0.083   1.847
 8726SOL    HW227078   6.119   0.088   1.686
 8727SOL     OW27079   6.839   6.663   2.079
 8727SOL    HW127080   6.756   6.692   2.127
 8727SOL    HW227081   6.816   6.643   1.984
 8728SOL     OW27082   4.025   0.544   4.229
 8728SOL    HW127083   3.953   0.516   4.292
 8728SOL    HW227084   3.996   0.625   4.179
 8729SOL     OW27085   4.741   5.921   3.739
 8729SOL    HW127086   4.736   6.013   3.700
 8729SOL    HW227087   4.760   5.927   3.837
 8730SOL     OW27088   6.177   4.342   2.349
 8730SOL    HW127089   6.274   4.354   2.332
 8730SOL    HW227090   6.128   4.427   2.325
 8731SOL     OW27091   1.543   2.465   2.776
 8731SOL    HW127092   1.629   2.512   2.754
 8731SOL    HW227093   1.563   2.380   2.823
 8732SOL     OW27094   5.621   4.227   1.871
 8732SOL    HW127095   5.595   4.323   1.860
 8732SOL    HW227096   5.592   4.194   1.961
 8733SOL     OW27097   1.855   5.548   2.047
 8733SOL    HW127098   1.793   5.519   1.974
 8733SOL    HW227099   1.813   5.528   2.136
 8734SOL     OW27100   0.812   4.190   2.094
 8734SOL    HW127101   0.889   4.249   2.120
 8734SOL    HW227102   0.832   4.144   2.008
 8735SOL     OW27103   1.219   1.754   6.961
 8735SOL    HW127104   1.316   1.777   6.976
 8735SOL    HW227105   1.164   1.838   6.962
 8736SOL     OW27106   0.728   6.250   5.790
 8736SOL    HW127107   0.713   6.290   5.699
 8736SOL    HW227108   0.757   6.321   5.853
 8737SOL     OW27109   2.578   6.427   5.848
 8737SOL    HW127110   2.650   6.386   5.905
 8737SOL    HW227111   2.540   6.507   5.895
 8738SOL     OW27112   2.255   5.458   4.633
 8738SOL    HW127113   2.298   5.513   4.704
 8738SOL    HW227114   2.176   5.410   4.671
 8739SOL     OW27115   5.890   5.428   6.380
 8739SOL    HW127116   5.980   5.458   6.350
 8739SOL    HW227117   5.897   5.389   6.471
 8740SOL     OW27118   4.903   0.766   5.226
 8740SOL    HW127119   4.819   0.810   5.258
 8740SOL    HW227120   4.905   0.766   5.126
 8741SOL     OW27121   2.470   1.021   1.815
 8741SOL    HW127122   2.428   0.936   1.848
 8741SOL    HW227123   2.445   1.034   1.719
 8742SOL     OW27124   5.939   6.192   1.582
 8742SOL    HW127125   6.013   6.213   1.518
 8742SOL    HW227126   5.852   6.190   1.532
 8743SOL     OW27127   1.713   0.423   2.446
 8743SOL    HW127128   1.688   0.388   2.536
 8743SOL    HW227129   1.756   0.351   2.392
 8744SOL     OW27130   3.814   2.687   5.878
 8744SOL    HW127131   3.912   2.709   5.874
 8744SOL    HW227132   3.795   2.636   5.962
 8745SOL     OW27133   6.380   3.105   6.159
 8745SOL    HW127134   6.430   3.024   6.188
 8745SOL    HW227135   6.380   3.111   6.059
 8746SOL     OW27136   4.837   3.842   5.214
 8746SOL    HW127137   4.813   3.764   5.156
 8746SOL    HW227138   4.929   3.830   5.250
 8747SOL     OW27139   6.993   2.298   2.620
 8747SOL    HW127140   0.057   2.321   2.656
 8747SOL    HW227141   6.972   2.358   2.543
 8748SOL     OW27142   0.336   1.493   5.827
 8748SOL    HW127143   0.281   1.572   5.853
 8748SOL    HW227144   0.277   1.412   5.822
 8749SOL     OW27145   2.601   0.330   6.429
 8749SOL    HW127146   2.581   0.428   6.419
 8749SOL    HW227147   2.638   0.295   6.343
 8750SOL     OW27148   3.093   3.594   5.672
 8750SOL    HW127149   3.128   3.517   5.725
 8750SOL    HW227150   3.030   3.560   5.602
 8751SOL     OW27151   6.575   0.262   2.693
 8751SOL    HW127152   6.564   0.325   2.769
 8751SOL    HW227153   6.500   0.273   2.628
 8752SOL     OW27154   2.670   4.927   6.937
 8752SOL    HW127155   2.742   4.971   6.990
 8752SOL    HW227156   2.669   4.964   6.844
 8753SOL     OW27157   4.906   1.664   5.183
 8753SOL    HW127158   4.993   1.706   5.157
 8753SOL    HW227159   4.887   1.586   5.124
 8754SOL     OW27160   1.208   2.317   4.995
 8754SOL    HW127161   1.168   2.397   4.951
 8754SOL    HW227162   1.252   2.259   4.926
 8755SOL     OW27163   2.669   0.918   6.783
 8755SOL    HW127164   2.617   0.902   6.699
 8755SOL    HW227165   2.726   1.000   6.772
 8756SOL     OW27166   2.197   2.963   3.233
 8756SOL    HW127167   2.157   3.009   3.312
 8756SOL    HW227168   2.158   2.871   3.225
 8757SOL     OW27169   5.165   6.557   5.767
 8757SOL    HW127170   5.141   6.587   5.674
 8757SOL    HW227171   5.107   6.479   5.793
 8758SOL     OW27172   4.430   6.703   1.911
 8758SOL    HW127173   4.526   6.702   1.940
 8758SOL    HW227174   4.378   6.637   1.965
 8759SOL     OW27175   3.675   2.254   0.403
 8759SOL    HW127176   3.664   2.323   0.474
 8759SOL    HW227177   3.597   2.256   0.341
 8760SOL     OW27178   1.562   1.654   5.296
 8760SOL    HW127179   1.508   1.651   5.212
 8760SOL    HW227180   1.568   1.562   5.334
 8761SOL     OW27181   4.389   1.537   1.876
 8761SOL    HW127182   4.338   1.453   1.891
 8761SOL    HW227183   4.343   1.592   1.806
 8762SOL     OW27184   0.586   4.423   2.051
 8762SOL    HW127185   0.604   4.340   1.999
 8762SOL    HW227186   0.626   4.501   2.003
 8763SOL     OW27187   6.001   6.045   5.801
 8763SOL    HW127188   6.006   6.066   5.899
 8763SOL    HW227189   6.021   6.127   5.748
 8764SOL     OW27190   5.084   0.938   4.433
 8764SOL    HW127191   4.985   0.949   4.423
 8764SOL    HW227192   5.125   0.925   4.343
 8765SOL     OW27193   6.287   6.259   5.157
 8765SOL    HW127194   6.187   6.257   5.155
 8765SOL    HW227195   6.323   6.211   5.077
 8766SOL     OW27196   4.216   4.677   3.196
 8766SOL    HW127197   4.125   4.690   3.236
 8766SOL    HW227198   4.281   4.740   3.239
 8767SOL     OW27199   4.073   6.740   3.450
 8767SOL    HW127200   4.133   6.752   3.529
 8767SOL    HW227201   4.068   6.826   3.399
 8768SOL     OW27202   1.045   3.072   0.821
 8768SOL    HW127203   1.048   3.162   0.864
 8768SOL    HW227204   1.109   3.069   0.744
 8769SOL     OW27205   1.823   6.784   4.296
 8769SOL    HW127206   1.829   6.720   4.220
 8769SOL    HW227207   1.797   6.874   4.263
 8770SOL     OW27208   5.580   3.808   2.080
 8770SOL    HW127209   5.553   3.794   2.176
 8770SOL    HW227210   5.679   3.799   2.072
 8771SOL     OW27211   0.655   0.281   5.919
 8771SOL    HW127212   0.565   0.238   5.925
 8771SOL    HW227213   0.671   0.338   6.000
 8772SOL     OW27214   5.567   6.596   6.603
 8772SOL    HW127215   5.649   6.653   6.610
 8772SOL    HW227216   5.544   6.558   6.692
 8773SOL     OW27217   4.525   2.194   4.009
 8773SOL    HW127218   4.507   2.245   3.925
 8773SOL    HW227219   4.544   2.258   4.084
 8774SOL     OW27220   1.994   2.010   0.149
 8774SOL    HW127221   1.997   1.958   0.235
 8774SOL    HW227222   1.900   2.014   0.117
 8775SOL     OW27223   6.545   0.110   5.157
 8775SOL    HW127224   6.462   0.089   5.105
 8775SOL    HW227225   6.603   0.171   5.105
 8776SOL     OW27226   3.615   3.818   4.494
 8776SOL    HW127227   3.639   3.812   4.397
 8776SOL    HW227228   3.531   3.766   4.510
 8777SOL     OW27229   0.237   4.098   1.220
 8777SOL    HW127230   0.167   4.168   1.236
 8777SOL    HW227231   0.267   4.060   1.308
 8778SOL     OW27232   6.180   1.937   4.716
 8778SOL    HW127233   6.233   1.867   4.763
 8778SOL    HW227234   6.164   1.909   4.621
 8779SOL     OW27235   2.928   5.254   2.021
 8779SOL    HW127236   3.002   5.319   2.005
 8779SOL    HW227237   2.902   5.212   1.935
 8780SOL     OW27238   1.126   5.079   3.205
 8780SOL    HW127239   1.158   5.034   3.122
 8780SOL    HW227240   1.028   5.097   3.198
 8781SOL     OW27241   6.405   1.664   3.933
 8781SOL    HW127242   6.482   1.671   3.996
 8781SOL    HW227243   6.326   1.625   3.980
 8782SOL     OW27244   5.051   6.916   1.949
 8782SOL    HW127245   4.998   7.001   1.952
 8782SOL    HW227246   4.997   6.841   1.988
 8783SOL     OW27247   6.622   3.896   3.396
 8783SOL    HW127248   6.676   3.837   3.456
 8783SOL    HW227249   6.529   3.906   3.432
 8784SOL     OW27250   5.913   3.950   6.642
 8784SOL    HW127251   5.853   4.029   6.655
 8784SOL    HW227252   5.884   3.900   6.560
 8785SOL     OW27253   6.905   3.557   6.576
 8785SOL    HW127254   6.966   3.599   6.643
 8785SOL    HW227255   6.828   3.515   6.623
 8786SOL     OW27256   2.474   6.632   0.568
 8786SOL    HW127257   2.555   6.605   0.619
 8786SOL    HW227258   2.394   6.586   0.607
 8787SOL     OW27259   2.149   3.034   1.935
 8787SOL    HW127260   2.060   2.987   1.930
 8787SOL    HW227261   2.184   3.048   1.843
 8788SOL     OW27262   0.081   2.504   5.806
 8788SOL    HW127263   0.126   2.538   5.889
 8788SOL    HW227264   7.018   2.548   5.797
 8789SOL     OW27265   6.447   6.705   5.321
 8789SOL    HW127266   6.352   6.696   5.351
 8789SOL    HW227267   6.502   6.635   5.365
 8790SOL     OW27268   0.068   0.879   6.860
 8790SOL    HW127269   0.073   0.962   6.916
 8790SOL    HW227270   0.159   0.841   6.849
 8791SOL     OW27271   5.807   6.810   4.940
 8791SOL    HW127272   5.774   6.716   4.935
 8791SOL    HW227273   5.789   6.856   4.853
 8792SOL     OW27274   3.437   6.059   3.559
 8792SOL    HW127275   3.361   6.033   3.618
 8792SOL    HW227276   3.433   6.008   3.474
 8793SOL     OW27277   0.760   5.465   3.488
 8793SOL    HW127278   0.671   5.425   3.514
 8793SOL    HW227279   0.832   5.398   3.505
 8794SOL     OW27280   4.495   6.952   1.744
 8794SOL    HW127281   4.430   6.991   1.680
 8794SOL    HW227282   4.516   7.019   1.815
 8795SOL     OW27283   1.354   6.708   4.856
 8795SOL    HW127284   1.320   6.689   4.948
 8795SOL    HW227285   1.433   6.768   4.862
 8796SOL     OW27286   4.394   1.287   4.730
 8796SOL    HW127287   4.401   1.341   4.647
 8796SOL    HW227288   4.484   1.280   4.773
 8797SOL     OW27289   1.279   0.128   5.152
 8797SOL    HW127290   1.239   0.038   5.141
 8797SOL    HW227291   1.350   0.125   5.223
 8798SOL     OW27292   4.983   5.143   5.401
 8798SOL    HW127293   4.989   5.112   5.496
 8798SOL    HW227294   5.000   5.065   5.340
 8799SOL     OW27295   2.012   4.303   3.715
 8799SOL    HW127296   2.105   4.290   3.749
 8799SOL    HW227297   2.010   4.382   3.653
 8800SOL     OW27298   6.151   4.362   5.395
 8800SOL    HW127299   6.161   4.294   5.467
 8800SOL    HW227300   6.096   4.439   5.429
 8801SOL     OW27301   0.878   1.528   4.727
 8801SOL    HW127302   0.851   1.493   4.817
 8801SOL    HW227303   0.888   1.628   4.732
 8802SOL     OW27304   1.605   0.329   0.630
 8802SOL    HW127305   1.649   0.296   0.546
 8802SOL    HW227306   1.609   0.429   0.632
 8803SOL     OW27307   0.175   5.078   5.982
 8803SOL    HW127308   0.152   5.020   6.061
 8803SOL    HW227309   0.102   5.072   5.914
 8804SOL     OW27310   3.699   0.392   1.933
 8804SOL    HW127311   3.760   0.313   1.924
 8804SOL    HW227312   3.672   0.402   2.029
 8805SOL     OW27313   2.645   0.074   4.534
 8805SOL    HW127314   2.698   0.008   4.587
 8805SOL    HW227315   2.620   0.034   4.446
 8806SOL     OW27316   2.372   5.254   1.993
 8806SOL    HW127317   2.299   5.320   1.977
 8806SOL    HW227318   2.372   5.227   2.090
 8807SOL     OW27319   5.788   6.853   6.362
 8807SOL    HW127320   5.860   6.922   6.366
 8807SOL    HW227321   5.748   6.852   6.271
 8808SOL     OW27322   5.278   2.248   0.607
 8808SOL    HW127323   5.219   2.328   0.624
 8808SOL    HW227324   5.261   2.214   0.514
 8809SOL     OW27325   4.761   5.037   3.286
 8809SOL    HW127326   4.707   4.974   3.230
 8809SOL    HW227327   4.799   4.987   3.364
 8810SOL     OW27328   5.660   1.060   6.215
 8810SOL    HW127329   5.568   1.062   6.252
 8810SOL    HW227330   5.724   1.100   6.281
 8811SOL     OW27331   2.661   1.670   3.920
 8811SOL    HW127332   2.611   1.740   3.868
 8811SOL    HW227333   2.705   1.712   3.999
 8812SOL     OW27334   1.930   0.104   1.424
 8812SOL    HW127335   1.884   0.027   1.469
 8812SOL    HW227336   2.017   0.122   1.470
 8813SOL     OW27337   1.654   4.432   1.585
 8813SOL    HW127338   1.604   4.478   1.659
 8813SOL    HW227339   1.709   4.358   1.623
 8814SOL     OW27340   5.881   0.794   0.750
 8814SOL    HW127341   5.890   0.818   0.653
 8814SOL    HW227342   5.786   0.772   0.770
 8815SOL     OW27343   6.513   5.988   1.022
 8815SOL    HW127344   6.578   5.973   1.097
 8815SOL    HW227345   6.438   5.923   1.030
 8816SOL     OW27346   1.635   1.005   0.328
 8816SOL    HW127347   1.690   1.007   0.245
 8816SOL    HW227348   1.659   0.925   0.383
 8817SOL     OW27349   1.030   5.780   5.264
 8817SOL    HW127350   1.023   5.744   5.357
 8817SOL    HW227351   1.062   5.875   5.266
 8818SOL     OW27352   0.497   3.204   4.065
 8818SOL    HW127353   0.515   3.270   4.138
 8818SOL    HW227354   0.527   3.113   4.094
 8819SOL     OW27355   4.811   4.993   4.565
 8819SOL    HW127356   4.742   4.931   4.603
 8819SOL    HW227357   4.862   5.035   4.640
 8820SOL     OW27358   2.360   1.544   5.012
 8820SOL    HW127359   2.335   1.639   4.991
 8820SOL    HW227360   2.278   1.487   5.009
 8821SOL     OW27361   2.922   6.484   0.082
 8821SOL    HW127362   2.969   6.425   0.015
 8821SOL    HW227363   2.975   6.486   0.167
 8822SOL     OW27364   0.685   6.965   4.590
 8822SOL    HW127365   0.709   6.886   4.645
 8822SOL    HW227366   0.759   0.005   4.593
 8823SOL     OW27367   2.304   0.759   1.069
 8823SOL    HW127368   2.342   0.797   0.984
 8823SOL    HW227369   2.225   0.702   1.047
 8824SOL     OW27370   0.877   3.216   1.243
 8824SOL    HW127371   0.899   3.119   1.246
 8824SOL    HW227372   0.961   3.269   1.232
 8825SOL     OW27373   1.936   0.381   3.123
 8825SOL    HW127374   1.940   0.469   3.076
 8825SOL    HW227375   1.860   0.381   3.188
 8826SOL     OW27376   6.645   2.912   0.703
 8826SOL    HW127377   6.717   2.893   0.770
 8826SOL    HW227378   6.666   2.997   0.654
 8827SOL     OW27379   3.635   1.058   2.899
 8827SOL    HW127380   3.656   1.015   2.987
 8827SOL    HW227381   3.590   0.991   2.839
 8828SOL     OW27382   4.494   5.300   5.128
 8828SOL    HW127383   4.437   5.221   5.108
 8828SOL    HW227384   4.437   5.381   5.141
 8829SOL     OW27385   7.012   2.084   0.863
 8829SOL    HW127386   7.004   2.050   0.769
 8829SOL    HW227387   6.955   2.165   0.875
 8830SOL     OW27388   0.001   1.668   1.901
 8830SOL    HW127389   0.041   1.748   1.946
 8830SOL    HW227390   7.016   1.687   1.804
 8831SOL     OW27391   5.640   0.902   3.843
 8831SOL    HW127392   5.546   0.870   3.829
 8831SOL    HW227393   5.703   0.826   3.827
 8832SOL     OW27394   6.954   5.898   2.849
 8832SOL    HW127395   6.871   5.888   2.904
 8832SOL    HW227396   6.957   5.826   2.780
 8833SOL     OW27397   2.343   6.402   5.719
 8833SOL    HW127398   2.420   6.395   5.781
 8833SOL    HW227399   2.328   6.314   5.674
 8834SOL     OW27400   5.182   3.254   4.737
 8834SOL    HW127401   5.247   3.179   4.729
 8834SOL    HW227402   5.090   3.217   4.752
 8835SOL     OW27403   5.976   1.144   5.868
 8835SOL    HW127404   5.974   1.142   5.768
 8835SOL    HW227405   5.954   1.235   5.901
 8836SOL     OW27406   4.185   1.974   6.643
 8836SOL    HW127407   4.131   2.047   6.602
 8836SOL    HW227408   4.137   1.936   6.722
 8837SOL     OW27409   6.937   6.307   3.195
 8837SOL    HW127410   7.025   6.299   3.243
 8837SOL    HW227411   6.954   6.340   3.102
 8838SOL     OW27412   2.649   4.877   2.679
 8838SOL    HW127413   2.695   4.953   2.723
 8838SOL    HW227414   2.554   4.873   2.710
 8839SOL     OW27415   5.453   5.034   2.692
 8839SOL    HW127416   5.493   5.059   2.780
 8839SOL    HW227417   5.485   4.943   2.665
 8840SOL     OW27418   6.731   1.870   1.833
 8840SOL    HW127419   6.743   1.928   1.914
 8840SOL    HW227420   6.707   1.927   1.754
 8841SOL     OW27421   1.010   0.034   5.269
 8841SOL    HW127422   0.997   0.107   5.202
 8841SOL    HW227423   0.982   0.065   5.359
 8842SOL     OW27424   3.113   2.752   1.814
 8842SOL    HW127425   3.211   2.764   1.795
 8842SOL    HW227426   3.101   2.678   1.879
 8843SOL     OW27427   1.943   3.381   5.380
 8843SOL    HW127428   1.896   3.448   5.323
 8843SOL    HW227429   1.889   3.297   5.384
 8844SOL     OW27430   6.121   2.291   6.685
 8844SOL    HW127431   6.048   2.355   6.709
 8844SOL    HW227432   6.204   2.343   6.663
 8845SOL     OW27433   4.585   3.959   6.904
 8845SOL    HW127434   4.565   3.951   7.002
 8845SOL    HW227435   4.605   3.868   6.867
 8846SOL     OW27436   3.279   5.458   3.401
 8846SOL    HW127437   3.245   5.396   3.472
 8846SOL    HW227438   3.214   5.461   3.325
 8847SOL     OW27439   2.768   1.768   2.704
 8847SOL    HW127440   2.701   1.742   2.773
 8847SOL    HW227441   2.855   1.789   2.748
 8848SOL     OW27442   2.460   0.332   1.895
 8848SOL    HW127443   2.447   0.235   1.877
 8848SOL    HW227444   2.492   0.345   1.989
 8849SOL     OW27445   3.803   5.770   2.774
 8849SOL    HW127446   3.795   5.747   2.871
 8849SOL    HW227447   3.896   5.751   2.743
 8850SOL     OW27448   1.394   2.321   0.632
 8850SOL    HW127449   1.359   2.361   0.547
 8850SOL    HW227450   1.320   2.312   0.697
 8851SOL     OW27451   1.428   3.926   2.746
 8851SOL    HW127452   1.459   4.001   2.804
 8851SOL    HW227453   1.394   3.962   2.659
 8852SOL     OW27454   0.493   2.150   4.891
 8852SOL    HW127455   0.585   2.122   4.863
 8852SOL    HW227456   0.487   2.250   4.889
 8853SOL     OW27457   2.752   0.670   1.707
 8853SOL    HW127458   2.780   0.596   1.645
 8853SOL    HW227459   2.797   0.659   1.795
 8854SOL     OW27460   1.917   2.995   5.180
 8854SOL    HW127461   2.015   3.009   5.168
 8854SOL    HW227462   1.872   2.991   5.091
 8855SOL     OW27463   6.583   5.013   1.215
 8855SOL    HW127464   6.681   4.999   1.201
 8855SOL    HW227465   6.565   5.110   1.228
 8856SOL     OW27466   0.951   6.419   6.109
 8856SOL    HW127467   1.011   6.363   6.051
 8856SOL    HW227468   0.860   6.424   6.068
 8857SOL     OW27469   6.569   1.622   4.148
 8857SOL    HW127470   6.530   1.679   4.220
 8857SOL    HW227471   6.605   1.537   4.187
 8858SOL     OW27472   0.162   4.292   4.406
 8858SOL    HW127473   0.261   4.288   4.418
 8858SOL    HW227474   0.136   4.243   4.322
 8859SOL     OW27475   1.048   1.325   4.088
 8859SOL    HW127476   1.015   1.367   4.004
 8859SOL    HW227477   0.974   1.273   4.131
 8860SOL     OW27478   6.797   2.240   1.678
 8860SOL    HW127479   6.841   2.289   1.752
 8860SOL    HW227480   6.842   2.262   1.591
 8861SOL     OW27481   4.073   1.226   6.108
 8861SOL    HW127482   4.021   1.312   6.102
 8861SOL    HW227483   4.170   1.247   6.124
 8862SOL     OW27484   5.743   6.937   3.971
 8862SOL    HW127485   5.830   6.933   3.922
 8862SOL    HW227486   5.673   6.890   3.918
 8863SOL     OW27487   2.785   4.782   3.528
 8863SOL    HW127488   2.695   4.739   3.526
 8863SOL    HW227489   2.829   4.773   3.439
 8864SOL     OW27490   3.562   4.411   6.384
 8864SOL    HW127491   3.517   4.499   6.366
 8864SOL    HW227492   3.504   4.337   6.349
 8865SOL     OW27493   3.304   0.725   4.318
 8865SOL    HW127494   3.368   0.761   4.250
 8865SOL    HW227495   3.216   0.771   4.308
 8866SOL     OW27496   5.866   6.726   2.782
 8866SOL    HW127497   5.932   6.696   2.714
 8866SOL    HW227498   5.878   6.673   2.866
 8867SOL     OW27499   5.801   4.613   3.550
 8867SOL    HW127500   5.760   4.573   3.631
 8867SOL    HW227501   5.900   4.623   3.564
 8868SOL     OW27502   6.819   3.162   2.351
 8868SOL    HW127503   6.798   3.064   2.348
 8868SOL    HW227504   6.895   3.178   2.415
 8869SOL     OW27505   4.322   6.085   5.575
 8869SOL    HW127506   4.244   6.032   5.542
 8869SOL    HW227507   4.393   6.088   5.504
 8870SOL     OW27508   2.276   6.719   2.143
 8870SOL    HW127509   2.187   6.755   2.115
 8870SOL    HW227510   2.348   6.771   2.096
 8871SOL     OW27511   2.303   0.246   3.297
 8871SOL    HW127512   2.254   0.167   3.334
 8871SOL    HW227513   2.249   0.329   3.313
 8872SOL     OW27514   1.160   4.994   5.957
 8872SOL    HW127515   1.154   5.089   5.924
 8872SOL    HW227516   1.255   4.964   5.956
 8873SOL     OW27517   2.204   0.152   2.529
 8873SOL    HW127518   2.169   0.145   2.623
 8873SOL    HW227519   2.145   0.100   2.468
 8874SOL     OW27520   1.883   5.768   2.529
 8874SOL    HW127521   1.869   5.757   2.628
 8874SOL    HW227522   1.820   5.837   2.494
 8875SOL     OW27523   6.873   3.605   4.439
 8875SOL    HW127524   6.961   3.652   4.448
 8875SOL    HW227525   6.799   3.671   4.450
 8876SOL     OW27526   2.652   1.000   6.290
 8876SOL    HW127527   2.739   1.003   6.241
 8876SOL    HW227528   2.663   0.949   6.375
 8877SOL     OW27529   2.132   2.477   3.745
 8877SOL    HW127530   2.073   2.552   3.718
 8877SOL    HW227531   2.192   2.452   3.668
 8878SOL     OW27532   3.219   5.205   1.613
 8878SOL    HW127533   3.231   5.110   1.586
 8878SOL    HW227534   3.308   5.245   1.633
 8879SOL     OW27535   4.880   4.886   2.328
 8879SOL    HW127536   4.873   4.889   2.427
 8879SOL    HW227537   4.833   4.965   2.288
 8880SOL     OW27538   4.010   6.663   5.105
 8880SOL    HW127539   4.059   6.579   5.085
 8880SOL    HW227540   3.966   6.656   5.195
 8881SOL     OW27541   5.361   5.771   4.187
 8881SOL    HW127542   5.280   5.828   4.186
 8881SOL    HW227543   5.339   5.680   4.151
 8882SOL     OW27544   4.610   1.059   1.296
 8882SOL    HW127545   4.627   1.092   1.203
 8882SOL    HW227546   4.681   1.096   1.357
 8883SOL     OW27547   1.613   6.519   6.013
 8883SOL    HW127548   1.649   6.512   5.920
 8883SOL    HW227549   1.554   6.600   6.019
 8884SOL     OW27550   6.164   3.834   5.930
 8884SOL    HW127551   6.168   3.799   5.836
 8884SOL    HW227552   6.204   3.926   5.933
 8885SOL     OW27553   4.727   4.862   1.213
 8885SOL    HW127554   4.733   4.814   1.300
 8885SOL    HW227555   4.811   4.847   1.161
 8886SOL     OW27556   3.199   5.755   6.010
 8886SOL    HW127557   3.287   5.737   5.965
 8886SOL    HW227558   3.150   5.669   6.022
 8887SOL     OW27559   3.985   0.550   0.856
 8887SOL    HW127560   4.028   0.633   0.893
 8887SOL    HW227561   4.046   0.472   0.868
 8888SOL     OW27562   2.153   1.784   4.649
 8888SOL    HW127563   2.194   1.848   4.715
 8888SOL    HW227564   2.204   1.789   4.564
 8889SOL     OW27565   6.872   6.739   6.906
 8889SOL    HW127566   6.821   6.796   6.842
 8889SOL    HW227567   6.931   6.796   6.963
 8890SOL     OW27568   0.649   6.020   5.971
 8890SOL    HW127569   0.739   6.058   5.992
 8890SOL    HW227570   0.586   6.043   6.046
 8891SOL     OW27571   4.078   4.473   0.572
 8891SOL    HW127572   4.032   4.462   0.660
 8891SOL    HW227573   4.089   4.570   0.552
 8892SOL     OW27574   3.442   4.939   3.494
 8892SOL    HW127575   3.473   4.914   3.586
 8892SOL    HW227576   3.443   5.039   3.485
 8893SOL     OW27577   1.291   5.275   4.685
 8893SOL    HW127578   1.297   5.374   4.703
 8893SOL    HW227579   1.202   5.254   4.646
 8894SOL     OW27580   3.174   1.869   6.595
 8894SOL    HW127581   3.172   1.817   6.510
 8894SOL    HW227582   3.136   1.814   6.669
 8895SOL     OW27583   6.876   2.297   1.420
 8895SOL    HW127584   6.836   2.351   1.346
 8895SOL    HW227585   6.971   2.276   1.398
 8896SOL     OW27586   2.003   3.340   4.530
 8896SOL    HW127587   2.039   3.433   4.532
 8896SOL    HW227588   2.026   3.294   4.615
 8897SOL     OW27589   2.224   2.270   3.941
 8897SOL    HW127590   2.170   2.323   3.876
 8897SOL    HW227591   2.192   2.289   4.034
 8898SOL     OW27592   5.354   3.452   2.132
 8898SOL    HW127593   5.324   3.530   2.077
 8898SOL    HW227594   5.360   3.371   2.073
 8899SOL     OW27595   1.510   4.790   0.205
 8899SOL    HW127596   1.604   4.822   0.214
 8899SOL    HW227597   1.499   4.705   0.256
 8900SOL     OW27598   5.138   3.039   3.253
 8900SOL    HW127599   5.107   3.055   3.159
 8900SOL    HW227600   5.062   3.052   3.316
 8901SOL     OW27601   0.602   1.191   4.231
 8901SOL    HW127602   0.522   1.156   4.183
 8901SOL    HW227603   0.645   1.117   4.283
 8902SOL     OW27604   1.310   5.636   0.074
 8902SOL    HW127605   1.409   5.628   0.086
 8902SOL    HW227606   1.281   5.729   0.097
 8903SOL     OW27607   0.740   2.047   4.424
 8903SOL    HW127608   0.736   2.125   4.362
 8903SOL    HW227609   0.809   2.064   4.494
 8904SOL     OW27610   0.504   1.580   4.510
 8904SOL    HW127611   0.509   1.611   4.416
 8904SOL    HW227612   0.542   1.487   4.516
 8905SOL     OW27613   1.941   2.960   2.655
 8905SOL    HW127614   1.982   2.872   2.681
 8905SOL    HW227615   1.885   2.994   2.731
 8906SOL     OW27616   1.400   6.263   1.018
 8906SOL    HW127617   1.440   6.215   0.940
 8906SOL    HW227618   1.370   6.354   0.989
 8907SOL     OW27619   3.357   2.624   5.771
 8907SOL    HW127620   3.409   2.667   5.697
 8907SOL    HW227621   3.302   2.549   5.735
 8908SOL     OW27622   1.918   5.603   0.151
 8908SOL    HW127623   1.957   5.688   0.186
 8908SOL    HW227624   1.916   5.535   0.224
 8909SOL     OW27625   3.005   1.254   6.027
 8909SOL    HW127626   3.035   1.306   6.107
 8909SOL    HW227627   2.975   1.163   6.056
 8910SOL     OW27628   0.556   2.959   5.142
 8910SOL    HW127629   0.628   2.932   5.077
 8910SOL    HW227630   0.473   2.907   5.124
 8911SOL     OW27631   5.067   3.671   4.943
 8911SOL    HW127632   4.969   3.658   4.935
 8911SOL    HW227633   5.114   3.583   4.931
 8912SOL     OW27634   2.238   3.370   6.077
 8912SOL    HW127635   2.180   3.445   6.109
 8912SOL    HW227636   2.272   3.319   6.156
 8913SOL     OW27637   4.148   5.445   6.556
 8913SOL    HW127638   4.237   5.444   6.600
 8913SOL    HW227639   4.137   5.363   6.500
 8914SOL     OW27640   4.761   6.909   4.255
 8914SOL    HW127641   4.859   6.901   4.274
 8914SOL    HW227642   4.725   6.992   4.299
 8915SOL     OW27643   1.388   2.125   4.091
 8915SOL    HW127644   1.480   2.100   4.062
 8915SOL    HW227645   1.380   2.116   4.190
 8916SOL     OW27646   6.870   2.638   6.905
 8916SOL    HW127647   6.959   2.598   6.885
 8916SOL    HW227648   6.800   2.566   6.906
 8917SOL     OW27649   5.524   2.565   1.074
 8917SOL    HW127650   5.482   2.482   1.037
 8917SOL    HW227651   5.454   2.634   1.089
 8918SOL     OW27652   1.026   4.902   0.530
 8918SOL    HW127653   0.988   4.980   0.481
 8918SOL    HW227654   0.956   4.832   0.541
 8919SOL     OW27655   5.167   4.553   6.867
 8919SOL    HW127656   5.247   4.605   6.835
 8919SOL    HW227657   5.083   4.597   6.835
 8920SOL     OW27658   0.283   2.285   0.209
 8920SOL    HW127659   0.216   2.253   0.142
 8920SOL    HW227660   0.353   2.339   0.163
 8921SOL     OW27661   1.588   2.802   2.623
 8921SOL    HW127662   1.633   2.840   2.542
 8921SOL    HW227663   1.654   2.748   2.676
 8922SOL     OW27664   3.915   5.753   2.279
 8922SOL    HW127665   3.973   5.721   2.204
 8922SOL    HW227666   3.937   5.703   2.362
 8923SOL     OW27667   1.714   1.071   6.684
 8923SOL    HW127668   1.780   1.061   6.759
 8923SOL    HW227669   1.735   1.154   6.632
 8924SOL     OW27670   4.113   5.457   5.211
 8924SOL    HW127671   4.072   5.489   5.126
 8924SOL    HW227672   4.098   5.359   5.221
 8925SOL     OW27673   0.341   1.019   2.428
 8925SOL    HW127674   0.410   1.052   2.492
 8925SOL    HW227675   0.336   1.081   2.350
 8926SOL     OW27676   6.930   3.250   5.154
 8926SOL    HW127677   6.956   3.168   5.204
 8926SOL    HW227678   7.009   3.311   5.147
 8927SOL     OW27679   6.254   1.384   4.423
 8927SOL    HW127680   6.331   1.407   4.483
 8927SOL    HW227681   6.281   1.312   4.360
 8928SOL     OW27682   1.446   0.362   6.225
 8928SOL    HW127683   1.404   0.422   6.293
 8928SOL    HW227684   1.537   0.336   6.255
 8929SOL     OW27685   5.667   2.052   5.338
 8929SOL    HW127686   5.732   2.068   5.264
 8929SOL    HW227687   5.710   2.075   5.426
 8930SOL     OW27688   0.995   2.628   3.443
 8930SOL    HW127689   0.954   2.572   3.370
 8930SOL    HW227690   0.972   2.588   3.532
 8931SOL     OW27691   3.088   3.962   1.377
 8931SOL    HW127692   3.075   3.911   1.462
 8931SOL    HW227693   3.000   4.000   1.348
 8932SOL     OW27694   6.055   2.171   2.542
 8932SOL    HW127695   6.050   2.078   2.576
 8932SOL    HW227696   6.149   2.205   2.547
 8933SOL     OW27697   2.637   2.568   6.394
 8933SOL    HW127698   2.552   2.569   6.342
 8933SOL    HW227699   2.707   2.619   6.345
 8934SOL     OW27700   2.854   5.190   4.894
 8934SOL    HW127701   2.904   5.187   4.981
 8934SOL    HW227702   2.814   5.100   4.876
 8935SOL     OW27703   0.368   4.293   0.311
 8935SOL    HW127704   0.336   4.312   0.404
 8935SOL    HW227705   0.325   4.357   0.247
 8936SOL     OW27706   1.729   4.188   1.702
 8936SOL    HW127707   1.676   4.128   1.643
 8936SOL    HW227708   1.740   4.146   1.792
 8937SOL     OW27709   0.213   0.520   5.805
 8937SOL    HW127710   0.280   0.505   5.731
 8937SOL    HW227711   0.149   0.443   5.807
 8938SOL     OW27712   0.252   5.655   0.927
 8938SOL    HW127713   0.174   5.644   0.988
 8938SOL    HW227714   0.227   5.717   0.852
 8939SOL     OW27715   4.838   2.929   4.003
 8939SOL    HW127716   4.896   2.850   4.025
 8939SOL    HW227717   4.788   2.911   3.918
 8940SOL     OW27718   0.266   1.230   2.838
 8940SOL    HW127719   0.338   1.184   2.890
 8940SOL    HW227720   0.208   1.162   2.794
 8941SOL     OW27721   6.233   2.630   5.449
 8941SOL    HW127722   6.225   2.676   5.538
 8941SOL    HW227723   6.159   2.662   5.389
 8942SOL     OW27724   6.692   4.574   5.117
 8942SOL    HW127725   6.725   4.625   5.196
 8942SOL    HW227726   6.751   4.593   5.038
 8943SOL     OW27727   3.809   4.343   6.317
 8943SOL    HW127728   3.711   4.356   6.335
 8943SOL    HW227729   3.862   4.374   6.395
 8944SOL     OW27730   5.493   4.763   5.302
 8944SOL    HW127731   5.462   4.699   5.372
 8944SOL    HW227732   5.433   4.756   5.222
 8945SOL     OW27733   1.060   0.612   3.194
 8945SOL    HW127734   1.015   0.576   3.112
 8945SOL    HW227735   1.058   0.544   3.267
 8946SOL     OW27736   3.066   0.911   5.207
 8946SOL    HW127737   3.054   0.886   5.111
 8946SOL    HW227738   3.134   0.984   5.214
 8947SOL     OW27739   2.109   3.406   4.772
 8947SOL    HW127740   2.202   3.372   4.765
 8947SOL    HW227741   2.098   3.458   4.857
 8948SOL     OW27742   6.698   6.807   4.221
 8948SOL    HW127743   6.739   6.763   4.301
 8948SOL    HW227744   6.743   6.773   4.138
 8949SOL     OW27745   2.607   0.020   1.088
 8949SOL    HW127746   2.566   0.026   0.997
 8949SOL    HW227747   2.546   6.996   1.149
 8950SOL     OW27748   4.741   3.719   6.283
 8950SOL    HW127749   4.729   3.784   6.358
 8950SOL    HW227750   4.808   3.755   6.218
 8951SOL     OW27751   0.426   1.956   5.357
 8951SOL    HW127752   0.482   1.904   5.421
 8951SOL    HW227753   0.481   1.979   5.277
 8952SOL     OW27754   1.399   6.804   2.411
 8952SOL    HW127755   1.384   6.759   2.499
 8952SOL    HW227756   1.341   6.885   2.404
 8953SOL     OW27757   1.362   4.323   6.589
 8953SOL    HW127758   1.300   4.254   6.626
 8953SOL    HW227759   1.456   4.300   6.616
 8954SOL     OW27760   1.409   6.996   6.025
 8954SOL    HW127761   1.408   6.902   5.993
 8954SOL    HW227762   1.316   0.006   6.023
 8955SOL     OW27763   0.413   5.088   2.500
 8955SOL    HW127764   0.392   4.991   2.513
 8955SOL    HW227765   0.506   5.097   2.463
 8956SOL     OW27766   0.830   1.641   6.797
 8956SOL    HW127767   0.910   1.647   6.737
 8956SOL    HW227768   0.751   1.680   6.751
 8957SOL     OW27769   3.017   4.209   1.743
 8957SOL    HW127770   3.090   4.239   1.681
 8957SOL    HW227771   2.995   4.283   1.806
 8958SOL     OW27772   0.401   0.358   4.766
 8958SOL    HW127773   0.398   0.264   4.732
 8958SOL    HW227774   0.314   0.403   4.747
 8959SOL     OW27775   1.493   4.559   1.772
 8959SOL    HW127776   1.504   4.501   1.853
 8959SOL    HW227777   1.463   4.650   1.800
 8960SOL     OW27778   4.694   5.490   2.770
 8960SOL    HW127779   4.642   5.522   2.690
 8960SOL    HW227780   4.640   5.421   2.819
 8961SOL     OW27781   2.777   1.769   4.551
 8961SOL    HW127782   2.835   1.710   4.494
 8961SOL    HW227783   2.681   1.754   4.527
 8962SOL     OW27784   6.564   6.717   2.152
 8962SOL    HW127785   6.513   6.631   2.146
 8962SOL    HW227786   6.538   6.776   2.076
 8963SOL     OW27787   5.095   6.674   4.015
 8963SOL    HW127788   5.087   6.574   4.014
 8963SOL    HW227789   5.011   6.714   3.978
 8964SOL     OW27790   5.189   3.472   3.373
 8964SOL    HW127791   5.129   3.448   3.296
 8964SOL    HW227792   5.196   3.571   3.380
 8965SOL     OW27793   2.249   4.716   0.632
 8965SOL    HW127794   2.259   4.724   0.533
 8965SOL    HW227795   2.312   4.647   0.667
 8966SOL     OW27796   0.058   4.356   6.049
 8966SOL    HW127797   0.094   4.381   5.959
 8966SOL    HW227798   0.012   4.267   6.043
 8967SOL     OW27799   3.411   6.891   2.195
 8967SOL    HW127800   3.371   6.982   2.200
 8967SOL    HW227801   3.344   6.823   2.225
 8968SOL     OW27802   5.141   4.925   3.024
 8968SOL    HW127803   5.112   4.991   3.094
 8968SOL    HW227804   5.139   4.833   3.062
 8969SOL     OW27805   6.962   1.075   4.305
 8969SOL    HW127806   6.916   1.097   4.219
 8969SOL    HW227807   0.028   1.043   4.286
 8970SOL     OW27808   2.467   3.245   6.996
 8970SOL    HW127809   2.514   3.333   6.989
 8970SOL    HW227810   2.428   3.235   0.061
 8971SOL     OW27811   5.164   5.164   2.446
 8971SOL    HW127812   5.255   5.129   2.466
 8971SOL    HW227813   5.152   5.173   2.347
 8972SOL     OW27814   4.717   4.420   6.790
 8972SOL    HW127815   4.624   4.387   6.774
 8972SOL    HW227816   4.713   4.513   6.828
 8973SOL     OW27817   1.154   3.326   2.171
 8973SOL    HW127818   1.233   3.340   2.231
 8973SOL    HW227819   1.126   3.230   2.175
 8974SOL     OW27820   1.416   4.564   5.632
 8974SOL    HW127821   1.454   4.478   5.596
 8974SOL    HW227822   1.404   4.556   5.731
 8975SOL     OW27823   2.282   0.369   6.553
 8975SOL    HW127824   2.225   0.291   6.577
 8975SOL    HW227825   2.266   0.443   6.618
 8976SOL     OW27826   0.117   4.812   4.839
 8976SOL    HW127827   0.106   4.790   4.936
 8976SOL    HW227828   0.027   4.822   4.796
 8977SOL     OW27829   5.564   1.903   6.909
 8977SOL    HW127830   5.556   1.923   7.006
 8977SOL    HW227831   5.659   1.881   6.888
 8978SOL     OW27832   5.849   0.174   5.953
 8978SOL    HW127833   5.824   0.271   5.958
 8978SOL    HW227834   5.767   0.118   5.962
 8979SOL     OW27835   1.228   2.935   4.718
 8979SOL    HW127836   1.278   2.849   4.729
 8979SOL    HW227837   1.130   2.915   4.707
 8980SOL     OW27838   2.405   3.035   5.499
 8980SOL    HW127839   2.463   3.087   5.562
 8980SOL    HW227840   2.448   3.030   5.409
 8981SOL     OW27841   4.420   2.029   5.339
 8981SOL    HW127842   4.472   1.944   5.332
 8981SOL    HW227843   4.468   2.102   5.290
 8982SOL     OW27844   1.376   1.930   0.767
 8982SOL    HW127845   1.300   1.911   0.829
 8982SOL    HW227846   1.346   1.992   0.694
 8983SOL     OW27847   1.941   6.166   7.009
 8983SOL    HW127848   1.865   6.104   0.003
 8983SOL    HW227849   2.024   6.133   0.028
 8984SOL     OW27850   0.450   0.330   4.378
 8984SOL    HW127851   0.511   0.383   4.320
 8984SOL    HW227852   0.357   0.332   4.340
 8985SOL     OW27853   2.479   3.677   0.770
 8985SOL    HW127854   2.558   3.738   0.779
 8985SOL    HW227855   2.480   3.611   0.845
 8986SOL     OW27856   4.900   5.341   2.407
 8986SOL    HW127857   4.937   5.344   2.500
 8986SOL    HW227858   4.832   5.268   2.400
 8987SOL     OW27859   4.495   0.315   1.118
 8987SOL    HW127860   4.444   0.229   1.128
 8987SOL    HW227861   4.580   0.297   1.068
 8988SOL     OW27862   1.283   3.944   4.900
 8988SOL    HW127863   1.354   3.984   4.957
 8988SOL    HW227864   1.307   3.956   4.803
 8989SOL     OW27865   4.960   3.892   0.648
 8989SOL    HW127866   4.967   3.833   0.568
 8989SOL    HW227867   5.052   3.911   0.682
 8990SOL     OW27868   1.670   6.044   3.943
 8990SOL    HW127869   1.630   5.957   3.912
 8990SOL    HW227870   1.757   6.025   3.990
 8991SOL     OW27871   1.824   2.399   5.384
 8991SOL    HW127872   1.792   2.305   5.372
 8991SOL    HW227873   1.823   2.446   5.295
 8992SOL     OW27874   5.508   1.280   0.029
 8992SOL    HW127875   5.444   1.259   0.102
 8992SOL    HW227876   5.475   1.241   6.970
 8993SOL     OW27877   5.475   2.248   1.830
 8993SOL    HW127878   5.531   2.214   1.905
 8993SOL    HW227879   5.462   2.176   1.762
 8994SOL     OW27880   0.858   4.296   4.627
 8994SOL    HW127881   0.904   4.368   4.574
 8994SOL    HW227882   0.779   4.335   4.673
 8995SOL     OW27883   1.217   2.503   0.210
 8995SOL    HW127884   1.294   2.560   0.180
 8995SOL    HW227885   1.160   2.555   0.274
 8996SOL     OW27886   5.662   5.259   0.444
 8996SOL    HW127887   5.717   5.303   0.515
 8996SOL    HW227888   5.579   5.312   0.429
 8997SOL     OW27889   5.180   1.427   6.094
 8997SOL    HW127890   5.254   1.381   6.045
 8997SOL    HW227891   5.185   1.404   6.192
 8998SOL     OW27892   5.913   3.256   3.891
 8998SOL    HW127893   5.985   3.188   3.905
 8998SOL    HW227894   5.824   3.216   3.913
 8999SOL     OW27895   4.414   6.019   6.356
 8999SOL    HW127896   4.360   5.998   6.275
 8999SOL    HW227897   4.507   6.044   6.329
 9000SOL     OW27898   1.492   3.741   1.421
 9000SOL    HW127899   1.549   3.720   1.341
 9000SOL    HW227900   1.422   3.671   1.432
 9001SOL     OW27901   1.123   5.551   2.344
 9001SOL    HW127902   1.040   5.550   2.288
 9001SOL    HW227903   1.196   5.502   2.296
 9002SOL     OW27904   1.012   5.152   5.208
 9002SOL    HW127905   1.076   5.228   5.197
 9002SOL    HW227906   1.039   5.095   5.285
 9003SOL     OW27907   5.754   3.265   1.928
 9003SOL    HW127908   5.853   3.249   1.927
 9003SOL    HW227909   5.710   3.197   1.987
 9004SOL     OW27910   4.142   6.186   1.718
 9004SOL    HW127911   4.090   6.213   1.637
 9004SOL    HW227912   4.210   6.255   1.739
 9005SOL     OW27913   5.695   2.374   4.839
 9005SOL    HW127914   5.775   2.383   4.780
 9005SOL    HW227915   5.668   2.465   4.872
 9006SOL     OW27916   2.508   5.622   1.085
 9006SOL    HW127917   2.514   5.522   1.077
 9006SOL    HW227918   2.525   5.664   0.996
 9007SOL     OW27919   3.254   0.880   3.806
 9007SOL    HW127920   3.207   0.907   3.890
 9007SOL    HW227921   3.197   0.902   3.727
 9008SOL     OW27922   1.564   5.830   3.789
 9008SOL    HW127923   1.592   5.888   3.712
 9008SOL    HW227924   1.492   5.767   3.759
 9009SOL     OW27925   3.018   6.794   0.624
 9009SOL    HW127926   2.980   6.796   0.532
 9009SOL    HW227927   2.946   6.770   0.689
 9010SOL     OW27928   1.723   6.596   4.083
 9010SOL    HW127929   1.699   6.511   4.035
 9010SOL    HW227930   1.820   6.614   4.071
 9011SOL     OW27931   4.974   1.670   1.917
 9011SOL    HW127932   4.881   1.635   1.935
 9011SOL    HW227933   4.983   1.761   1.956
 9012SOL     OW27934   2.030   3.996   0.575
 9012SOL    HW127935   1.979   4.031   0.497
 9012SOL    HW227936   2.062   3.904   0.555
 9013SOL     OW27937   0.489   6.571   5.594
 9013SOL    HW127938   0.446   6.645   5.542
 9013SOL    HW227939   0.418   6.518   5.642
 9014SOL     OW27940   6.573   1.977   0.474
 9014SOL    HW127941   6.593   2.054   0.415
 9014SOL    HW227942   6.481   1.942   0.453
 9015SOL     OW27943   4.120   1.864   1.839
 9015SOL    HW127944   4.202   1.834   1.790
 9015SOL    HW227945   4.146   1.892   1.932
 9016SOL     OW27946   0.488   6.944   6.610
 9016SOL    HW127947   0.523   6.871   6.551
 9016SOL    HW227948   0.398   6.918   6.644
 9017SOL     OW27949   4.363   1.938   3.690
 9017SOL    HW127950   4.302   1.897   3.758
 9017SOL    HW227951   4.453   1.954   3.731
 9018SOL     OW27952   3.321   3.035   6.958
 9018SOL    HW127953   3.295   2.940   6.938
 9018SOL    HW227954   3.279   3.096   6.891
 9019SOL     OW27955   1.286   5.799   2.124
 9019SOL    HW127956   1.229   5.731   2.078
 9019SOL    HW227957   1.309   5.873   2.060
 9020SOL     OW27958   6.960   3.572   0.563
 9020SOL    HW127959   6.924   3.561   0.471
 9020SOL    HW227960   6.892   3.541   0.629
 9021SOL     OW27961   0.248   0.307   3.744
 9021SOL    HW127962   0.177   0.361   3.698
 9021SOL    HW227963   0.211   0.219   3.772
 9022SOL     OW27964   3.576   1.295   6.628
 9022SOL    HW127965   3.510   1.269   6.557
 9022SOL    HW227966   3.561   1.390   6.653
 9023SOL     OW27967   3.374   2.886   2.608
 9023SOL    HW127968   3.318   2.853   2.684
 9023SOL    HW227969   3.467   2.901   2.639
 9024SOL     OW27970   0.720   3.993   4.985
 9024SOL    HW127971   0.771   4.066   5.030
 9024SOL    HW227972   0.649   4.032   4.927
 9025SOL     OW27973   1.028   5.335   0.821
 9025SOL    HW127974   0.962   5.354   0.893
 9025SOL    HW227975   1.121   5.348   0.856
 9026SOL     OW27976   4.025   2.619   0.577
 9026SOL    HW127977   3.942   2.640   0.628
 9026SOL    HW227978   4.104   2.630   0.636
 9027SOL     OW27979   1.601   2.340   3.496
 9027SOL    HW127980   1.545   2.421   3.480
 9027SOL    HW227981   1.581   2.272   3.426
 9028SOL     OW27982   2.922   3.529   5.454
 9028SOL    HW127983   2.847   3.465   5.438
 9028SOL    HW227984   2.890   3.622   5.439
 9029SOL     OW27985   4.067   0.000   4.813
 9029SOL    HW127986   4.096   6.962   4.882
 9029SOL    HW227987   4.087   6.991   4.722
 9030SOL     OW27988   3.082   1.502   3.786
 9030SOL    HW127989   3.126   1.581   3.743
 9030SOL    HW227990   3.032   1.531   3.868
 9031SOL     OW27991   4.441   6.307   4.625
 9031SOL    HW127992   4.441   6.222   4.572
 9031SOL    HW227993   4.426   6.385   4.564
 9032SOL     OW27994   3.775   3.412   1.056
 9032SOL    HW127995   3.694   3.437   1.002
 9032SOL    HW227996   3.749   3.406   1.153
 9033SOL     OW27997   0.044   4.037   2.813
 9033SOL    HW127998   0.141   4.034   2.790
 9033SOL    HW227999   0.022   4.128   2.848
 9034SOL     OW28000   2.923   6.595   5.030
 9034SOL    HW128001   2.828   6.597   5.059
 9034SOL    HW228002   2.942   6.510   4.981
 9035SOL     OW28003   2.401   4.905   7.009
 9035SOL    HW128004   2.408   4.880   0.079
 9035SOL    HW228005   2.491   4.899   6.966
 9036SOL     OW28006   2.086   2.003   5.412
 9036SOL    HW128007   2.180   2.033   5.421
 9036SOL    HW228008   2.026   2.060   5.469
 9037SOL     OW28009   1.001   4.045   4.632
 9037SOL    HW128010   0.931   3.975   4.642
 9037SOL    HW228011   0.960   4.135   4.648
 9038SOL     OW28012   3.889   0.697   6.090
 9038SOL    HW128013   3.909   0.745   6.004
 9038SOL    HW228014   3.864   0.764   6.160
 9039SOL     OW28015   2.308   5.914   5.678
 9039SOL    HW128016   2.379   5.889   5.743
 9039SOL    HW228017   2.245   5.838   5.666
 9040SOL     OW28018   3.620   2.139   2.973
 9040SOL    HW128019   3.582   2.159   2.883
 9040SOL    HW228020   3.715   2.170   2.977
 9041SOL     OW28021   1.525   2.065   1.724
 9041SOL    HW128022   1.435   2.107   1.734
 9041SOL    HW228023   1.551   2.063   1.628
 9042SOL     OW28024   3.936   6.567   5.362
 9042SOL    HW128025   4.010   6.611   5.413
 9042SOL    HW228026   3.852   6.571   5.417
 9043SOL     OW28027   1.063   0.100   7.013
 9043SOL    HW128028   1.023   0.016   0.023
 9043SOL    HW228029   1.091   0.085   6.918
 9044SOL     OW28030   6.194   0.122   0.419
 9044SOL    HW128031   6.207   0.192   0.349
 9044SOL    HW228032   6.196   0.164   0.509
 9045SOL     OW28033   2.427   1.787   2.688
 9045SOL    HW128034   2.503   1.783   2.753
 9045SOL    HW228035   2.342   1.805   2.737
 9046SOL     OW28036   3.311   3.719   3.013
 9046SOL    HW128037   3.279   3.633   2.973
 9046SOL    HW228038   3.411   3.722   3.011
 9047SOL     OW28039   1.998   4.158   5.085
 9047SOL    HW128040   1.939   4.089   5.043
 9047SOL    HW228041   2.065   4.114   5.144
 9048SOL     OW28042   5.766   3.448   5.765
 9048SOL    HW128043   5.737   3.541   5.741
 9048SOL    HW228044   5.686   3.394   5.791
 9049SOL     OW28045   3.543   6.495   5.953
 9049SOL    HW128046   3.525   6.459   6.044
 9049SOL    HW228047   3.523   6.593   5.951
 9050SOL     OW28048   0.516   2.941   0.998
 9050SOL    HW128049   0.462   2.858   0.986
 9050SOL    HW228050   0.530   2.985   0.909
 9051SOL     OW28051   4.015   0.117   1.190
 9051SOL    HW128052   3.972   0.030   1.215
 9051SOL    HW228053   3.947   0.176   1.147
 9052SOL     OW28054   2.689   2.302   4.139
 9052SOL    HW128055   2.658   2.207   4.147
 9052SOL    HW228056   2.767   2.317   4.201
 9053SOL     OW28057   1.925   1.098   2.766
 9053SOL    HW128058   1.897   1.003   2.753
 9053SOL    HW228059   1.995   1.121   2.698
 9054SOL     OW28060   2.944   5.909   3.758
 9054SOL    HW128061   2.912   5.845   3.689
 9054SOL    HW228062   2.921   6.002   3.730
 9055SOL     OW28063   6.281   2.775   4.658
 9055SOL    HW128064   6.213   2.805   4.591
 9055SOL    HW228065   6.238   2.768   4.748
 9056SOL     OW28066   0.754   2.444   1.844
 9056SOL    HW128067   0.762   2.527   1.900
 9056SOL    HW228068   0.659   2.434   1.815
 9057SOL     OW28069   4.645   3.401   6.067
 9057SOL    HW128070   4.699   3.461   6.008
 9057SOL    HW228071   4.690   3.391   6.156
 9058SOL     OW28072   2.165   1.099   1.827
 9058SOL    HW128073   2.153   1.176   1.763
 9058SOL    HW228074   2.253   1.055   1.810
 9059SOL     OW28075   1.343   1.557   3.430
 9059SOL    HW128076   1.430   1.592   3.396
 9059SOL    HW228077   1.300   1.626   3.488
 9060SOL     OW28078   6.514   2.805   4.083
 9060SOL    HW128079   6.525   2.770   4.176
 9060SOL    HW228080   6.490   2.731   4.021
 9061SOL     OW28081   2.061   5.644   1.846
 9061SOL    HW128082   2.002   5.637   1.926
 9061SOL    HW228083   2.050   5.735   1.804
 9062SOL     OW28084   1.642   6.251   2.235
 9062SOL    HW128085   1.618   6.293   2.322
 9062SOL    HW228086   1.706   6.310   2.186
 9063SOL     OW28087   3.445   0.601   3.944
 9063SOL    HW128088   3.415   0.619   3.850
 9063SOL    HW228089   3.528   0.547   3.942
 9064SOL     OW28090   6.216   2.431   5.783
 9064SOL    HW128091   6.310   2.457   5.760
 9064SOL    HW228092   6.194   2.344   5.739
 9065SOL     OW28093   4.156   0.634   6.690
 9065SOL    HW128094   4.105   0.634   6.604
 9065SOL    HW228095   4.144   0.546   6.736
 9066SOL     OW28096   5.356   6.495   0.677
 9066SOL    HW128097   5.304   6.482   0.761
 9066SOL    HW228098   5.304   6.553   0.614
 9067SOL     OW28099   1.095   0.348   4.607
 9067SOL    HW128100   1.013   0.302   4.639
 9067SOL    HW228101   1.169   0.281   4.597
 9068SOL     OW28102   2.466   6.181   4.401
 9068SOL    HW128103   2.378   6.188   4.447
 9068SOL    HW228104   2.529   6.251   4.436
 9069SOL     OW28105   1.410   3.239   1.568
 9069SOL    HW128106   1.359   3.306   1.622
 9069SOL    HW228107   1.497   3.219   1.612
 9070SOL     OW28108   1.332   3.133   4.896
 9070SOL    HW128109   1.323   3.224   4.855
 9070SOL    HW228110   1.308   3.064   4.828
 9071SOL     OW28111   6.366   6.817   1.767
 9071SOL    HW128112   6.309   6.847   1.843
 9071SOL    HW228113   6.374   6.890   1.700
 9072SOL     OW28114   0.089   2.216   1.284
 9072SOL    HW128115   0.047   2.135   1.244
 9072SOL    HW228116   0.130   2.272   1.212
 9073SOL     OW28117   2.745   6.826   2.616
 9073SOL    HW128118   2.720   6.731   2.630
 9073SOL    HW228119   2.827   6.848   2.668
 9074SOL     OW28120   1.332   1.172   1.706
 9074SOL    HW128121   1.233   1.185   1.713
 9074SOL    HW228122   1.378   1.259   1.726
 9075SOL     OW28123   6.745   1.154   2.242
 9075SOL    HW128124   6.762   1.252   2.252
 9075SOL    HW228125   6.770   1.107   2.326
 9076SOL     OW28126   0.207   2.680   5.558
 9076SOL    HW128127   0.247   2.625   5.631
 9076SOL    HW228128   0.204   2.776   5.586
 9077SOL     OW28129   5.079   0.329   0.468
 9077SOL    HW128130   5.133   0.412   0.453
 9077SOL    HW228131   5.013   0.317   0.394
 9078SOL     OW28132   3.678   3.198   4.940
 9078SOL    HW128133   3.691   3.159   4.849
 9078SOL    HW228134   3.724   3.287   4.945
 9079SOL     OW28135   2.619   0.499   4.167
 9079SOL    HW128136   2.522   0.523   4.164
 9079SOL    HW228137   2.673   0.576   4.132
 9080SOL     OW28138   4.767   2.678   6.081
 9080SOL    HW128139   4.814   2.756   6.039
 9080SOL    HW228140   4.781   2.680   6.180
 9081SOL     OW28141   3.923   0.352   2.359
 9081SOL    HW128142   3.851   0.388   2.417
 9081SOL    HW228143   3.939   0.256   2.381
 9082SOL     OW28144   2.127   0.301   5.475
 9082SOL    HW128145   2.088   0.330   5.562
 9082SOL    HW228146   2.066   0.327   5.401
 9083SOL     OW28147   3.751   5.209   6.098
 9083SOL    HW128148   3.738   5.300   6.137
 9083SOL    HW228149   3.668   5.155   6.112
 9084SOL     OW28150   3.585   3.680   3.392
 9084SOL    HW128151   3.554   3.735   3.315
 9084SOL    HW228152   3.591   3.737   3.473
 9085SOL     OW28153   2.531   0.372   1.453
 9085SOL    HW128154   2.529   0.458   1.505
 9085SOL    HW228155   2.561   0.391   1.360
 9086SOL     OW28156   0.636   4.303   0.248
 9086SOL    HW128157   0.547   4.292   0.293
 9086SOL    HW228158   0.696   4.357   0.307
 9087SOL     OW28159   4.979   2.354   1.614
 9087SOL    HW128160   4.892   2.362   1.664
 9087SOL    HW228161   4.990   2.261   1.580
 9088SOL     OW28162   6.952   6.991   1.297
 9088SOL    HW128163   6.950   0.064   1.296
 9088SOL    HW228164   7.005   6.958   1.218
 9089SOL     OW28165   5.339   5.805   5.516
 9089SOL    HW128166   5.298   5.894   5.535
 9089SOL    HW228167   5.430   5.800   5.559
 9090SOL     OW28168   5.985   0.769   4.833
 9090SOL    HW128169   6.018   0.863   4.839
 9090SOL    HW228170   6.016   0.728   4.747
 9091SOL     OW28171   2.837   4.087   0.172
 9091SOL    HW128172   2.831   4.184   0.194
 9091SOL    HW228173   2.931   4.056   0.183
 9092SOL     OW28174   6.566   0.981   6.935
 9092SOL    HW128175   6.588   1.048   7.006
 9092SOL    HW228176   6.648   0.959   6.883
 9093SOL     OW28177   1.587   5.920   5.318
 9093SOL    HW128178   1.578   5.824   5.293
 9093SOL    HW228179   1.539   5.977   5.252
 9094SOL     OW28180   5.990   4.576   3.048
 9094SOL    HW128181   5.951   4.570   2.956
 9094SOL    HW228182   5.952   4.503   3.104
 9095SOL     OW28183   5.076   4.803   6.361
 9095SOL    HW128184   5.016   4.838   6.433
 9095SOL    HW228185   5.146   4.744   6.401
 9096SOL     OW28186   6.738   4.868   2.723
 9096SOL    HW128187   6.831   4.898   2.746
 9096SOL    HW228188   6.712   4.793   2.784
 9097SOL     OW28189   2.092   2.205   0.767
 9097SOL    HW128190   2.040   2.161   0.694
 9097SOL    HW228191   2.152   2.138   0.810
 9098SOL     OW28192   2.990   1.980   4.930
 9098SOL    HW128193   2.971   2.045   5.005
 9098SOL    HW228194   3.083   1.996   4.896
 9099SOL     OW28195   2.540   3.133   5.728
 9099SOL    HW128196   2.521   3.205   5.795
 9099SOL    HW228197   2.639   3.131   5.709
 9100SOL     OW28198   0.549   3.269   2.954
 9100SOL    HW128199   0.648   3.282   2.964
 9100SOL    HW228200   0.530   3.218   2.870
 9101SOL     OW28201   2.542   2.095   2.023
 9101SOL    HW128202   2.578   2.080   2.115
 9101SOL    HW228203   2.502   2.187   2.018
 9102SOL     OW28204   3.360   6.682   1.926
 9102SOL    HW128205   3.402   6.657   1.839
 9102SOL    HW228206   3.432   6.690   1.996
 9103SOL     OW28207   5.650   2.163   0.414
 9103SOL    HW128208   5.625   2.112   0.496
 9103SOL    HW228209   5.646   2.261   0.434
 9104SOL     OW28210   0.079   6.639   1.477
 9104SOL    HW128211   0.128   6.623   1.391
 9104SOL    HW228212   0.116   6.580   1.548
 9105SOL     OW28213   1.184   0.218   5.511
 9105SOL    HW128214   1.085   0.205   5.514
 9105SOL    HW228215   1.218   0.195   5.420
 9106SOL     OW28216   6.474   2.712   0.727
 9106SOL    HW128217   6.544   2.780   0.706
 9106SOL    HW228218   6.511   2.644   0.791
 9107SOL     OW28219   2.277   0.840   6.852
 9107SOL    HW128220   2.298   0.862   6.947
 9107SOL    HW228221   2.254   0.925   6.803
 9108SOL     OW28222   4.644   4.171   5.515
 9108SOL    HW128223   4.736   4.162   5.477
 9108SOL    HW228224   4.639   4.253   5.572
 9109SOL     OW28225   4.839   3.446   3.055
 9109SOL    HW128226   4.852   3.542   3.078
 9109SOL    HW228227   4.831   3.436   2.956
 9110SOL     OW28228   1.289   5.494   4.325
 9110SOL    HW128229   1.355   5.421   4.309
 9110SOL    HW228230   1.326   5.580   4.291
 9111SOL     OW28231   4.489   2.953   6.632
 9111SOL    HW128232   4.407   2.912   6.672
 9111SOL    HW228233   4.561   2.958   6.701
 9112SOL     OW28234   1.440   5.189   2.582
 9112SOL    HW128235   1.480   5.134   2.655
 9112SOL    HW228236   1.357   5.144   2.549
 9113SOL     OW28237   5.083   2.253   2.967
 9113SOL    HW128238   5.179   2.277   2.984
 9113SOL    HW228239   5.079   2.170   2.912
 9114SOL     OW28240   0.725   5.824   3.883
 9114SOL    HW128241   0.729   5.726   3.899
 9114SOL    HW228242   0.652   5.844   3.817
 9115SOL     OW28243   5.738   5.631   5.005
 9115SOL    HW128244   5.821   5.576   5.007
 9115SOL    HW228245   5.672   5.595   5.070
 9116SOL     OW28246   0.030   0.116   2.871
 9116SOL    HW128247   6.998   0.179   2.820
 9116SOL    HW228248   7.018   0.023   2.866
 9117SOL     OW28249   4.024   2.823   6.743
 9117SOL    HW128250   4.034   2.777   6.655
 9117SOL    HW228251   3.980   2.760   6.808
 9118SOL     OW28252   6.538   3.327   0.066
 9118SOL    HW128253   6.549   3.394   7.019
 9118SOL    HW228254   6.442   3.322   0.093
 9119SOL     OW28255   4.285   1.170   1.590
 9119SOL    HW128256   4.254   1.114   1.667
 9119SOL    HW228257   4.284   1.116   1.507
 9120SOL     OW28258   6.571   3.028   5.292
 9120SOL    HW128259   6.481   2.985   5.293
 9120SOL    HW228260   6.629   2.984   5.224
 9121SOL     OW28261   3.891   6.965   5.652
 9121SOL    HW128262   3.813   7.020   5.622
 9121SOL    HW228263   3.970   6.983   5.593
 9122SOL     OW28264   2.248   3.982   2.126
 9122SOL    HW128265   2.309   4.059   2.107
 9122SOL    HW228266   2.213   3.945   2.040
 9123SOL     OW28267   2.001   0.366   4.303
 9123SOL    HW128268   2.081   0.308   4.285
 9123SOL    HW228269   1.925   0.310   4.335
 9124SOL     OW28270   3.766   5.381   1.853
 9124SOL    HW128271   3.688   5.319   1.844
 9124SOL    HW228272   3.799   5.377   1.947
 9125SOL     OW28273   3.620   4.428   0.677
 9125SOL    HW128274   3.545   4.479   0.635
 9125SOL    HW228275   3.658   4.480   0.754
 9126SOL     OW28276   4.738   3.872   1.027
 9126SOL    HW128277   4.729   3.800   1.095
 9126SOL    HW228278   4.832   3.904   1.023
 9127SOL     OW28279   6.403   2.779   5.269
 9127SOL    HW128280   6.382   2.722   5.189
 9127SOL    HW228281   6.377   2.731   5.352
 9128SOL     OW28282   5.916   2.375   4.678
 9128SOL    HW128283   5.913   2.424   4.591
 9128SOL    HW228284   5.995   2.314   4.680
 9129SOL     OW28285   0.684   2.232   0.719
 9129SOL    HW128286   0.734   2.309   0.679
 9129SOL    HW228287   0.651   2.172   0.645
 9130SOL     OW28288   0.426   4.080   6.053
 9130SOL    HW128289   0.371   4.115   6.129
 9130SOL    HW228290   0.429   3.980   6.058
 9131SOL     OW28291   5.265   3.251   0.088
 9131SOL    HW128292   5.212   3.170   0.064
 9131SOL    HW228293   5.273   3.257   0.188
 9132SOL     OW28294   0.757   4.554   4.239
 9132SOL    HW128295   0.660   4.532   4.240
 9132SOL    HW228296   0.783   4.587   4.148
 9133SOL     OW28297   3.362   1.054   1.099
 9133SOL    HW128298   3.452   1.097   1.091
 9133SOL    HW228299   3.311   1.098   1.173
 9134SOL     OW28300   3.972   5.496   0.864
 9134SOL    HW128301   3.899   5.560   0.837
 9134SOL    HW228302   4.016   5.529   0.948
 9135SOL     OW28303   1.407   6.462   1.727
 9135SOL    HW128304   1.326   6.516   1.748
 9135SOL    HW228305   1.435   6.478   1.632
 9136SOL     OW28306   4.408   5.783   5.673
 9136SOL    HW128307   4.437   5.807   5.765
 9136SOL    HW228308   4.469   5.825   5.606
 9137SOL     OW28309   4.358   6.991   5.859
 9137SOL    HW128310   4.344   6.895   5.835
 9137SOL    HW228311   4.332   7.005   5.955
 9138SOL     OW28312   2.024   3.461   0.227
 9138SOL    HW128313   2.010   3.541   0.169
 9138SOL    HW228314   2.122   3.447   0.242
 9139SOL     OW28315   1.101   1.480   1.633
 9139SOL    HW128316   1.053   1.479   1.720
 9139SOL    HW228317   1.076   1.399   1.580
 9140SOL     OW28318   0.642   5.155   2.395
 9140SOL    HW128319   0.717   5.221   2.397
 9140SOL    HW228320   0.678   5.064   2.372
 9141SOL     OW28321   7.012   6.086   6.514
 9141SOL    HW128322   6.989   6.016   6.582
 9141SOL    HW228323   6.983   6.176   6.547
 9142SOL     OW28324   6.993   2.834   2.979
 9142SOL    HW128325   7.021   2.914   2.927
 9142SOL    HW228326   6.913   2.857   3.035
 9143SOL     OW28327   0.484   4.080   1.124
 9143SOL    HW128328   0.391   4.089   1.159
 9143SOL    HW228329   0.481   4.066   1.025
 9144SOL     OW28330   2.876   4.832   4.705
 9144SOL    HW128331   2.793   4.837   4.761
 9144SOL    HW228332   2.926   4.749   4.729
 9145SOL     OW28333   1.325   6.997   6.617
 9145SOL    HW128334   1.384   0.043   6.582
 9145SOL    HW228335   1.381   6.927   6.661
 9146SOL     OW28336   5.201   2.598   3.075
 9146SOL    HW128337   5.218   2.503   3.103
 9146SOL    HW228338   5.183   2.654   3.156
 9147SOL     OW28339   6.222   0.446   5.130
 9147SOL    HW128340   6.260   0.529   5.171
 9147SOL    HW228341   6.180   0.390   5.201
 9148SOL     OW28342   5.801   6.995   1.805
 9148SOL    HW128343   5.897   7.019   1.793
 9148SOL    HW228344   5.744   0.042   1.771
 9149SOL     OW28345   5.462   2.874   2.199
 9149SOL    HW128346   5.445   2.777   2.179
 9149SOL    HW228347   5.378   2.917   2.231
 9150SOL     OW28348   2.998   4.361   0.571
 9150SOL    HW128349   2.994   4.433   0.641
 9150SOL    HW228350   3.035   4.398   0.486
 9151SOL     OW28351   2.275   4.295   3.807
 9151SOL    HW128352   2.322   4.318   3.722
 9151SOL    HW228353   2.287   4.197   3.826
 9152SOL     OW28354   2.005   4.408   4.509
 9152SOL    HW128355   2.021   4.353   4.592
 9152SOL    HW228356   2.008   4.349   4.429
 9153SOL     OW28357   0.632   3.146   6.565
 9153SOL    HW128358   0.720   3.105   6.539
 9153SOL    HW228359   0.576   3.158   6.483
 9154SOL     OW28360   4.692   5.472   3.071
 9154SOL    HW128361   4.724   5.406   3.003
 9154SOL    HW228362   4.758   5.477   3.146
 9155SOL     OW28363   1.526   4.492   2.844
 9155SOL    HW128364   1.553   4.495   2.940
 9155SOL    HW228365   1.608   4.489   2.787
 9156SOL     OW28366   6.881   2.674   0.947
 9156SOL    HW128367   6.785   2.657   0.928
 9156SOL    HW228368   6.891   2.709   1.041
 9157SOL     OW28369   3.234   3.897   6.295
 9157SOL    HW128370   3.194   3.968   6.237
 9157SOL    HW228371   3.168   3.823   6.308
 9158SOL     OW28372   6.395   4.559   4.305
 9158SOL    HW128373   6.419   4.485   4.243
 9158SOL    HW228374   6.301   4.548   4.337
 9159SOL     OW28375   2.080   6.831   3.086
 9159SOL    HW128376   2.020   6.815   3.007
 9159SOL    HW228377   2.040   6.903   3.144
 9160SOL     OW28378   0.446   5.149   6.691
 9160SOL    HW128379   0.367   5.091   6.710
 9160SOL    HW228380   0.416   5.245   6.686
 9161SOL     OW28381   5.751   4.818   3.045
 9161SOL    HW128382   5.757   4.907   3.090
 9161SOL    HW228383   5.763   4.746   3.113
 9162SOL     OW28384   4.020   1.149   3.119
 9162SOL    HW128385   3.977   1.198   3.195
 9162SOL    HW228386   4.082   1.079   3.156
 9163SOL     OW28387   7.010   2.342   1.871
 9163SOL    HW128388   0.055   2.293   1.921
 9163SOL    HW228389   6.932   2.358   1.932
 9164SOL     OW28390   2.114   0.416   0.099
 9164SOL    HW128391   2.019   0.433   0.127
 9164SOL    HW228392   2.164   0.503   0.102
 9165SOL     OW28393   5.075   2.483   6.034
 9165SOL    HW128394   4.999   2.420   6.045
 9165SOL    HW228395   5.141   2.468   6.108
 9166SOL     OW28396   4.133   5.664   1.066
 9166SOL    HW128397   4.198   5.608   1.014
 9166SOL    HW228398   4.183   5.734   1.117
 9167SOL     OW28399   1.056   2.002   6.804
 9167SOL    HW128400   1.104   1.946   6.736
 9167SOL    HW228401   0.959   2.008   6.781
 9168SOL     OW28402   6.541   5.098   6.044
 9168SOL    HW128403   6.616   5.044   6.006
 9168SOL    HW228404   6.579   5.177   6.093
 9169SOL     OW28405   0.115   6.525   6.253
 9169SOL    HW128406   0.026   6.503   6.214
 9169SOL    HW228407   0.173   6.444   6.253
 9170SOL     OW28408   1.874   1.841   6.324
 9170SOL    HW128409   1.817   1.920   6.302
 9170SOL    HW228410   1.951   1.838   6.261
 9171SOL     OW28411   2.611   5.380   1.219
 9171SOL    HW128412   2.675   5.377   1.142
 9171SOL    HW228413   2.655   5.424   1.297
 9172SOL     OW28414   4.785   1.436   5.019
 9172SOL    HW128415   4.732   1.353   5.036
 9172SOL    HW228416   4.870   1.412   4.972
 9173SOL     OW28417   6.982   3.101   4.399
 9173SOL    HW128418   0.054   3.093   4.384
 9173SOL    HW228419   6.951   3.193   4.373
 9174SOL     OW28420   0.656   5.824   6.846
 9174SOL    HW128421   0.643   5.923   6.853
 9174SOL    HW228422   0.635   5.782   6.934
 9175SOL     OW28423   1.671   6.119   0.335
 9175SOL    HW128424   1.610   6.166   0.271
 9175SOL    HW228425   1.658   6.020   0.325
 9176SOL     OW28426   2.197   0.549   2.772
 9176SOL    HW128427   2.167   0.500   2.690
 9176SOL    HW228428   2.125   0.611   2.802
 9177SOL     OW28429   1.328   2.973   3.520
 9177SOL    HW128430   1.269   2.929   3.452
 9177SOL    HW228431   1.287   3.059   3.549
 9178SOL     OW28432   2.178   5.696   6.448
 9178SOL    HW128433   2.153   5.702   6.545
 9178SOL    HW228434   2.246   5.766   6.427
 9179SOL     OW28435   3.710   6.074   4.872
 9179SOL    HW128436   3.647   6.097   4.797
 9179SOL    HW228437   3.712   6.149   4.937
 9180SOL     OW28438   6.458   1.876   4.294
 9180SOL    HW128439   6.551   1.912   4.297
 9180SOL    HW228440   6.417   1.899   4.206
 9181SOL     OW28441   4.921   2.497   3.729
 9181SOL    HW128442   4.932   2.402   3.759
 9181SOL    HW228443   4.832   2.531   3.762
 9182SOL     OW28444   2.420   1.096   2.705
 9182SOL    HW128445   2.461   1.152   2.633
 9182SOL    HW228446   2.492   1.043   2.751
 9183SOL     OW28447   4.918   3.177   6.566
 9183SOL    HW128448   4.961   3.235   6.635
 9183SOL    HW228449   4.952   3.083   6.575
 9184SOL     OW28450   3.176   2.139   0.961
 9184SOL    HW128451   3.266   2.155   1.000
 9184SOL    HW228452   3.130   2.066   1.011
 9185SOL     OW28453   0.113   6.865   6.303
 9185SOL    HW128454   0.097   6.849   6.205
 9185SOL    HW228455   0.206   6.899   6.316
 9186SOL     OW28456   4.595   0.642   6.018
 9186SOL    HW128457   4.544   0.620   5.934
 9186SOL    HW228458   4.636   0.733   6.009
 9187SOL     OW28459   4.648   2.142   6.812
 9187SOL    HW128460   4.556   2.106   6.804
 9187SOL    HW228461   4.645   2.236   6.848
 9188SOL     OW28462   1.687   0.795   1.253
 9188SOL    HW128463   1.595   0.832   1.237
 9188SOL    HW228464   1.702   0.716   1.194
 9189SOL     OW28465   3.178   1.011   3.263
 9189SOL    HW128466   3.215   1.070   3.191
 9189SOL    HW228467   3.224   0.922   3.259
 9190SOL     OW28468   5.900   3.807   5.613
 9190SOL    HW128469   5.812   3.764   5.631
 9190SOL    HW228470   5.895   3.858   5.527
 9191SOL     OW28471   4.959   6.553   0.123
 9191SOL    HW128472   5.003   6.537   0.035
 9191SOL    HW228473   5.028   6.547   0.196
 9192SOL     OW28474   6.106   4.141   5.584
 9192SOL    HW128475   6.039   4.176   5.649
 9192SOL    HW228476   6.060   4.093   5.509
 9193SOL     OW28477   2.964   3.246   3.862
 9193SOL    HW128478   2.885   3.186   3.849
 9193SOL    HW228479   2.937   3.324   3.918
 9194SOL     OW28480   3.510   6.202   2.206
 9194SOL    HW128481   3.500   6.161   2.116
 9194SOL    HW228482   3.500   6.301   2.199
 9195SOL     OW28483   0.956   2.958   3.491
 9195SOL    HW128484   1.037   2.949   3.433
 9195SOL    HW228485   0.977   2.926   3.583
 9196SOL     OW28486   3.853   6.946   4.280
 9196SOL    HW128487   3.899   0.001   4.316
 9196SOL    HW228488   3.757   6.967   4.262
 9197SOL     OW28489   3.007   3.457   0.692
 9197SOL    HW128490   3.002   3.557   0.688
 9197SOL    HW228491   3.101   3.427   0.672
 9198SOL     OW28492   5.790   4.672   6.274
 9198SOL    HW128493   5.831   4.628   6.355
 9198SOL    HW228494   5.692   4.686   6.290
 9199SOL     OW28495   1.016   3.524   6.226
 9199SOL    HW128496   1.062   3.595   6.172
 9199SOL    HW228497   1.027   3.435   6.182
 9200SOL     OW28498   0.610   5.960   0.669
 9200SOL    HW128499   0.674   6.020   0.716
 9200SOL    HW228500   0.599   5.876   0.722
 9201SOL     OW28501   0.525   4.266   1.739
 9201SOL    HW128502   0.624   4.275   1.747
 9201SOL    HW228503   0.499   4.170   1.746
 9202SOL     OW28504   2.325   5.587   4.856
 9202SOL    HW128505   2.324   5.500   4.907
 9202SOL    HW228506   2.314   5.663   4.920
 9203SOL     OW28507   5.238   1.661   6.280
 9203SOL    HW128508   5.275   1.568   6.274
 9203SOL    HW228509   5.154   1.660   6.334
 9204SOL     OW28510   5.685   3.927   3.277
 9204SOL    HW128511   5.633   3.951   3.359
 9204SOL    HW228512   5.682   3.828   3.263
 9205SOL     OW28513   5.175   3.530   2.664
 9205SOL    HW128514   5.091   3.520   2.611
 9205SOL    HW228515   5.195   3.445   2.712
 9206SOL     OW28516   3.037   6.692   4.490
 9206SOL    HW128517   3.131   6.706   4.520
 9206SOL    HW228518   2.979   6.673   4.570
 9207SOL     OW28519   3.759   6.199   6.144
 9207SOL    HW128520   3.816   6.209   6.063
 9207SOL    HW228521   3.760   6.284   6.197
 9208SOL     OW28522   4.909   3.430   2.256
 9208SOL    HW128523   4.891   3.334   2.235
 9208SOL    HW228524   4.889   3.486   2.175
 9209SOL     OW28525   4.006   1.050   2.019
 9209SOL    HW128526   3.950   1.098   1.951
 9209SOL    HW228527   4.033   0.961   1.983
 9210SOL     OW28528   2.492   0.052   1.875
 9210SOL    HW128529   2.573   0.048   1.816
 9210SOL    HW228530   2.510   7.027   1.959
 9211SOL     OW28531   5.914   1.613   6.090
 9211SOL    HW128532   5.997   1.603   6.144
 9211SOL    HW228533   5.836   1.624   6.151
 9212SOL     OW28534   4.522   4.467   4.762
 9212SOL    HW128535   4.500   4.376   4.729
 9212SOL    HW228536   4.454   4.496   4.829
 9213SOL     OW28537   5.621   0.146   4.642
 9213SOL    HW128538   5.616   0.237   4.684
 9213SOL    HW228539   5.564   0.144   4.560
 9214SOL     OW28540   1.654   2.080   4.826
 9214SOL    HW128541   1.701   2.144   4.886
 9214SOL    HW228542   1.556   2.084   4.842
 9215SOL     OW28543   6.937   4.326   2.157
 9215SOL    HW128544   6.946   4.425   2.148
 9215SOL    HW228545   6.986   4.281   2.082
 9216SOL     OW28546   2.881   6.308   4.439
 9216SOL    HW128547   2.923   6.219   4.461
 9216SOL    HW228548   2.796   6.319   4.491
 9217SOL     OW28549   5.082   0.989   6.429
 9217SOL    HW128550   5.126   0.964   6.343
 9217SOL    HW228551   4.994   0.943   6.436
 9218SOL     OW28552   4.602   0.200   6.281
 9218SOL    HW128553   4.600   0.123   6.217
 9218SOL    HW228554   4.624   0.284   6.231
 9219SOL     OW28555   3.876   2.976   5.364
 9219SOL    HW128556   3.974   2.983   5.346
 9219SOL    HW228557   3.860   2.969   5.463
 9220SOL     OW28558   2.403   5.986   3.023
 9220SOL    HW128559   2.316   5.987   2.974
 9220SOL    HW228560   2.399   5.920   3.098
 9221SOL     OW28561   2.288   0.769   5.817
 9221SOL    HW128562   2.371   0.809   5.778
 9221SOL    HW228563   2.314   0.700   5.886
 9222SOL     OW28564   2.472   4.489   4.098
 9222SOL    HW128565   2.526   4.492   4.014
 9222SOL    HW228566   2.532   4.501   4.177
 9223SOL     OW28567   1.045   3.382   4.071
 9223SOL    HW128568   0.950   3.401   4.097
 9223SOL    HW228569   1.091   3.468   4.048
 9224SOL     OW28570   0.852   3.568   3.597
 9224SOL    HW128571   0.847   3.550   3.499
 9224SOL    HW228572   0.932   3.522   3.636
 9225SOL     OW28573   3.811   6.650   6.052
 9225SOL    HW128574   3.811   6.730   6.111
 9225SOL    HW228575   3.721   6.607   6.053
 9226SOL     OW28576   1.109   7.024   1.304
 9226SOL    HW128577   1.144   0.021   1.213
 9226SOL    HW228578   1.155   6.942   1.337
 9227SOL     OW28579   1.449   5.748   1.384
 9227SOL    HW128580   1.357   5.749   1.422
 9227SOL    HW228581   1.479   5.654   1.369
 9228SOL     OW28582   2.018   2.762   5.972
 9228SOL    HW128583   2.101   2.730   5.926
 9228SOL    HW228584   1.937   2.724   5.927
 9229SOL     OW28585   1.297   4.942   6.813
 9229SOL    HW128586   1.245   4.939   6.728
 9229SOL    HW228587   1.235   4.934   6.891
 9230SOL     OW28588   4.906   2.067   4.539
 9230SOL    HW128589   4.834   2.016   4.587
 9230SOL    HW228590   4.995   2.025   4.559
 9231SOL     OW28591   0.348   5.109   5.332
 9231SOL    HW128592   0.325   5.084   5.238
 9231SOL    HW228593   0.284   5.178   5.365
 9232SOL     OW28594   1.903   5.132   1.725
 9232SOL    HW128595   1.887   5.077   1.808
 9232SOL    HW228596   1.979   5.093   1.673
 9233SOL     OW28597   0.916   6.272   0.656
 9233SOL    HW128598   0.901   6.211   0.734
 9233SOL    HW228599   0.907   6.220   0.571
 9234SOL     OW28600   2.346   5.275   1.311
 9234SOL    HW128601   2.433   5.324   1.301
 9234SOL    HW228602   2.339   5.205   1.240
 9235SOL     OW28603   2.177   2.517   3.060
 9235SOL    HW128604   2.209   2.490   2.969
 9235SOL    HW228605   2.198   2.445   3.126
 9236SOL     OW28606   1.994   3.693   0.108
 9236SOL    HW128607   1.897   3.718   0.118
 9236SOL    HW228608   2.044   3.725   0.188
 9237SOL     OW28609   6.709   5.835   2.982
 9237SOL    HW128610   6.613   5.834   2.952
 9237SOL    HW228611   6.714   5.868   3.076
 9238SOL     OW28612   2.174   2.856   5.550
 9238SOL    HW128613   2.243   2.927   5.534
 9238SOL    HW228614   2.198   2.804   5.632
 9239SOL     OW28615   6.951   4.554   6.757
 9239SOL    HW128616   6.966   4.646   6.793
 9239SOL    HW228617   6.909   4.560   6.667
 9240SOL     OW28618   5.231   3.360   3.085
 9240SOL    HW128619   5.204   3.268   3.055
 9240SOL    HW228620   5.288   3.352   3.167
 9241SOL     OW28621   0.277   5.757   6.949
 9241SOL    HW128622   0.348   5.688   6.944
 9241SOL    HW228623   0.187   5.713   6.954
 9242SOL     OW28624   1.639   2.584   1.994
 9242SOL    HW128625   1.736   2.591   2.017
 9242SOL    HW228626   1.626   2.513   1.924
 9243SOL     OW28627   0.979   6.868   1.743
 9243SOL    HW128628   0.985   6.887   1.841
 9243SOL    HW228629   0.949   6.950   1.695
 9244SOL     OW28630   2.948   6.552   5.505
 9244SOL    HW128631   2.862   6.602   5.516
 9244SOL    HW228632   3.025   6.616   5.512
 9245SOL     OW28633   1.059   4.015   3.208
 9245SOL    HW128634   1.147   3.972   3.187
 9245SOL    HW228635   0.987   3.972   3.154
 9246SOL     OW28636   6.196   0.243   4.184
 9246SOL    HW128637   6.205   0.171   4.252
 9246SOL    HW228638   6.163   0.204   4.098
 9247SOL     OW28639   4.121   5.250   2.850
 9247SOL    HW128640   4.030   5.225   2.884
 9247SOL    HW228641   4.191   5.203   2.905
 9248SOL     OW28642   2.792   0.946   4.821
 9248SOL    HW128643   2.692   0.947   4.823
 9248SOL    HW228644   2.824   0.876   4.757
 9249SOL     OW28645   3.700   4.790   1.606
 9249SOL    HW128646   3.669   4.885   1.596
 9249SOL    HW228647   3.655   4.748   1.684
 9250SOL     OW28648   6.548   4.262   3.556
 9250SOL    HW128649   6.630   4.205   3.557
 9250SOL    HW228650   6.484   4.230   3.626
 9251SOL     OW28651   3.601   2.727   1.454
 9251SOL    HW128652   3.575   2.823   1.458
 9251SOL    HW228653   3.625   2.695   1.546
 9252SOL     OW28654   4.295   0.647   5.002
 9252SOL    HW128655   4.388   0.610   5.004
 9252SOL    HW228656   4.299   0.743   4.974
 9253SOL     OW28657   5.578   5.156   5.963
 9253SOL    HW128658   5.663   5.155   6.015
 9253SOL    HW228659   5.500   5.153   6.026
 9254SOL     OW28660   5.530   4.385   2.595
 9254SOL    HW128661   5.512   4.287   2.606
 9254SOL    HW228662   5.449   4.429   2.556
 9255SOL     OW28663   5.738   3.616   6.638
 9255SOL    HW128664   5.763   3.688   6.703
 9255SOL    HW228665   5.787   3.533   6.661
 9256SOL     OW28666   2.044   0.206   1.884
 9256SOL    HW128667   1.964   0.233   1.830
 9256SOL    HW228668   2.090   0.288   1.919
 9257SOL     OW28669   6.130   5.776   3.480
 9257SOL    HW128670   6.137   5.873   3.459
 9257SOL    HW228671   6.054   5.736   3.429
 9258SOL     OW28672   3.680   3.340   0.711
 9258SOL    HW128673   3.708   3.315   0.618
 9258SOL    HW228674   3.601   3.285   0.738
 9259SOL     OW28675   1.859   1.808   0.307
 9259SOL    HW128676   1.872   1.780   0.212
 9259SOL    HW228677   1.877   1.731   0.368
 9260SOL     OW28678   6.805   2.988   5.972
 9260SOL    HW128679   6.780   3.054   6.043
 9260SOL    HW228680   6.751   2.904   5.984
 9261SOL     OW28681   4.525   1.312   0.444
 9261SOL    HW128682   4.532   1.394   0.501
 9261SOL    HW228683   4.492   1.337   0.353
 9262SOL     OW28684   0.472   6.788   4.834
 9262SOL    HW128685   0.388   6.763   4.882
 9262SOL    HW228686   0.509   6.707   4.787
 9263SOL     OW28687   3.235   5.449   2.891
 9263SOL    HW128688   3.255   5.450   2.793
 9263SOL    HW228689   3.299   5.509   2.939
 9264SOL     OW28690   5.486   3.385   6.745
 9264SOL    HW128691   5.435   3.324   6.684
 9264SOL    HW228692   5.427   3.413   6.821
 9265SOL     OW28693   3.662   2.397   6.662
 9265SOL    HW128694   3.702   2.431   6.577
 9265SOL    HW228695   3.711   2.437   6.740
 9266SOL     OW28696   0.377   5.558   1.151
 9266SOL    HW128697   0.320   5.569   1.070
 9266SOL    HW228698   0.344   5.618   1.224
 9267SOL     OW28699   0.756   1.719   4.116
 9267SOL    HW128700   0.723   1.625   4.105
 9267SOL    HW228701   0.698   1.767   4.183
 9268SOL     OW28702   0.843   6.560   2.379
 9268SOL    HW128703   0.785   6.633   2.415
 9268SOL    HW228704   0.880   6.586   2.290
 9269SOL     OW28705   4.421   0.558   6.469
 9269SOL    HW128706   4.407   0.625   6.542
 9269SOL    HW228707   4.382   0.594   6.384
 9270SOL     OW28708   3.527   1.143   5.605
 9270SOL    HW128709   3.596   1.075   5.628
 9270SOL    HW228710   3.469   1.109   5.531
 9271SOL     OW28711   0.853   6.897   0.586
 9271SOL    HW128712   0.786   6.828   0.614
 9271SOL    HW228713   0.859   6.968   0.657
 9272SOL     OW28714   0.914   6.786   6.261
 9272SOL    HW128715   0.848   6.784   6.185
 9272SOL    HW228716   0.883   6.852   6.330
 9273SOL     OW28717   5.164   6.075   3.997
 9273SOL    HW128718   5.241   6.095   3.936
 9273SOL    HW228719   5.083   6.053   3.944
 9274SOL     OW28720   7.017   3.260   0.424
 9274SOL    HW128721   6.975   3.328   0.483
 9274SOL    HW228722   0.086   3.283   0.408
 9275SOL     OW28723   0.807   6.427   0.991
 9275SOL    HW128724   0.851   6.514   0.969
 9275SOL    HW228725   0.715   6.425   0.952
 9276SOL     OW28726   3.021   4.898   6.949
 9276SOL    HW128727   2.966   4.902   0.006
 9276SOL    HW228728   3.109   4.943   6.965
 9277SOL     OW28729   4.313   4.690   2.900
 9277SOL    HW128730   4.360   4.602   2.902
 9277SOL    HW228731   4.239   4.690   2.967
 9278SOL     OW28732   0.154   0.458   5.035
 9278SOL    HW128733   0.186   0.374   5.078
 9278SOL    HW228734   0.226   0.527   5.038
 9279SOL     OW28735   3.525   6.093   1.944
 9279SOL    HW128736   3.522   5.999   1.912
 9279SOL    HW228737   3.621   6.123   1.951
 9280SOL     OW28738   2.361   1.903   2.240
 9280SOL    HW128739   2.439   1.949   2.283
 9280SOL    HW228740   2.346   1.815   2.285
 9281SOL     OW28741   3.494   3.970   5.844
 9281SOL    HW128742   3.512   3.891   5.786
 9281SOL    HW228743   3.453   3.939   5.930
 9282SOL     OW28744   4.314   0.727   4.641
 9282SOL    HW128745   4.251   0.653   4.619
 9282SOL    HW228746   4.262   0.805   4.677
 9283SOL     OW28747   5.728   0.147   6.468
 9283SOL    HW128748   5.652   0.165   6.530
 9283SOL    HW228749   5.759   0.053   6.480
 9284SOL     OW28750   3.138   3.671   5.019
 9284SOL    HW128751   3.054   3.706   5.062
 9284SOL    HW228752   3.191   3.620   5.086
 9285SOL     OW28753   5.379   3.262   1.936
 9285SOL    HW128754   5.398   3.165   1.950
 9285SOL    HW228755   5.437   3.299   1.864
 9286SOL     OW28756   5.094   5.856   0.561
 9286SOL    HW128757   5.122   5.850   0.657
 9286SOL    HW228758   5.013   5.914   0.554
 9287SOL     OW28759   1.891   4.162   5.591
 9287SOL    HW128760   1.812   4.118   5.634
 9287SOL    HW228761   1.964   4.172   5.658
 9288SOL     OW28762   4.556   2.511   3.610
 9288SOL    HW128763   4.550   2.569   3.529
 9288SOL    HW228764   4.582   2.419   3.584
 9289SOL     OW28765   4.554   0.453   6.201
 9289SOL    HW128766   4.585   0.507   6.279
 9289SOL    HW228767   4.590   0.491   6.116
 9290SOL     OW28768   5.855   0.747   4.019
 9290SOL    HW128769   5.796   0.698   3.955
 9290SOL    HW228770   5.948   0.710   4.013
 9291SOL     OW28771   1.209   6.275   5.492
 9291SOL    HW128772   1.259   6.189   5.485
 9291SOL    HW228773   1.123   6.260   5.541
 9292SOL     OW28774   1.829   1.239   6.493
 9292SOL    HW128775   1.829   1.155   6.437
 9292SOL    HW228776   1.922   1.259   6.523
 9293SOL     OW28777   4.761   2.694   6.358
 9293SOL    HW128778   4.664   2.672   6.367
 9293SOL    HW228779   4.814   2.632   6.416
 9294SOL     OW28780   4.970   1.275   0.577
 9294SOL    HW128781   5.021   1.356   0.607
 9294SOL    HW228782   5.019   1.192   0.606
 9295SOL     OW28783   0.402   0.606   5.013
 9295SOL    HW128784   0.360   0.627   4.924
 9295SOL    HW228785   0.468   0.532   5.002
 9296SOL     OW28786   2.720   3.830   0.792
 9296SOL    HW128787   2.797   3.769   0.776
 9296SOL    HW228788   2.741   3.891   0.868
 9297SOL     OW28789   0.732   5.791   2.949
 9297SOL    HW128790   0.752   5.831   3.039
 9297SOL    HW228791   0.641   5.750   2.952
 9298SOL     OW28792   1.326   6.550   5.859
 9298SOL    HW128793   1.360   6.458   5.878
 9298SOL    HW228794   1.265   6.580   5.932
 9299SOL     OW28795   2.176   1.163   4.202
 9299SOL    HW128796   2.181   1.079   4.256
 9299SOL    HW228797   2.084   1.173   4.163
 9300SOL     OW28798   0.677   5.853   5.014
 9300SOL    HW128799   0.767   5.823   4.982
 9300SOL    HW228800   0.631   5.776   5.059
 9301SOL     OW28801   0.258   4.675   4.388
 9301SOL    HW128802   0.192   4.665   4.462
 9301SOL    HW228803   0.227   4.622   4.309
 9302SOL     OW28804   2.143   2.731   4.857
 9302SOL    HW128805   2.155   2.668   4.780
 9302SOL    HW228806   2.223   2.728   4.916
 9303SOL     OW28807   3.161   4.411   6.836
 9303SOL    HW128808   3.104   4.359   6.772
 9303SOL    HW228809   3.107   4.484   6.877
 9304SOL     OW28810   4.740   5.045   0.750
 9304SOL    HW128811   4.728   5.013   0.844
 9304SOL    HW228812   4.697   4.981   0.687
 9305SOL     OW28813   3.503   1.536   0.620
 9305SOL    HW128814   3.509   1.507   0.716
 9305SOL    HW228815   3.492   1.635   0.616
 9306SOL     OW28816   6.868   4.101   4.465
 9306SOL    HW128817   6.785   4.082   4.518
 9306SOL    HW228818   6.941   4.130   4.527
 9307SOL     OW28819   1.843   3.858   0.729
 9307SOL    HW128820   1.885   3.947   0.715
 9307SOL    HW228821   1.769   3.845   0.663
 9308SOL     OW28822   1.340   4.841   1.787
 9308SOL    HW128823   1.358   4.826   1.690
 9308SOL    HW228824   1.251   4.885   1.798
 9309SOL     OW28825   5.013   6.702   6.286
 9309SOL    HW128826   5.079   6.631   6.313
 9309SOL    HW228827   4.940   6.706   6.354
 9310SOL     OW28828   4.817   5.620   5.807
 9310SOL    HW128829   4.733   5.614   5.753
 9310SOL    HW228830   4.896   5.602   5.749
 9311SOL     OW28831   4.667   3.759   1.492
 9311SOL    HW128832   4.696   3.847   1.454
 9311SOL    HW228833   4.581   3.772   1.543
 9312SOL     OW28834   1.460   2.643   1.151
 9312SOL    HW128835   1.546   2.636   1.203
 9312SOL    HW228836   1.435   2.739   1.142
 9313SOL     OW28837   1.373   0.811   1.678
 9313SOL    HW128838   1.421   0.891   1.644
 9313SOL    HW228839   1.295   0.840   1.734
 9314SOL     OW28840   5.199   3.242   1.022
 9314SOL    HW128841   5.109   3.256   0.980
 9314SOL    HW228842   5.233   3.329   1.058
 9315SOL     OW28843   5.614   0.895   6.615
 9315SOL    HW128844   5.540   0.884   6.548
 9315SOL    HW228845   5.700   0.862   6.575
 9316SOL     OW28846   5.811   0.133   4.967
 9316SOL    HW128847   5.773   0.218   4.931
 9316SOL    HW228848   5.816   0.065   4.894
 9317SOL     OW28849   3.192   5.192   3.220
 9317SOL    HW128850   3.180   5.151   3.129
 9317SOL    HW228851   3.285   5.230   3.227
 9318SOL     OW28852   5.099   5.693   0.339
 9318SOL    HW128853   5.113   5.715   0.435
 9318SOL    HW228854   5.164   5.743   0.282
 9319SOL     OW28855   2.583   3.693   1.241
 9319SOL    HW128856   2.630   3.611   1.207
 9319SOL    HW228857   2.545   3.744   1.164
 9320SOL     OW28858   5.049   6.985   5.674
 9320SOL    HW128859   4.986   6.908   5.681
 9320SOL    HW228860   5.014   0.036   5.726
 9321SOL     OW28861   1.030   1.940   5.256
 9321SOL    HW128862   0.965   1.935   5.332
 9321SOL    HW228863   1.021   2.029   5.210
 9322SOL     OW28864   6.235   4.672   6.255
 9322SOL    HW128865   6.281   4.750   6.212
 9322SOL    HW228866   6.302   4.600   6.275
 9323SOL     OW28867   2.152   2.630   4.060
 9323SOL    HW128868   2.209   2.549   4.072
 9323SOL    HW228869   2.134   2.672   4.150
 9324SOL     OW28870   1.433   3.875   0.691
 9324SOL    HW128871   1.503   3.877   0.620
 9324SOL    HW228872   1.349   3.836   0.654
 9325SOL     OW28873   2.101   6.156   1.584
 9325SOL    HW128874   2.113   6.217   1.662
 9325SOL    HW228875   2.082   6.063   1.616
 9326SOL     OW28876   3.742   5.127   0.601
 9326SOL    HW128877   3.677   5.200   0.623
 9326SOL    HW228878   3.692   5.048   0.564
 9327SOL     OW28879   4.267   0.333   2.992
 9327SOL    HW128880   4.287   0.369   2.901
 9327SOL    HW228881   4.348   0.340   3.050
 9328SOL     OW28882   2.266   6.884   5.396
 9328SOL    HW128883   2.243   6.931   5.311
 9328SOL    HW228884   2.348   6.924   5.436
 9329SOL     OW28885   0.290   5.953   6.769
 9329SOL    HW128886   0.299   6.019   6.843
 9329SOL    HW228887   0.288   5.861   6.808
 9330SOL     OW28888   0.516   0.177   6.661
 9330SOL    HW128889   0.607   0.217   6.649
 9330SOL    HW228890   0.520   0.078   6.647
 9331SOL     OW28891   1.898   2.786   4.724
 9331SOL    HW128892   1.950   2.802   4.641
 9331SOL    HW228893   1.919   2.857   4.791
 9332SOL     OW28894   4.326   5.746   0.519
 9332SOL    HW128895   4.418   5.731   0.482
 9332SOL    HW228896   4.332   5.801   0.602
 9333SOL     OW28897   3.290   5.943   0.922
 9333SOL    HW128898   3.206   5.952   0.869
 9333SOL    HW228899   3.319   6.033   0.955
 9334SOL     OW28900   4.855   0.235   4.372
 9334SOL    HW128901   4.865   0.307   4.304
 9334SOL    HW228902   4.784   0.171   4.342
 9335SOL     OW28903   1.784   2.491   0.953
 9335SOL    HW128904   1.815   2.575   0.909
 9335SOL    HW228905   1.727   2.439   0.889
 9336SOL     OW28906   5.900   0.018   4.420
 9336SOL    HW128907   5.956   6.971   4.457
 9336SOL    HW228908   5.806   7.012   4.408
 9337SOL     OW28909   4.995   0.286   0.005
 9337SOL    HW128910   4.927   0.216   7.012
 9337SOL    HW228911   5.007   0.345   6.951
 9338SOL     OW28912   0.389   6.160   6.994
 9338SOL    HW128913   0.440   6.098   0.027
 9338SOL    HW228914   0.453   6.227   6.955
 9339SOL     OW28915   5.610   5.496   0.098
 9339SOL    HW128916   5.529   5.488   0.040
 9339SOL    HW228917   5.588   5.550   0.180
 9340SOL     OW28918   3.900   5.149   2.465
 9340SOL    HW128919   3.843   5.229   2.445
 9340SOL    HW228920   3.847   5.083   2.518
 9341SOL     OW28921   6.173   4.536   6.552
 9341SOL    HW128922   6.186   4.465   6.621
 9341SOL    HW228923   6.245   4.605   6.561
 9342SOL     OW28924   3.290   0.202   4.559
 9342SOL    HW128925   3.319   0.270   4.626
 9342SOL    HW228926   3.274   0.246   4.470
 9343SOL     OW28927   4.840   3.840   2.134
 9343SOL    HW128928   4.820   3.786   2.053
 9343SOL    HW228929   4.782   3.922   2.135
 9344SOL     OW28930   5.603   5.285   6.633
 9344SOL    HW128931   5.573   5.328   6.548
 9344SOL    HW228932   5.624   5.356   6.701
 9345SOL     OW28933   6.630   6.213   6.741
 9345SOL    HW128934   6.609   6.119   6.717
 9345SOL    HW228935   6.710   6.215   6.801
 9346SOL     OW28936   4.992   5.755   2.775
 9346SOL    HW128937   4.979   5.681   2.709
 9346SOL    HW228938   5.086   5.789   2.770
 9347SOL     OW28939   3.316   5.569   0.901
 9347SOL    HW128940   3.413   5.595   0.897
 9347SOL    HW228941   3.294   5.535   0.993
 9348SOL     OW28942   2.562   5.606   3.202
 9348SOL    HW128943   2.565   5.679   3.134
 9348SOL    HW228944   2.624   5.532   3.175
 9349SOL     OW28945   6.695   5.627   2.195
 9349SOL    HW128946   6.743   5.655   2.278
 9349SOL    HW228947   6.743   5.550   2.154
 9350SOL     OW28948   6.834   1.426   4.055
 9350SOL    HW128949   6.801   1.471   3.972
 9350SOL    HW228950   6.906   1.481   4.097
 9351SOL     OW28951   2.033   1.365   5.795
 9351SOL    HW128952   1.938   1.352   5.824
 9351SOL    HW228953   2.042   1.336   5.700
 9352SOL     OW28954   1.534   2.664   5.418
 9352SOL    HW128955   1.448   2.664   5.470
 9352SOL    HW228956   1.610   2.651   5.482
 9353SOL     OW28957   1.377   4.209   1.906
 9353SOL    HW128958   1.423   4.226   1.818
 9353SOL    HW228959   1.412   4.125   1.946
 9354SOL     OW28960   6.566   1.922   1.160
 9354SOL    HW128961   6.576   1.826   1.185
 9354SOL    HW228962   6.649   1.972   1.185
 9355SOL     OW28963   6.264   1.260   3.943
 9355SOL    HW128964   6.209   1.199   4.001
 9355SOL    HW228965   6.204   1.321   3.893
 9356SOL     OW28966   4.673   5.082   2.191
 9356SOL    HW128967   4.619   5.003   2.163
 9356SOL    HW228968   4.644   5.113   2.281
 9357SOL     OW28969   2.214   4.130   0.302
 9357SOL    HW128970   2.154   4.069   0.354
 9357SOL    HW228971   2.308   4.118   0.333
 9358SOL     OW28972   5.615   3.515   1.913
 9358SOL    HW128973   5.656   3.434   1.956
 9358SOL    HW228974   5.567   3.568   1.983
 9359SOL     OW28975   0.114   3.479   5.575
 9359SOL    HW128976   0.109   3.451   5.671
 9359SOL    HW228977   0.195   3.537   5.561
 9360SOL     OW28978   1.617   0.166   6.012
 9360SOL    HW128979   1.526   0.124   6.004
 9360SOL    HW228980   1.633   0.195   6.106
 9361SOL     OW28981   2.773   0.059   3.417
 9361SOL    HW128982   2.810   0.080   3.507
 9361SOL    HW228983   2.769   0.142   3.362
 9362SOL     OW28984   1.732   1.072   1.574
 9362SOL    HW128985   1.632   1.063   1.569
 9362SOL    HW228986   1.763   1.133   1.501
 9363SOL     OW28987   4.053   5.437   1.905
 9363SOL    HW128988   4.059   5.529   1.868
 9363SOL    HW228989   3.967   5.395   1.877
 9364SOL     OW28990   3.436   3.215   6.160
 9364SOL    HW128991   3.457   3.165   6.244
 9364SOL    HW228992   3.515   3.215   6.100
 9365SOL     OW28993   2.442   2.187   4.558
 9365SOL    HW128994   2.536   2.207   4.588
 9365SOL    HW228995   2.427   2.228   4.468
 9366SOL     OW28996   3.031   1.768   6.822
 9366SOL    HW128997   3.098   1.839   6.843
 9366SOL    HW228998   2.941   1.796   6.856
 9367SOL     OW28999   6.940   6.076   3.534
 9367SOL    HW129000   6.994   5.998   3.566
 9367SOL    HW229001   6.857   6.043   3.490
 9368SOL     OW29002   3.317   1.900   2.929
 9368SOL    HW129003   3.265   1.815   2.918
 9368SOL    HW229004   3.406   1.880   2.970
 9369SOL     OW29005   0.155   0.638   6.023
 9369SOL    HW129006   0.181   0.734   6.017
 9369SOL    HW229007   0.185   0.590   5.941
 9370SOL     OW29008   5.714   0.326   2.170
 9370SOL    HW129009   5.629   0.278   2.149
 9370SOL    HW229010   5.762   0.277   2.243
 9371SOL     OW29011   2.377   5.099   0.358
 9371SOL    HW129012   2.296   5.144   0.319
 9371SOL    HW229013   2.375   5.107   0.457
 9372SOL     OW29014   5.946   5.980   2.582
 9372SOL    HW129015   6.025   5.931   2.619
 9372SOL    HW229016   5.866   5.921   2.584
 9373SOL     OW29017   4.744   1.845   3.085
 9373SOL    HW129018   4.779   1.812   2.998
 9373SOL    HW229019   4.794   1.801   3.160
 9374SOL     OW29020   6.099   3.164   6.905
 9374SOL    HW129021   6.044   3.217   6.841
 9374SOL    HW229022   6.058   3.074   6.918
 9375SOL     OW29023   6.886   1.674   3.549
 9375SOL    HW129024   6.789   1.655   3.537
 9375SOL    HW229025   6.898   1.760   3.598
 9376SOL     OW29026   2.946   3.746   1.154
 9376SOL    HW129027   2.882   3.670   1.173
 9376SOL    HW229028   2.920   3.825   1.210
 9377SOL     OW29029   1.251   5.634   4.027
 9377SOL    HW129030   1.158   5.659   4.054
 9377SOL    HW229031   1.316   5.674   4.091
 9378SOL     OW29032   1.306   0.483   5.525
 9378SOL    HW129033   1.248   0.560   5.552
 9378SOL    HW229034   1.261   0.397   5.551
 9379SOL     OW29035   4.651   5.126   5.247
 9379SOL    HW129036   4.593   5.190   5.197
 9379SOL    HW229037   4.624   5.125   5.343
 9380SOL     OW29038   5.821   5.195   4.532
 9380SOL    HW129039   5.845   5.276   4.584
 9380SOL    HW229040   5.722   5.192   4.518
 9381SOL     OW29041   2.188   3.081   5.772
 9381SOL    HW129042   2.242   2.997   5.766
 9381SOL    HW229043   2.204   3.136   5.690
 9382SOL     OW29044   3.461   1.467   2.885
 9382SOL    HW129045   3.503   1.393   2.938
 9382SOL    HW229046   3.532   1.528   2.852
 9383SOL     OW29047   3.246   6.058   4.700
 9383SOL    HW129048   3.302   6.011   4.768
 9383SOL    HW229049   3.151   6.060   4.731
 9384SOL     OW29050   4.058   6.868   1.390
 9384SOL    HW129051   4.076   6.952   1.442
 9384SOL    HW229052   3.970   6.829   1.418
 9385SOL     OW29053   4.308   1.410   2.216
 9385SOL    HW129054   4.386   1.462   2.182
 9385SOL    HW229055   4.295   1.430   2.314
 9386SOL     OW29056   2.198   6.204   5.085
 9386SOL    HW129057   2.278   6.241   5.132
 9386SOL    HW229058   2.213   6.107   5.066
 9387SOL     OW29059   4.192   6.854   0.077
 9387SOL    HW129060   4.239   6.866   0.165
 9387SOL    HW229061   4.120   6.923   0.067
 9388SOL     OW29062   1.696   5.548   2.585
 9388SOL    HW129063   1.670   5.636   2.624
 9388SOL    HW229064   1.727   5.561   2.491
 9389SOL     OW29065   2.019   0.345   5.723
 9389SOL    HW129066   2.083   0.371   5.795
 9389SOL    HW229067   1.942   0.295   5.763
 9390SOL     OW29068   4.378   5.894   4.773
 9390SOL    HW129069   4.414   5.810   4.731
 9390SOL    HW229070   4.307   5.870   4.839
 9391SOL     OW29071   2.159   1.107   5.627
 9391SOL    HW129072   2.245   1.118   5.677
 9391SOL    HW229073   2.133   1.195   5.587
 9392SOL     OW29074   7.006   0.310   4.861
 9392SOL    HW129075   0.047   0.380   4.887
 9392SOL    HW229076   0.025   0.239   4.807
 9393SOL     OW29077   3.355   0.815   5.179
 9393SOL    HW129078   3.435   0.754   5.185
 9393SOL    HW229079   3.291   0.794   5.253
 9394SOL     OW29080   6.437   1.687   2.516
 9394SOL    HW129081   6.341   1.712   2.533
 9394SOL    HW229082   6.458   1.702   2.419
 9395SOL     OW29083   2.606   2.828   0.404
 9395SOL    HW129084   2.546   2.753   0.431
 9395SOL    HW229085   2.679   2.792   0.345
 9396SOL     OW29086   0.387   5.870   3.945
 9396SOL    HW129087   0.438   5.843   4.026
 9396SOL    HW229088   0.446   5.866   3.865
 9397SOL     OW29089   2.672   0.149   0.223
 9397SOL    HW129090   2.699   0.245   0.217
 9397SOL    HW229091   2.622   0.124   0.140
 9398SOL     OW29092   1.742   0.504   5.744
 9398SOL    HW129093   1.835   0.470   5.734
 9398SOL    HW229094   1.728   0.539   5.836
 9399SOL     OW29095   0.475   1.162   0.153
 9399SOL    HW129096   0.393   1.158   0.096
 9399SOL    HW229097   0.555   1.176   0.094
 9400SOL     OW29098   5.404   2.906   1.584
 9400SOL    HW129099   5.447   2.834   1.529
 9400SOL    HW229100   5.350   2.966   1.525
 9401SOL     OW29101   3.820   6.857   3.093
 9401SOL    HW129102   3.754   6.826   3.160
 9401SOL    HW229103   3.893   6.909   3.138
 9402SOL     OW29104   1.053   5.390   4.334
 9402SOL    HW129105   1.146   5.426   4.341
 9402SOL    HW229106   1.041   5.315   4.399
 9403SOL     OW29107   5.473   1.552   2.704
 9403SOL    HW129108   5.474   1.471   2.763
 9403SOL    HW229109   5.452   1.633   2.759
 9404SOL     OW29110   0.800   3.793   6.040
 9404SOL    HW129111   0.771   3.738   5.961
 9404SOL    HW229112   0.898   3.812   6.033
 9405SOL     OW29113   0.131   6.829   2.401
 9405SOL    HW129114   0.223   6.794   2.386
 9405SOL    HW229115   0.086   6.844   2.313
 9406SOL     OW29116   0.059   2.872   5.855
 9406SOL    HW129117   0.030   2.953   5.906
 9406SOL    HW229118   0.034   2.790   5.907
 9407SOL     OW29119   2.531   5.325   3.550
 9407SOL    HW129120   2.435   5.306   3.571
 9407SOL    HW229121   2.581   5.239   3.542
 9408SOL     OW29122   3.966   2.144   6.611
 9408SOL    HW129123   3.920   2.178   6.529
 9408SOL    HW229124   3.900   2.100   6.671
 9409SOL     OW29125   5.901   4.910   6.323
 9409SOL    HW129126   5.974   4.875   6.382
 9409SOL    HW229127   5.848   4.834   6.286
 9410SOL     OW29128   3.911   5.823   1.962
 9410SOL    HW129129   4.000   5.859   1.932
 9410SOL    HW229130   3.891   5.855   2.054
 9411SOL     OW29131   3.871   3.701   1.265
 9411SOL    HW129132   3.794   3.717   1.328
 9411SOL    HW229133   3.950   3.667   1.317
 9412SOL     OW29134   6.939   3.298   1.649
 9412SOL    HW129135   6.933   3.342   1.738
 9412SOL    HW229136   6.978   3.362   1.582
 9413SOL     OW29137   4.237   6.322   4.812
 9413SOL    HW129138   4.192   6.234   4.828
 9413SOL    HW229139   4.308   6.311   4.743
 9414SOL     OW29140   3.506   0.973   3.728
 9414SOL    HW129141   3.428   0.921   3.761
 9414SOL    HW229142   3.576   0.978   3.799
 9415SOL     OW29143   2.690   0.069   2.537
 9415SOL    HW129144   2.604   0.085   2.585
 9415SOL    HW229145   2.715   6.999   2.545
 9416SOL     OW29146   0.861   1.793   1.144
 9416SOL    HW129147   0.940   1.758   1.194
 9416SOL    HW229148   0.856   1.749   1.054
 9417SOL     OW29149   4.039   6.895   5.881
 9417SOL    HW129150   3.976   6.934   5.814
 9417SOL    HW229151   4.125   6.871   5.836
 9418SOL     OW29152   3.224   6.705   0.779
 9418SOL    HW129153   3.167   6.725   0.700
 9418SOL    HW229154   3.176   6.642   0.840
 9419SOL     OW29155   3.055   5.406   5.719
 9419SOL    HW129156   3.077   5.356   5.635
 9419SOL    HW229157   3.052   5.342   5.796
 9420SOL     OW29158   6.900   2.174   4.600
 9420SOL    HW129159   6.955   2.216   4.528
 9420SOL    HW229160   6.890   2.239   4.676
 9421SOL     OW29161   2.373   6.384   5.207
 9421SOL    HW129162   2.431   6.333   5.271
 9421SOL    HW229163   2.348   6.471   5.247
 9422SOL     OW29164   4.485   6.099   2.741
 9422SOL    HW129165   4.551   6.114   2.668
 9422SOL    HW229166   4.504   6.012   2.787
 9423SOL     OW29167   4.264   0.795   3.318
 9423SOL    HW129168   4.214   0.767   3.235
 9423SOL    HW229169   4.204   0.785   3.397
 9424SOL     OW29170   4.553   0.606   5.324
 9424SOL    HW129171   4.595   0.602   5.415
 9424SOL    HW229172   4.578   0.691   5.279
 9425SOL     OW29173   0.092   3.934   6.156
 9425SOL    HW129174   0.157   3.862   6.179
 9425SOL    HW229175   0.013   3.928   6.216
 9426SOL     OW29176   2.564   2.342   0.211
 9426SOL    HW129177   2.487   2.347   0.147
 9426SOL    HW229178   2.579   2.432   0.252
 9427SOL     OW29179   3.346   5.283   4.603
 9427SOL    HW129180   3.257   5.263   4.646
 9427SOL    HW229181   3.396   5.198   4.590
 9428SOL     OW29182   5.272   1.211   0.671
 9428SOL    HW129183   5.202   1.144   0.696
 9428SOL    HW229184   5.351   1.201   0.732
 9429SOL     OW29185   1.936   4.762   2.366
 9429SOL    HW129186   1.993   4.681   2.353
 9429SOL    HW229187   1.981   4.825   2.430
 9430SOL     OW29188   0.293   5.201   1.985
 9430SOL    HW129189   0.357   5.242   2.049
 9430SOL    HW229190   0.287   5.103   2.001
 9431SOL     OW29191   5.735   4.483   0.948
 9431SOL    HW129192   5.819   4.442   0.912
 9431SOL    HW229193   5.746   4.501   1.046
 9432SOL     OW29194   5.415   0.689   2.646
 9432SOL    HW129195   5.388   0.775   2.691
 9432SOL    HW229196   5.343   0.661   2.583
 9433SOL     OW29197   3.190   4.907   3.388
 9433SOL    HW129198   3.130   4.942   3.460
 9433SOL    HW229199   3.285   4.913   3.418
 9434SOL     OW29200   5.575   5.050   2.922
 9434SOL    HW129201   5.535   5.022   3.009
 9434SOL    HW229202   5.674   5.048   2.928
 9435SOL     OW29203   0.960   1.628   4.271
 9435SOL    HW129204   0.916   1.563   4.333
 9435SOL    HW229205   0.891   1.679   4.221
 9436SOL     OW29206   1.035   3.867   2.179
 9436SOL    HW129207   1.005   3.893   2.088
 9436SOL    HW229208   1.078   3.776   2.176
 9437SOL     OW29209   1.621   6.349   3.978
 9437SOL    HW129210   1.689   6.287   3.939
 9437SOL    HW229211   1.529   6.314   3.960
 9438SOL     OW29212   1.487   6.597   1.151
 9438SOL    HW129213   1.474   6.693   1.176
 9438SOL    HW229214   1.441   6.578   1.064
 9439SOL     OW29215   0.263   2.948   2.380
 9439SOL    HW129216   0.245   2.972   2.284
 9439SOL    HW229217   0.335   3.007   2.416
 9440SOL     OW29218   4.286   5.777   4.223
 9440SOL    HW129219   4.203   5.795   4.276
 9440SOL    HW229220   4.290   5.839   4.145
 9441SOL     OW29221   1.121   3.660   4.900
 9441SOL    HW129222   1.111   3.648   4.999
 9441SOL    HW229223   1.129   3.757   4.879
 9442SOL     OW29224   5.042   3.271   0.495
 9442SOL    HW129225   4.959   3.226   0.463
 9442SOL    HW229226   5.021   3.364   0.523
 9443SOL     OW29227   2.735   5.649   1.621
 9443SOL    HW129228   2.749   5.580   1.550
 9443SOL    HW229229   2.784   5.622   1.704
 9444SOL     OW29230   1.400   3.852   6.551
 9444SOL    HW129231   1.434   3.940   6.517
 9444SOL    HW229232   1.474   3.786   6.553
 9445SOL     OW29233   5.666   3.588   2.818
 9445SOL    HW129234   5.618   3.531   2.884
 9445SOL    HW229235   5.684   3.536   2.734
 9446SOL     OW29236   6.420   6.779   4.104
 9446SOL    HW129237   6.344   6.825   4.149
 9446SOL    HW229238   6.506   6.808   4.145
 9447SOL     OW29239   5.980   3.062   3.400
 9447SOL    HW129240   5.990   3.084   3.304
 9447SOL    HW229241   6.067   3.031   3.437
 9448SOL     OW29242   6.944   6.554   6.077
 9448SOL    HW129243   6.974   6.484   6.012
 9448SOL    HW229244   6.847   6.573   6.062
 9449SOL     OW29245   0.246   5.733   6.548
 9449SOL    HW129246   0.201   5.811   6.592
 9449SOL    HW229247   0.325   5.705   6.602
 9450SOL     OW29248   3.413   4.933   4.604
 9450SOL    HW129249   3.325   4.908   4.644
 9450SOL    HW229250   3.484   4.932   4.676
 9451SOL     OW29251   4.016   6.003   5.986
 9451SOL    HW129252   4.002   6.101   5.972
 9451SOL    HW229253   3.993   5.980   6.081
 9452SOL     OW29254   0.905   3.778   0.814
 9452SOL    HW129255   0.978   3.794   0.747
 9452SOL    HW229256   0.816   3.783   0.767
 9453SOL     OW29257   1.694   4.841   3.500
 9453SOL    HW129258   1.694   4.898   3.418
 9453SOL    HW229259   1.748   4.759   3.483
 9454SOL     OW29260   1.598   3.518   5.489
 9454SOL    HW129261   1.547   3.436   5.512
 9454SOL    HW229262   1.538   3.598   5.499
 9455SOL     OW29263   3.685   1.652   2.975
 9455SOL    HW129264   3.746   1.729   2.955
 9455SOL    HW229265   3.607   1.684   3.029
 9456SOL     OW29266   1.137   3.708   0.018
 9456SOL    HW129267   1.200   3.685   0.092
 9456SOL    HW229268   1.122   3.627   6.987
 9457SOL     OW29269   2.161   3.993   5.542
 9457SOL    HW129270   2.093   3.937   5.589
 9457SOL    HW229271   2.138   4.090   5.554
 9458SOL     OW29272   0.980   3.301   6.064
 9458SOL    HW129273   1.025   3.228   6.013
 9458SOL    HW229274   0.890   3.318   6.024
 9459SOL     OW29275   5.806   4.458   2.542
 9459SOL    HW129276   5.868   4.386   2.508
 9459SOL    HW229277   5.713   4.423   2.546
 9460SOL     OW29278   7.021   1.461   4.546
 9460SOL    HW129279   7.010   1.539   4.486
 9460SOL    HW229280   0.082   1.466   4.593
 9461SOL     OW29281   6.165   1.565   2.914
 9461SOL    HW129282   6.224   1.573   2.995
 9461SOL    HW229283   6.219   1.528   2.838
 9462SOL     OW29284   2.050   3.473   3.500
 9462SOL    HW129285   2.110   3.423   3.563
 9462SOL    HW229286   2.085   3.566   3.488
 9463SOL     OW29287   0.159   0.986   1.443
 9463SOL    HW129288   0.096   0.939   1.505
 9463SOL    HW229289   0.135   0.965   1.349
 9464SOL     OW29290   5.911   6.461   0.562
 9464SOL    HW129291   5.966   6.438   0.642
 9464SOL    HW229292   5.814   6.465   0.588
 9465SOL     OW29293   0.471   6.413   3.491
 9465SOL    HW129294   0.520   6.393   3.576
 9465SOL    HW229295   0.464   6.330   3.436
 9466SOL     OW29296   3.711   4.195   5.269
 9466SOL    HW129297   3.759   4.279   5.242
 9466SOL    HW229298   3.755   4.157   5.351
 9467SOL     OW29299   1.061   2.534   1.737
 9467SOL    HW129300   1.105   2.486   1.813
 9467SOL    HW229301   1.131   2.561   1.670
 9468SOL     OW29302   5.917   2.462   5.853
 9468SOL    HW129303   6.016   2.470   5.861
 9468SOL    HW229304   5.874   2.545   5.887
 9469SOL     OW29305   5.874   5.871   1.170
 9469SOL    HW129306   5.793   5.930   1.179
 9469SOL    HW229307   5.956   5.928   1.175
 9470SOL     OW29308   4.707   3.690   5.824
 9470SOL    HW129309   4.660   3.777   5.842
 9470SOL    HW229310   4.682   3.656   5.734
 9471SOL     OW29311   6.170   1.622   4.627
 9471SOL    HW129312   6.173   1.562   4.547
 9471SOL    HW229313   6.075   1.643   4.649
 9472SOL     OW29314   6.117   2.964   4.459
 9472SOL    HW129315   6.099   2.951   4.362
 9472SOL    HW229316   6.182   3.040   4.471
 9473SOL     OW29317   2.453   5.029   5.667
 9473SOL    HW129318   2.443   4.938   5.627
 9473SOL    HW229319   2.507   5.024   5.751
 9474SOL     OW29320   6.407   2.734   6.991
 9474SOL    HW129321   6.409   2.634   7.001
 9474SOL    HW229322   6.328   2.771   0.012
 9475SOL     OW29323   3.234   3.648   0.463
 9475SOL    HW129324   3.333   3.641   0.454
 9475SOL    HW229325   3.211   3.702   0.543
 9476SOL     OW29326   2.928   3.250   4.813
 9476SOL    HW129327   2.871   3.173   4.784
 9476SOL    HW229328   2.930   3.254   4.913
 9477SOL     OW29329   0.399   3.203   2.572
 9477SOL    HW129330   0.359   3.264   2.503
 9477SOL    HW229331   0.498   3.195   2.556
 9478SOL     OW29332   4.422   3.476   5.910
 9478SOL    HW129333   4.487   3.446   5.980
 9478SOL    HW229334   4.418   3.576   5.909
 9479SOL     OW29335   5.475   6.496   6.853
 9479SOL    HW129336   5.520   6.412   6.885
 9479SOL    HW229337   5.481   6.566   6.924
 9480SOL     OW29338   4.973   4.492   0.169
 9480SOL    HW129339   4.932   4.414   0.121
 9480SOL    HW229340   5.063   4.465   0.205
 9481SOL     OW29341   5.588   3.371   1.292
 9481SOL    HW129342   5.624   3.286   1.330
 9481SOL    HW229343   5.515   3.405   1.351
 9482SOL     OW29344   6.327   0.908   2.857
 9482SOL    HW129345   6.332   0.808   2.863
 9482SOL    HW229346   6.309   0.946   2.948
 9483SOL     OW29347   1.507   1.996   1.204
 9483SOL    HW129348   1.591   2.047   1.188
 9483SOL    HW229349   1.497   1.926   1.133
 9484SOL     OW29350   4.361   1.541   3.160
 9484SOL    HW129351   4.287   1.526   3.226
 9484SOL    HW229352   4.411   1.623   3.184
 9485SOL     OW29353   0.770   0.269   2.592
 9485SOL    HW129354   0.774   0.230   2.684
 9485SOL    HW229355   0.842   0.337   2.581
 9486SOL     OW29356   2.384   4.866   1.641
 9486SOL    HW129357   2.340   4.841   1.555
 9486SOL    HW229358   2.451   4.798   1.666
 9487SOL     OW29359   2.908   3.432   2.693
 9487SOL    HW129360   3.004   3.451   2.711
 9487SOL    HW229361   2.899   3.388   2.603
 9488SOL     OW29362   2.652   6.278   0.934
 9488SOL    HW129363   2.570   6.335   0.940
 9488SOL    HW229364   2.626   6.182   0.943
 9489SOL     OW29365   3.970   4.043   1.445
 9489SOL    HW129366   3.878   4.054   1.406
 9489SOL    HW229367   4.003   3.950   1.425
 9490SOL     OW29368   6.336   6.433   0.814
 9490SOL    HW129369   6.319   6.338   0.789
 9490SOL    HW229370   6.277   6.493   0.759
 9491SOL     OW29371   7.013   4.008   3.687
 9491SOL    HW129372   0.056   3.966   3.629
 9491SOL    HW229373   0.018   4.098   3.718
 9492SOL     OW29374   3.582   3.331   2.809
 9492SOL    HW129375   3.530   3.263   2.757
 9492SOL    HW229376   3.678   3.301   2.816
 9493SOL     OW29377   4.157   5.198   4.252
 9493SOL    HW129378   4.211   5.247   4.184
 9493SOL    HW229379   4.086   5.144   4.207
 9494SOL     OW29380   4.714   4.279   1.716
 9494SOL    HW129381   4.643   4.276   1.786
 9494SOL    HW229382   4.795   4.230   1.748
 9495SOL     OW29383   5.552   1.650   4.902
 9495SOL    HW129384   5.516   1.681   4.814
 9495SOL    HW229385   5.638   1.697   4.922
 9496SOL     OW29386   5.453   4.988   0.579
 9496SOL    HW129387   5.387   5.040   0.634
 9496SOL    HW229388   5.406   4.952   0.498
 9497SOL     OW29389   5.731   4.768   0.479
 9497SOL    HW129390   5.678   4.807   0.554
 9497SOL    HW229391   5.802   4.833   0.451
 9498SOL     OW29392   5.363   0.540   5.635
 9498SOL    HW129393   5.400   0.533   5.728
 9498SOL    HW229394   5.419   0.602   5.581
 9499SOL     OW29395   2.235   4.097   6.107
 9499SOL    HW129396   2.182   4.181   6.115
 9499SOL    HW229397   2.328   4.119   6.078
 9500SOL     OW29398   4.065   0.059   1.539
 9500SOL    HW129399   4.056   0.107   1.626
 9500SOL    HW229400   3.998   0.096   1.474
 9501SOL     OW29401   2.956   1.189   4.967
 9501SOL    HW129402   3.013   1.156   4.891
 9501SOL    HW229403   2.889   1.119   4.990
 9502SOL     OW29404   0.150   1.822   4.231
 9502SOL    HW129405   0.106   1.905   4.196
 9502SOL    HW229406   0.245   1.818   4.199
 9503SOL     OW29407   0.908   1.612   1.408
 9503SOL    HW129408   0.879   1.703   1.438
 9503SOL    HW229409   0.941   1.560   1.486
 9504SOL     OW29410   0.025   1.489   0.736
 9504SOL    HW129411   0.070   1.552   0.799
 9504SOL    HW229412   7.027   1.538   0.652
 9505SOL     OW29413   5.667   4.133   3.986
 9505SOL    HW129414   5.753   4.094   3.952
 9505SOL    HW229415   5.677   4.154   4.084
 9506SOL     OW29416   0.205   3.418   6.540
 9506SOL    HW129417   0.148   3.383   6.614
 9506SOL    HW229418   0.225   3.345   6.475
 9507SOL     OW29419   1.245   1.113   3.645
 9507SOL    HW129420   1.243   1.211   3.623
 9507SOL    HW229421   1.337   1.088   3.677
 9508SOL     OW29422   5.660   3.093   0.884
 9508SOL    HW129423   5.704   3.165   0.830
 9508SOL    HW229424   5.729   3.028   0.915
 9509SOL     OW29425   1.307   0.176   5.765
 9509SOL    HW129426   1.263   0.219   5.843
 9509SOL    HW229427   1.260   0.200   5.681
 9510SOL     OW29428   0.985   4.450   1.880
 9510SOL    HW129429   0.913   4.518   1.896
 9510SOL    HW229430   0.962   4.364   1.926
 9511SOL     OW29431   0.728   1.219   0.009
 9511SOL    HW129432   0.787   1.290   6.997
 9511SOL    HW229433   0.707   1.150   6.966
 9512SOL     OW29434   5.758   0.818   2.129
 9512SOL    HW129435   5.835   0.791   2.070
 9512SOL    HW229436   5.789   0.888   2.193
 9513SOL     OW29437   1.399   3.374   4.685
 9513SOL    HW129438   1.480   3.347   4.736
 9513SOL    HW229439   1.420   3.455   4.629
 9514SOL     OW29440   2.377   4.321   0.094
 9514SOL    HW129441   2.299   4.305   0.155
 9514SOL    HW229442   2.368   4.411   0.052
 9515SOL     OW29443   1.186   5.632   0.459
 9515SOL    HW129444   1.150   5.640   0.552
 9515SOL    HW229445   1.274   5.679   0.454
 9516SOL     OW29446   5.088   4.002   5.111
 9516SOL    HW129447   5.015   4.068   5.097
 9516SOL    HW229448   5.075   3.923   5.051
 9517SOL     OW29449   1.777   4.889   0.246
 9517SOL    HW129450   1.787   4.964   0.180
 9517SOL    HW229451   1.863   4.839   0.252
 9518SOL     OW29452   1.139   2.288   6.925
 9518SOL    HW129453   1.130   2.189   6.917
 9518SOL    HW229454   1.059   2.332   6.884
 9519SOL     OW29455   4.021   3.280   3.895
 9519SOL    HW129456   3.926   3.278   3.866
 9519SOL    HW229457   4.030   3.235   3.984
 9520SOL     OW29458   0.076   0.710   3.112
 9520SOL    HW129459   0.031   0.799   3.123
 9520SOL    HW229460   0.132   0.711   3.029
 9521SOL     OW29461   3.772   4.104   1.050
 9521SOL    HW129462   3.723   4.142   0.971
 9521SOL    HW229463   3.790   4.007   1.034
 9522SOL     OW29464   4.252   6.175   2.627
 9522SOL    HW129465   4.225   6.083   2.598
 9522SOL    HW229466   4.339   6.170   2.676
 9523SOL     OW29467   2.794   4.902   4.966
 9523SOL    HW129468   2.837   4.815   4.944
 9523SOL    HW229469   2.772   4.904   5.064
 9524SOL     OW29470   2.043   2.577   0.635
 9524SOL    HW129471   1.990   2.502   0.596
 9524SOL    HW229472   2.008   2.599   0.726
 9525SOL     OW29473   1.955   2.033   5.136
 9525SOL    HW129474   2.025   2.007   5.203
 9525SOL    HW229475   1.986   2.113   5.085
 9526SOL     OW29476   6.237   4.369   1.577
 9526SOL    HW129477   6.318   4.424   1.557
 9526SOL    HW229478   6.204   4.391   1.669
 9527SOL     OW29479   2.598   0.715   5.658
 9527SOL    HW129480   2.646   0.789   5.705
 9527SOL    HW229481   2.609   0.727   5.559
 9528SOL     OW29482   6.958   1.804   0.020
 9528SOL    HW129483   6.948   1.842   0.112
 9528SOL    HW229484   6.913   1.864   6.981
 9529SOL     OW29485   6.559   3.715   6.418
 9529SOL    HW129486   6.555   3.616   6.435
 9529SOL    HW229487   6.552   3.764   6.504
 9530SOL     OW29488   1.225   3.216   3.488
 9530SOL    HW129489   1.318   3.231   3.456
 9530SOL    HW229490   1.205   3.277   3.565
 9531SOL     OW29491   5.100   4.103   2.205
 9531SOL    HW129492   5.148   4.071   2.287
 9531SOL    HW229493   5.006   4.126   2.228
 9532SOL     OW29494   0.326   5.360   0.872
 9532SOL    HW129495   0.304   5.458   0.874
 9532SOL    HW229496   0.418   5.347   0.836
 9533SOL     OW29497   1.121   6.099   4.006
 9533SOL    HW129498   1.082   6.190   3.992
 9533SOL    HW229499   1.067   6.032   3.955
 9534SOL     OW29500   6.003   4.134   4.990
 9534SOL    HW129501   6.004   4.119   5.088
 9534SOL    HW229502   6.062   4.211   4.966
 9535SOL     OW29503   2.018   0.713   5.788
 9535SOL    HW129504   1.997   0.785   5.722
 9535SOL    HW229505   2.117   0.708   5.802
 9536SOL     OW29506   2.913   3.814   5.149
 9536SOL    HW129507   2.857   3.789   5.228
 9536SOL    HW229508   2.915   3.914   5.141
 9537SOL     OW29509   2.424   0.673   4.544
 9537SOL    HW129510   2.431   0.694   4.642
 9537SOL    HW229511   2.433   0.575   4.531
 9538SOL     OW29512   5.204   0.906   4.181
 9538SOL    HW129513   5.158   0.859   4.106
 9538SOL    HW229514   5.282   0.852   4.212
 9539SOL     OW29515   3.438   4.154   4.656
 9539SOL    HW129516   3.363   4.132   4.593
 9539SOL    HW229517   3.402   4.168   4.748
 9540SOL     OW29518   5.621   5.044   4.302
 9540SOL    HW129519   5.583   5.131   4.332
 9540SOL    HW229520   5.698   5.061   4.241
 9541SOL     OW29521   2.827   0.521   6.183
 9541SOL    HW129522   2.879   0.544   6.101
 9541SOL    HW229523   2.793   0.428   6.175
 9542SOL     OW29524   5.158   4.798   5.410
 9542SOL    HW129525   5.153   4.705   5.376
 9542SOL    HW229526   5.096   4.856   5.357
 9543SOL     OW29527   3.766   0.886   6.299
 9543SOL    HW129528   3.784   0.801   6.350
 9543SOL    HW229529   3.670   0.888   6.272
 9544SOL     OW29530   5.555   2.917   3.820
 9544SOL    HW129531   5.534   2.913   3.723
 9544SOL    HW229532   5.640   2.866   3.838
 9545SOL     OW29533   5.614   5.699   3.207
 9545SOL    HW129534   5.555   5.770   3.168
 9545SOL    HW229535   5.646   5.639   3.134
 9546SOL     OW29536   3.818   2.228   6.380
 9546SOL    HW129537   3.737   2.277   6.347
 9546SOL    HW229538   3.859   2.177   6.304
 9547SOL     OW29539   2.689   5.421   4.089
 9547SOL    HW129540   2.639   5.507   4.077
 9547SOL    HW229541   2.746   5.427   4.171
 9548SOL     OW29542   6.897   4.619   4.941
 9548SOL    HW129543   6.909   4.547   4.874
 9548SOL    HW229544   6.971   4.616   5.008
 9549SOL     OW29545   3.371   2.065   1.507
 9549SOL    HW129546   3.377   2.128   1.584
 9549SOL    HW229547   3.284   2.078   1.460
 9550SOL     OW29548   0.206   0.842   0.433
 9550SOL    HW129549   0.199   0.751   0.391
 9550SOL    HW229550   0.217   0.832   0.532
 9551SOL     OW29551   5.970   3.136   6.005
 9551SOL    HW129552   5.985   3.190   6.088
 9551SOL    HW229553   5.995   3.190   5.925
 9552SOL     OW29554   2.331   5.980   5.026
 9552SOL    HW129555   2.429   5.973   5.011
 9552SOL    HW229556   2.288   5.891   5.012
 9553SOL     OW29557   5.795   2.423   6.975
 9553SOL    HW129558   5.893   2.432   6.996
 9553SOL    HW229559   5.745   2.498   7.018
 9554SOL     OW29560   2.474   6.369   2.792
 9554SOL    HW129561   2.390   6.334   2.752
 9554SOL    HW229562   2.525   6.294   2.834
 9555SOL     OW29563   0.830   1.479   2.264
 9555SOL    HW129564   0.785   1.432   2.340
 9555SOL    HW229565   0.918   1.515   2.294
 9556SOL     OW29566   1.719   4.314   2.343
 9556SOL    HW129567   1.651   4.385   2.364
 9556SOL    HW229568   1.806   4.338   2.385
 9557SOL     OW29569   6.463   6.395   1.510
 9557SOL    HW129570   6.461   6.459   1.433
 9557SOL    HW229571   6.413   6.312   1.486
 9558SOL     OW29572   6.051   5.765   5.700
 9558SOL    HW129573   6.092   5.727   5.783
 9558SOL    HW229574   6.047   5.865   5.707
 9559SOL     OW29575   0.668   4.719   0.809
 9559SOL    HW129576   0.586   4.760   0.848
 9559SOL    HW229577   0.735   4.702   0.881
 9560SOL     OW29578   2.775   1.440   3.165
 9560SOL    HW129579   2.724   1.407   3.244
 9560SOL    HW229580   2.803   1.534   3.180
 9561SOL     OW29581   1.739   0.595   1.072
 9561SOL    HW129582   1.831   0.559   1.060
 9561SOL    HW229583   1.681   0.564   0.996
 9562SOL     OW29584   2.908   0.648   5.660
 9562SOL    HW129585   2.817   0.629   5.624
 9562SOL    HW229586   2.956   0.562   5.676
 9563SOL     OW29587   0.436   6.689   0.451
 9563SOL    HW129588   0.387   6.604   0.434
 9563SOL    HW229589   0.378   6.766   0.425
 9564SOL     OW29590   2.814   1.465   0.702
 9564SOL    HW129591   2.794   1.371   0.676
 9564SOL    HW229592   2.913   1.476   0.713
 9565SOL     OW29593   4.543   0.901   4.928
 9565SOL    HW129594   4.550   0.833   4.855
 9565SOL    HW229595   4.580   0.989   4.895
 9566SOL     OW29596   3.028   5.685   6.546
 9566SOL    HW129597   3.110   5.743   6.548
 9566SOL    HW229598   2.957   5.726   6.604
 9567SOL     OW29599   4.786   5.145   0.471
 9567SOL    HW129600   4.833   5.232   0.458
 9567SOL    HW229601   4.779   5.125   0.568
 9568SOL     OW29602   4.379   2.553   6.117
 9568SOL    HW129603   4.347   2.537   6.024
 9568SOL    HW229604   4.386   2.651   6.134
 9569SOL     OW29605   6.548   0.858   2.434
 9569SOL    HW129606   6.618   0.811   2.382
 9569SOL    HW229607   6.477   0.891   2.372
 9570SOL     OW29608   0.408   3.346   1.787
 9570SOL    HW129609   0.341   3.323   1.717
 9570SOL    HW229610   0.495   3.370   1.743
 9571SOL     OW29611   3.708   3.753   6.411
 9571SOL    HW129612   3.646   3.755   6.489
 9571SOL    HW229613   3.760   3.838   6.408
 9572SOL     OW29614   2.292   4.706   2.151
 9572SOL    HW129615   2.372   4.725   2.094
 9572SOL    HW229616   2.221   4.773   2.131
 9573SOL     OW29617   0.817   2.388   6.532
 9573SOL    HW129618   0.745   2.417   6.469
 9573SOL    HW229619   0.864   2.468   6.568
 9574SOL     OW29620   4.132   3.488   3.081
 9574SOL    HW129621   4.202   3.428   3.042
 9574SOL    HW229622   4.076   3.437   3.146
 9575SOL     OW29623   0.874   0.826   1.427
 9575SOL    HW129624   0.885   0.734   1.390
 9575SOL    HW229625   0.814   0.823   1.507
 9576SOL     OW29626   1.988   1.696   1.184
 9576SOL    HW129627   1.916   1.641   1.227
 9576SOL    HW229628   1.947   1.765   1.125
 9577SOL     OW29629   1.141   0.141   6.085
 9577SOL    HW129630   1.131   0.151   6.184
 9577SOL    HW229631   1.171   0.229   6.046
 9578SOL     OW29632   0.925   4.099   2.756
 9578SOL    HW129633   0.937   4.001   2.772
 9578SOL    HW229634   0.917   4.146   2.844
 9579SOL     OW29635   0.908   4.450   3.203
 9579SOL    HW129636   1.001   4.426   3.178
 9579SOL    HW229637   0.909   4.533   3.260
 9580SOL     OW29638   4.434   3.471   0.597
 9580SOL    HW129639   4.472   3.545   0.652
 9580SOL    HW229640   4.359   3.428   0.646
 9581SOL     OW29641   0.697   6.670   5.754
 9581SOL    HW129642   0.746   6.750   5.718
 9581SOL    HW229643   0.624   6.644   5.690
 9582SOL     OW29644   4.266   5.073   5.721
 9582SOL    HW129645   4.363   5.081   5.699
 9582SOL    HW229646   4.218   5.156   5.692
 9583SOL     OW29647   3.590   4.476   1.444
 9583SOL    HW129648   3.666   4.477   1.509
 9583SOL    HW229649   3.519   4.414   1.477
 9584SOL     OW29650   0.320   5.288   6.441
 9584SOL    HW129651   0.377   5.208   6.422
 9584SOL    HW229652   0.315   5.346   6.360
 9585SOL     OW29653   6.577   6.799   4.680
 9585SOL    HW129654   6.517   6.726   4.713
 9585SOL    HW229655   6.525   6.885   4.676
 9586SOL     OW29656   5.162   4.789   2.281
 9586SOL    HW129657   5.178   4.736   2.198
 9586SOL    HW229658   5.065   4.784   2.306
 9587SOL     OW29659   0.896   0.578   1.283
 9587SOL    HW129660   0.860   0.603   1.193
 9587SOL    HW229661   0.985   0.532   1.271
 9588SOL     OW29662   6.909   0.787   1.164
 9588SOL    HW129663   6.868   0.718   1.104
 9588SOL    HW229664   6.837   0.828   1.221
 9589SOL     OW29665   2.348   5.072   6.766
 9589SOL    HW129666   2.343   5.011   6.845
 9589SOL    HW229667   2.426   5.046   6.708
 9590SOL     OW29668   6.435   2.708   2.019
 9590SOL    HW129669   6.344   2.695   2.059
 9590SOL    HW229670   6.483   2.782   2.067
 9591SOL     OW29671   3.028   5.894   5.734
 9591SOL    HW129672   3.021   5.893   5.834
 9591SOL    HW229673   3.013   5.802   5.698
 9592SOL     OW29674   3.379   4.517   0.608
 9592SOL    HW129675   3.321   4.536   0.528
 9592SOL    HW229676   3.325   4.468   0.676
 9593SOL     OW29677   0.288   0.775   5.676
 9593SOL    HW129678   0.272   0.805   5.770
 9593SOL    HW229679   0.243   0.687   5.662
 9594SOL     OW29680   0.993   5.210   2.939
 9594SOL    HW129681   0.901   5.200   2.901
 9594SOL    HW229682   0.988   5.263   3.023
 9595SOL     OW29683   0.663   3.153   4.736
 9595SOL    HW129684   0.698   3.246   4.744
 9595SOL    HW229685   0.578   3.144   4.788
 9596SOL     OW29686   0.144   5.365   5.956
 9596SOL    HW129687   0.160   5.382   5.858
 9596SOL    HW229688   0.193   5.282   5.983
 9597SOL     OW29689   1.207   4.403   1.253
 9597SOL    HW129690   1.214   4.496   1.289
 9597SOL    HW229691   1.123   4.395   1.199
 9598SOL     OW29692   1.323   4.013   3.664
 9598SOL    HW129693   1.252   3.963   3.714
 9598SOL    HW229694   1.346   4.096   3.714
 9599SOL     OW29695   3.193   6.969   4.590
 9599SOL    HW129696   3.243   6.883   4.589
 9599SOL    HW229697   3.256   0.019   4.579
 9600SOL     OW29698   2.428   6.594   6.572
 9600SOL    HW129699   2.332   6.581   6.596
 9600SOL    HW229700   2.437   6.670   6.508
 9601SOL     OW29701   4.700   3.975   0.638
 9601SOL    HW129702   4.685   3.931   0.550
 9601SOL    HW229703   4.797   3.967   0.663
 9602SOL     OW29704   6.202   4.831   5.878
 9602SOL    HW129705   6.232   4.855   5.786
 9602SOL    HW229706   6.142   4.902   5.914
 9603SOL     OW29707   3.755   1.912   4.155
 9603SOL    HW129708   3.766   1.970   4.236
 9603SOL    HW229709   3.844   1.877   4.126
 9604SOL     OW29710   4.868   0.187   6.407
 9604SOL    HW129711   4.894   0.263   6.347
 9604SOL    HW229712   4.770   0.171   6.399
 9605SOL     OW29713   0.456   5.584   3.628
 9605SOL    HW129714   0.470   5.546   3.719
 9605SOL    HW229715   0.479   5.514   3.559
 9606SOL     OW29716   1.755   6.533   6.627
 9606SOL    HW129717   1.742   6.631   6.642
 9606SOL    HW229718   1.834   6.519   6.567
 9607SOL     OW29719   1.649   1.986   0.382
 9607SOL    HW129720   1.561   1.938   0.378
 9607SOL    HW229721   1.721   1.928   0.345
 9608SOL     OW29722   6.868   5.397   2.623
 9608SOL    HW129723   6.899   5.417   2.716
 9608SOL    HW229724   6.786   5.450   2.603
 9609SOL     OW29725   2.750   4.368   6.891
 9609SOL    HW129726   2.776   4.455   6.932
 9609SOL    HW229727   2.661   4.379   6.845
 9610SOL     OW29728   0.960   4.293   4.024
 9610SOL    HW129729   0.885   4.239   4.063
 9610SOL    HW229730   1.007   4.342   4.098
 9611SOL     OW29731   0.885   6.141   6.677
 9611SOL    HW129732   0.979   6.164   6.705
 9611SOL    HW229733   0.847   6.216   6.623
 9612SOL     OW29734   0.584   4.081   1.434
 9612SOL    HW129735   0.626   4.033   1.358
 9612SOL    HW229736   0.655   4.115   1.496
 9613SOL     OW29737   5.333   6.667   3.397
 9613SOL    HW129738   5.280   6.713   3.469
 9613SOL    HW229739   5.274   6.603   3.349
 9614SOL     OW29740   3.223   2.453   0.673
 9614SOL    HW129741   3.256   2.488   0.760
 9614SOL    HW229742   3.290   2.388   0.636
 9615SOL     OW29743   1.780   6.892   0.103
 9615SOL    HW129744   1.819   6.823   0.041
 9615SOL    HW229745   1.681   6.883   0.105
 9616SOL     OW29746   4.378   3.518   1.532
 9616SOL    HW129747   4.351   3.531   1.628
 9616SOL    HW229748   4.393   3.608   1.490
 9617SOL     OW29749   1.742   2.708   3.183
 9617SOL    HW129750   1.723   2.760   3.100
 9617SOL    HW229751   1.840   2.686   3.187
 9618SOL     OW29752   4.297   0.112   5.630
 9618SOL    HW129753   4.322   0.056   5.551
 9618SOL    HW229754   4.315   0.060   5.714
 9619SOL     OW29755   1.357   6.840   0.377
 9619SOL    HW129756   1.279   6.836   0.439
 9619SOL    HW229757   1.438   6.803   0.423
 9620SOL     OW29758   4.958   1.951   6.296
 9620SOL    HW129759   4.950   1.852   6.303
 9620SOL    HW229760   4.948   1.980   6.201
 9621SOL     OW29761   1.068   1.177   1.763
 9621SOL    HW129762   0.998   1.174   1.692
 9621SOL    HW229763   1.093   1.084   1.790
 9622SOL     OW29764   6.748   1.200   0.014
 9622SOL    HW129765   6.844   1.229   0.002
 9622SOL    HW229766   6.740   1.148   0.099
 9623SOL     OW29767   2.652   4.516   6.261
 9623SOL    HW129768   2.573   4.522   6.200
 9623SOL    HW229769   2.707   4.599   6.252
 9624SOL     OW29770   6.865   4.708   2.365
 9624SOL    HW129771   6.804   4.787   2.377
 9624SOL    HW229772   6.844   4.639   2.434
 9625SOL     OW29773   5.093   5.455   0.139
 9625SOL    HW129774   5.072   5.362   0.169
 9625SOL    HW229775   5.060   5.521   0.207
 9626SOL     OW29776   2.989   5.809   0.068
 9626SOL    HW129777   2.984   5.883   0.000
 9626SOL    HW229778   3.014   5.724   0.022
 9627SOL     OW29779   6.305   6.227   3.190
 9627SOL    HW129780   6.372   6.158   3.221
 9627SOL    HW229781   6.288   6.292   3.264
 9628SOL     OW29782   5.280   4.907   0.372
 9628SOL    HW129783   5.260   4.965   0.293
 9628SOL    HW229784   5.335   4.829   0.343
 9629SOL     OW29785   0.573   7.011   2.283
 9629SOL    HW129786   0.585   0.039   2.365
 9629SOL    HW229787   0.661   6.970   2.256
 9630SOL     OW29788   6.335   6.086   5.510
 9630SOL    HW129789   6.398   6.144   5.459
 9630SOL    HW229790   6.269   6.046   5.446
 9631SOL     OW29791   6.437   0.049   6.905
 9631SOL    HW129792   6.474   0.060   6.813
 9631SOL    HW229793   6.511   0.025   6.968
 9632SOL     OW29794   2.339   5.776   2.599
 9632SOL    HW129795   2.280   5.738   2.670
 9632SOL    HW229796   2.348   5.875   2.613
 9633SOL     OW29797   5.324   5.493   0.009
 9633SOL    HW129798   5.248   5.473   0.071
 9633SOL    HW229799   5.319   5.431   6.956
 9634SOL     OW29800   1.451   6.693   3.679
 9634SOL    HW129801   1.443   6.675   3.777
 9634SOL    HW229802   1.382   6.761   3.652
 9635SOL     OW29803   1.622   4.945   5.461
 9635SOL    HW129804   1.687   4.964   5.534
 9635SOL    HW229805   1.536   4.913   5.500
 9636SOL     OW29806   3.588   2.162   6.543
 9636SOL    HW129807   3.626   2.230   6.605
 9636SOL    HW229808   3.649   2.149   6.466
 9637SOL     OW29809   2.915   1.986   6.243
 9637SOL    HW129810   2.854   2.065   6.234
 9637SOL    HW229811   2.976   1.983   6.163
 9638SOL     OW29812   6.689   3.385   6.651
 9638SOL    HW129813   6.655   3.298   6.686
 9638SOL    HW229814   6.651   3.402   6.560
 9639SOL     OW29815   3.807   1.797   2.444
 9639SOL    HW129816   3.808   1.710   2.494
 9639SOL    HW229817   3.724   1.802   2.388
 9640SOL     OW29818   2.596   1.830   2.935
 9640SOL    HW129819   2.657   1.855   3.010
 9640SOL    HW229820   2.542   1.750   2.960
 9641SOL     OW29821   5.051   6.176   1.006
 9641SOL    HW129822   5.021   6.081   1.011
 9641SOL    HW229823   4.993   6.233   1.064
 9642SOL     OW29824   3.256   6.278   5.525
 9642SOL    HW129825   3.236   6.319   5.436
 9642SOL    HW229826   3.173   6.235   5.561
 9643SOL     OW29827   5.774   5.286   4.155
 9643SOL    HW129828   5.780   5.229   4.073
 9643SOL    HW229829   5.861   5.282   4.204
 9644SOL     OW29830   0.941   4.837   5.596
 9644SOL    HW129831   1.016   4.894   5.562
 9644SOL    HW229832   0.963   4.804   5.688
 9645SOL     OW29833   4.085   4.811   3.616
 9645SOL    HW129834   4.173   4.767   3.598
 9645SOL    HW229835   4.088   4.858   3.704
 9646SOL     OW29836   2.930   4.751   2.239
 9646SOL    HW129837   2.917   4.697   2.156
 9646SOL    HW229838   2.978   4.835   2.217
 9647SOL     OW29839   6.345   5.175   1.375
 9647SOL    HW129840   6.288   5.198   1.296
 9647SOL    HW229841   6.438   5.209   1.361
 9648SOL     OW29842   3.821   2.330   6.927
 9648SOL    HW129843   3.795   2.259   6.861
 9648SOL    HW229844   3.741   2.355   6.982
 9649SOL     OW29845   2.663   5.739   6.872
 9649SOL    HW129846   2.604   5.819   6.864
 9649SOL    HW229847   2.607   5.659   6.893
 9650SOL     OW29848   5.453   4.764   2.617
 9650SOL    HW129849   5.551   4.747   2.615
 9650SOL    HW229850   5.422   4.770   2.711
 9651SOL     OW29851   0.162   0.574   6.544
 9651SOL    HW129852   0.164   0.570   6.444
 9651SOL    HW229853   0.092   0.512   6.578
 9652SOL     OW29854   2.255   4.932   0.857
 9652SOL    HW129855   2.270   4.863   0.786
 9652SOL    HW229856   2.157   4.945   0.872
 9653SOL     OW29857   4.157   5.152   4.789
 9653SOL    HW129858   4.128   5.099   4.709
 9653SOL    HW229859   4.076   5.192   4.833
 9654SOL     OW29860   3.784   3.280   1.645
 9654SOL    HW129861   3.728   3.212   1.692
 9654SOL    HW229862   3.725   3.349   1.604
 9655SOL     OW29863   0.114   1.606   6.781
 9655SOL    HW129864   0.057   1.544   6.727
 9655SOL    HW229865   0.167   1.554   6.848
 9656SOL     OW29866   2.823   2.632   1.180
 9656SOL    HW129867   2.915   2.593   1.170
 9656SOL    HW229868   2.818   2.685   1.264
 9657SOL     OW29869   6.728   1.580   3.865
 9657SOL    HW129870   6.797   1.636   3.910
 9657SOL    HW229871   6.657   1.639   3.826
 9658SOL     OW29872   5.996   1.323   2.965
 9658SOL    HW129873   6.036   1.415   2.969
 9658SOL    HW229874   5.896   1.331   2.958
 9659SOL     OW29875   6.898   4.358   0.302
 9659SOL    HW129876   6.861   4.385   0.212
 9659SOL    HW229877   6.822   4.331   0.361
 9660SOL     OW29878   0.216   5.715   1.316
 9660SOL    HW129879   0.271   5.720   1.400
 9660SOL    HW229880   0.157   5.635   1.320
 9661SOL     OW29881   3.789   6.151   1.932
 9661SOL    HW129882   3.830   6.109   1.851
 9661SOL    HW229883   3.845   6.227   1.962
 9662SOL     OW29884   5.200   2.859   5.193
 9662SOL    HW129885   5.247   2.774   5.218
 9662SOL    HW229886   5.104   2.852   5.218
 9663SOL     OW29887   0.995   6.263   4.324
 9663SOL    HW129888   1.042   6.232   4.242
 9663SOL    HW229889   1.029   6.354   4.350
 9664SOL     OW29890   6.004   6.608   3.639
 9664SOL    HW129891   6.088   6.644   3.597
 9664SOL    HW229892   6.017   6.512   3.662
 9665SOL     OW29893   5.424   6.244   6.609
 9665SOL    HW129894   5.337   6.249   6.560
 9665SOL    HW229895   5.408   6.249   6.707
 9666SOL     OW29896   5.789   4.343   1.471
 9666SOL    HW129897   5.834   4.255   1.463
 9666SOL    HW229898   5.814   4.385   1.559
 9667SOL     OW29899   3.329   3.902   4.068
 9667SOL    HW129900   3.428   3.904   4.083
 9667SOL    HW229901   3.309   3.875   3.974
 9668SOL     OW29902   5.884   1.792   6.956
 9668SOL    HW129903   5.866   1.745   0.015
 9668SOL    HW229904   5.934   1.731   6.894
 9669SOL     OW29905   1.063   6.873   2.039
 9669SOL    HW129906   1.159   6.883   2.014
 9669SOL    HW229907   1.025   6.964   2.060
 9670SOL     OW29908   5.241   4.936   6.655
 9670SOL    HW129909   5.273   4.857   6.602
 9670SOL    HW229910   5.268   5.020   6.609
 9671SOL     OW29911   6.364   4.988   6.513
 9671SOL    HW129912   6.395   5.075   6.553
 9671SOL    HW229913   6.385   4.987   6.416
 9672SOL     OW29914   1.284   6.019   4.521
 9672SOL    HW129915   1.199   5.977   4.551
 9672SOL    HW229916   1.275   6.118   4.524
 9673SOL     OW29917   5.808   3.663   0.386
 9673SOL    HW129918   5.792   3.653   0.484
 9673SOL    HW229919   5.907   3.663   0.368
 9674SOL     OW29920   2.214   5.602   3.529
 9674SOL    HW129921   2.210   5.698   3.555
 9674SOL    HW229922   2.309   5.573   3.522
 9675SOL     OW29923   5.960   1.893   0.791
 9675SOL    HW129924   5.951   1.929   0.698
 9675SOL    HW229925   6.057   1.886   0.815
 9676SOL     OW29926   1.244   3.689   5.277
 9676SOL    HW129927   1.322   3.693   5.215
 9676SOL    HW229928   1.175   3.627   5.240
 9677SOL     OW29929   1.743   5.534   5.556
 9677SOL    HW129930   1.697   5.565   5.639
 9677SOL    HW229931   1.842   5.538   5.570
 9678SOL     OW29932   3.335   3.459   2.890
 9678SOL    HW129933   3.317   3.380   2.948
 9678SOL    HW229934   3.433   3.470   2.877
 9679SOL     OW29935   2.109   1.399   2.615
 9679SOL    HW129936   2.124   1.301   2.627
 9679SOL    HW229937   2.146   1.428   2.528
 9680SOL     OW29938   6.030   0.429   3.775
 9680SOL    HW129939   6.079   0.466   3.855
 9680SOL    HW229940   6.093   0.372   3.722
 9681SOL     OW29941   3.645   1.120   0.423
 9681SOL    HW129942   3.623   1.077   0.511
 9681SOL    HW229943   3.605   1.211   0.420
 9682SOL     OW29944   5.126   5.172   3.833
 9682SOL    HW129945   5.105   5.270   3.827
 9682SOL    HW229946   5.090   5.125   3.752
 9683SOL     OW29947   2.760   5.445   1.000
 9683SOL    HW129948   2.780   5.489   0.913
 9683SOL    HW229949   2.839   5.453   1.061
 9684SOL     OW29950   0.306   2.120   4.702
 9684SOL    HW129951   0.275   2.209   4.669
 9684SOL    HW229952   0.355   2.132   4.789
 9685SOL     OW29953   1.794   3.630   0.863
 9685SOL    HW129954   1.695   3.618   0.850
 9685SOL    HW229955   1.825   3.710   0.812
 9686SOL     OW29956   6.847   2.047   0.612
 9686SOL    HW129957   6.785   2.105   0.561
 9686SOL    HW229958   6.798   1.967   0.647
 9687SOL     OW29959   1.955   1.233   3.783
 9687SOL    HW129960   1.978   1.280   3.698
 9687SOL    HW229961   1.998   1.143   3.783
 9688SOL     OW29962   6.453   2.202   3.244
 9688SOL    HW129963   6.419   2.181   3.336
 9688SOL    HW229964   6.552   2.212   3.247
 9689SOL     OW29965   1.467   5.730   0.474
 9689SOL    HW129966   1.527   5.788   0.418
 9689SOL    HW229967   1.431   5.784   0.550
 9690SOL     OW29968   5.787   5.900   6.468
 9690SOL    HW129969   5.700   5.948   6.479
 9690SOL    HW229970   5.817   5.865   6.557
 9691SOL     OW29971   3.030   5.077   1.791
 9691SOL    HW129972   3.096   5.135   1.745
 9691SOL    HW229973   3.074   5.028   1.866
 9692SOL     OW29974   2.778   5.403   2.677
 9692SOL    HW129975   2.854   5.463   2.650
 9692SOL    HW229976   2.765   5.332   2.608
 9693SOL     OW29977   6.226   5.698   1.318
 9693SOL    HW129978   6.175   5.782   1.302
 9693SOL    HW229979   6.324   5.716   1.308
 9694SOL     OW29980   2.427   0.787   6.595
 9694SOL    HW129981   2.351   0.788   6.660
 9694SOL    HW229982   2.429   0.873   6.544
 9695SOL     OW29983   6.770   4.242   1.799
 9695SOL    HW129984   6.672   4.234   1.816
 9695SOL    HW229985   6.819   4.176   1.856
 9696SOL     OW29986   5.022   2.611   1.097
 9696SOL    HW129987   4.938   2.596   1.044
 9696SOL    HW229988   5.057   2.524   1.130
 9697SOL     OW29989   0.168   6.490   6.768
 9697SOL    HW129990   0.115   6.446   6.840
 9697SOL    HW229991   0.107   6.543   6.709
 9698SOL     OW29992   4.959   2.065   5.988
 9698SOL    HW129993   5.027   2.122   5.943
 9698SOL    HW229994   4.955   1.976   5.943
 9699SOL     OW29995   0.391   4.647   6.642
 9699SOL    HW129996   0.413   4.663   6.738
 9699SOL    HW229997   0.475   4.637   6.589
 9700SOL     OW29998   4.321   5.077   5.071
 9700SOL    HW129999   4.229   5.048   5.098
 9700SOL    HW230000   4.377   4.996   5.054
 9701SOL     OW30001   3.824   5.015   4.950
 9701SOL    HW130002   3.842   5.110   4.924
 9701SOL    HW230003   3.863   4.954   4.881
 9702SOL     OW30004   5.004   0.746   6.969
 9702SOL    HW130005   5.077   0.770   6.906
 9702SOL    HW230006   4.942   0.824   6.980
 9703SOL     OW30007   4.217   5.046   4.518
 9703SOL    HW130008   4.142   4.980   4.518
 9703SOL    HW230009   4.222   5.092   4.430
 9704SOL     OW30010   2.859   1.300   2.921
 9704SOL    HW130011   2.956   1.320   2.931
 9704SOL    HW230012   2.807   1.355   2.986
 9705SOL     OW30013   4.855   5.616   6.316
 9705SOL    HW130014   4.781   5.679   6.294
 9705SOL    HW230015   4.936   5.668   6.344
 9706SOL     OW30016   0.756   2.329   0.966
 9706SOL    HW130017   0.690   2.281   0.908
 9706SOL    HW230018   0.806   2.396   0.912
 9707SOL     OW30019   6.047   4.534   1.192
 9707SOL    HW130020   6.079   4.452   1.145
 9707SOL    HW230021   5.950   4.523   1.215
 9708SOL     OW30022   1.111   2.235   2.379
 9708SOL    HW130023   1.170   2.309   2.349
 9708SOL    HW230024   1.155   2.186   2.455
 9709SOL     OW30025   6.179   5.925   2.387
 9709SOL    HW130026   6.222   5.882   2.467
 9709SOL    HW230027   6.141   5.855   2.327
 9710SOL     OW30028   0.762   1.477   2.001
 9710SOL    HW130029   0.676   1.506   1.959
 9710SOL    HW230030   0.749   1.465   2.099
 9711SOL     OW30031   1.734   4.147   6.219
 9711SOL    HW130032   1.802   4.168   6.289
 9711SOL    HW230033   1.768   4.075   6.159
 9712SOL     OW30034   6.059   4.605   5.810
 9712SOL    HW130035   6.119   4.684   5.806
 9712SOL    HW230036   6.037   4.585   5.906
 9713SOL     OW30037   1.256   5.205   3.595
 9713SOL    HW130038   1.318   5.166   3.528
 9713SOL    HW230039   1.198   5.133   3.633
 9714SOL     OW30040   2.898   0.992   1.933
 9714SOL    HW130041   2.901   1.088   1.959
 9714SOL    HW230042   2.929   0.982   1.838
 9715SOL     OW30043   5.735   4.227   6.509
 9715SOL    HW130044   5.683   4.312   6.499
 9715SOL    HW230045   5.812   4.229   6.446
 9716SOL     OW30046   4.132   2.684   6.486
 9716SOL    HW130047   4.127   2.589   6.455
 9716SOL    HW230048   4.228   2.712   6.492
 9717SOL     OW30049   5.852   5.314   5.576
 9717SOL    HW130050   5.927   5.261   5.614
 9717SOL    HW230051   5.865   5.411   5.596
 9718SOL     OW30052   4.941   2.654   1.836
 9718SOL    HW130053   5.005   2.582   1.862
 9718SOL    HW230054   4.983   2.714   1.767
 9719SOL     OW30055   0.440   1.978   6.692
 9719SOL    HW130056   0.489   1.892   6.705
 9719SOL    HW230057   0.459   2.039   6.769
 9720SOL     OW30058   6.996   5.806   2.030
 9720SOL    HW130059   0.065   5.779   2.020
 9720SOL    HW230060   6.938   5.741   1.982
 9721SOL     OW30061   0.470   3.384   1.076
 9721SOL    HW130062   0.439   3.313   1.139
 9721SOL    HW230063   0.563   3.412   1.100
 9722SOL     OW30064   0.474   0.211   3.679
 9722SOL    HW130065   0.383   0.242   3.706
 9722SOL    HW230066   0.483   0.219   3.579
 9723SOL     OW30067   2.019   6.019   3.827
 9723SOL    HW130068   2.111   6.039   3.792
 9723SOL    HW230069   1.972   6.105   3.847
 9724SOL     OW30070   2.124   3.761   0.335
 9724SOL    HW130071   2.048   3.743   0.398
 9724SOL    HW230072   2.210   3.756   0.386
 9725SOL     OW30073   4.193   4.462   6.756
 9725SOL    HW130074   4.147   4.436   6.672
 9725SOL    HW230075   4.156   4.409   6.833
 9726SOL     OW30076   4.774   0.264   3.956
 9726SOL    HW130077   4.778   0.164   3.964
 9726SOL    HW230078   4.842   0.304   4.017
 9727SOL     OW30079   0.631   3.519   5.139
 9727SOL    HW130080   0.633   3.616   5.117
 9727SOL    HW230081   0.679   3.468   5.068
 9728SOL     OW30082   0.129   0.263   5.819
 9728SOL    HW130083   0.117   0.275   5.720
 9728SOL    HW230084   0.046   0.223   5.858
 9729SOL     OW30085   1.107   4.351   3.008
 9729SOL    HW130086   1.174   4.278   3.000
 9729SOL    HW230087   1.016   4.316   2.983
 9730SOL     OW30088   0.260   3.279   2.801
 9730SOL    HW130089   0.294   3.262   2.709
 9730SOL    HW230090   0.265   3.377   2.820
 9731SOL     OW30091   4.394   3.825   0.961
 9731SOL    HW130092   4.300   3.845   0.988
 9731SOL    HW230093   4.415   3.729   0.983
 9732SOL     OW30094   5.564   6.051   3.492
 9732SOL    HW130095   5.606   5.961   3.506
 9732SOL    HW230096   5.471   6.039   3.456
 9733SOL     OW30097   5.232   5.141   0.182
 9733SOL    HW130098   5.300   5.203   0.221
 9733SOL    HW230099   5.230   5.152   0.082
 9734SOL     OW30100   5.617   1.528   3.088
 9734SOL    HW130101   5.717   1.525   3.092
 9734SOL    HW230102   5.589   1.590   3.014
 9735SOL     OW30103   1.777   4.565   2.961
 9735SOL    HW130104   1.845   4.517   3.018
 9735SOL    HW230105   1.795   4.546   2.865
 9736SOL     OW30106   5.972   1.978   6.162
 9736SOL    HW130107   5.876   1.957   6.182
 9736SOL    HW230108   5.991   2.073   6.184
 9737SOL     OW30109   6.629   3.148   4.736
 9737SOL    HW130110   6.545   3.108   4.773
 9737SOL    HW230111   6.706   3.120   4.794
 9738SOL     OW30112   2.244   6.987   2.886
 9738SOL    HW130113   2.265   6.972   2.982
 9738SOL    HW230114   2.167   0.023   2.877
 9739SOL     OW30115   6.525   5.310   2.202
 9739SOL    HW130116   6.621   5.325   2.176
 9739SOL    HW230117   6.519   5.299   2.302
 9740SOL     OW30118   6.303   2.345   3.912
 9740SOL    HW130119   6.358   2.295   3.979
 9740SOL    HW230120   6.257   2.281   3.851
 9741SOL     OW30121   4.889   2.008   2.561
 9741SOL    HW130122   4.794   1.985   2.536
 9741SOL    HW230123   4.951   1.972   2.490
 9742SOL     OW30124   3.879   0.154   2.015
 9742SOL    HW130125   3.796   0.101   2.025
 9742SOL    HW230126   3.935   0.145   2.097
 9743SOL     OW30127   1.428   1.164   4.465
 9743SOL    HW130128   1.521   1.140   4.436
 9743SOL    HW230129   1.415   1.136   4.560
 9744SOL     OW30130   0.662   0.399   2.834
 9744SOL    HW130131   0.617   0.388   2.745
 9744SOL    HW230132   0.753   0.358   2.830
 9745SOL     OW30133   6.570   3.302   6.167
 9745SOL    HW130134   6.659   3.257   6.171
 9745SOL    HW230135   6.498   3.233   6.167
 9746SOL     OW30136   6.576   1.076   6.325
 9746SOL    HW130137   6.581   1.156   6.385
 9746SOL    HW230138   6.483   1.040   6.324
 9747SOL     OW30139   1.669   0.580   2.002
 9747SOL    HW130140   1.729   0.646   1.957
 9747SOL    HW230141   1.720   0.534   2.075
 9748SOL     OW30142   1.097   0.983   3.425
 9748SOL    HW130143   1.116   0.884   3.431
 9748SOL    HW230144   1.164   1.033   3.479
 9749SOL     OW30145   2.208   1.781   5.003
 9749SOL    HW130146   2.262   1.851   4.955
 9749SOL    HW230147   2.124   1.764   4.953
 9750SOL     OW30148   5.420   4.671   3.403
 9750SOL    HW130149   5.505   4.638   3.362
 9750SOL    HW230150   5.440   4.737   3.475
 9751SOL     OW30151   1.749   1.282   0.421
 9751SOL    HW130152   1.694   1.319   0.496
 9751SOL    HW230153   1.697   1.287   0.336
 9752SOL     OW30154   5.024   1.697   6.967
 9752SOL    HW130155   5.115   1.739   6.967
 9752SOL    HW230156   5.005   1.659   0.031
 9753SOL     OW30157   5.964   4.915   5.144
 9753SOL    HW130158   5.938   5.002   5.186
 9753SOL    HW230159   5.938   4.840   5.205
 9754SOL     OW30160   0.746   1.423   6.328
 9754SOL    HW130161   0.771   1.468   6.414
 9754SOL    HW230162   0.773   1.327   6.332
 9755SOL     OW30163   3.962   3.621   5.398
 9755SOL    HW130164   3.951   3.532   5.443
 9755SOL    HW230165   3.944   3.611   5.300
 9756SOL     OW30166   5.990   3.209   0.276
 9756SOL    HW130167   6.001   3.123   0.326
 9756SOL    HW230168   5.901   3.208   0.230
 9757SOL     OW30169   5.530   3.653   3.274
 9757SOL    HW130170   5.618   3.639   3.319
 9757SOL    HW230171   5.462   3.680   3.343
 9758SOL     OW30172   2.544   0.101   7.009
 9758SOL    HW130173   2.512   0.157   6.932
 9758SOL    HW230174   2.531   0.005   6.988
 9759SOL     OW30175   2.321   6.986   6.622
 9759SOL    HW130176   2.346   6.978   6.526
 9759SOL    HW230177   2.398   7.022   6.674
 9760SOL     OW30178   4.458   3.520   5.272
 9760SOL    HW130179   4.542   3.545   5.224
 9760SOL    HW230180   4.455   3.421   5.287
 9761SOL     OW30181   6.031   6.849   1.559
 9761SOL    HW130182   5.973   6.769   1.547
 9761SOL    HW230183   6.019   6.885   1.652
 9762SOL     OW30184   2.607   2.445   4.397
 9762SOL    HW130185   2.614   2.400   4.308
 9762SOL    HW230186   2.644   2.385   4.467
 9763SOL     OW30187   4.454   2.167   1.745
 9763SOL    HW130188   4.414   2.111   1.817
 9763SOL    HW230189   4.489   2.108   1.672
 9764SOL     OW30190   0.822   2.504   3.240
 9764SOL    HW130191   0.849   2.424   3.187
 9764SOL    HW230192   0.737   2.542   3.202
 9765SOL     OW30193   6.408   2.046   2.972
 9765SOL    HW130194   6.437   2.069   3.065
 9765SOL    HW230195   6.334   2.108   2.944
 9766SOL     OW30196   2.802   0.542   2.969
 9766SOL    HW130197   2.744   0.463   2.991
 9766SOL    HW230198   2.783   0.617   3.033
 9767SOL     OW30199   5.199   2.119   5.017
 9767SOL    HW130200   5.284   2.078   5.050
 9767SOL    HW230201   5.133   2.121   5.092
 9768SOL     OW30202   4.516   1.533   2.118
 9768SOL    HW130203   4.479   1.538   2.026
 9768SOL    HW230204   4.595   1.594   2.125
 9769SOL     OW30205   1.908   1.132   1.982
 9769SOL    HW130206   1.984   1.176   1.935
 9769SOL    HW230207   1.929   1.125   2.080
 9770SOL     OW30208   5.409   0.455   6.957
 9770SOL    HW130209   5.437   0.380   6.898
 9770SOL    HW230210   5.475   0.530   6.950
 9771SOL     OW30211   3.596   5.047   1.448
 9771SOL    HW130212   3.551   5.079   1.531
 9771SOL    HW230213   3.659   5.117   1.415
 9772SOL     OW30214   1.315   6.120   2.502
 9772SOL    HW130215   1.279   6.210   2.478
 9772SOL    HW230216   1.288   6.098   2.596
 9773SOL     OW30217   5.652   6.899   4.416
 9773SOL    HW130218   5.621   6.863   4.504
 9773SOL    HW230219   5.632   6.831   4.344
 9774SOL     OW30220   6.286   5.041   1.999
 9774SOL    HW130221   6.225   5.007   2.071
 9774SOL    HW230222   6.278   4.983   1.919
 9775SOL     OW30223   2.773   1.265   3.550
 9775SOL    HW130224   2.833   1.254   3.471
 9775SOL    HW230225   2.679   1.239   3.524
 9776SOL     OW30226   6.866   5.820   4.230
 9776SOL    HW130227   6.856   5.832   4.329
 9776SOL    HW230228   6.817   5.737   4.201
 9777SOL     OW30229   5.657   5.041   6.519
 9777SOL    HW130230   5.632   5.135   6.497
 9777SOL    HW230231   5.754   5.027   6.499
 9778SOL     OW30232   0.330   0.875   3.496
 9778SOL    HW130233   0.321   0.954   3.557
 9778SOL    HW230234   0.412   0.823   3.520
 9779SOL     OW30235   2.061   1.390   4.652
 9779SOL    HW130236   2.044   1.464   4.588
 9779SOL    HW230237   2.157   1.391   4.680
 9780SOL     OW30238   2.482   2.123   1.064
 9780SOL    HW130239   2.550   2.138   1.136
 9780SOL    HW230240   2.505   2.179   0.984
 9781SOL     OW30241   1.109   3.727   3.378
 9781SOL    HW130242   1.098   3.823   3.354
 9781SOL    HW230243   1.083   3.670   3.301
 9782SOL     OW30244   6.985   0.577   1.350
 9782SOL    HW130245   7.006   0.621   1.263
 9782SOL    HW230246   6.888   0.587   1.371
 9783SOL     OW30247   5.129   2.346   2.325
 9783SOL    HW130248   5.094   2.425   2.376
 9783SOL    HW230249   5.181   2.378   2.245
 9784SOL     OW30250   4.161   1.446   3.937
 9784SOL    HW130251   4.109   1.426   3.854
 9784SOL    HW230252   4.245   1.495   3.913
 9785SOL     OW30253   6.996   4.284   5.007
 9785SOL    HW130254   6.965   4.194   4.976
 9785SOL    HW230255   6.955   4.305   5.095
 9786SOL     OW30256   2.226   4.980   6.476
 9786SOL    HW130257   2.225   5.080   6.474
 9786SOL    HW230258   2.320   4.948   6.484
 9787SOL     OW30259   4.839   3.566   1.581
 9787SOL    HW130260   4.792   3.530   1.662
 9787SOL    HW230261   4.787   3.643   1.544
 9788SOL     OW30262   0.693   0.555   3.685
 9788SOL    HW130263   0.774   0.600   3.647
 9788SOL    HW230264   0.616   0.565   3.621
 9789SOL     OW30265   1.298   5.918   6.921
 9789SOL    HW130266   1.199   5.905   6.920
 9789SOL    HW230267   1.322   5.996   6.863
 9790SOL     OW30268   5.900   4.019   5.808
 9790SOL    HW130269   5.801   4.033   5.811
 9790SOL    HW230270   5.919   3.933   5.759
 9791SOL     OW30271   0.463   1.174   3.078
 9791SOL    HW130272   0.546   1.138   3.121
 9791SOL    HW230273   0.384   1.149   3.133
 9792SOL     OW30274   5.414   5.344   1.434
 9792SOL    HW130275   5.362   5.306   1.510
 9792SOL    HW230276   5.499   5.294   1.423
 9793SOL     OW30277   5.438   5.123   3.503
 9793SOL    HW130278   5.349   5.144   3.463
 9793SOL    HW230279   5.487   5.208   3.521
 9794SOL     OW30280   6.577   4.037   6.369
 9794SOL    HW130281   6.570   3.970   6.295
 9794SOL    HW230282   6.536   3.999   6.452
 9795SOL     OW30283   1.386   1.816   4.212
 9795SOL    HW130284   1.320   1.759   4.262
 9795SOL    HW230285   1.349   1.839   4.123
 9796SOL     OW30286   3.948   3.068   0.958
 9796SOL    HW130287   4.010   3.100   1.030
 9796SOL    HW230288   3.924   3.144   0.899
 9797SOL     OW30289   3.385   4.643   6.379
 9797SOL    HW130290   3.390   4.666   6.282
 9797SOL    HW230291   3.335   4.715   6.427
 9798SOL     OW30292   2.398   0.901   0.835
 9798SOL    HW130293   2.403   0.830   0.764
 9798SOL    HW230294   2.421   0.989   0.795
 9799SOL     OW30295   3.504   3.431   3.318
 9799SOL    HW130296   3.478   3.422   3.222
 9799SOL    HW230297   3.529   3.525   3.338
 9800SOL     OW30298   3.083   6.402   5.326
 9800SOL    HW130299   3.005   6.344   5.302
 9800SOL    HW230300   3.055   6.466   5.398
 9801SOL     OW30301   4.265   4.928   0.759
 9801SOL    HW130302   4.209   4.993   0.707
 9801SOL    HW230303   4.322   4.875   0.697
 9802SOL     OW30304   0.408   2.636   2.397
 9802SOL    HW130305   0.459   2.634   2.311
 9802SOL    HW230306   0.426   2.721   2.445
 9803SOL     OW30307   6.198   1.530   6.944
 9803SOL    HW130308   6.113   1.478   6.938
 9803SOL    HW230309   6.257   1.505   6.867
 9804SOL     OW30310   0.591   5.907   3.187
 9804SOL    HW130311   0.643   5.838   3.237
 9804SOL    HW230312   0.494   5.899   3.210
 9805SOL     OW30313   1.312   5.692   5.953
 9805SOL    HW130314   1.340   5.683   5.858
 9805SOL    HW230315   1.303   5.602   5.994
 9806SOL     OW30316   1.234   1.675   0.253
 9806SOL    HW130317   1.305   1.739   0.284
 9806SOL    HW230318   1.189   1.635   0.333
 9807SOL     OW30319   2.043   2.618   6.909
 9807SOL    HW130320   2.035   2.520   6.895
 9807SOL    HW230321   2.102   2.636   6.987
 9808SOL     OW30322   5.318   0.895   5.677
 9808SOL    HW130323   5.279   0.965   5.617
 9808SOL    HW230324   5.401   0.857   5.635
 9809SOL     OW30325   0.859   1.721   6.159
 9809SOL    HW130326   0.888   1.740   6.252
 9809SOL    HW230327   0.929   1.666   6.113
 9810SOL     OW30328   2.695   2.369   3.711
 9810SOL    HW130329   2.658   2.450   3.755
 9810SOL    HW230330   2.734   2.393   3.622
 9811SOL     OW30331   6.160   5.656   3.962
 9811SOL    HW130332   6.162   5.600   4.046
 9811SOL    HW230333   6.190   5.600   3.885
 9812SOL     OW30334   3.257   2.553   6.145
 9812SOL    HW130335   3.327   2.615   6.110
 9812SOL    HW230336   3.247   2.475   6.083
 9813SOL     OW30337   5.693   6.337   6.602
 9813SOL    HW130338   5.706   6.428   6.562
 9813SOL    HW230339   5.595   6.319   6.613
 9814SOL     OW30340   0.574   0.965   6.360
 9814SOL    HW130341   0.580   0.961   6.260
 9814SOL    HW230342   0.529   1.050   6.387
 9815SOL     OW30343   6.787   2.359   2.012
 9815SOL    HW130344   6.775   2.419   2.092
 9815SOL    HW230345   6.715   2.289   2.013
 9816SOL     OW30346   6.342   1.431   6.746
 9816SOL    HW130347   6.369   1.346   6.700
 9816SOL    HW230348   6.365   1.509   6.688
 9817SOL     OW30349   3.030   5.730   1.867
 9817SOL    HW130350   3.105   5.795   1.873
 9817SOL    HW230351   2.958   5.756   1.931
 9818SOL     OW30352   1.533   1.064   3.631
 9818SOL    HW130353   1.533   0.964   3.637
 9818SOL    HW230354   1.582   1.103   3.709
 9819SOL     OW30355   4.976   3.408   5.077
 9819SOL    HW130356   5.066   3.402   5.034
 9819SOL    HW230357   4.959   3.503   5.104
 9820SOL     OW30358   3.512   3.111   6.445
 9820SOL    HW130359   3.611   3.101   6.430
 9820SOL    HW230360   3.496   3.152   6.535
 9821SOL     OW30361   4.195   1.898   1.079
 9821SOL    HW130362   4.105   1.907   1.122
 9821SOL    HW230363   4.187   1.908   0.980
 9822SOL     OW30364   3.559   5.413   4.148
 9822SOL    HW130365   3.584   5.462   4.065
 9822SOL    HW230366   3.623   5.436   4.221
 9823SOL     OW30367   1.576   0.189   2.115
 9823SOL    HW130368   1.638   0.181   2.193
 9823SOL    HW230369   1.572   0.102   2.066
 9824SOL     OW30370   2.171   5.849   5.364
 9824SOL    HW130371   2.177   5.927   5.426
 9824SOL    HW230372   2.083   5.852   5.316
 9825SOL     OW30373   5.789   5.961   4.660
 9825SOL    HW130374   5.731   6.004   4.591
 9825SOL    HW230375   5.742   5.881   4.698
 9826SOL     OW30376   3.415   6.116   5.293
 9826SOL    HW130377   3.421   6.205   5.247
 9826SOL    HW230378   3.495   6.103   5.351
 9827SOL     OW30379   2.021   4.522   3.115
 9827SOL    HW130380   2.073   4.507   3.031
 9827SOL    HW230381   2.030   4.442   3.174
 9828SOL     OW30382   3.377   2.066   5.071
 9828SOL    HW130383   3.326   2.134   5.018
 9828SOL    HW230384   3.358   1.974   5.034
 9829SOL     OW30385   4.664   5.808   6.284
 9829SOL    HW130386   4.579   5.762   6.309
 9829SOL    HW230387   4.667   5.822   6.185
 9830SOL     OW30388   5.140   1.481   1.854
 9830SOL    HW130389   5.221   1.527   1.818
 9830SOL    HW230390   5.076   1.550   1.887
 9831SOL     OW30391   0.861   4.585   1.416
 9831SOL    HW130392   0.929   4.625   1.478
 9831SOL    HW230393   0.895   4.497   1.383
 9832SOL     OW30394   4.517   5.169   3.636
 9832SOL    HW130395   4.531   5.232   3.713
 9832SOL    HW230396   4.576   5.196   3.560
 9833SOL     OW30397   3.469   3.160   3.710
 9833SOL    HW130398   3.416   3.233   3.667
 9833SOL    HW230399   3.559   3.154   3.667
 9834SOL     OW30400   2.104   4.722   5.731
 9834SOL    HW130401   2.088   4.782   5.809
 9834SOL    HW230402   2.036   4.649   5.730
 9835SOL     OW30403   3.622   2.947   4.226
 9835SOL    HW130404   3.602   3.045   4.232
 9835SOL    HW230405   3.540   2.898   4.196
 9836SOL     OW30406   0.330   4.243   4.727
 9836SOL    HW130407   0.362   4.305   4.799
 9836SOL    HW230408   0.377   4.265   4.641
 9837SOL     OW30409   5.623   1.595   2.458
 9837SOL    HW130410   5.559   1.582   2.534
 9837SOL    HW230411   5.642   1.507   2.414
 9838SOL     OW30412   1.649   0.135   0.849
 9838SOL    HW130413   1.672   0.040   0.828
 9838SOL    HW230414   1.633   0.185   0.764
 9839SOL     OW30415   4.379   0.160   3.517
 9839SOL    HW130416   4.329   0.131   3.599
 9839SOL    HW230417   4.324   0.227   3.466
 9840SOL     OW30418   4.554   1.924   0.203
 9840SOL    HW130419   4.469   1.910   0.152
 9840SOL    HW230420   4.604   2.002   0.163
 9841SOL     OW30421   0.974   5.002   3.428
 9841SOL    HW130422   0.937   5.092   3.452
 9841SOL    HW230423   1.036   5.011   3.350
 9842SOL     OW30424   3.862   3.339   0.498
 9842SOL    HW130425   3.924   3.266   0.526
 9842SOL    HW230426   3.835   3.325   0.403
 9843SOL     OW30427   6.831   0.525   2.157
 9843SOL    HW130428   6.895   0.469   2.209
 9843SOL    HW230429   6.876   0.561   2.076
 9844SOL     OW30430   6.319   0.814   3.984
 9844SOL    HW130431   6.353   0.849   4.072
 9844SOL    HW230432   6.306   0.890   3.921
 9845SOL     OW30433   0.571   2.808   2.922
 9845SOL    HW130434   0.580   2.738   2.851
 9845SOL    HW230435   0.536   2.892   2.881
 9846SOL     OW30436   5.041   1.208   0.290
 9846SOL    HW130437   5.085   1.186   0.377
 9846SOL    HW230438   4.986   1.131   0.259
 9847SOL     OW30439   3.866   3.063   2.183
 9847SOL    HW130440   3.811   3.011   2.248
 9847SOL    HW230441   3.955   3.084   2.223
 9848SOL     OW30442   3.340   4.588   5.348
 9848SOL    HW130443   3.372   4.493   5.342
 9848SOL    HW230444   3.241   4.591   5.333
 9849SOL     OW30445   0.895   6.885   6.716
 9849SOL    HW130446   0.797   6.903   6.727
 9849SOL    HW230447   0.912   6.786   6.724
 9850SOL     OW30448   6.883   0.192   3.660
 9850SOL    HW130449   6.790   0.173   3.626
 9850SOL    HW230450   6.898   0.290   3.662
 9851SOL     OW30451   3.176   6.098   4.455
 9851SOL    HW130452   3.210   6.081   4.548
 9851SOL    HW230453   3.080   6.073   4.450
 9852SOL     OW30454   1.174   1.638   5.421
 9852SOL    HW130455   1.158   1.729   5.458
 9852SOL    HW230456   1.272   1.620   5.417
 9853SOL     OW30457   0.092   3.659   4.911
 9853SOL    HW130458   0.056   3.695   4.998
 9853SOL    HW230459   0.062   3.564   4.900
 9854SOL     OW30460   0.902   5.106   4.954
 9854SOL    HW130461   0.951   5.046   4.892
 9854SOL    HW230462   0.949   5.107   5.043
 9855SOL     OW30463   1.114   3.335   0.972
 9855SOL    HW130464   1.157   3.364   0.886
 9855SOL    HW230465   1.047   3.404   1.000
 9856SOL     OW30466   6.047   4.487   4.148
 9856SOL    HW130467   6.070   4.542   4.068
 9856SOL    HW230468   6.021   4.547   4.223
 9857SOL     OW30469   5.424   2.778   3.033
 9857SOL    HW130470   5.343   2.721   3.048
 9857SOL    HW230471   5.396   2.873   3.019
 9858SOL     OW30472   1.335   6.794   1.686
 9858SOL    HW130473   1.316   6.887   1.716
 9858SOL    HW230474   1.289   6.729   1.747
 9859SOL     OW30475   6.579   4.984   4.839
 9859SOL    HW130476   6.616   4.903   4.793
 9859SOL    HW230477   6.606   5.066   4.787
 9860SOL     OW30478   1.842   1.869   4.958
 9860SOL    HW130479   1.803   1.936   4.895
 9860SOL    HW230480   1.879   1.916   5.038
 9861SOL     OW30481   2.805   1.017   3.862
 9861SOL    HW130482   2.841   1.102   3.822
 9861SOL    HW230483   2.880   0.963   3.899
 9862SOL     OW30484   3.113   4.081   0.714
 9862SOL    HW130485   3.073   4.168   0.686
 9862SOL    HW230486   3.058   4.005   0.677
 9863SOL     OW30487   3.380   5.803   1.403
 9863SOL    HW130488   3.443   5.735   1.367
 9863SOL    HW230489   3.319   5.834   1.330
 9864SOL     OW30490   2.974   6.861   5.642
 9864SOL    HW130491   3.015   6.843   5.731
 9864SOL    HW230492   3.024   6.809   5.572
 9865SOL     OW30493   0.457   6.293   5.306
 9865SOL    HW130494   0.517   6.372   5.292
 9865SOL    HW230495   0.384   6.293   5.238
 9866SOL     OW30496   6.168   4.331   4.867
 9866SOL    HW130497   6.225   4.322   4.949
 9866SOL    HW230498   6.216   4.289   4.790
 9867SOL     OW30499   5.690   2.230   2.870
 9867SOL    HW130500   5.640   2.315   2.887
 9867SOL    HW230501   5.703   2.218   2.772
 9868SOL     OW30502   0.749   3.722   3.790
 9868SOL    HW130503   0.799   3.655   3.736
 9868SOL    HW230504   0.803   3.805   3.801
 9869SOL     OW30505   0.192   2.414   1.102
 9869SOL    HW130506   0.279   2.442   1.140
 9869SOL    HW230507   0.207   2.367   1.015
 9870SOL     OW30508   4.397   0.937   2.675
 9870SOL    HW130509   4.308   0.908   2.640
 9870SOL    HW230510   4.456   0.857   2.684
 9871SOL     OW30511   7.000   3.221   6.383
 9871SOL    HW130512   0.062   3.213   6.339
 9871SOL    HW230513   6.979   3.318   6.397
 9872SOL     OW30514   2.154   5.404   5.331
 9872SOL    HW130515   2.123   5.314   5.362
 9872SOL    HW230516   2.114   5.423   5.241
 9873SOL     OW30517   2.135   2.360   6.021
 9873SOL    HW130518   2.081   2.295   5.968
 9873SOL    HW230519   2.171   2.431   5.959
 9874SOL     OW30520   0.678   2.997   4.460
 9874SOL    HW130521   0.669   2.897   4.462
 9874SOL    HW230522   0.659   3.034   4.551
 9875SOL     OW30523   0.017   6.161   1.523
 9875SOL    HW130524   0.060   6.201   1.441
 9875SOL    HW230525   0.073   6.182   1.603
 9876SOL     OW30526   4.435   0.074   3.969
 9876SOL    HW130527   4.502   0.010   3.931
 9876SOL    HW230528   4.443   0.076   4.068
 9877SOL     OW30529   6.918   4.217   4.185
 9877SOL    HW130530   6.844   4.226   4.252
 9877SOL    HW230531   6.927   4.302   4.133
 9878SOL     OW30532   1.902   3.374   6.489
 9878SOL    HW130533   1.978   3.440   6.485
 9878SOL    HW230534   1.822   3.412   6.444
 9879SOL     OW30535   0.723   4.752   6.020
 9879SOL    HW130536   0.818   4.729   6.043
 9879SOL    HW230537   0.689   4.688   5.952
 9880SOL     OW30538   2.509   1.109   0.161
 9880SOL    HW130539   2.578   1.128   0.092
 9880SOL    HW230540   2.493   1.191   0.215
 9881SOL     OW30541   5.413   0.520   4.692
 9881SOL    HW130542   5.321   0.502   4.725
 9881SOL    HW230543   5.411   0.537   4.593
 9882SOL     OW30544   3.537   3.523   4.430
 9882SOL    HW130545   3.589   3.449   4.474
 9882SOL    HW230546   3.489   3.575   4.500
 9883SOL     OW30547   2.176   6.411   1.682
 9883SOL    HW130548   2.129   6.497   1.701
 9883SOL    HW230549   2.272   6.419   1.708
 9884SOL     OW30550   2.646   3.020   6.921
 9884SOL    HW130551   2.602   2.998   6.834
 9884SOL    HW230552   2.584   3.075   6.977
 9885SOL     OW30553   0.772   3.161   3.678
 9885SOL    HW130554   0.760   3.215   3.595
 9885SOL    HW230555   0.832   3.084   3.659
 9886SOL     OW30556   6.269   6.920   1.991
 9886SOL    HW130557   6.221   7.005   2.014
 9886SOL    HW230558   6.204   6.845   1.987
 9887SOL     OW30559   3.660   0.234   0.388
 9887SOL    HW130560   3.726   0.309   0.389
 9887SOL    HW230561   3.596   0.246   0.312
 9888SOL     OW30562   6.052   5.980   3.183
 9888SOL    HW130563   6.004   6.068   3.190
 9888SOL    HW230564   5.993   5.908   3.219
 9889SOL     OW30565   0.479   4.814   2.827
 9889SOL    HW130566   0.514   4.899   2.790
 9889SOL    HW230567   0.482   4.818   2.927
 9890SOL     OW30568   6.364   2.998   0.611
 9890SOL    HW130569   6.453   2.952   0.601
 9890SOL    HW230570   6.349   3.057   0.531
 9891SOL     OW30571   5.547   5.009   1.478
 9891SOL    HW130572   5.611   5.078   1.444
 9891SOL    HW230573   5.500   5.044   1.559
 9892SOL     OW30574   2.345   5.074   3.827
 9892SOL    HW130575   2.298   5.144   3.881
 9892SOL    HW230576   2.290   4.991   3.825
 9893SOL     OW30577   6.666   5.548   2.928
 9893SOL    HW130578   6.735   5.604   2.975
 9893SOL    HW230579   6.632   5.597   2.848
 9894SOL     OW30580   2.855   1.758   6.399
 9894SOL    HW130581   2.903   1.790   6.317
 9894SOL    HW230582   2.808   1.835   6.443
 9895SOL     OW30583   6.114   2.253   6.231
 9895SOL    HW130584   6.031   2.308   6.241
 9895SOL    HW230585   6.169   2.289   6.156
 9896SOL     OW30586   4.046   2.867   0.795
 9896SOL    HW130587   4.001   2.929   0.860
 9896SOL    HW230588   4.005   2.877   0.705
 9897SOL     OW30589   5.449   1.011   2.537
 9897SOL    HW130590   5.353   1.019   2.508
 9897SOL    HW230591   5.454   1.008   2.637
 9898SOL     OW30592   0.700   4.800   5.431
 9898SOL    HW130593   0.796   4.801   5.456
 9898SOL    HW230594   0.654   4.881   5.466
 9899SOL     OW30595   6.052   4.130   2.042
 9899SOL    HW130596   6.081   4.059   1.978
 9899SOL    HW230597   6.055   4.094   2.135
 9900SOL     OW30598   1.663   2.137   2.869
 9900SOL    HW130599   1.642   2.043   2.839
 9900SOL    HW230600   1.717   2.133   2.953
 9901SOL     OW30601   1.367   2.037   6.864
 9901SOL    HW130602   1.323   1.975   6.800
 9901SOL    HW230603   1.326   2.028   6.954
 9902SOL     OW30604   3.483   3.100   0.579
 9902SOL    HW130605   3.456   3.035   0.650
 9902SOL    HW230606   3.419   3.177   0.578
 9903SOL     OW30607   4.893   0.160   2.295
 9903SOL    HW130608   4.898   0.252   2.335
 9903SOL    HW230609   4.963   0.150   2.225
 9904SOL     OW30610   0.437   3.847   6.609
 9904SOL    HW130611   0.455   3.871   6.704
 9904SOL    HW230612   0.410   3.928   6.558
 9905SOL     OW30613   1.476   6.488   0.409
 9905SOL    HW130614   1.431   6.438   0.482
 9905SOL    HW230615   1.493   6.427   0.332
 9906SOL     OW30616   1.307   3.158   6.443
 9906SOL    HW130617   1.221   3.204   6.420
 9906SOL    HW230618   1.381   3.199   6.389
 9907SOL     OW30619   2.772   6.079   3.334
 9907SOL    HW130620   2.754   6.069   3.237
 9907SOL    HW230621   2.689   6.058   3.386
 9908SOL     OW30622   0.517   3.221   6.315
 9908SOL    HW130623   0.521   3.209   6.215
 9908SOL    HW230624   0.536   3.316   6.338
 9909SOL     OW30625   3.520   1.256   3.047
 9909SOL    HW130626   3.578   1.199   2.989
 9909SOL    HW230627   3.552   1.251   3.141
 9910SOL     OW30628   0.460   4.957   1.791
 9910SOL    HW130629   0.432   5.051   1.771
 9910SOL    HW230630   0.455   4.902   1.709
 9911SOL     OW30631   5.018   5.492   2.973
 9911SOL    HW130632   5.047   5.554   3.046
 9911SOL    HW230633   4.925   5.514   2.944
 9912SOL     OW30634   3.951   0.621   2.579
 9912SOL    HW130635   3.910   0.635   2.488
 9912SOL    HW230636   3.937   0.526   2.607
 9913SOL     OW30637   5.768   3.038   2.258
 9913SOL    HW130638   5.717   3.064   2.176
 9913SOL    HW230639   5.754   2.941   2.277
 9914SOL     OW30640   1.082   0.643   5.578
 9914SOL    HW130641   1.021   0.646   5.499
 9914SOL    HW230642   1.117   0.735   5.597
 9915SOL     OW30643   5.527   3.536   4.209
 9915SOL    HW130644   5.493   3.482   4.132
 9915SOL    HW230645   5.555   3.626   4.176
 9916SOL     OW30646   2.738   2.400   3.012
 9916SOL    HW130647   2.727   2.441   3.103
 9916SOL    HW230648   2.786   2.312   3.021
 9917SOL     OW30649   3.513   3.638   5.189
 9917SOL    HW130650   3.449   3.564   5.171
 9917SOL    HW230651   3.554   3.627   5.279
 9918SOL     OW30652   1.721   1.068   0.076
 9918SOL    HW130653   1.745   1.031   7.013
 9918SOL    HW230654   1.656   1.144   0.064
 9919SOL     OW30655   2.177   4.961   2.398
 9919SOL    HW130656   2.110   5.034   2.383
 9919SOL    HW230657   2.248   4.993   2.459
 9920SOL     OW30658   3.697   0.290   2.568
 9920SOL    HW130659   3.780   0.268   2.617
 9920SOL    HW230660   3.693   0.237   2.483
 9921SOL     OW30661   6.536   6.148   3.705
 9921SOL    HW130662   6.562   6.244   3.709
 9921SOL    HW230663   6.436   6.140   3.705
 9922SOL     OW30664   4.318   4.099   1.166
 9922SOL    HW130665   4.308   4.167   1.094
 9922SOL    HW230666   4.314   4.144   1.256
 9923SOL     OW30667   6.671   2.463   6.922
 9923SOL    HW130668   6.723   2.408   6.988
 9923SOL    HW230669   6.573   2.449   6.938
 9924SOL     OW30670   5.714   1.639   1.658
 9924SOL    HW130671   5.696   1.614   1.753
 9924SOL    HW230672   5.707   1.738   1.648
 9925SOL     OW30673   1.990   3.720   5.337
 9925SOL    HW130674   1.941   3.807   5.347
 9925SOL    HW230675   1.923   3.646   5.331
 9926SOL     OW30676   2.882   2.265   1.298
 9926SOL    HW130677   2.815   2.193   1.280
 9926SOL    HW230678   2.898   2.318   1.214
 9927SOL     OW30679   0.905   2.269   1.641
 9927SOL    HW130680   0.871   2.346   1.696
 9927SOL    HW230681   0.977   2.302   1.579
 9928SOL     OW30682   6.102   3.953   2.246
 9928SOL    HW130683   6.159   3.897   2.185
 9928SOL    HW230684   6.142   3.953   2.338
 9929SOL     OW30685   2.875   4.219   5.596
 9929SOL    HW130686   2.926   4.138   5.624
 9929SOL    HW230687   2.825   4.199   5.511
 9930SOL     OW30688   6.814   0.570   5.665
 9930SOL    HW130689   6.884   0.600   5.730
 9930SOL    HW230690   6.820   0.625   5.582
 9931SOL     OW30691   0.445   5.856   4.831
 9931SOL    HW130692   0.503   5.814   4.901
 9931SOL    HW230693   0.411   5.944   4.864
 9932SOL     OW30694   1.667   2.261   0.377
 9932SOL    HW130695   1.582   2.314   0.378
 9932SOL    HW230696   1.645   2.164   0.379
 9933SOL     OW30697   2.794   0.985   3.273
 9933SOL    HW130698   2.859   1.055   3.243
 9933SOL    HW230699   2.826   0.943   3.358
 9934SOL     OW30700   5.916   1.983   0.538
 9934SOL    HW130701   5.911   2.082   0.523
 9934SOL    HW230702   5.898   1.935   0.453
 9935SOL     OW30703   3.009   2.322   0.843
 9935SOL    HW130704   3.049   2.387   0.778
 9935SOL    HW230705   3.081   2.261   0.877
 9936SOL     OW30706   5.565   4.455   6.472
 9936SOL    HW130707   5.517   4.495   6.550
 9936SOL    HW230708   5.533   4.496   6.387
 9937SOL     OW30709   0.682   0.932   2.776
 9937SOL    HW130710   0.617   0.951   2.849
 9937SOL    HW230711   0.649   0.856   2.721
 9938SOL     OW30712   5.768   0.634   3.725
 9938SOL    HW130713   5.743   0.646   3.629
 9938SOL    HW230714   5.847   0.573   3.732
 9939SOL     OW30715   1.355   3.552   1.050
 9939SOL    HW130716   1.305   3.467   1.033
 9939SOL    HW230717   1.291   3.629   1.047
 9940SOL     OW30718   0.445   0.197   3.382
 9940SOL    HW130719   0.534   0.155   3.362
 9940SOL    HW230720   0.440   0.287   3.340
 9941SOL     OW30721   3.697   5.436   5.335
 9941SOL    HW130722   3.686   5.357   5.395
 9941SOL    HW230723   3.607   5.468   5.305
 9942SOL     OW30724   4.623   4.691   2.518
 9942SOL    HW130725   4.669   4.659   2.435
 9942SOL    HW230726   4.570   4.616   2.558
 9943SOL     OW30727   0.968   4.364   6.240
 9943SOL    HW130728   1.022   4.284   6.214
 9943SOL    HW230729   0.945   4.417   6.159
 9944SOL     OW30730   0.336   5.398   6.194
 9944SOL    HW130731   0.274   5.411   6.117
 9944SOL    HW230732   0.391   5.481   6.207
 9945SOL     OW30733   6.023   4.005   6.899
 9945SOL    HW130734   5.982   3.978   6.812
 9945SOL    HW230735   5.972   4.082   6.937
 9946SOL     OW30736   6.011   6.977   3.261
 9946SOL    HW130737   6.031   0.048   3.257
 9946SOL    HW230738   5.929   6.957   3.207
 9947SOL     OW30739   1.392   1.619   3.837
 9947SOL    HW130740   1.445   1.649   3.757
 9947SOL    HW230741   1.350   1.531   3.817
 9948SOL     OW30742   6.864   5.612   5.108
 9948SOL    HW130743   6.932   5.541   5.088
 9948SOL    HW230744   6.828   5.597   5.200
 9949SOL     OW30745   0.068   4.814   4.191
 9949SOL    HW130746   0.093   4.829   4.096
 9949SOL    HW230747   0.086   4.897   4.244
 9950SOL     OW30748   6.780   4.831   6.034
 9950SOL    HW130749   6.851   4.761   6.029
 9950SOL    HW230750   6.694   4.790   6.066
 9951SOL     OW30751   1.248   2.448   2.651
 9951SOL    HW130752   1.285   2.501   2.727
 9951SOL    HW230753   1.279   2.488   2.565
 9952SOL     OW30754   0.840   3.700   2.006
 9952SOL    HW130755   0.892   3.615   2.011
 9952SOL    HW230756   0.745   3.684   2.032
 9953SOL     OW30757   6.500   2.624   3.873
 9953SOL    HW130758   6.483   2.535   3.916
 9953SOL    HW230759   6.481   2.618   3.775
 9954SOL     OW30760   2.574   1.720   5.080
 9954SOL    HW130761   2.528   1.682   5.000
 9954SOL    HW230762   2.672   1.726   5.062
 9955SOL     OW30763   4.773   3.456   0.160
 9955SOL    HW130764   4.865   3.488   0.139
 9955SOL    HW230765   4.777   3.364   0.200
 9956SOL     OW30766   0.642   4.600   2.257
 9956SOL    HW130767   0.574   4.589   2.330
 9956SOL    HW230768   0.626   4.532   2.186
 9957SOL     OW30769   5.358   6.927   1.254
 9957SOL    HW130770   5.266   6.926   1.215
 9957SOL    HW230771   5.357   6.981   1.339
 9958SOL     OW30772   3.421   5.668   6.333
 9958SOL    HW130773   3.429   5.681   6.235
 9958SOL    HW230774   3.501   5.618   6.367
 9959SOL     OW30775   4.298   3.646   1.775
 9959SOL    HW130776   4.236   3.722   1.755
 9959SOL    HW230777   4.258   3.588   1.845
 9960SOL     OW30778   6.814   6.330   1.569
 9960SOL    HW130779   6.909   6.300   1.578
 9960SOL    HW230780   6.753   6.258   1.602
 9961SOL     OW30781   1.709   4.643   2.491
 9961SOL    HW130782   1.625   4.641   2.436
 9961SOL    HW230783   1.782   4.687   2.439
 9962SOL     OW30784   3.785   0.612   1.782
 9962SOL    HW130785   3.718   0.554   1.828
 9962SOL    HW230786   3.749   0.704   1.772
 9963SOL     OW30787   2.691   2.484   0.564
 9963SOL    HW130788   2.630   2.494   0.485
 9963SOL    HW230789   2.679   2.562   0.626
 9964SOL     OW30790   4.047   5.064   6.108
 9964SOL    HW130791   4.062   5.160   6.132
 9964SOL    HW230792   4.026   5.011   6.190
 9965SOL     OW30793   4.079   5.572   4.960
 9965SOL    HW130794   4.154   5.559   4.896
 9965SOL    HW230795   3.995   5.593   4.909
 9966SOL     OW30796   2.948   5.033   2.240
 9966SOL    HW130797   2.851   5.013   2.235
 9966SOL    HW230798   2.970   5.112   2.183
 9967SOL     OW30799   6.325   5.643   3.030
 9967SOL    HW130800   6.331   5.712   3.102
 9967SOL    HW230801   6.250   5.666   2.968
 9968SOL     OW30802   4.674   5.644   6.925
 9968SOL    HW130803   4.661   5.619   7.021
 9968SOL    HW230804   4.596   5.700   6.895
 9969SOL     OW30805   1.300   3.584   4.436
 9969SOL    HW130806   1.389   3.591   4.481
 9969SOL    HW230807   1.292   3.495   4.391
 9970SOL     OW30808   5.835   4.723   1.871
 9970SOL    HW130809   5.786   4.656   1.815
 9970SOL    HW230810   5.868   4.679   1.954
 9971SOL     OW30811   1.228   2.649   1.295
 9971SOL    HW130812   1.302   2.612   1.239
 9971SOL    HW230813   1.140   2.623   1.256
 9972SOL     OW30814   2.853   4.053   1.270
 9972SOL    HW130815   2.885   4.131   1.215
 9972SOL    HW230816   2.775   4.010   1.225
 9973SOL     OW30817   4.955   2.843   4.772
 9973SOL    HW130818   5.028   2.822   4.837
 9973SOL    HW230819   4.870   2.800   4.803
 9974SOL     OW30820   6.784   1.932   3.316
 9974SOL    HW130821   6.694   1.900   3.288
 9974SOL    HW230822   6.849   1.920   3.241
 9975SOL     OW30823   0.889   5.092   6.586
 9975SOL    HW130824   0.856   5.009   6.542
 9975SOL    HW230825   0.979   5.116   6.549
 9976SOL     OW30826   0.654   5.209   5.882
 9976SOL    HW130827   0.686   5.115   5.895
 9976SOL    HW230828   0.732   5.271   5.885
 9977SOL     OW30829   5.391   4.413   6.036
 9977SOL    HW130830   5.433   4.466   5.962
 9977SOL    HW230831   5.295   4.395   6.015
 9978SOL     OW30832   0.094   2.282   5.664
 9978SOL    HW130833   0.098   2.369   5.713
 9978SOL    HW230834   0.051   2.296   5.575
 9979SOL     OW30835   5.959   4.227   6.286
 9979SOL    HW130836   5.951   4.322   6.316
 9979SOL    HW230837   6.031   4.219   6.217
 9980SOL     OW30838   2.188   0.250   1.172
 9980SOL    HW130839   2.128   0.175   1.145
 9980SOL    HW230840   2.140   0.311   1.236
 9981SOL     OW30841   1.612   2.302   1.120
 9981SOL    HW130842   1.538   2.285   1.056
 9981SOL    HW230843   1.668   2.378   1.086
 9982SOL     OW30844   1.692   1.185   4.630
 9982SOL    HW130845   1.708   1.273   4.586
 9982SOL    HW230846   1.678   1.115   4.561
 9983SOL     OW30847   6.719   1.764   2.404
 9983SOL    HW130848   6.658   1.686   2.417
 9983SOL    HW230849   6.714   1.825   2.483
 9984SOL     OW30850   0.401   6.042   0.508
 9984SOL    HW130851   0.468   6.008   0.575
 9984SOL    HW230852   0.407   5.988   0.424
 9985SOL     OW30853   3.002   5.266   0.903
 9985SOL    HW130854   2.999   5.303   0.996
 9985SOL    HW230855   2.994   5.341   0.837
 9986SOL     OW30856   6.002   4.849   0.658
 9986SOL    HW130857   6.003   4.890   0.567
 9986SOL    HW230858   6.005   4.749   0.649
 9987SOL     OW30859   5.219   2.552   1.652
 9987SOL    HW130860   5.143   2.488   1.636
 9987SOL    HW230861   5.187   2.646   1.640
 9988SOL     OW30862   6.748   4.958   4.163
 9988SOL    HW130863   6.790   4.886   4.219
 9988SOL    HW230864   6.819   5.021   4.131
 9989SOL     OW30865   5.844   3.805   2.029
 9989SOL    HW130866   5.906   3.732   2.060
 9989SOL    HW230867   5.896   3.871   1.975
 9990SOL     OW30868   2.129   6.317   3.330
 9990SOL    HW130869   2.184   6.298   3.249
 9990SOL    HW230870   2.185   6.362   3.399
 9991SOL     OW30871   2.176   3.310   3.685
 9991SOL    HW130872   2.238   3.233   3.670
 9991SOL    HW230873   2.103   3.283   3.747
 9992SOL     OW30874   3.332   3.531   0.966
 9992SOL    HW130875   3.236   3.503   0.959
 9992SOL    HW230876   3.391   3.451   0.974
 9993SOL     OW30877   3.585   6.129   3.957
 9993SOL    HW130878   3.490   6.161   3.952
 9993SOL    HW230879   3.617   6.105   3.866
 9994SOL     OW30880   0.021   3.918   3.059
 9994SOL    HW130881   0.021   3.976   2.978
 9994SOL    HW230882   6.967   3.938   3.115
 9995SOL     OW30883   3.208   1.587   3.232
 9995SOL    HW130884   3.282   1.534   3.272
 9995SOL    HW230885   3.219   1.683   3.256
 9996SOL     OW30886   3.258   4.116   0.957
 9996SOL    HW130887   3.222   4.090   0.867
 9996SOL    HW230888   3.284   4.034   1.008
 9997SOL     OW30889   5.395   0.899   3.068
 9997SOL    HW130890   5.455   0.932   3.141
 9997SOL    HW230891   5.359   0.809   3.094
 9998SOL     OW30892   5.141   3.871   2.025
 9998SOL    HW130893   5.087   3.805   2.078
 9998SOL    HW230894   5.144   3.958   2.074
 9999SOL     OW30895   0.227   6.144   4.541
 9999SOL    HW130896   0.191   6.085   4.613
 9999SOL    HW230897   0.172   6.133   4.458
10000SOL     OW30898   5.608   1.972   0.893
10000SOL    HW130899   5.536   1.954   0.961
10000SOL    HW230900   5.665   1.891   0.883
10001SOL     OW30901   3.342   0.121   1.953
10001SOL    HW130902   3.337   0.036   1.900
10001SOL    HW230903   3.302   0.107   2.043
10002SOL     OW30904   2.766   1.429   0.970
10002SOL    HW130905   2.738   1.516   1.012
10002SOL    HW230906   2.762   1.438   0.870
10003SOL     OW30907   3.278   2.128   2.741
10003SOL    HW130908   3.359   2.183   2.718
10003SOL    HW230909   3.307   2.047   2.793
10004SOL     OW30910   5.024   3.757   5.388
10004SOL    HW130911   4.977   3.822   5.447
10004SOL    HW230912   4.973   3.671   5.387
10005SOL     OW30913   3.865   5.196   2.977
10005SOL    HW130914   3.839   5.120   2.917
10005SOL    HW230915   3.791   5.262   2.982
10006SOL     OW30916   5.511   6.678   5.223
10006SOL    HW130917   5.611   6.669   5.229
10006SOL    HW230918   5.474   6.702   5.312
10007SOL     OW30919   0.978   3.517   4.587
10007SOL    HW130920   1.057   3.493   4.643
10007SOL    HW230921   1.010   3.558   4.501
10008SOL     OW30922   5.084   1.660   3.218
10008SOL    HW130923   5.094   1.733   3.151
10008SOL    HW230924   4.991   1.662   3.256
10009SOL     OW30925   2.148   4.361   1.999
10009SOL    HW130926   2.195   4.448   1.984
10009SOL    HW230927   2.208   4.298   2.048
10010SOL     OW30928   2.553   6.282   0.245
10010SOL    HW130929   2.616   6.210   0.215
10010SOL    HW230930   2.468   6.276   0.192
10011SOL     OW30931   0.282   4.067   6.843
10011SOL    HW130932   0.267   4.131   6.918
10011SOL    HW230933   0.335   3.989   6.877
10012SOL     OW30934   5.255   6.849   2.435
10012SOL    HW130935   5.323   6.780   2.460
10012SOL    HW230936   5.274   6.934   2.483
10013SOL     OW30937   1.249   3.114   3.837
10013SOL    HW130938   1.337   3.085   3.800
10013SOL    HW230939   1.243   3.214   3.834
10014SOL     OW30940   0.901   0.090   2.089
10014SOL    HW130941   0.822   0.083   2.027
10014SOL    HW230942   0.875   0.141   2.170
10015SOL     OW30943   4.240   5.359   0.509
10015SOL    HW130944   4.246   5.418   0.429
10015SOL    HW230945   4.149   5.317   0.513
10016SOL     OW30946   2.419   1.080   4.745
10016SOL    HW130947   2.340   1.119   4.699
10016SOL    HW230948   2.454   1.144   4.813
10017SOL     OW30949   1.484   1.713   2.704
10017SOL    HW130950   1.388   1.704   2.676
10017SOL    HW230951   1.524   1.623   2.716
10018SOL     OW30952   6.755   4.544   5.696
10018SOL    HW130953   6.794   4.463   5.653
10018SOL    HW230954   6.665   4.563   5.655
10019SOL     OW30955   0.060   1.767   3.134
10019SOL    HW130956   7.015   1.824   3.094
10019SOL    HW230957   0.038   1.670   3.118
10020SOL     OW30958   0.453   1.090   1.954
10020SOL    HW130959   0.393   1.059   1.881
10020SOL    HW230960   0.433   1.186   1.975
10021SOL     OW30961   0.670   3.113   2.512
10021SOL    HW130962   0.728   3.151   2.584
10021SOL    HW230963   0.726   3.061   2.448
10022SOL     OW30964   3.393   6.214   0.694
10022SOL    HW130965   3.417   6.125   0.656
10022SOL    HW230966   3.453   6.284   0.656
10023SOL     OW30967   1.776   5.394   4.693
10023SOL    HW130968   1.770   5.317   4.756
10023SOL    HW230969   1.820   5.471   4.738
10024SOL     OW30970   1.071   5.730   2.807
10024SOL    HW130971   1.170   5.719   2.809
10024SOL    HW230972   1.031   5.690   2.889
10025SOL     OW30973   1.179   3.057   2.197
10025SOL    HW130974   1.150   3.031   2.105
10025SOL    HW230975   1.275   3.033   2.209
10026SOL     OW30976   5.395   0.028   3.532
10026SOL    HW130977   5.444   0.038   3.445
10026SOL    HW230978   5.458   0.046   3.608
10027SOL     OW30979   0.561   2.412   4.877
10027SOL    HW130980   0.488   2.447   4.936
10027SOL    HW230981   0.649   2.451   4.906
10028SOL     OW30982   1.782   1.474   2.074
10028SOL    HW130983   1.834   1.557   2.052
10028SOL    HW230984   1.824   1.395   2.028
10029SOL     OW30985   1.897   2.632   3.682
10029SOL    HW130986   1.918   2.729   3.690
10029SOL    HW230987   1.798   2.618   3.685
10030SOL     OW30988   3.571   0.286   5.342
10030SOL    HW130989   3.500   0.356   5.334
10030SOL    HW230990   3.546   0.222   5.415
10031SOL     OW30991   5.154   5.061   4.515
10031SOL    HW130992   5.240   5.104   4.544
10031SOL    HW230993   5.088   5.065   4.590
10032SOL     OW30994   4.516   0.495   5.721
10032SOL    HW130995   4.581   0.560   5.681
10032SOL    HW230996   4.475   0.440   5.649
10033SOL     OW30997   4.525   2.488   4.433
10033SOL    HW130998   4.501   2.431   4.512
10033SOL    HW230999   4.469   2.572   4.435
10034SOL     OW31000   3.033   0.262   3.833
10034SOL    HW131001   2.976   0.305   3.903
10034SOL    HW231002   3.086   0.188   3.875
10035SOL     OW31003   6.734   4.406   0.812
10035SOL    HW131004   6.807   4.340   0.800
10035SOL    HW231005   6.663   4.391   0.743
10036SOL     OW31006   6.829   0.770   0.765
10036SOL    HW131007   6.919   0.809   0.783
10036SOL    HW231008   6.759   0.840   0.780
10037SOL     OW31009   6.432   0.524   0.184
10037SOL    HW131010   6.439   0.446   0.122
10037SOL    HW231011   6.494   0.596   0.152
10038SOL     OW31012   4.064   6.914   6.611
10038SOL    HW131013   4.049   6.836   6.672
10038SOL    HW231014   3.985   6.925   6.551
10039SOL     OW31015   5.262   6.377   5.528
10039SOL    HW131016   5.309   6.455   5.486
10039SOL    HW231017   5.163   6.396   5.531
10040SOL     OW31018   4.451   5.799   5.987
10040SOL    HW131019   4.415   5.891   6.000
10040SOL    HW231020   4.381   5.732   6.011
10041SOL     OW31021   5.169   5.570   6.313
10041SOL    HW131022   5.102   5.632   6.355
10041SOL    HW231023   5.235   5.623   6.260
10042SOL     OW31024   0.791   1.706   5.048
10042SOL    HW131025   0.769   1.611   5.024
10042SOL    HW231026   0.890   1.714   5.063
10043SOL     OW31027   0.062   1.472   4.182
10043SOL    HW131028   0.106   1.389   4.215
10043SOL    HW231029   0.035   1.529   4.259
10044SOL     OW31030   2.591   2.390   3.269
10044SOL    HW131031   2.586   2.477   3.318
10044SOL    HW231032   2.654   2.329   3.317
10045SOL     OW31033   4.926   0.011   3.557
10045SOL    HW131034   4.955   0.030   3.650
10045SOL    HW231035   4.884   0.093   3.517
10046SOL     OW31036   1.323   3.477   1.727
10046SOL    HW131037   1.256   3.403   1.737
10046SOL    HW231038   1.291   3.542   1.658
10047SOL     OW31039   5.598   3.673   5.057
10047SOL    HW131040   5.610   3.659   5.155
10047SOL    HW231041   5.572   3.587   5.013
10048SOL     OW31042   4.103   1.951   2.443
10048SOL    HW131043   4.166   2.016   2.401
10048SOL    HW231044   4.049   1.906   2.372
10049SOL     OW31045   0.316   0.327   6.319
10049SOL    HW131046   0.264   0.406   6.287
10049SOL    HW231047   0.399   0.318   6.265
10050SOL     OW31048   6.311   2.342   5.403
10050SOL    HW131049   6.274   2.433   5.423
10050SOL    HW231050   6.406   2.337   5.433
10051SOL     OW31051   6.347   2.146   5.743
10051SOL    HW131052   6.253   2.111   5.743
10051SOL    HW231053   6.410   2.069   5.746
10052SOL     OW31054   2.825   2.158   2.856
10052SOL    HW131055   2.890   2.118   2.792
10052SOL    HW231056   2.822   2.257   2.842
10053SOL     OW31057   3.701   5.645   1.898
10053SOL    HW131058   3.766   5.712   1.934
10053SOL    HW231059   3.748   5.557   1.884
10054SOL     OW31060   4.530   5.450   6.303
10054SOL    HW131061   4.503   5.534   6.350
10054SOL    HW231062   4.627   5.433   6.318
10055SOL     OW31063   5.939   2.137   5.469
10055SOL    HW131064   5.947   2.153   5.567
10055SOL    HW231065   5.909   2.221   5.424
10056SOL     OW31066   5.886   4.848   1.266
10056SOL    HW131067   5.878   4.944   1.295
10056SOL    HW231068   5.809   4.796   1.304
10057SOL     OW31069   3.882   2.120   4.639
10057SOL    HW131070   3.964   2.175   4.625
10057SOL    HW231071   3.858   2.119   4.736
10058SOL     OW31072   0.570   3.916   4.549
10058SOL    HW131073   0.617   3.987   4.496
10058SOL    HW231074   0.471   3.921   4.532
10059SOL     OW31075   5.224   6.473   0.911
10059SOL    HW131076   5.179   6.525   0.983
10059SOL    HW231077   5.222   6.376   0.933
10060SOL     OW31078   2.014   1.618   2.020
10060SOL    HW131079   2.047   1.613   2.114
10060SOL    HW231080   2.034   1.708   1.982
10061SOL     OW31081   5.590   1.428   5.041
10061SOL    HW131082   5.549   1.500   4.985
10061SOL    HW231083   5.522   1.395   5.106
10062SOL     OW31084   6.527   0.102   4.473
10062SOL    HW131085   6.513   0.077   4.569
10062SOL    HW231086   6.608   0.160   4.465
10063SOL     OW31087   1.636   1.223   3.821
10063SOL    HW131088   1.722   1.266   3.792
10063SOL    HW231089   1.586   1.285   3.882
10064SOL     OW31090   5.259   6.158   0.005
10064SOL    HW131091   5.244   6.255   7.014
10064SOL    HW231092   5.339   6.126   6.982
10065SOL     OW31093   2.344   6.713   2.753
10065SOL    HW131094   2.338   6.807   2.786
10065SOL    HW231095   2.365   6.652   2.829
10066SOL     OW31096   0.785   0.925   3.516
10066SOL    HW131097   0.812   0.841   3.561
10066SOL    HW231098   0.833   0.933   3.428
10067SOL     OW31099   6.277   4.279   5.102
10067SOL    HW131100   6.376   4.288   5.091
10067SOL    HW231101   6.257   4.240   5.192
10068SOL     OW31102   6.066   3.129   3.132
10068SOL    HW131103   6.113   3.138   3.044
10068SOL    HW231104   6.057   3.219   3.175
10069SOL     OW31105   2.132   5.348   3.766
10069SOL    HW131106   2.125   5.447   3.780
10069SOL    HW231107   2.127   5.301   3.854
10070SOL     OW31108   6.455   0.061   4.755
10070SOL    HW131109   6.524   0.125   4.789
10070SOL    HW231110   6.368   0.077   4.802
10071SOL     OW31111   6.019   5.477   3.766
10071SOL    HW131112   6.054   5.569   3.785
10071SOL    HW231113   5.929   5.467   3.809
10072SOL     OW31114   0.602   6.354   3.716
10072SOL    HW131115   0.536   6.298   3.765
10072SOL    HW231116   0.695   6.325   3.740
10073SOL     OW31117   6.039   4.569   4.912
10073SOL    HW131118   6.105   4.617   4.970
10073SOL    HW231119   6.075   4.478   4.889
10074SOL     OW31120   1.156   0.821   5.240
10074SOL    HW131121   1.183   0.732   5.275
10074SOL    HW231122   1.111   0.873   5.313
10075SOL     OW31123   1.055   2.779   3.064
10075SOL    HW131124   0.956   2.792   3.072
10075SOL    HW231125   1.075   2.681   3.059
10076SOL     OW31126   6.928   0.303   3.361
10076SOL    HW131127   6.915   0.205   3.345
10076SOL    HW231128   6.840   0.348   3.369
10077SOL     OW31129   3.762   3.251   6.012
10077SOL    HW131130   3.842   3.233   6.070
10077SOL    HW231131   3.776   3.337   5.962
10078SOL     OW31132   0.148   5.831   3.841
10078SOL    HW131133   0.089   5.911   3.843
10078SOL    HW231134   0.242   5.858   3.862
10079SOL     OW31135   0.307   4.008   2.069
10079SOL    HW131136   0.399   3.974   2.049
10079SOL    HW231137   0.313   4.104   2.097
10080SOL     OW31138   3.450   1.386   5.391
10080SOL    HW131139   3.527   1.325   5.410
10080SOL    HW231140   3.398   1.349   5.314
10081SOL     OW31141   0.052   6.790   0.619
10081SOL    HW131142   0.053   6.699   0.579
10081SOL    HW231143   0.146   6.817   0.642
10082SOL     OW31144   0.245   4.748   1.808
10082SOL    HW131145   0.300   4.679   1.762
10082SOL    HW231146   0.306   4.813   1.854
10083SOL     OW31147   4.853   0.418   3.053
10083SOL    HW131148   4.877   0.322   3.042
10083SOL    HW231149   4.818   0.454   2.966
10084SOL     OW31150   3.087   1.175   5.718
10084SOL    HW131151   3.177   1.218   5.731
10084SOL    HW231152   3.045   1.209   5.634
10085SOL     OW31153   1.125   6.379   2.012
10085SOL    HW131154   1.071   6.319   2.070
10085SOL    HW231155   1.163   6.327   1.936
10086SOL     OW31156   5.732   5.578   2.291
10086SOL    HW131157   5.706   5.501   2.234
10086SOL    HW231158   5.825   5.565   2.325
10087SOL     OW31159   0.339   6.828   3.706
10087SOL    HW131160   0.400   6.823   3.785
10087SOL    HW231161   0.293   6.741   3.695
10088SOL     OW31162   6.790   0.502   0.139
10088SOL    HW131163   6.767   0.462   0.049
10088SOL    HW231164   6.740   0.587   0.151
10089SOL     OW31165   3.097   2.142   2.360
10089SOL    HW131166   3.050   2.059   2.390
10089SOL    HW231167   3.034   2.198   2.307
10090SOL     OW31168   1.031   4.723   0.924
10090SOL    HW131169   0.983   4.636   0.917
10090SOL    HW231170   1.092   4.722   1.004
10091SOL     OW31171   1.199   3.861   5.614
10091SOL    HW131172   1.295   3.836   5.603
10091SOL    HW231173   1.157   3.871   5.524
10092SOL     OW31174   1.588   3.033   4.828
10092SOL    HW131175   1.510   3.076   4.872
10092SOL    HW231176   1.637   3.100   4.773
10093SOL     OW31177   6.862   3.818   4.689
10093SOL    HW131178   6.812   3.881   4.630
10093SOL    HW231179   6.803   3.788   4.764
10094SOL     OW31180   1.915   5.780   2.201
10094SOL    HW131181   1.962   5.759   2.287
10094SOL    HW231182   1.894   5.694   2.153
10095SOL     OW31183   6.240   1.934   5.134
10095SOL    HW131184   6.215   1.838   5.151
10095SOL    HW231185   6.210   1.991   5.211
10096SOL     OW31186   5.348   4.960   2.386
10096SOL    HW131187   5.270   4.930   2.332
10096SOL    HW231188   5.389   4.882   2.433
10097SOL     OW31189   0.831   1.013   0.740
10097SOL    HW131190   0.894   0.952   0.789
10097SOL    HW231191   0.739   0.975   0.742
10098SOL     OW31192   2.513   0.670   5.211
10098SOL    HW131193   2.584   0.655   5.280
10098SOL    HW231194   2.423   0.656   5.251
10099SOL     OW31195   6.829   4.911   0.991
10099SOL    HW131196   6.851   4.894   1.087
10099SOL    HW231197   6.810   4.824   0.945
10100SOL     OW31198   4.822   0.189   4.633
10100SOL    HW131199   4.899   0.148   4.682
10100SOL    HW231200   4.854   0.225   4.546
10101SOL     OW31201   5.647   4.012   1.411
10101SOL    HW131202   5.688   3.925   1.384
10101SOL    HW231203   5.673   4.032   1.506
10102SOL     OW31204   1.181   0.934   2.116
10102SOL    HW131205   1.204   0.872   2.190
10102SOL    HW231206   1.264   0.968   2.073
10103SOL     OW31207   2.698   1.519   6.391
10103SOL    HW131208   2.744   1.510   6.303
10103SOL    HW231209   2.684   1.615   6.413
10104SOL     OW31210   1.644   2.336   3.894
10104SOL    HW131211   1.565   2.358   3.837
10104SOL    HW231212   1.632   2.246   3.935
10105SOL     OW31213   1.339   0.711   0.591
10105SOL    HW131214   1.286   0.630   0.618
10105SOL    HW231215   1.333   0.780   0.663
10106SOL     OW31216   4.298   6.840   0.726
10106SOL    HW131217   4.216   6.872   0.679
10106SOL    HW231218   4.344   6.770   0.671
10107SOL     OW31219   0.278   1.171   6.595
10107SOL    HW131220   0.244   1.260   6.565
10107SOL    HW231221   0.218   1.099   6.561
10108SOL     OW31222   6.822   6.284   0.166
10108SOL    HW131223   6.864   6.212   0.221
10108SOL    HW231224   6.723   6.275   0.169
10109SOL     OW31225   4.912   0.430   0.635
10109SOL    HW131226   4.975   0.383   0.573
10109SOL    HW231227   4.818   0.420   0.601
10110SOL     OW31228   4.629   5.774   5.171
10110SOL    HW131229   4.652   5.695   5.113
10110SOL    HW231230   4.614   5.743   5.265
10111SOL     OW31231   5.220   3.793   3.659
10111SOL    HW131232   5.220   3.891   3.682
10111SOL    HW231233   5.132   3.753   3.684
10112SOL     OW31234   5.661   3.672   3.759
10112SOL    HW131235   5.725   3.627   3.821
10112SOL    HW231236   5.713   3.730   3.695
10113SOL     OW31237   4.415   0.294   5.876
10113SOL    HW131238   4.386   0.236   5.800
10113SOL    HW231239   4.439   0.385   5.841
10114SOL     OW31240   6.204   1.196   1.087
10114SOL    HW131241   6.109   1.226   1.083
10114SOL    HW231242   6.225   1.139   1.009
10115SOL     OW31243   3.976   1.369   4.419
10115SOL    HW131244   4.055   1.338   4.473
10115SOL    HW231245   3.966   1.468   4.427
10116SOL     OW31246   0.220   5.827   0.711
10116SOL    HW131247   0.228   5.926   0.724
10116SOL    HW231248   0.124   5.802   0.705
10117SOL     OW31249   6.554   5.955   5.382
10117SOL    HW131250   6.558   5.860   5.351
10117SOL    HW231251   6.459   5.982   5.394
10118SOL     OW31252   1.951   5.122   2.862
10118SOL    HW131253   2.042   5.101   2.897
10118SOL    HW231254   1.942   5.220   2.848
10119SOL     OW31255   0.895   5.866   4.334
10119SOL    HW131256   0.982   5.915   4.329
10119SOL    HW231257   0.826   5.925   4.376
10120SOL     OW31258   1.661   3.980   4.896
10120SOL    HW131259   1.628   3.978   4.802
10120SOL    HW231260   1.730   4.052   4.905
10121SOL     OW31261   6.435   4.354   6.508
10121SOL    HW131262   6.505   4.309   6.564
10121SOL    HW231263   6.459   4.450   6.497
10122SOL     OW31264   6.117   3.081   1.356
10122SOL    HW131265   6.172   3.035   1.425
10122SOL    HW231266   6.141   3.047   1.266
10123SOL     OW31267   5.712   0.043   0.038
10123SOL    HW131268   5.774   0.025   0.114
10123SOL    HW231269   5.618   0.049   0.071
10124SOL     OW31270   1.612   3.996   0.261
10124SOL    HW131271   1.616   4.092   0.291
10124SOL    HW231272   1.526   3.980   0.213
10125SOL     OW31273   1.772   1.489   2.344
10125SOL    HW131274   1.769   1.478   2.245
10125SOL    HW231275   1.787   1.400   2.387
10126SOL     OW31276   0.399   6.921   5.841
10126SOL    HW131277   0.307   6.893   5.812
10126SOL    HW231278   0.449   6.842   5.875
10127SOL     OW31279   2.862   4.893   6.446
10127SOL    HW131280   2.840   4.944   6.528
10127SOL    HW231281   2.881   4.798   6.469
10128SOL     OW31282   2.451   1.664   1.516
10128SOL    HW131283   2.391   1.681   1.594
10128SOL    HW231284   2.398   1.626   1.440
10129SOL     OW31285   5.663   1.824   2.630
10129SOL    HW131286   5.602   1.901   2.614
10129SOL    HW231287   5.633   1.746   2.575
10130SOL     OW31288   1.436   3.626   1.938
10130SOL    HW131289   1.395   3.715   1.919
10130SOL    HW231290   1.394   3.557   1.879
10131SOL     OW31291   1.367   6.755   4.218
10131SOL    HW131292   1.299   6.812   4.172
10131SOL    HW231293   1.408   6.806   4.294
10132SOL     OW31294   3.512   6.848   5.239
10132SOL    HW131295   3.602   6.833   5.280
10132SOL    HW231296   3.523   6.905   5.157
10133SOL     OW31297   3.949   6.525   1.354
10133SOL    HW131298   3.923   6.535   1.450
10133SOL    HW231299   3.879   6.566   1.296
10134SOL     OW31300   0.170   6.630   3.677
10134SOL    HW131301   0.168   6.586   3.587
10134SOL    HW231302   0.100   6.701   3.681
10135SOL     OW31303   4.888   3.404   3.517
10135SOL    HW131304   4.828   3.342   3.568
10135SOL    HW231305   4.896   3.372   3.423
10136SOL     OW31306   5.199   0.401   2.923
10136SOL    HW131307   5.284   0.396   2.871
10136SOL    HW231308   5.219   0.424   3.018
10137SOL     OW31309   5.946   4.061   3.933
10137SOL    HW131310   5.999   3.989   3.887
10137SOL    HW231311   6.008   4.118   3.987
10138SOL     OW31312   4.922   3.516   0.537
10138SOL    HW131313   4.835   3.468   0.526
10138SOL    HW231314   4.923   3.563   0.625
10139SOL     OW31315   3.450   4.158   3.246
10139SOL    HW131316   3.404   4.226   3.303
10139SOL    HW231317   3.545   4.148   3.277
10140SOL     OW31318   5.845   6.361   6.843
10140SOL    HW131319   5.869   6.450   6.803
10140SOL    HW231320   5.826   6.296   6.769
10141SOL     OW31321   3.531   1.622   5.081
10141SOL    HW131322   3.587   1.586   5.006
10141SOL    HW231323   3.588   1.681   5.138
10142SOL     OW31324   6.129   6.183   4.912
10142SOL    HW131325   6.088   6.093   4.932
10142SOL    HW231326   6.057   6.251   4.900
10143SOL     OW31327   4.769   1.249   6.286
10143SOL    HW131328   4.776   1.340   6.244
10143SOL    HW231329   4.749   1.258   6.383
10144SOL     OW31330   3.595   0.530   6.624
10144SOL    HW131331   3.559   0.612   6.669
10144SOL    HW231332   3.564   0.448   6.672
10145SOL     OW31333   2.793   5.501   4.379
10145SOL    HW131334   2.832   5.511   4.471
10145SOL    HW231335   2.713   5.441   4.384
10146SOL     OW31336   4.556   4.889   4.679
10146SOL    HW131337   4.607   4.906   4.763
10146SOL    HW231338   4.458   4.889   4.698
10147SOL     OW31339   4.927   4.115   5.445
10147SOL    HW131340   4.944   4.026   5.487
10147SOL    HW231341   4.968   4.187   5.501
10148SOL     OW31342   4.989   5.314   6.812
10148SOL    HW131343   5.067   5.352   6.761
10148SOL    HW231344   5.023   5.257   6.887
10149SOL     OW31345   5.741   3.271   0.691
10149SOL    HW131346   5.835   3.239   0.692
10149SOL    HW231347   5.734   3.357   0.742
10150SOL     OW31348   4.060   4.047   0.414
10150SOL    HW131349   4.028   4.063   0.321
10150SOL    HW231350   4.003   3.977   0.457
10151SOL     OW31351   0.926   6.634   6.797
10151SOL    HW131352   0.912   6.635   6.896
10151SOL    HW231353   1.024   6.626   6.777
10152SOL     OW31354   6.637   6.045   4.445
10152SOL    HW131355   6.665   6.138   4.421
10152SOL    HW231356   6.717   5.985   4.451
10153SOL     OW31357   4.865   6.308   3.745
10153SOL    HW131358   4.803   6.383   3.724
10153SOL    HW231359   4.816   6.221   3.736
10154SOL     OW31360   4.871   6.751   5.705
10154SOL    HW131361   4.801   6.823   5.710
10154SOL    HW231362   4.849   6.688   5.631
10155SOL     OW31363   4.021   2.322   5.613
10155SOL    HW131364   3.928   2.300   5.641
10155SOL    HW231365   4.040   2.418   5.630
10156SOL     OW31366   6.021   0.839   2.687
10156SOL    HW131367   5.924   0.818   2.698
10156SOL    HW231368   6.073   0.754   2.678
10157SOL     OW31369   7.006   2.004   1.139
10157SOL    HW131370   6.978   2.013   1.044
10157SOL    HW231371   6.925   2.006   1.198
10158SOL     OW31372   5.581   4.782   0.716
10158SOL    HW131373   5.636   4.775   0.799
10158SOL    HW231374   5.539   4.873   0.711
10159SOL     OW31375   2.384   3.560   0.086
10159SOL    HW131376   2.349   3.535   0.176
10159SOL    HW231377   2.414   3.656   0.088
10160SOL     OW31378   1.788   2.903   2.427
10160SOL    HW131379   1.826   2.881   2.338
10160SOL    HW231380   1.862   2.924   2.491
10161SOL     OW31381   2.854   2.705   0.262
10161SOL    HW131382   2.947   2.743   0.258
10161SOL    HW231383   2.814   2.707   0.170
10162SOL     OW31384   3.550   4.795   0.864
10162SOL    HW131385   3.525   4.852   0.785
10162SOL    HW231386   3.467   4.764   0.910
10163SOL     OW31387   6.286   4.226   6.337
10163SOL    HW131388   6.199   4.268   6.361
10163SOL    HW231389   6.358   4.264   6.396
10164SOL     OW31390   6.001   4.065   4.707
10164SOL    HW131391   5.964   4.054   4.799
10164SOL    HW231392   5.928   4.050   4.640
10165SOL     OW31393   6.879   1.877   3.023
10165SOL    HW131394   6.802   1.818   2.999
10165SOL    HW231395   6.869   1.965   2.975
10166SOL     OW31396   3.255   2.039   2.048
10166SOL    HW131397   3.159   2.067   2.042
10166SOL    HW231398   3.305   2.077   1.971
10167SOL     OW31399   2.150   3.994   6.980
10167SOL    HW131400   2.099   3.923   0.001
10167SOL    HW231401   2.247   3.988   7.005
10168SOL     OW31402   5.994   3.266   6.261
10168SOL    HW131403   5.926   3.332   6.228
10168SOL    HW231404   6.080   3.312   6.279
10169SOL     OW31405   6.679   4.092   3.744
10169SOL    HW131406   6.775   4.085   3.772
10169SOL    HW231407   6.626   4.019   3.788
10170SOL     OW31408   0.310   5.527   5.751
10170SOL    HW131409   0.274   5.602   5.696
10170SOL    HW231410   0.404   5.549   5.780
10171SOL     OW31411   6.958   2.533   5.055
10171SOL    HW131412   7.003   2.591   5.122
10171SOL    HW231413   6.869   2.504   5.091
10172SOL     OW31414   0.016   5.675   4.590
10172SOL    HW131415   0.110   5.693   4.621
10172SOL    HW231416   6.979   5.696   4.665
10173SOL     OW31417   1.045   3.232   0.585
10173SOL    HW131418   1.023   3.167   0.512
10173SOL    HW231419   1.018   3.324   0.558
10174SOL     OW31420   5.091   5.118   3.188
10174SOL    HW131421   5.016   5.117   3.254
10174SOL    HW231422   5.135   5.208   3.189
10175SOL     OW31423   5.782   1.412   3.702
10175SOL    HW131424   5.832   1.350   3.763
10175SOL    HW231425   5.697   1.441   3.746
10176SOL     OW31426   0.424   3.638   4.657
10176SOL    HW131427   0.446   3.641   4.755
10176SOL    HW231428   0.370   3.719   4.633
10177SOL     OW31429   2.714   0.685   1.326
10177SOL    HW131430   2.662   0.722   1.402
10177SOL    HW231431   2.675   0.597   1.299
10178SOL     OW31432   0.799   0.474   6.090
10178SOL    HW131433   0.841   0.522   6.012
10178SOL    HW231434   0.871   0.443   6.152
10179SOL     OW31435   0.650   2.238   6.709
10179SOL    HW131436   0.704   2.155   6.725
10179SOL    HW231437   0.707   2.307   6.663
10180SOL     OW31438   4.327   0.751   5.763
10180SOL    HW131439   4.248   0.720   5.710
10180SOL    HW231440   4.400   0.682   5.757
10181SOL     OW31441   6.793   3.386   1.183
10181SOL    HW131442   6.807   3.298   1.228
10181SOL    HW231443   6.737   3.373   1.101
10182SOL     OW31444   4.693   1.043   1.893
10182SOL    HW131445   4.708   1.027   1.990
10182SOL    HW231446   4.649   0.963   1.852
10183SOL     OW31447   0.144   2.581   6.418
10183SOL    HW131448   0.055   2.576   6.464
10183SOL    HW231449   0.146   2.517   6.342
10184SOL     OW31450   4.208   1.409   5.720
10184SOL    HW131451   4.257   1.421   5.806
10184SOL    HW231452   4.273   1.414   5.644
10185SOL     OW31453   6.314   6.145   2.612
10185SOL    HW131454   6.412   6.128   2.603
10185SOL    HW231455   6.274   6.159   2.522
10186SOL     OW31456   5.570   3.203   3.859
10186SOL    HW131457   5.540   3.125   3.804
10186SOL    HW231458   5.612   3.170   3.944
10187SOL     OW31459   1.251   3.411   0.730
10187SOL    HW131460   1.267   3.373   0.639
10187SOL    HW231461   1.244   3.511   0.724
10188SOL     OW31462   3.926   5.755   0.633
10188SOL    HW131463   3.888   5.846   0.646
10188SOL    HW231464   4.014   5.747   0.680
10189SOL     OW31465   1.056   1.075   5.981
10189SOL    HW131466   0.965   1.034   5.987
10189SOL    HW231467   1.085   1.107   6.072
10190SOL     OW31468   4.960   3.530   1.990
10190SOL    HW131469   4.912   3.595   1.932
10190SOL    HW231470   5.026   3.579   2.048
10191SOL     OW31471   5.194   6.016   6.330
10191SOL    HW131472   5.225   6.110   6.344
10191SOL    HW231473   5.185   5.999   6.232
10192SOL     OW31474   4.268   1.485   4.853
10192SOL    HW131475   4.305   1.413   4.795
10192SOL    HW231476   4.241   1.446   4.942
10193SOL     OW31477   4.115   3.479   1.917
10193SOL    HW131478   4.140   3.382   1.913
10193SOL    HW231479   4.015   3.488   1.917
10194SOL     OW31480   5.944   6.080   5.448
10194SOL    HW131481   6.018   6.014   5.438
10194SOL    HW231482   5.878   6.046   5.516
10195SOL     OW31483   5.937   5.740   0.804
10195SOL    HW131484   5.912   5.711   0.711
10195SOL    HW231485   5.855   5.742   0.861
10196SOL     OW31486   4.841   1.526   4.055
10196SOL    HW131487   4.918   1.578   4.093
10196SOL    HW231488   4.876   1.456   3.993
10197SOL     OW31489   6.044   1.415   5.235
10197SOL    HW131490   5.945   1.430   5.241
10197SOL    HW231491   6.065   1.372   5.147
10198SOL     OW31492   2.727   6.440   2.453
10198SOL    HW131493   2.666   6.487   2.518
10198SOL    HW231494   2.817   6.483   2.455
10199SOL     OW31495   1.987   3.703   0.565
10199SOL    HW131496   1.912   3.748   0.613
10199SOL    HW231497   2.005   3.614   0.607
10200SOL     OW31498   5.009   2.496   6.392
10200SOL    HW131499   4.939   2.431   6.362
10200SOL    HW231500   5.097   2.472   6.352
10201SOL     OW31501   1.651   5.072   0.929
10201SOL    HW131502   1.728   5.111   0.979
10201SOL    HW231503   1.617   4.991   0.978
10202SOL     OW31504   3.410   4.790   1.276
10202SOL    HW131505   3.449   4.701   1.253
10202SOL    HW231506   3.455   4.827   1.357
10203SOL     OW31507   6.341   2.729   3.009
10203SOL    HW131508   6.285   2.792   3.063
10203SOL    HW231509   6.282   2.660   2.968
10204SOL     OW31510   4.964   6.141   0.550
10204SOL    HW131511   4.965   6.136   0.450
10204SOL    HW231512   5.055   6.162   0.583
10205SOL     OW31513   1.873   0.035   2.065
10205SOL    HW131514   1.903   6.984   2.121
10205SOL    HW231515   1.952   0.074   2.018
10206SOL     OW31516   6.441   0.648   6.895
10206SOL    HW131517   6.513   0.672   6.831
10206SOL    HW231518   6.394   0.565   6.863
10207SOL     OW31519   1.078   1.913   0.234
10207SOL    HW131520   1.132   1.829   0.240
10207SOL    HW231521   0.997   1.905   0.292
10208SOL     OW31522   6.045   4.591   3.863
10208SOL    HW131523   6.074   4.668   3.805
10208SOL    HW231524   5.957   4.613   3.906
10209SOL     OW31525   0.297   6.902   0.709
10209SOL    HW131526   0.353   6.985   0.714
10209SOL    HW231527   0.356   6.822   0.716
10210SOL     OW31528   4.618   0.028   1.995
10210SOL    HW131529   4.536   7.002   2.018
10210SOL    HW231530   4.689   0.011   2.063
10211SOL     OW31531   4.045   6.388   4.996
10211SOL    HW131532   4.030   6.328   5.074
10211SOL    HW231533   4.130   6.364   4.950
10212SOL     OW31534   0.259   0.788   5.177
10212SOL    HW131535   0.330   0.742   5.124
10212SOL    HW231536   0.290   0.802   5.271
10213SOL     OW31537   5.715   2.475   1.526
10213SOL    HW131538   5.785   2.486   1.596
10213SOL    HW231539   5.624   2.488   1.568
10214SOL     OW31540   0.919   1.559   1.794
10214SOL    HW131541   0.885   1.650   1.771
10214SOL    HW231542   0.895   1.537   1.889
10215SOL     OW31543   3.765   2.972   3.511
10215SOL    HW131544   3.816   2.918   3.578
10215SOL    HW231545   3.756   3.066   3.543
10216SOL     OW31546   0.449   1.393   1.381
10216SOL    HW131547   0.537   1.374   1.425
10216SOL    HW231548   0.384   1.427   1.449
10217SOL     OW31549   3.055   1.369   3.120
10217SOL    HW131550   2.958   1.371   3.144
10217SOL    HW231551   3.105   1.436   3.175
10218SOL     OW31552   1.637   1.669   1.852
10218SOL    HW131553   1.598   1.719   1.929
10218SOL    HW231554   1.588   1.694   1.768
10219SOL     OW31555   0.627   1.801   3.750
10219SOL    HW131556   0.720   1.764   3.742
10219SOL    HW231557   0.562   1.732   3.719
10220SOL     OW31558   5.042   2.053   0.707
10220SOL    HW131559   5.040   2.145   0.746
10220SOL    HW231560   5.128   2.009   0.732
10221SOL     OW31561   0.878   4.445   3.710
10221SOL    HW131562   0.869   4.379   3.784
10221SOL    HW231563   0.809   4.426   3.640
10222SOL     OW31564   3.147   3.967   5.558
10222SOL    HW131565   3.066   3.969   5.616
10222SOL    HW231566   3.132   3.903   5.482
10223SOL     OW31567   1.779   4.763   1.492
10223SOL    HW131568   1.798   4.690   1.558
10223SOL    HW231569   1.702   4.737   1.435
10224SOL     OW31570   6.197   2.999   5.526
10224SOL    HW131571   6.102   3.012   5.555
10224SOL    HW231572   6.199   2.942   5.444
10225SOL     OW31573   0.969   5.144   5.580
10225SOL    HW131574   0.883   5.190   5.558
10225SOL    HW231575   0.976   5.060   5.528
10226SOL     OW31576   2.340   0.607   6.039
10226SOL    HW131577   2.310   0.526   5.990
10226SOL    HW231578   2.408   0.582   6.107
10227SOL     OW31579   5.406   5.005   1.212
10227SOL    HW131580   5.397   5.014   1.312
10227SOL    HW231581   5.489   5.052   1.182
10228SOL     OW31582   0.232   6.441   1.969
10228SOL    HW131583   0.148   6.404   2.007
10228SOL    HW231584   0.240   6.538   1.994
10229SOL     OW31585   1.753   3.194   4.662
10229SOL    HW131586   1.824   3.137   4.620
10229SOL    HW231587   1.745   3.279   4.611
10230SOL     OW31588   5.962   6.328   2.931
10230SOL    HW131589   6.039   6.352   2.873
10230SOL    HW231590   5.889   6.288   2.876
10231SOL     OW31591   6.562   4.910   5.276
10231SOL    HW131592   6.601   4.893   5.366
10231SOL    HW231593   6.518   4.827   5.242
10232SOL     OW31594   3.354   1.223   3.697
10232SOL    HW131595   3.432   1.286   3.701
10232SOL    HW231596   3.386   1.129   3.700
10233SOL     OW31597   3.942   3.945   5.041
10233SOL    HW131598   3.869   3.880   5.064
10233SOL    HW231599   3.927   3.981   4.949
10234SOL     OW31600   6.380   1.038   0.737
10234SOL    HW131601   6.289   0.996   0.745
10234SOL    HW231602   6.383   1.093   0.653
10235SOL     OW31603   2.456   2.572   1.382
10235SOL    HW131604   2.434   2.486   1.337
10235SOL    HW231605   2.402   2.646   1.340
10236SOL     OW31606   2.451   1.030   0.512
10236SOL    HW131607   2.507   0.952   0.537
10236SOL    HW231608   2.390   1.005   0.437
10237SOL     OW31609   0.975   3.940   6.659
10237SOL    HW131610   0.905   3.885   6.704
10237SOL    HW231611   1.062   3.890   6.659
10238SOL     OW31612   3.884   4.252   1.712
10238SOL    HW131613   3.824   4.332   1.716
10238SOL    HW231614   3.851   4.183   1.776
10239SOL     OW31615   1.563   3.344   4.907
10239SOL    HW131616   1.563   3.375   5.002
10239SOL    HW231617   1.655   3.349   4.870
10240SOL     OW31618   2.011   5.137   2.130
10240SOL    HW131619   1.928   5.187   2.103
10240SOL    HW231620   2.024   5.145   2.229
10241SOL     OW31621   6.760   6.489   3.270
10241SOL    HW131622   6.715   6.541   3.198
10241SOL    HW231623   6.840   6.443   3.232
10242SOL     OW31624   0.282   1.439   0.960
10242SOL    HW131625   0.207   1.456   1.023
10242SOL    HW231626   0.292   1.518   0.899
10243SOL     OW31627   1.937   4.379   2.482
10243SOL    HW131628   1.975   4.291   2.512
10243SOL    HW231629   2.010   4.447   2.478
10244SOL     OW31630   1.834   4.351   0.782
10244SOL    HW131631   1.916   4.307   0.745
10244SOL    HW231632   1.826   4.331   0.880
10245SOL     OW31633   3.478   3.999   1.419
10245SOL    HW131634   3.428   3.947   1.488
10245SOL    HW231635   3.422   4.077   1.390
10246SOL     OW31636   3.715   3.415   4.096
10246SOL    HW131637   3.790   3.453   4.151
10246SOL    HW231638   3.752   3.376   4.011
10247SOL     OW31639   6.697   4.073   5.380
10247SOL    HW131640   6.706   4.136   5.457
10247SOL    HW231641   6.604   4.035   5.379
10248SOL     OW31642   1.878   6.235   2.481
10248SOL    HW131643   1.787   6.213   2.516
10248SOL    HW231644   1.880   6.331   2.452
10249SOL     OW31645   4.202   6.185   6.793
10249SOL    HW131646   4.291   6.140   6.789
10249SOL    HW231647   4.209   6.276   6.751
10250SOL     OW31648   6.780   3.333   2.013
10250SOL    HW131649   6.822   3.344   2.103
10250SOL    HW231650   6.844   3.363   1.942
10251SOL     OW31651   1.977   1.760   5.370
10251SOL    HW131652   2.039   1.717   5.305
10251SOL    HW231653   2.005   1.855   5.387
10252SOL     OW31654   4.288   4.330   6.504
10252SOL    HW131655   4.322   4.236   6.500
10252SOL    HW231656   4.344   4.388   6.445
10253SOL     OW31657   2.807   6.131   0.588
10253SOL    HW131658   2.745   6.189   0.536
10253SOL    HW231659   2.894   6.178   0.601
10254SOL     OW31660   4.610   0.922   5.541
10254SOL    HW131661   4.682   0.988   5.517
10254SOL    HW231662   4.544   0.966   5.602
10255SOL     OW31663   2.736   6.204   1.387
10255SOL    HW131664   2.763   6.108   1.376
10255SOL    HW231665   2.772   6.258   1.311
10256SOL     OW31666   4.554   2.108   2.299
10256SOL    HW131667   4.490   2.182   2.276
10256SOL    HW231668   4.592   2.125   2.390
10257SOL     OW31669   1.842   5.113   3.956
10257SOL    HW131670   1.836   5.207   3.988
10257SOL    HW231671   1.926   5.071   3.990
10258SOL     OW31672   3.729   2.185   3.520
10258SOL    HW131673   3.715   2.280   3.492
10258SOL    HW231674   3.826   2.169   3.536
10259SOL     OW31675   0.885   4.325   2.621
10259SOL    HW131676   0.795   4.332   2.579
10259SOL    HW231677   0.898   4.232   2.656
10260SOL     OW31678   1.334   1.231   3.184
10260SOL    HW131679   1.362   1.230   3.280
10260SOL    HW231680   1.261   1.164   3.170
10261SOL     OW31681   6.415   4.672   1.404
10261SOL    HW131682   6.443   4.754   1.455
10261SOL    HW231683   6.460   4.592   1.443
10262SOL     OW31684   2.322   6.902   5.735
10262SOL    HW131685   2.389   6.879   5.665
10262SOL    HW231686   2.265   6.979   5.703
10263SOL     OW31687   5.444   0.454   0.547
10263SOL    HW131688   5.367   0.454   0.482
10263SOL    HW231689   5.499   0.372   0.532
10264SOL     OW31690   6.361   6.814   6.689
10264SOL    HW131691   6.449   6.861   6.692
10264SOL    HW231692   6.361   6.738   6.754
10265SOL     OW31693   2.853   2.787   1.701
10265SOL    HW131694   2.772   2.762   1.753
10265SOL    HW231695   2.932   2.737   1.735
10266SOL     OW31696   3.350   2.874   4.101
10266SOL    HW131697   3.349   2.868   4.001
10266SOL    HW231698   3.265   2.915   4.133
10267SOL     OW31699   5.316   2.692   0.238
10267SOL    HW131700   5.369   2.685   0.323
10267SOL    HW231701   5.342   2.775   0.189
10268SOL     OW31702   6.703   6.183   2.360
10268SOL    HW131703   6.710   6.225   2.269
10268SOL    HW231704   6.785   6.204   2.413
10269SOL     OW31705   0.705   3.763   6.558
10269SOL    HW131706   0.752   3.746   6.472
10269SOL    HW231707   0.634   3.832   6.544
10270SOL     OW31708   3.112   4.891   2.420
10270SOL    HW131709   3.068   4.919   2.335
10270SOL    HW231710   3.047   4.841   2.476
10271SOL     OW31711   3.785   3.100   6.407
10271SOL    HW131712   3.832   3.079   6.492
10271SOL    HW231713   3.840   3.067   6.330
10272SOL     OW31714   1.122   0.961   5.491
10272SOL    HW131715   1.220   0.943   5.484
10272SOL    HW231716   1.108   1.059   5.505
10273SOL     OW31717   3.199   5.785   3.005
10273SOL    HW131718   3.134   5.731   2.952
10273SOL    HW231719   3.212   5.874   2.961
10274SOL     OW31720   0.491   4.907   5.967
10274SOL    HW131721   0.561   4.840   5.992
10274SOL    HW231722   0.505   4.991   6.020
10275SOL     OW31723   0.502   6.467   2.155
10275SOL    HW131724   0.511   6.375   2.118
10275SOL    HW231725   0.563   6.529   2.106
10276SOL     OW31726   5.364   5.773   5.254
10276SOL    HW131727   5.337   5.787   5.349
10276SOL    HW231728   5.307   5.701   5.214
10277SOL     OW31729   1.930   6.033   5.038
10277SOL    HW131730   2.005   6.098   5.022
10277SOL    HW231731   1.842   6.081   5.030
10278SOL     OW31732   1.718   1.795   3.459
10278SOL    HW131733   1.809   1.802   3.416
10278SOL    HW231734   1.651   1.770   3.390
10279SOL     OW31735   1.417   4.512   4.116
10279SOL    HW131736   1.514   4.514   4.142
10279SOL    HW231737   1.385   4.418   4.114
10280SOL     OW31738   0.071   2.467   6.877
10280SOL    HW131739   0.019   2.453   6.792
10280SOL    HW231740   0.166   2.486   6.856
10281SOL     OW31741   5.556   1.056   3.266
10281SOL    HW131742   5.560   1.026   3.361
10281SOL    HW231743   5.536   1.154   3.262
10282SOL     OW31744   5.270   3.493   4.564
10282SOL    HW131745   5.341   3.448   4.509
10282SOL    HW231746   5.239   3.431   4.635
10283SOL     OW31747   1.857   3.488   1.092
10283SOL    HW131748   1.851   3.531   1.002
10283SOL    HW231749   1.772   3.441   1.113
10284SOL     OW31750   4.903   2.560   5.323
10284SOL    HW131751   4.904   2.460   5.317
10284SOL    HW231752   4.921   2.599   5.233
10285SOL     OW31753   5.467   6.544   2.710
10285SOL    HW131754   5.539   6.611   2.729
10285SOL    HW231755   5.442   6.497   2.794
10286SOL     OW31756   3.289   2.085   3.698
10286SOL    HW131757   3.385   2.072   3.724
10286SOL    HW231758   3.231   2.035   3.761
10287SOL     OW31759   3.050   6.211   1.915
10287SOL    HW131760   3.078   6.291   1.862
10287SOL    HW231761   3.117   6.138   1.903
10288SOL     OW31762   4.896   5.776   3.163
10288SOL    HW131763   4.863   5.770   3.069
10288SOL    HW231764   4.818   5.778   3.226
10289SOL     OW31765   2.763   6.359   6.896
10289SOL    HW131766   2.704   6.427   6.852
10289SOL    HW231767   2.799   6.397   6.981
10290SOL     OW31768   2.907   3.714   2.825
10290SOL    HW131769   2.866   3.635   2.870
10290SOL    HW231770   2.863   3.729   2.737
10291SOL     OW31771   3.922   1.529   2.419
10291SOL    HW131772   3.916   1.531   2.319
10291SOL    HW231773   4.006   1.482   2.447
10292SOL     OW31774   1.669   2.159   5.303
10292SOL    HW131775   1.661   2.156   5.203
10292SOL    HW231776   1.657   2.067   5.340
10293SOL     OW31777   1.857   3.396   2.461
10293SOL    HW131778   1.802   3.362   2.537
10293SOL    HW231779   1.945   3.348   2.459
10294SOL     OW31780   4.927   2.540   3.415
10294SOL    HW131781   4.936   2.481   3.496
10294SOL    HW231782   4.842   2.591   3.421
10295SOL     OW31783   0.562   3.435   6.115
10295SOL    HW131784   0.570   3.454   6.213
10295SOL    HW231785   0.470   3.459   6.084
10296SOL     OW31786   5.048   1.772   6.644
10296SOL    HW131787   5.038   1.867   6.674
10296SOL    HW231788   4.993   1.712   6.702
10297SOL     OW31789   2.118   0.849   6.555
10297SOL    HW131790   2.164   0.791   6.488
10297SOL    HW231791   2.020   0.829   6.557
10298SOL     OW31792   2.692   4.401   0.828
10298SOL    HW131793   2.698   4.477   0.764
10298SOL    HW231794   2.612   4.344   0.805
10299SOL     OW31795   4.564   4.938   3.132
10299SOL    HW131796   4.494   4.938   3.204
10299SOL    HW231797   4.519   4.934   3.042
10300SOL     OW31798   1.012   4.040   2.405
10300SOL    HW131799   0.944   3.987   2.455
10300SOL    HW231800   1.033   3.995   2.318
10301SOL     OW31801   5.100   1.984   4.184
10301SOL    HW131802   5.125   2.010   4.277
10301SOL    HW231803   5.132   2.055   4.120
10302SOL     OW31804   2.268   6.416   4.786
10302SOL    HW131805   2.188   6.476   4.791
10302SOL    HW231806   2.280   6.371   4.874
10303SOL     OW31807   1.346   5.703   2.800
10303SOL    HW131808   1.350   5.664   2.708
10303SOL    HW231809   1.380   5.637   2.866
10304SOL     OW31810   5.347   0.046   1.563
10304SOL    HW131811   5.316   0.038   1.658
10304SOL    HW231812   5.429   7.018   1.550
10305SOL     OW31813   1.349   4.277   6.315
10305SOL    HW131814   1.345   4.288   6.415
10305SOL    HW231815   1.261   4.246   6.281
10306SOL     OW31816   5.249   5.841   0.062
10306SOL    HW131817   5.158   5.876   0.082
10306SOL    HW231818   5.242   5.750   0.021
10307SOL     OW31819   2.938   2.321   5.374
10307SOL    HW131820   2.910   2.409   5.412
10307SOL    HW231821   3.007   2.336   5.303
10308SOL     OW31822   1.571   3.886   3.077
10308SOL    HW131823   1.605   3.831   3.000
10308SOL    HW231824   1.607   3.979   3.069
10309SOL     OW31825   6.852   1.900   6.829
10309SOL    HW131826   6.795   1.979   6.807
10309SOL    HW231827   6.876   1.851   6.745
10310SOL     OW31828   3.275   3.809   0.695
10310SOL    HW131829   3.222   3.796   0.779
10310SOL    HW231830   3.330   3.892   0.704
10311SOL     OW31831   6.758   5.824   0.530
10311SOL    HW131832   6.687   5.785   0.588
10311SOL    HW231833   6.725   5.831   0.436
10312SOL     OW31834   3.681   5.347   2.696
10312SOL    HW131835   3.584   5.365   2.713
10312SOL    HW231836   3.695   5.248   2.686
10313SOL     OW31837   4.592   6.342   2.195
10313SOL    HW131838   4.670   6.353   2.134
10313SOL    HW231839   4.514   6.394   2.160
10314SOL     OW31840   6.569   0.558   1.764
10314SOL    HW131841   6.612   0.530   1.678
10314SOL    HW231842   6.470   0.547   1.758
10315SOL     OW31843   5.237   5.351   5.039
10315SOL    HW131844   5.260   5.386   5.130
10315SOL    HW231845   5.284   5.407   4.970
10316SOL     OW31846   5.782   1.085   5.228
10316SOL    HW131847   5.709   1.041   5.280
10316SOL    HW231848   5.775   1.184   5.238
10317SOL     OW31849   4.873   5.793   5.468
10317SOL    HW131850   4.891   5.795   5.370
10317SOL    HW231851   4.932   5.726   5.512
10318SOL     OW31852   5.605   6.708   6.142
10318SOL    HW131853   5.602   6.667   6.051
10318SOL    HW231854   5.571   6.642   6.209
10319SOL     OW31855   1.077   2.581   5.455
10319SOL    HW131856   1.035   2.493   5.473
10319SOL    HW231857   1.083   2.596   5.356
10320SOL     OW31858   0.512   0.335   2.222
10320SOL    HW131859   0.533   0.426   2.188
10320SOL    HW231860   0.585   0.272   2.196
10321SOL     OW31861   3.717   1.991   1.817
10321SOL    HW131862   3.707   2.084   1.853
10321SOL    HW231863   3.767   1.935   1.884
10322SOL     OW31864   6.461   5.500   5.568
10322SOL    HW131865   6.441   5.468   5.660
10322SOL    HW231866   6.453   5.425   5.503
10323SOL     OW31867   5.889   3.576   5.424
10323SOL    HW131868   5.914   3.585   5.520
10323SOL    HW231869   5.845   3.487   5.409
10324SOL     OW31870   3.074   3.026   1.932
10324SOL    HW131871   3.111   2.944   1.889
10324SOL    HW231872   3.100   3.027   2.028
10325SOL     OW31873   6.590   3.829   2.463
10325SOL    HW131874   6.541   3.778   2.534
10325SOL    HW231875   6.579   3.781   2.375
10326SOL     OW31876   3.614   5.329   0.712
10326SOL    HW131877   3.698   5.380   0.692
10326SOL    HW231878   3.618   5.294   0.805
10327SOL     OW31879   2.199   1.628   0.950
10327SOL    HW131880   2.244   1.541   0.929
10327SOL    HW231881   2.108   1.611   0.988
10328SOL     OW31882   6.303   2.036   1.107
10328SOL    HW131883   6.381   1.978   1.133
10328SOL    HW231884   6.337   2.122   1.070
10329SOL     OW31885   3.793   0.641   3.608
10329SOL    HW131886   3.784   0.737   3.582
10329SOL    HW231887   3.703   0.598   3.610
10330SOL     OW31888   4.947   0.712   2.402
10330SOL    HW131889   4.989   0.731   2.314
10330SOL    HW231890   4.847   0.707   2.391
10331SOL     OW31891   6.550   0.643   5.884
10331SOL    HW131892   6.616   0.717   5.901
10331SOL    HW231893   6.560   0.573   5.954
10332SOL     OW31894   6.722   0.197   1.408
10332SOL    HW131895   6.635   0.184   1.360
10332SOL    HW231896   6.771   0.110   1.412
10333SOL     OW31897   6.656   4.735   4.757
10333SOL    HW131898   6.646   4.676   4.838
10333SOL    HW231899   6.621   4.686   4.677
10334SOL     OW31900   3.705   0.355   3.663
10334SOL    HW131901   3.702   0.327   3.759
10334SOL    HW231902   3.801   0.363   3.634
10335SOL     OW31903   2.763   4.172   6.549
10335SOL    HW131904   2.732   4.111   6.476
10335SOL    HW231905   2.684   4.212   6.595
10336SOL     OW31906   6.716   0.136   2.062
10336SOL    HW131907   6.809   0.104   2.080
10336SOL    HW231908   6.721   0.227   2.022
10337SOL     OW31909   0.297   6.633   5.871
10337SOL    HW131910   0.254   6.708   5.821
10337SOL    HW231911   0.308   6.554   5.811
10338SOL     OW31912   2.492   6.550   2.989
10338SOL    HW131913   2.415   6.525   3.048
10338SOL    HW231914   2.503   6.482   2.917
10339SOL     OW31915   3.416   4.367   6.908
10339SOL    HW131916   3.316   4.365   6.910
10339SOL    HW231917   3.447   4.357   6.813
10340SOL     OW31918   1.746   4.110   1.337
10340SOL    HW131919   1.839   4.146   1.341
10340SOL    HW231920   1.686   4.176   1.293
10341SOL     OW31921   2.188   2.870   2.261
10341SOL    HW131922   2.239   2.796   2.306
10341SOL    HW231923   2.229   2.958   2.285
10342SOL     OW31924   0.951   0.234   5.087
10342SOL    HW131925   0.913   0.326   5.081
10342SOL    HW231926   1.040   0.232   5.041
10343SOL     OW31927   3.507   6.082   6.937
10343SOL    HW131928   3.565   6.002   6.930
10343SOL    HW231929   3.526   6.144   6.861
10344SOL     OW31930   4.371   4.027   1.454
10344SOL    HW131931   4.393   3.942   1.503
10344SOL    HW231932   4.451   4.087   1.454
10345SOL     OW31933   1.526   1.351   6.644
10345SOL    HW131934   1.558   1.415   6.714
10345SOL    HW231935   1.481   1.273   6.688
10346SOL     OW31936   6.725   5.870   1.631
10346SOL    HW131937   6.752   5.894   1.538
10346SOL    HW231938   6.671   5.786   1.630
10347SOL     OW31939   4.681   1.902   3.479
10347SOL    HW131940   4.715   1.872   3.567
10347SOL    HW231941   4.582   1.887   3.474
10348SOL     OW31942   6.340   1.778   0.401
10348SOL    HW131943   6.296   1.706   0.347
10348SOL    HW231944   6.398   1.737   0.471
10349SOL     OW31945   0.824   0.629   0.787
10349SOL    HW131946   0.824   0.667   0.879
10349SOL    HW231947   0.838   0.702   0.721
10350SOL     OW31948   1.914   0.024   5.243
10350SOL    HW131949   1.869   0.044   5.155
10350SOL    HW231950   2.013   0.031   5.232
10351SOL     OW31951   4.524   4.838   6.141
10351SOL    HW131952   4.500   4.826   6.238
10351SOL    HW231953   4.479   4.768   6.086
10352SOL     OW31954   3.923   1.834   6.027
10352SOL    HW131955   3.882   1.889   5.954
10352SOL    HW231956   3.999   1.781   5.990
10353SOL     OW31957   6.646   2.572   5.524
10353SOL    HW131958   6.580   2.500   5.505
10353SOL    HW231959   6.699   2.592   5.441
10354SOL     OW31960   5.951   2.569   2.047
10354SOL    HW131961   6.000   2.483   2.061
10354SOL    HW231962   5.887   2.560   1.971
10355SOL     OW31963   1.912   0.037   2.483
10355SOL    HW131964   1.924   0.050   2.581
10355SOL    HW231965   1.851   0.107   2.447
10356SOL     OW31966   0.622   4.325   6.056
10356SOL    HW131967   0.586   4.260   5.988
10356SOL    HW231968   0.607   4.288   6.148
10357SOL     OW31969   1.795   3.480   5.900
10357SOL    HW131970   1.849   3.429   5.833
10357SOL    HW231971   1.752   3.559   5.856
10358SOL     OW31972   5.935   2.565   3.234
10358SOL    HW131973   5.966   2.656   3.206
10358SOL    HW231974   5.898   2.517   3.155
10359SOL     OW31975   0.567   1.661   1.654
10359SOL    HW131976   0.651   1.714   1.664
10359SOL    HW231977   0.568   1.614   1.566
10360SOL     OW31978   5.148   5.610   3.212
10360SOL    HW131979   5.099   5.697   3.200
10360SOL    HW231980   5.179   5.602   3.306
10361SOL     OW31981   3.078   0.375   3.252
10361SOL    HW131982   3.120   0.321   3.179
10361SOL    HW231983   3.086   0.325   3.339
10362SOL     OW31984   0.294   4.965   4.676
10362SOL    HW131985   0.254   5.056   4.661
10362SOL    HW231986   0.242   4.918   4.748
10363SOL     OW31987   5.089   1.351   1.617
10363SOL    HW131988   5.112   1.397   1.703
10363SOL    HW231989   5.135   1.263   1.613
10364SOL     OW31990   3.131   3.433   1.440
10364SOL    HW131991   3.142   3.334   1.432
10364SOL    HW231992   3.176   3.465   1.524
10365SOL     OW31993   4.618   4.536   6.181
10365SOL    HW131994   4.659   4.452   6.145
10365SOL    HW231995   4.679   4.576   6.249
10366SOL     OW31996   3.737   0.283   4.227
10366SOL    HW131997   3.641   0.259   4.215
10366SOL    HW231998   3.745   0.369   4.277
10367SOL     OW31999   6.268   1.832   2.840
10367SOL    HW132000   6.320   1.902   2.890
10367SOL    HW232001   6.248   1.756   2.900
10368SOL     OW32002   1.957   1.401   1.407
10368SOL    HW132003   1.866   1.361   1.400
10368SOL    HW232004   2.021   1.346   1.354
10369SOL     OW32005   3.799   1.427   5.250
10369SOL    HW132006   3.849   1.405   5.167
10369SOL    HW232007   3.760   1.519   5.243
10370SOL     OW32008   5.684   1.565   5.449
10370SOL    HW132009   5.616   1.600   5.513
10370SOL    HW232010   5.716   1.640   5.390
10371SOL     OW32011   2.902   6.047   4.476
10371SOL    HW132012   2.853   5.962   4.457
10371SOL    HW232013   2.929   6.049   4.572
10372SOL     OW32014   1.120   1.466   0.043
10372SOL    HW132015   1.113   1.566   0.043
10372SOL    HW232016   1.060   1.429   6.999
10373SOL     OW32017   2.331   6.128   4.751
10373SOL    HW132018   2.296   6.192   4.682
10373SOL    HW232019   2.254   6.087   4.801
10374SOL     OW32020   3.861   1.129   2.527
10374SOL    HW132021   3.855   1.166   2.434
10374SOL    HW232022   3.807   1.186   2.589
10375SOL     OW32023   3.012   1.789   6.050
10375SOL    HW132024   2.966   1.864   6.004
10375SOL    HW232025   3.031   1.716   5.985
10376SOL     OW32026   1.504   6.530   4.240
10376SOL    HW132027   1.435   6.593   4.205
10376SOL    HW232028   1.591   6.546   4.192
10377SOL     OW32029   0.022   0.636   4.000
10377SOL    HW132030   0.049   0.700   4.072
10377SOL    HW232031   0.103   0.592   3.962
10378SOL     OW32032   6.642   6.915   6.153
10378SOL    HW132033   6.735   6.926   6.119
10378SOL    HW232034   6.584   6.876   6.081
10379SOL     OW32035   3.470   6.457   4.743
10379SOL    HW132036   3.477   6.473   4.645
10379SOL    HW232037   3.377   6.478   4.773
10380SOL     OW32038   0.282   1.288   3.860
10380SOL    HW132039   0.221   1.358   3.823
10380SOL    HW232040   0.377   1.314   3.844
10381SOL     OW32041   4.376   5.879   6.588
10381SOL    HW132042   4.290   5.831   6.571
10381SOL    HW232043   4.411   5.915   6.502
10382SOL     OW32044   2.251   4.655   0.363
10382SOL    HW132045   2.317   4.712   0.315
10382SOL    HW232046   2.235   4.571   0.310
10383SOL     OW32047   0.594   3.802   0.345
10383SOL    HW132048   0.648   3.871   0.393
10383SOL    HW232049   0.601   3.714   0.393
10384SOL     OW32050   0.888   0.407   0.997
10384SOL    HW132051   0.854   0.337   1.061
10384SOL    HW232052   0.822   0.482   0.991
10385SOL     OW32053   3.686   0.148   6.652
10385SOL    HW132054   3.619   0.198   6.707
10385SOL    HW232055   3.699   0.195   6.565
10386SOL     OW32056   6.073   3.249   5.222
10386SOL    HW132057   6.142   3.214   5.285
10386SOL    HW232058   5.982   3.220   5.253
10387SOL     OW32059   4.078   2.183   2.304
10387SOL    HW132060   4.012   2.120   2.345
10387SOL    HW232061   4.032   2.237   2.233
10388SOL     OW32062   1.464   5.829   3.033
10388SOL    HW132063   1.401   5.793   3.102
10388SOL    HW232064   1.430   5.807   2.941
10389SOL     OW32065   0.519   6.925   1.575
10389SOL    HW132066   0.450   6.970   1.519
10389SOL    HW232067   0.497   6.938   1.672
10390SOL     OW32068   1.597   3.388   1.950
10390SOL    HW132069   1.603   3.471   1.896
10390SOL    HW232070   1.689   3.359   1.977
10391SOL     OW32071   1.459   5.922   5.045
10391SOL    HW132072   1.468   5.944   4.947
10391SOL    HW232073   1.409   5.995   5.091
10392SOL     OW32074   6.689   4.025   0.597
10392SOL    HW132075   6.623   4.040   0.524
10392SOL    HW232076   6.642   4.028   0.685
10393SOL     OW32077   2.300   2.372   2.840
10393SOL    HW132078   2.376   2.357   2.777
10393SOL    HW232079   2.314   2.319   2.923
10394SOL     OW32080   2.703   6.591   5.627
10394SOL    HW132081   2.693   6.677   5.678
10394SOL    HW232082   2.672   6.515   5.685
10395SOL     OW32083   6.481   0.647   3.853
10395SOL    HW132084   6.457   0.552   3.873
10395SOL    HW232085   6.421   0.709   3.904
10396SOL     OW32086   2.485   0.178   4.787
10396SOL    HW132087   2.538   0.114   4.731
10396SOL    HW232088   2.484   0.267   4.742
10397SOL     OW32089   3.011   2.162   3.307
10397SOL    HW132090   2.947   2.128   3.238
10397SOL    HW232091   3.104   2.163   3.269
10398SOL     OW32092   5.916   2.797   0.770
10398SOL    HW132093   5.819   2.779   0.759
10398SOL    HW232094   5.929   2.879   0.826
10399SOL     OW32095   4.247   1.684   4.671
10399SOL    HW132096   4.341   1.715   4.660
10399SOL    HW232097   4.246   1.599   4.724
10400SOL     OW32098   3.489   5.798   1.979
10400SOL    HW132099   3.515   5.817   2.074
10400SOL    HW232100   3.562   5.746   1.934
10401SOL     OW32101   6.887   0.442   2.515
10401SOL    HW132102   6.808   0.412   2.461
10401SOL    HW232103   6.868   0.425   2.612
10402SOL     OW32104   0.183   2.752   5.167
10402SOL    HW132105   0.200   2.824   5.234
10402SOL    HW232106   0.219   2.665   5.202
10403SOL     OW32107   5.035   1.402   2.209
10403SOL    HW132108   4.996   1.336   2.272
10403SOL    HW232109   5.135   1.402   2.218
10404SOL     OW32110   0.742   6.477   3.406
10404SOL    HW132111   0.643   6.473   3.422
10404SOL    HW232112   0.787   6.407   3.462
10405SOL     OW32113   1.272   5.551   4.685
10405SOL    HW132114   1.292   5.574   4.780
10405SOL    HW232115   1.209   5.619   4.646
10406SOL     OW32116   2.128   3.841   4.927
10406SOL    HW132117   2.195   3.908   4.960
10406SOL    HW232118   2.137   3.757   4.981
10407SOL     OW32119   1.821   0.819   6.595
10407SOL    HW132120   1.869   0.784   6.676
10407SOL    HW232121   1.764   0.897   6.621
10408SOL     OW32122   4.227   5.920   2.592
10408SOL    HW132123   4.241   5.896   2.496
10408SOL    HW232124   4.202   5.838   2.644
10409SOL     OW32125   0.693   4.298   0.819
10409SOL    HW132126   0.731   4.213   0.783
10409SOL    HW232127   0.767   4.361   0.844
10410SOL     OW32128   5.409   1.632   1.399
10410SOL    HW132129   5.496   1.656   1.357
10410SOL    HW232130   5.365   1.716   1.434
10411SOL     OW32131   3.368   5.420   3.824
10411SOL    HW132132   3.339   5.381   3.912
10411SOL    HW232133   3.465   5.445   3.829
10412SOL     OW32134   0.426   1.398   0.419
10412SOL    HW132135   0.489   1.473   0.436
10412SOL    HW232136   0.476   1.311   0.423
10413SOL     OW32137   0.369   1.989   0.617
10413SOL    HW132138   0.340   2.085   0.611
10413SOL    HW232139   0.460   1.979   0.578
10414SOL     OW32140   4.879   6.125   5.798
10414SOL    HW132141   4.819   6.176   5.736
10414SOL    HW232142   4.935   6.189   5.850
10415SOL     OW32143   2.063   5.009   4.089
10415SOL    HW132144   2.002   4.942   4.132
10415SOL    HW232145   2.139   4.961   4.045
10416SOL     OW32146   0.125   1.281   5.868
10416SOL    HW132147   0.056   1.300   5.938
10416SOL    HW232148   0.123   1.184   5.844
10417SOL     OW32149   4.658   4.328   4.178
10417SOL    HW132150   4.735   4.388   4.153
10417SOL    HW232151   4.648   4.256   4.109
10418SOL     OW32152   6.456   4.427   5.347
10418SOL    HW132153   6.488   4.373   5.269
10418SOL    HW232154   6.357   4.416   5.356
10419SOL     OW32155   3.015   0.682   5.365
10419SOL    HW132156   3.044   0.765   5.318
10419SOL    HW232157   3.038   0.602   5.309
10420SOL     OW32158   0.134   3.567   3.287
10420SOL    HW132159   0.072   3.589   3.363
10420SOL    HW232160   0.175   3.477   3.303
10421SOL     OW32161   1.259   3.400   3.835
10421SOL    HW132162   1.160   3.390   3.845
10421SOL    HW232163   1.280   3.443   3.747
10422SOL     OW32164   6.684   3.909   5.719
10422SOL    HW132165   6.607   3.963   5.751
10422SOL    HW232166   6.729   3.864   5.797
10423SOL     OW32167   3.953   4.885   4.767
10423SOL    HW132168   3.948   4.910   4.670
10423SOL    HW232169   3.949   4.786   4.776
10424SOL     OW32170   4.701   2.099   0.070
10424SOL    HW132171   4.738   2.187   0.098
10424SOL    HW232172   4.657   2.107   7.007
10425SOL     OW32173   0.714   6.474   1.362
10425SOL    HW132174   0.703   6.416   1.282
10425SOL    HW232175   0.725   6.417   1.443
10426SOL     OW32176   5.060   3.498   5.650
10426SOL    HW132177   5.099   3.509   5.742
10426SOL    HW232178   4.966   3.466   5.657
10427SOL     OW32179   5.276   5.641   5.723
10427SOL    HW132180   5.296   5.708   5.651
10427SOL    HW232181   5.216   5.682   5.791
10428SOL     OW32182   1.282   1.901   3.963
10428SOL    HW132183   1.306   1.997   3.976
10428SOL    HW232184   1.338   1.862   3.890
10429SOL     OW32185   1.619   3.743   2.861
10429SOL    HW132186   1.529   3.786   2.851
10429SOL    HW232187   1.649   3.709   2.772
10430SOL     OW32188   3.484   5.913   4.243
10430SOL    HW132189   3.414   5.844   4.259
10430SOL    HW232190   3.520   5.904   4.150
10431SOL     OW32191   2.815   0.601   3.917
10431SOL    HW132192   2.758   0.672   3.959
10431SOL    HW232193   2.898   0.588   3.972
10432SOL     OW32194   0.606   0.875   5.357
10432SOL    HW132195   0.689   0.861   5.411
10432SOL    HW232196   0.621   0.842   5.264
10433SOL     OW32197   0.622   6.249   1.489
10433SOL    HW132198   0.579   6.221   1.575
10433SOL    HW232199   0.667   6.171   1.447
10434SOL     OW32200   4.883   6.498   4.511
10434SOL    HW132201   4.948   6.550   4.455
10434SOL    HW232202   4.849   6.420   4.458
10435SOL     OW32203   1.442   1.913   6.192
10435SOL    HW132204   1.362   1.893   6.249
10435SOL    HW232205   1.413   1.931   6.098
10436SOL     OW32206   6.142   3.365   4.259
10436SOL    HW132207   6.164   3.462   4.249
10436SOL    HW232208   6.195   3.312   4.193
10437SOL     OW32209   5.427   5.039   5.206
10437SOL    HW132210   5.338   4.999   5.186
10437SOL    HW232211   5.477   4.981   5.270
10438SOL     OW32212   0.312   6.398   5.698
10438SOL    HW132213   0.333   6.303   5.720
10438SOL    HW232214   0.260   6.403   5.613
10439SOL     OW32215   6.055   0.621   4.571
10439SOL    HW132216   5.989   0.690   4.543
10439SOL    HW232217   6.050   0.543   4.509
10440SOL     OW32218   0.087   0.512   0.092
10440SOL    HW132219   0.022   0.587   0.103
10440SOL    HW232220   0.052   0.446   0.025
10441SOL     OW32221   3.084   1.607   0.792
10441SOL    HW132222   3.108   1.675   0.861
10441SOL    HW232223   3.118   1.518   0.820
10442SOL     OW32224   3.793   0.894   5.129
10442SOL    HW132225   3.864   0.885   5.199
10442SOL    HW232226   3.825   0.954   5.056
10443SOL     OW32227   6.644   2.172   2.945
10443SOL    HW132228   6.551   2.137   2.935
10443SOL    HW232229   6.658   2.202   3.039
10444SOL     OW32230   3.207   4.898   3.105
10444SOL    HW132231   3.277   4.964   3.078
10444SOL    HW232232   3.208   4.888   3.205
10445SOL     OW32233   0.386   3.695   2.262
10445SOL    HW132234   0.366   3.769   2.326
10445SOL    HW232235   0.307   3.681   2.201
10446SOL     OW32236   1.678   4.500   6.118
10446SOL    HW132237   1.700   4.404   6.101
10446SOL    HW232238   1.581   4.509   6.140
10447SOL     OW32239   6.268   1.009   1.793
10447SOL    HW132240   6.339   0.955   1.836
10447SOL    HW232241   6.282   1.010   1.694
10448SOL     OW32242   3.298   0.782   3.220
10448SOL    HW132243   3.346   0.733   3.148
10448SOL    HW232244   3.210   0.738   3.238
10449SOL     OW32245   3.424   5.683   6.758
10449SOL    HW132246   3.498   5.749   6.753
10449SOL    HW232247   3.426   5.624   6.678
10450SOL     OW32248   6.544   0.699   6.271
10450SOL    HW132249   6.492   0.624   6.312
10450SOL    HW232250   6.488   0.745   6.203
10451SOL     OW32251   3.041   0.674   3.219
10451SOL    HW132252   2.993   0.673   3.131
10451SOL    HW232253   3.040   0.583   3.258
10452SOL     OW32254   6.861   2.556   2.952
10452SOL    HW132255   6.834   2.554   2.856
10452SOL    HW232256   6.918   2.636   2.970
10453SOL     OW32257   4.547   6.015   3.113
10453SOL    HW132258   4.547   5.981   3.019
10453SOL    HW232259   4.479   6.087   3.123
10454SOL     OW32260   6.311   1.000   7.003
10454SOL    HW132261   6.403   0.983   6.968
10454SOL    HW232262   6.308   1.090   0.020
10455SOL     OW32263   6.559   6.128   4.137
10455SOL    HW132264   6.574   6.064   4.212
10455SOL    HW232265   6.461   6.146   4.129
10456SOL     OW32266   0.123   5.652   0.278
10456SOL    HW132267   0.027   5.642   0.250
10456SOL    HW232268   0.128   5.657   0.377
10457SOL     OW32269   4.317   3.582   6.942
10457SOL    HW132270   4.302   3.540   6.853
10457SOL    HW232271   4.369   3.519   7.000
10458SOL     OW32272   6.588   0.331   6.305
10458SOL    HW132273   6.612   0.371   6.216
10458SOL    HW232274   6.499   0.287   6.299
10459SOL     OW32275   5.640   5.140   0.754
10459SOL    HW132276   5.593   5.104   0.673
10459SOL    HW232277   5.736   5.114   0.751
10460SOL     OW32278   6.933   3.720   1.861
10460SOL    HW132279   6.997   3.784   1.902
10460SOL    HW232280   6.843   3.763   1.853
10461SOL     OW32281   6.508   4.585   5.583
10461SOL    HW132282   6.470   4.516   5.520
10461SOL    HW232283   6.443   4.602   5.657
10462SOL     OW32284   4.624   1.687   2.400
10462SOL    HW132285   4.603   1.605   2.452
10462SOL    HW232286   4.723   1.702   2.399
10463SOL     OW32287   4.783   1.512   6.219
10463SOL    HW132288   4.835   1.551   6.143
10463SOL    HW232289   4.704   1.569   6.239
10464SOL     OW32290   5.618   5.533   1.927
10464SOL    HW132291   5.579   5.522   2.018
10464SOL    HW232292   5.716   5.515   1.930
10465SOL     OW32293   5.004   4.630   2.705
10465SOL    HW132294   5.015   4.608   2.608
10465SOL    HW232295   5.087   4.607   2.754
10466SOL     OW32296   4.864   4.493   6.549
10466SOL    HW132297   4.770   4.479   6.580
10466SOL    HW232298   4.926   4.470   6.624
10467SOL     OW32299   1.655   2.578   0.048
10467SOL    HW132300   1.617   2.497   0.091
10467SOL    HW232301   1.581   2.636   0.013
10468SOL     OW32302   3.651   4.851   3.351
10468SOL    HW132303   3.553   4.843   3.372
10468SOL    HW232304   3.702   4.867   3.436
10469SOL     OW32305   4.746   4.250   6.088
10469SOL    HW132306   4.795   4.171   6.124
10469SOL    HW232307   4.648   4.231   6.087
10470SOL     OW32308   2.500   1.777   3.499
10470SOL    HW132309   2.581   1.729   3.534
10470SOL    HW232310   2.523   1.873   3.481
10471SOL     OW32311   3.274   0.550   0.314
10471SOL    HW132312   3.214   0.619   0.354
10471SOL    HW232313   3.242   0.527   0.222
10472SOL     OW32314   2.763   5.405   1.440
10472SOL    HW132315   2.842   5.390   1.499
10472SOL    HW232316   2.686   5.351   1.472
10473SOL     OW32317   5.998   6.309   5.649
10473SOL    HW132318   6.071   6.358   5.601
10473SOL    HW232319   5.951   6.249   5.584
10474SOL     OW32320   4.663   1.270   3.792
10474SOL    HW132321   4.590   1.308   3.735
10474SOL    HW232322   4.672   1.172   3.774
10475SOL     OW32323   2.974   6.734   1.651
10475SOL    HW132324   2.941   6.690   1.734
10475SOL    HW232325   3.050   6.681   1.613
10476SOL     OW32326   5.002   6.354   6.246
10476SOL    HW132327   4.923   6.413   6.231
10476SOL    HW232328   5.011   6.332   6.343
10477SOL     OW32329   0.191   0.515   4.722
10477SOL    HW132330   0.163   0.480   4.634
10477SOL    HW232331   0.129   0.589   4.750
10478SOL     OW32332   0.018   6.683   0.251
10478SOL    HW132333   7.024   6.595   0.294
10478SOL    HW232334   6.960   6.723   0.216
10479SOL     OW32335   6.443   1.739   2.147
10479SOL    HW132336   6.502   1.703   2.075
10479SOL    HW232337   6.357   1.687   2.149
10480SOL     OW32338   1.317   0.160   1.848
10480SOL    HW132339   1.245   0.175   1.780
10480SOL    HW232340   1.397   0.215   1.823
10481SOL     OW32341   1.938   5.872   3.094
10481SOL    HW132342   1.894   5.922   3.168
10481SOL    HW232343   1.885   5.883   3.010
10482SOL     OW32344   6.411   5.354   4.627
10482SOL    HW132345   6.476   5.372   4.553
10482SOL    HW232346   6.330   5.412   4.616
10483SOL     OW32347   5.293   5.997   0.447
10483SOL    HW132348   5.216   5.943   0.478
10483SOL    HW232349   5.350   5.941   0.386
10484SOL     OW32350   4.324   1.867   1.377
10484SOL    HW132351   4.342   1.829   1.286
10484SOL    HW232352   4.233   1.837   1.408
10485SOL     OW32353   3.354   4.711   6.879
10485SOL    HW132354   3.282   4.747   6.939
10485SOL    HW232355   3.354   4.611   6.883
10486SOL     OW32356   0.048   1.253   0.179
10486SOL    HW132357   0.034   1.154   0.185
10486SOL    HW232358   0.016   1.286   0.091
10487SOL     OW32359   5.011   6.582   2.259
10487SOL    HW132360   5.102   6.540   2.259
10487SOL    HW232361   4.983   6.601   2.353
10488SOL     OW32362   2.901   2.259   6.136
10488SOL    HW132363   2.963   2.237   6.060
10488SOL    HW232364   2.955   2.283   6.217
10489SOL     OW32365   0.273   6.673   5.242
10489SOL    HW132366   0.367   6.657   5.213
10489SOL    HW232367   0.272   6.700   5.338
10490SOL     OW32368   6.096   1.403   1.868
10490SOL    HW132369   6.036   1.412   1.789
10490SOL    HW232370   6.105   1.306   1.892
10491SOL     OW32371   1.405   3.346   0.008
10491SOL    HW132372   1.372   3.254   0.026
10491SOL    HW232373   1.362   3.410   0.072
10492SOL     OW32374   6.011   3.822   6.144
10492SOL    HW132375   6.074   3.824   6.066
10492SOL    HW232376   5.923   3.860   6.115
10493SOL     OW32377   3.230   1.145   1.319
10493SOL    HW132378   3.149   1.152   1.378
10493SOL    HW232379   3.278   1.233   1.319
10494SOL     OW32380   4.560   3.442   5.665
10494SOL    HW132381   4.521   3.459   5.756
10494SOL    HW232382   4.587   3.529   5.624
10495SOL     OW32383   2.014   6.660   0.474
10495SOL    HW132384   2.108   6.641   0.447
10495SOL    HW232385   1.998   6.624   0.566
10496SOL     OW32386   0.410   5.482   0.563
10496SOL    HW132387   0.498   5.455   0.524
10496SOL    HW232388   0.340   5.415   0.537
10497SOL     OW32389   2.372   0.284   2.373
10497SOL    HW132390   2.304   0.228   2.419
10497SOL    HW232391   2.435   0.225   2.322
10498SOL     OW32392   3.497   6.512   1.568
10498SOL    HW132393   3.465   6.450   1.497
10498SOL    HW232394   3.524   6.460   1.649
10499SOL     OW32395   3.519   6.573   2.550
10499SOL    HW132396   3.515   6.672   2.563
10499SOL    HW232397   3.455   6.528   2.613
10500SOL     OW32398   0.411   0.639   6.613
10500SOL    HW132399   0.464   0.637   6.529
10500SOL    HW232400   0.319   0.602   6.596
10501SOL     OW32401   1.768   5.184   3.423
10501SOL    HW132402   1.816   5.227   3.499
10501SOL    HW232403   1.826   5.113   3.383
10502SOL     OW32404   2.813   0.699   0.886
10502SOL    HW132405   2.892   0.684   0.946
10502SOL    HW232406   2.765   0.782   0.914
10503SOL     OW32407   4.213   3.113   6.894
10503SOL    HW132408   4.152   3.075   6.963
10503SOL    HW232409   4.160   3.157   6.822
10504SOL     OW32410   2.201   2.145   0.020
10504SOL    HW132411   2.127   2.099   0.068
10504SOL    HW232412   2.271   2.079   7.023
10505SOL     OW32413   5.655   5.781   0.740
10505SOL    HW132414   5.658   5.768   0.839
10505SOL    HW232415   5.619   5.872   0.719
10506SOL     OW32416   0.053   5.125   6.405
10506SOL    HW132417   0.012   5.055   6.465
10506SOL    HW232418   0.153   5.121   6.413
10507SOL     OW32419   2.426   6.870   6.915
10507SOL    HW132420   2.419   6.787   6.970
10507SOL    HW232421   2.352   6.872   6.847
10508SOL     OW32422   5.999   6.106   4.583
10508SOL    HW132423   5.931   6.043   4.620
10508SOL    HW232424   5.962   6.199   4.582
10509SOL     OW32425   1.059   5.952   5.533
10509SOL    HW132426   1.083   5.856   5.516
10509SOL    HW232427   1.035   5.964   5.629
10510SOL     OW32428   5.087   5.851   6.060
10510SOL    HW132429   5.018   5.919   6.087
10510SOL    HW232430   5.076   5.829   5.963
10511SOL     OW32431   4.512   2.119   1.177
10511SOL    HW132432   4.501   2.208   1.220
10511SOL    HW232433   4.460   2.116   1.092
10512SOL     OW32434   4.079   0.299   5.793
10512SOL    HW132435   4.053   0.292   5.889
10512SOL    HW232436   4.158   0.240   5.775
10513SOL     OW32437   6.723   2.469   4.694
10513SOL    HW132438   6.685   2.500   4.781
10513SOL    HW232439   6.650   2.457   4.627
10514SOL     OW32440   6.966   3.788   0.210
10514SOL    HW132441   7.016   3.872   0.189
10514SOL    HW232442   6.938   3.788   0.306
10515SOL     OW32443   6.759   2.876   3.147
10515SOL    HW132444   6.665   2.912   3.152
10515SOL    HW232445   6.786   2.842   3.237
10516SOL     OW32446   4.165   1.320   6.896
10516SOL    HW132447   4.171   1.227   6.932
10516SOL    HW232448   4.079   1.330   6.845
10517SOL     OW32449   6.991   2.054   2.799
10517SOL    HW132450   6.978   1.978   2.735
10517SOL    HW232451   6.986   2.140   2.749
10518SOL     OW32452   0.875   4.880   6.372
10518SOL    HW132453   0.962   4.878   6.324
10518SOL    HW232454   0.881   4.824   6.455
10519SOL     OW32455   2.260   2.399   6.392
10519SOL    HW132456   2.297   2.419   6.483
10519SOL    HW232457   2.260   2.483   6.337
10520SOL     OW32458   1.851   2.740   6.222
10520SOL    HW132459   1.803   2.653   6.209
10520SOL    HW232460   1.928   2.746   6.158
10521SOL     OW32461   5.907   5.556   1.873
10521SOL    HW132462   5.898   5.598   1.963
10521SOL    HW232463   6.003   5.542   1.851
10522SOL     OW32464   6.057   0.510   0.094
10522SOL    HW132465   6.060   0.444   0.019
10522SOL    HW232466   6.104   0.594   0.066
10523SOL     OW32467   0.751   5.324   4.513
10523SOL    HW132468   0.669   5.288   4.468
10523SOL    HW232469   0.769   5.416   4.479
10524SOL     OW32470   2.301   0.838   4.809
10524SOL    HW132471   2.259   0.868   4.894
10524SOL    HW232472   2.362   0.909   4.774
10525SOL     OW32473   3.040   0.123   5.767
10525SOL    HW132474   3.104   0.081   5.703
10525SOL    HW232475   2.985   0.052   5.811
10526SOL     OW32476   0.344   0.096   2.821
10526SOL    HW132477   0.319   0.177   2.874
10526SOL    HW232478   0.305   0.103   2.729
10527SOL     OW32479   6.463   2.375   4.733
10527SOL    HW132480   6.545   2.322   4.713
10527SOL    HW232481   6.465   2.403   4.829
10528SOL     OW32482   0.768   3.089   5.878
10528SOL    HW132483   0.765   3.086   5.778
10528SOL    HW232484   0.764   3.184   5.909
10529SOL     OW32485   2.241   6.181   3.732
10529SOL    HW132486   2.321   6.158   3.788
10529SOL    HW232487   2.226   6.280   3.735
10530SOL     OW32488   2.273   1.388   6.239
10530SOL    HW132489   2.285   1.388   6.140
10530SOL    HW232490   2.248   1.297   6.270
10531SOL     OW32491   1.122   2.569   4.259
10531SOL    HW132492   1.186   2.590   4.333
10531SOL    HW232493   1.105   2.651   4.205
10532SOL     OW32494   2.177   4.267   6.857
10532SOL    HW132495   2.147   4.353   6.898
10532SOL    HW232496   2.154   4.191   6.918
10533SOL     OW32497   3.227   1.855   4.701
10533SOL    HW132498   3.190   1.947   4.693
10533SOL    HW232499   3.302   1.855   4.767
10534SOL     OW32500   6.009   5.359   1.431
10534SOL    HW132501   6.015   5.372   1.530
10534SOL    HW232502   5.997   5.448   1.386
10535SOL     OW32503   0.806   1.599   0.956
10535SOL    HW132504   0.829   1.523   1.016
10535SOL    HW232505   0.707   1.613   0.955
10536SOL     OW32506   3.842   0.763   2.957
10536SOL    HW132507   3.833   0.800   2.865
10536SOL    HW232508   3.787   0.680   2.965
10537SOL     OW32509   3.480   5.100   4.194
10537SOL    HW132510   3.447   5.148   4.112
10537SOL    HW232511   3.528   5.165   4.253
10538SOL     OW32512   4.631   2.735   6.998
10538SOL    HW132513   4.589   2.825   7.011
10538SOL    HW232514   4.678   2.708   0.055
10539SOL     OW32515   0.643   4.207   6.879
10539SOL    HW132516   0.706   4.130   6.878
10539SOL    HW232517   0.574   4.194   6.808
10540SOL     OW32518   1.261   2.045   5.339
10540SOL    HW132519   1.326   2.086   5.276
10540SOL    HW232520   1.185   2.004   5.287
10541SOL     OW32521   3.777   3.652   2.018
10541SOL    HW132522   3.800   3.558   1.993
10541SOL    HW232523   3.686   3.675   1.984
10542SOL     OW32524   6.440   1.898   6.685
10542SOL    HW132525   6.511   1.968   6.693
10542SOL    HW232526   6.350   1.941   6.690
10543SOL     OW32527   6.676   1.394   5.129
10543SOL    HW132528   6.617   1.474   5.143
10543SOL    HW232529   6.770   1.418   5.153
10544SOL     OW32530   1.214   0.029   2.719
10544SOL    HW132531   1.143   6.994   2.753
10544SOL    HW232532   1.296   0.019   2.774
10545SOL     OW32533   5.814   1.516   2.794
10545SOL    HW132534   5.836   1.586   2.862
10545SOL    HW232535   5.736   1.547   2.740
10546SOL     OW32536   0.584   0.900   6.096
10546SOL    HW132537   0.579   0.801   6.087
10546SOL    HW232538   0.492   0.939   6.083
10547SOL     OW32539   4.627   2.273   1.938
10547SOL    HW132540   4.568   2.209   1.890
10547SOL    HW232541   4.674   2.332   1.872
10548SOL     OW32542   4.982   4.299   5.111
10548SOL    HW132543   5.033   4.292   5.026
10548SOL    HW232544   5.030   4.360   5.174
10549SOL     OW32545   6.363   0.239   2.497
10549SOL    HW132546   6.417   0.218   2.415
10549SOL    HW232547   6.318   0.327   2.485
10550SOL     OW32548   4.360   6.408   5.233
10550SOL    HW132549   4.440   6.381   5.288
10550SOL    HW232550   4.384   6.406   5.136
10551SOL     OW32551   1.803   2.663   5.523
10551SOL    HW132552   1.800   2.575   5.474
10551SOL    HW232553   1.877   2.718   5.487
10552SOL     OW32554   4.027   2.445   6.110
10552SOL    HW132555   4.026   2.346   6.096
10552SOL    HW232556   4.079   2.489   6.037
10553SOL     OW32557   1.281   5.011   1.555
10553SOL    HW132558   1.350   4.939   1.546
10553SOL    HW232559   1.232   5.021   1.468
10554SOL     OW32560   5.188   5.132   6.932
10554SOL    HW132561   5.130   5.056   6.902
10554SOL    HW232562   5.279   5.121   6.894
10555SOL     OW32563   2.517   3.447   0.978
10555SOL    HW132564   2.477   3.426   1.067
10555SOL    HW232565   2.557   3.365   0.938
10556SOL     OW32566   2.074   2.282   4.929
10556SOL    HW132567   2.163   2.300   4.888
10556SOL    HW232568   2.012   2.358   4.910
10557SOL     OW32569   1.827   2.155   3.079
10557SOL    HW132570   1.860   2.230   3.135
10557SOL    HW232571   1.817   2.073   3.136
10558SOL     OW32572   4.339   0.591   4.298
10558SOL    HW132573   4.393   0.514   4.331
10558SOL    HW232574   4.248   0.560   4.272
10559SOL     OW32575   4.477   0.699   1.168
10559SOL    HW132576   4.489   0.776   1.105
10559SOL    HW232577   4.379   0.680   1.178
10560SOL     OW32578   2.877   6.806   3.786
10560SOL    HW132579   2.892   6.724   3.731
10560SOL    HW232580   2.963   6.832   3.829
10561SOL     OW32581   2.730   4.579   0.603
10561SOL    HW132582   2.818   4.530   0.609
10561SOL    HW232583   2.746   4.677   0.596
10562SOL     OW32584   5.546   6.009   0.670
10562SOL    HW132585   5.570   6.060   0.588
10562SOL    HW232586   5.453   5.974   0.662
10563SOL     OW32587   1.054   0.473   4.000
10563SOL    HW132588   0.991   0.537   3.956
10563SOL    HW232589   1.118   0.523   4.058
10564SOL     OW32590   5.764   6.532   2.301
10564SOL    HW132591   5.713   6.500   2.221
10564SOL    HW232592   5.824   6.608   2.274
10565SOL     OW32593   7.010   0.948   5.547
10565SOL    HW132594   0.054   1.003   5.502
10565SOL    HW232595   7.005   0.858   5.504
10566SOL     OW32596   4.286   2.817   6.747
10566SOL    HW132597   4.315   2.752   6.817
10566SOL    HW232598   4.188   2.838   6.759
10567SOL     OW32599   2.410   2.247   4.298
10567SOL    HW132600   2.434   2.158   4.259
10567SOL    HW232601   2.423   2.318   4.229
10568SOL     OW32602   5.785   1.981   1.466
10568SOL    HW132603   5.694   1.990   1.426
10568SOL    HW232604   5.820   2.071   1.489
10569SOL     OW32605   6.342   2.481   1.399
10569SOL    HW132606   6.328   2.569   1.446
10569SOL    HW232607   6.289   2.480   1.314
10570SOL     OW32608   1.675   4.687   3.203
10570SOL    HW132609   1.691   4.642   3.115
10570SOL    HW232610   1.578   4.683   3.225
10571SOL     OW32611   0.066   4.634   4.597
10571SOL    HW132612   0.087   4.592   4.685
10571SOL    HW232613   7.001   4.674   4.599
10572SOL     OW32614   6.857   4.064   3.962
10572SOL    HW132615   6.879   4.133   4.031
10572SOL    HW232616   6.787   4.003   3.998
10573SOL     OW32617   4.498   6.352   4.982
10573SOL    HW132618   4.454   6.406   4.909
10573SOL    HW232619   4.497   6.255   4.956
10574SOL     OW32620   1.278   1.414   4.186
10574SOL    HW132621   1.265   1.495   4.244
10574SOL    HW232622   1.196   1.399   4.131
10575SOL     OW32623   0.064   1.154   3.282
10575SOL    HW132624   7.003   1.176   3.325
10575SOL    HW232625   0.117   1.238   3.270
10576SOL     OW32626   0.250   6.417   5.443
10576SOL    HW132627   0.221   6.475   5.367
10576SOL    HW232628   0.329   6.362   5.414
10577SOL     OW32629   1.659   2.312   7.016
10577SOL    HW132630   1.737   2.369   6.988
10577SOL    HW232631   1.579   2.335   6.961
10578SOL     OW32632   6.512   0.479   3.226
10578SOL    HW132633   6.597   0.502   3.273
10578SOL    HW232634   6.474   0.395   3.265
10579SOL     OW32635   3.784   1.517   0.540
10579SOL    HW132636   3.847   1.479   0.607
10579SOL    HW232637   3.692   1.522   0.579
10580SOL     OW32638   7.017   0.388   0.337
10580SOL    HW132639   6.919   0.402   0.324
10580SOL    HW232640   0.041   0.452   0.280
10581SOL     OW32641   6.169   6.734   3.017
10581SOL    HW132642   6.081   6.687   3.022
10581SOL    HW232643   6.238   6.672   2.980
10582SOL     OW32644   4.025   4.767   7.004
10582SOL    HW132645   4.013   4.849   0.033
10582SOL    HW232646   3.945   4.755   6.945
10583SOL     OW32647   3.705   1.215   5.397
10583SOL    HW132648   3.662   1.148   5.336
10583SOL    HW232649   3.715   1.302   5.348
10584SOL     OW32650   6.217   6.660   1.444
10584SOL    HW132651   6.195   6.596   1.516
10584SOL    HW232652   6.200   6.754   1.476
10585SOL     OW32653   1.782   3.167   5.328
10585SOL    HW132654   1.823   3.099   5.268
10585SOL    HW232655   1.684   3.173   5.311
10586SOL     OW32656   0.940   5.732   5.012
10586SOL    HW132657   0.971   5.731   5.108
10586SOL    HW232658   0.896   5.645   4.990
10587SOL     OW32659   6.123   4.487   0.307
10587SOL    HW132660   6.210   4.528   0.281
10587SOL    HW232661   6.133   4.388   0.314
10588SOL     OW32662   0.209   3.900   2.318
10588SOL    HW132663   0.205   3.966   2.393
10588SOL    HW232664   0.232   3.947   2.233
10589SOL     OW32665   5.827   1.685   4.702
10589SOL    HW132666   5.755   1.637   4.652
10589SOL    HW232667   5.835   1.778   4.668
10590SOL     OW32668   1.152   0.188   1.612
10590SOL    HW132669   1.156   0.191   1.512
10590SOL    HW232670   1.066   0.229   1.643
10591SOL     OW32671   1.285   1.355   6.363
10591SOL    HW132672   1.312   1.451   6.359
10591SOL    HW232673   1.292   1.323   6.457
10592SOL     OW32674   6.582   2.570   0.416
10592SOL    HW132675   6.523   2.642   0.451
10592SOL    HW232676   6.675   2.604   0.407
10593SOL     OW32677   2.801   5.384   0.557
10593SOL    HW132678   2.833   5.309   0.500
10593SOL    HW232679   2.709   5.364   0.590
10594SOL     OW32680   5.203   0.628   2.520
10594SOL    HW132681   5.137   0.684   2.470
10594SOL    HW232682   5.237   0.556   2.459
10595SOL     OW32683   3.269   0.402   5.996
10595SOL    HW132684   3.358   0.390   5.953
10595SOL    HW232685   3.239   0.497   5.986
10596SOL     OW32686   5.047   0.172   0.744
10596SOL    HW132687   5.009   0.264   0.737
10596SOL    HW232688   5.011   0.116   0.670
10597SOL     OW32689   3.032   0.878   4.940
10597SOL    HW132690   3.086   0.828   4.872
10597SOL    HW232691   2.948   0.911   4.897
10598SOL     OW32692   2.883   2.791   6.647
10598SOL    HW132693   2.863   2.694   6.632
10598SOL    HW232694   2.803   2.845   6.622
10599SOL     OW32695   5.106   2.340   6.783
10599SOL    HW132696   5.082   2.432   6.752
10599SOL    HW232697   5.144   2.288   6.707
10600SOL     OW32698   1.666   2.923   0.301
10600SOL    HW132699   1.637   3.016   0.276
10600SOL    HW232700   1.740   2.894   0.241
10601SOL     OW32701   1.647   4.924   6.517
10601SOL    HW132702   1.596   5.009   6.529
10601SOL    HW232703   1.740   4.935   6.551
10602SOL     OW32704   5.248   1.475   2.989
10602SOL    HW132705   5.248   1.463   3.088
10602SOL    HW232706   5.240   1.572   2.967
10603SOL     OW32707   2.468   5.660   3.938
10603SOL    HW132708   2.476   5.754   3.904
10603SOL    HW232709   2.521   5.599   3.878
10604SOL     OW32710   5.949   3.980   5.400
10604SOL    HW132711   6.033   3.965   5.347
10604SOL    HW232712   5.886   4.037   5.347
10605SOL     OW32713   2.076   4.928   1.201
10605SOL    HW132714   2.029   4.902   1.117
10605SOL    HW232715   2.009   4.959   1.269
10606SOL     OW32716   6.461   0.021   2.896
10606SOL    HW132717   6.512   0.096   2.853
10606SOL    HW232718   6.526   6.983   2.935
10607SOL     OW32719   4.029   4.013   5.979
10607SOL    HW132720   3.989   4.103   5.961
10607SOL    HW232721   3.959   3.952   6.017
10608SOL     OW32722   5.509   1.770   5.538
10608SOL    HW132723   5.519   1.866   5.564
10608SOL    HW232724   5.504   1.713   5.621
10609SOL     OW32725   3.702   6.796   1.832
10609SOL    HW132726   3.752   6.850   1.899
10609SOL    HW232727   3.712   6.699   1.853
10610SOL     OW32728   0.387   3.616   6.487
10610SOL    HW132729   0.402   3.695   6.546
10610SOL    HW232730   0.311   3.562   6.522
10611SOL     OW32731   4.209   3.963   5.635
10611SOL    HW132732   4.293   3.992   5.588
10611SOL    HW232733   4.233   3.917   5.721
10612SOL     OW32734   2.648   6.808   5.795
10612SOL    HW132735   2.727   6.833   5.852
10612SOL    HW232736   2.644   6.869   5.716
10613SOL     OW32737   6.903   0.544   5.025
10613SOL    HW132738   6.993   0.506   5.050
10613SOL    HW232739   6.877   0.510   4.934
10614SOL     OW32740   6.469   2.103   4.641
10614SOL    HW132741   6.408   2.024   4.655
10614SOL    HW232742   6.429   2.164   4.574
10615SOL     OW32743   3.290   6.014   6.073
10615SOL    HW132744   3.226   6.063   6.013
10615SOL    HW232745   3.251   5.925   6.096
10616SOL     OW32746   2.906   6.342   0.807
10616SOL    HW132747   2.810   6.315   0.817
10616SOL    HW232748   2.955   6.325   0.893
10617SOL     OW32749   2.313   2.953   0.757
10617SOL    HW132750   2.270   3.042   0.776
10617SOL    HW232751   2.303   2.931   0.660
10618SOL     OW32752   5.901   3.671   6.886
10618SOL    HW132753   5.909   3.591   6.946
10618SOL    HW232754   5.827   3.729   6.918
10619SOL     OW32755   0.523   3.977   1.756
10619SOL    HW132756   0.520   3.972   1.855
10619SOL    HW232757   0.512   3.885   1.717
10620SOL     OW32758   1.307   5.475   5.756
10620SOL    HW132759   1.287   5.483   5.659
10620SOL    HW232760   1.258   5.396   5.794
10621SOL     OW32761   1.311   6.557   0.929
10621SOL    HW132762   1.248   6.624   0.966
10621SOL    HW232763   1.328   6.576   0.832
10622SOL     OW32764   5.385   1.381   1.009
10622SOL    HW132765   5.482   1.402   1.023
10622SOL    HW232766   5.336   1.397   1.095
10623SOL     OW32767   6.729   4.648   4.056
10623SOL    HW132768   6.644   4.687   4.021
10623SOL    HW232769   6.722   4.548   4.058
10624SOL     OW32770   0.740   1.436   4.936
10624SOL    HW132771   0.743   1.336   4.937
10624SOL    HW232772   0.660   1.467   4.886
10625SOL     OW32773   0.587   4.874   0.187
10625SOL    HW132774   0.532   4.924   0.255
10625SOL    HW232775   0.546   4.885   0.096
10626SOL     OW32776   0.628   2.819   1.217
10626SOL    HW132777   0.631   2.720   1.201
10626SOL    HW232778   0.621   2.867   1.130
10627SOL     OW32779   5.268   5.752   1.803
10627SOL    HW132780   5.224   5.838   1.778
10627SOL    HW232781   5.252   5.734   1.900
10628SOL     OW32782   5.373   5.227   6.134
10628SOL    HW132783   5.347   5.134   6.157
10628SOL    HW232784   5.302   5.268   6.077
10629SOL     OW32785   2.623   4.597   4.893
10629SOL    HW132786   2.705   4.639   4.932
10629SOL    HW232787   2.569   4.555   4.966
10630SOL     OW32788   6.413   1.283   3.627
10630SOL    HW132789   6.466   1.288   3.542
10630SOL    HW232790   6.427   1.366   3.680
10631SOL     OW32791   1.753   5.126   4.770
10631SOL    HW132792   1.680   5.070   4.729
10631SOL    HW232793   1.753   5.112   4.869
10632SOL     OW32794   5.677   1.701   3.967
10632SOL    HW132795   5.622   1.638   3.912
10632SOL    HW232796   5.632   1.790   3.972
10633SOL     OW32797   2.468   4.023   1.324
10633SOL    HW132798   2.529   4.028   1.403
10633SOL    HW232799   2.404   3.948   1.336
10634SOL     OW32800   2.988   5.434   1.143
10634SOL    HW132801   3.059   5.502   1.161
10634SOL    HW232802   2.982   5.372   1.221
10635SOL     OW32803   3.581   1.414   1.152
10635SOL    HW132804   3.646   1.341   1.130
10635SOL    HW232805   3.536   1.446   1.069
10636SOL     OW32806   1.356   2.367   1.431
10636SOL    HW132807   1.445   2.395   1.396
10636SOL    HW232808   1.366   2.332   1.525
10637SOL     OW32809   3.190   4.879   5.345
10637SOL    HW132810   3.124   4.935   5.395
10637SOL    HW232811   3.264   4.851   5.406
10638SOL     OW32812   6.990   5.527   2.850
10638SOL    HW132813   6.999   5.610   2.794
10638SOL    HW232814   6.951   5.552   2.939
10639SOL     OW32815   0.402   2.452   3.233
10639SOL    HW132816   0.465   2.425   3.306
10639SOL    HW232817   0.317   2.485   3.273
10640SOL     OW32818   4.158   0.254   6.388
10640SOL    HW132819   4.209   0.242   6.473
10640SOL    HW232820   4.221   0.280   6.315
10641SOL     OW32821   3.373   1.814   6.910
10641SOL    HW132822   3.294   1.873   6.919
10641SOL    HW232823   3.454   1.860   6.946
10642SOL     OW32824   0.173   2.213   2.004
10642SOL    HW132825   0.212   2.250   2.088
10642SOL    HW232826   0.242   2.212   1.932
10643SOL     OW32827   1.901   4.708   5.501
10643SOL    HW132828   1.941   4.782   5.448
10643SOL    HW232829   1.831   4.744   5.563
10644SOL     OW32830   5.503   1.870   3.125
10644SOL    HW132831   5.509   1.967   3.150
10644SOL    HW232832   5.511   1.814   3.208
10645SOL     OW32833   0.706   1.086   4.719
10645SOL    HW132834   0.620   1.060   4.676
10645SOL    HW232835   0.778   1.022   4.691
10646SOL     OW32836   0.326   1.583   5.517
10646SOL    HW132837   0.413   1.534   5.522
10646SOL    HW232838   0.251   1.521   5.541
10647SOL     OW32839   4.469   6.100   6.766
10647SOL    HW132840   4.441   6.035   6.696
10647SOL    HW232841   4.562   6.079   6.797
10648SOL     OW32842   4.504   3.683   6.487
10648SOL    HW132843   4.475   3.733   6.406
10648SOL    HW232844   4.591   3.720   6.521
10649SOL     OW32845   0.423   4.441   3.204
10649SOL    HW132846   0.501   4.499   3.179
10649SOL    HW232847   0.456   4.358   3.248
10650SOL     OW32848   1.153   6.127   2.966
10650SOL    HW132849   1.231   6.179   3.000
10650SOL    HW232850   1.069   6.180   2.982
10651SOL     OW32851   5.329   6.966   5.750
10651SOL    HW132852   5.329   6.895   5.821
10651SOL    HW232853   5.235   6.992   5.728
10652SOL     OW32854   3.415   6.990   6.757
10652SOL    HW132855   3.424   6.957   6.851
10652SOL    HW232856   3.344   0.033   6.753
10653SOL     OW32857   5.205   4.777   4.411
10653SOL    HW132858   5.285   4.788   4.351
10653SOL    HW232859   5.160   4.866   4.422
10654SOL     OW32860   4.515   1.292   0.799
10654SOL    HW132861   4.592   1.320   0.742
10654SOL    HW232862   4.445   1.250   0.742
10655SOL     OW32863   2.957   5.341   1.639
10655SOL    HW132864   2.927   5.334   1.734
10655SOL    HW232865   3.035   5.280   1.624
10656SOL     OW32866   5.908   2.353   0.661
10656SOL    HW132867   5.894   2.266   0.709
10656SOL    HW232868   5.930   2.335   0.565
10657SOL     OW32869   6.233   6.488   0.042
10657SOL    HW132870   6.162   6.417   0.037
10657SOL    HW232871   6.205   6.558   0.109
10658SOL     OW32872   6.646   4.055   4.645
10658SOL    HW132873   6.661   4.146   4.684
10658SOL    HW232874   6.609   3.994   4.715
10659SOL     OW32875   6.616   6.534   0.847
10659SOL    HW132876   6.641   6.562   0.940
10659SOL    HW232877   6.523   6.498   0.848
10660SOL     OW32878   5.267   4.681   6.497
10660SOL    HW132879   5.271   4.583   6.511
10660SOL    HW232880   5.348   4.712   6.447
10661SOL     OW32881   0.394   6.813   2.282
10661SOL    HW132882   0.473   6.869   2.257
10661SOL    HW232883   0.425   6.723   2.312
10662SOL     OW32884   5.597   0.614   2.013
10662SOL    HW132885   5.647   0.661   2.086
10662SOL    HW232886   5.648   0.622   1.927
10663SOL     OW32887   0.405   6.481   1.099
10663SOL    HW132888   0.338   6.555   1.102
10663SOL    HW232889   0.410   6.437   1.189
10664SOL     OW32890   1.804   3.983   5.840
10664SOL    HW132891   1.744   4.017   5.767
10664SOL    HW232892   1.877   3.928   5.801
10665SOL     OW32893   1.129   0.475   0.315
10665SOL    HW132894   1.198   0.543   0.339
10665SOL    HW232895   1.151   0.388   0.359
10666SOL     OW32896   3.924   4.462   0.102
10666SOL    HW132897   4.005   4.439   0.048
10666SOL    HW232898   3.842   4.438   0.050
10667SOL     OW32899   3.518   2.401   5.622
10667SOL    HW132900   3.432   2.349   5.619
10667SOL    HW232901   3.528   2.452   5.536
10668SOL     OW32902   1.317   1.402   5.095
10668SOL    HW132903   1.319   1.408   5.195
10668SOL    HW232904   1.345   1.490   5.056
10669SOL     OW32905   6.515   6.440   0.450
10669SOL    HW132906   6.606   6.403   0.470
10669SOL    HW232907   6.503   6.525   0.500
10670SOL     OW32908   5.159   4.421   5.763
10670SOL    HW132909   5.087   4.372   5.811
10670SOL    HW232910   5.123   4.508   5.729
10671SOL     OW32911   2.126   2.729   2.656
10671SOL    HW132912   2.204   2.733   2.719
10671SOL    HW232913   2.157   2.697   2.566
10672SOL     OW32914   6.863   2.591   0.636
10672SOL    HW132915   6.935   2.579   0.705
10672SOL    HW232916   6.783   2.538   0.663
10673SOL     OW32917   1.998   2.182   5.817
10673SOL    HW132918   2.046   2.102   5.779
10673SOL    HW232919   1.919   2.151   5.870
10674SOL     OW32920   4.000   3.552   0.666
10674SOL    HW132921   3.930   3.497   0.621
10674SOL    HW232922   4.074   3.493   0.698
10675SOL     OW32923   2.218   1.083   6.306
10675SOL    HW132924   2.127   1.064   6.345
10675SOL    HW232925   2.252   1.001   6.260
10676SOL     OW32926   6.013   7.026   6.324
10676SOL    HW132927   6.013   0.077   6.260
10676SOL    HW232928   6.105   7.014   6.362
10677SOL     OW32929   0.808   0.800   2.221
10677SOL    HW132930   0.879   0.868   2.203
10677SOL    HW232931   0.719   0.835   2.189
10678SOL     OW32932   3.493   5.253   3.223
10678SOL    HW132933   3.494   5.273   3.321
10678SOL    HW232934   3.531   5.331   3.173
10679SOL     OW32935   4.967   4.675   6.008
10679SOL    HW132936   4.910   4.752   6.036
10679SOL    HW232937   4.913   4.591   6.011
10680SOL     OW32938   2.136   2.273   4.206
10680SOL    HW132939   2.201   2.280   4.281
10680SOL    HW232940   2.050   2.317   4.232
10681SOL     OW32941   0.025   3.949   6.747
10681SOL    HW132942   0.053   3.934   6.652
10681SOL    HW232943   0.105   3.974   6.802
10682SOL     OW32944   1.544   1.675   3.296
10682SOL    HW132945   1.503   1.739   3.231
10682SOL    HW232946   1.600   1.609   3.247
10683SOL     OW32947   3.124   2.209   4.214
10683SOL    HW132948   3.224   2.210   4.210
10683SOL    HW232949   3.087   2.179   4.126
10684SOL     OW32950   4.383   4.086   0.345
10684SOL    HW132951   4.448   4.117   0.414
10684SOL    HW232952   4.301   4.050   0.390
10685SOL     OW32953   6.853   3.860   2.417
10685SOL    HW132954   6.855   3.905   2.328
10685SOL    HW232955   6.760   3.829   2.437
10686SOL     OW32956   4.308   5.993   6.108
10686SOL    HW132957   4.293   6.092   6.105
10686SOL    HW232958   4.226   5.946   6.076
10687SOL     OW32959   0.036   5.255   2.040
10687SOL    HW132960   0.118   5.229   1.990
10687SOL    HW232961   0.056   5.255   2.138
10688SOL     OW32962   5.759   4.121   2.410
10688SOL    HW132963   5.700   4.110   2.490
10688SOL    HW232964   5.843   4.168   2.437
10689SOL     OW32965   0.222   0.277   2.989
10689SOL    HW132966   0.152   0.208   2.971
10689SOL    HW232967   0.202   0.322   3.076
10690SOL     OW32968   5.772   5.327   3.468
10690SOL    HW132969   5.826   5.380   3.402
10690SOL    HW232970   5.816   5.238   3.482
10691SOL     OW32971   0.036   1.950   2.008
10691SOL    HW132972   0.077   2.038   1.986
10691SOL    HW232973   0.102   1.893   2.057
10692SOL     OW32974   3.160   5.234   3.544
10692SOL    HW132975   3.234   5.203   3.605
10692SOL    HW232976   3.173   5.195   3.453
10693SOL     OW32977   2.113   0.825   1.527
10693SOL    HW132978   2.152   0.754   1.468
10693SOL    HW232979   2.014   0.822   1.521
10694SOL     OW32980   3.749   6.385   1.058
10694SOL    HW132981   3.681   6.412   0.990
10694SOL    HW232982   3.735   6.439   1.142
10695SOL     OW32983   6.287   1.975   4.080
10695SOL    HW132984   6.311   2.070   4.065
10695SOL    HW232985   6.219   1.946   4.012
10696SOL     OW32986   6.724   4.831   1.475
10696SOL    HW132987   6.797   4.763   1.487
10696SOL    HW232988   6.742   4.910   1.533
10697SOL     OW32989   0.308   6.501   3.873
10697SOL    HW132990   0.293   6.402   3.871
10697SOL    HW232991   0.253   6.544   3.801
10698SOL     OW32992   3.463   6.538   3.988
10698SOL    HW132993   3.369   6.567   3.969
10698SOL    HW232994   3.489   6.464   3.926
10699SOL     OW32995   4.839   1.829   2.815
10699SOL    HW132996   4.855   1.910   2.758
10699SOL    HW232997   4.866   1.747   2.765
10700SOL     OW32998   1.357   0.303   0.439
10700SOL    HW132999   1.383   0.331   0.346
10700SOL    HW233000   1.433   0.254   0.482
10701SOL     OW33001   4.307   6.062   0.156
10701SOL    HW133002   4.307   6.089   0.253
10701SOL    HW233003   4.245   6.121   0.105
10702SOL     OW33004   5.291   2.093   1.667
10702SOL    HW133005   5.261   2.015   1.722
10702SOL    HW233006   5.226   2.168   1.678
10703SOL     OW33007   3.715   3.212   3.878
10703SOL    HW133008   3.739   3.136   3.938
10703SOL    HW233009   3.617   3.230   3.884
10704SOL     OW33010   4.863   6.389   2.116
10704SOL    HW133011   4.900   6.398   2.024
10704SOL    HW233012   4.902   6.459   2.176
10705SOL     OW33013   1.280   3.493   0.205
10705SOL    HW133014   1.186   3.462   0.196
10705SOL    HW233015   1.310   3.483   0.300
10706SOL     OW33016   4.744   0.429   1.567
10706SOL    HW133017   4.737   0.417   1.468
10706SOL    HW233018   4.663   0.390   1.611
10707SOL     OW33019   0.280   6.874   5.459
10707SOL    HW133020   0.199   6.898   5.405
10707SOL    HW233021   0.348   6.947   5.451
10708SOL     OW33022   4.924   1.169   1.453
10708SOL    HW133023   4.972   1.224   1.521
10708SOL    HW233024   4.877   1.093   1.498
10709SOL     OW33025   6.460   0.534   5.497
10709SOL    HW133026   6.490   0.628   5.510
10709SOL    HW233027   6.360   0.532   5.490
10710SOL     OW33028   0.416   6.286   4.892
10710SOL    HW133029   0.364   6.317   4.971
10710SOL    HW233030   0.500   6.241   4.923
10711SOL     OW33031   2.146   6.985   3.895
10711SOL    HW133032   2.056   7.019   3.919
10711SOL    HW233033   2.216   0.011   3.944
10712SOL     OW33034   3.897   1.192   3.949
10712SOL    HW133035   3.972   1.150   3.898
10712SOL    HW233036   3.855   1.124   4.009
10713SOL     OW33037   1.891   5.427   1.571
10713SOL    HW133038   1.971   5.418   1.512
10713SOL    HW233039   1.919   5.430   1.667
10714SOL     OW33040   6.911   4.084   4.808
10714SOL    HW133041   6.989   4.126   4.762
10714SOL    HW233042   6.918   3.984   4.800
10715SOL     OW33043   5.522   0.160   3.302
10715SOL    HW133044   5.499   0.123   3.213
10715SOL    HW233045   5.606   0.214   3.295
10716SOL     OW33046   6.618   1.614   3.497
10716SOL    HW133047   6.535   1.635   3.548
10716SOL    HW233048   6.594   1.580   3.406
10717SOL     OW33049   0.661   1.288   1.122
10717SOL    HW133050   0.601   1.209   1.113
10717SOL    HW233051   0.651   1.328   1.214
10718SOL     OW33052   6.881   5.200   0.509
10718SOL    HW133053   6.795   5.164   0.543
10718SOL    HW233054   6.916   5.142   0.436
10719SOL     OW33055   4.871   6.766   2.121
10719SOL    HW133056   4.804   6.799   2.187
10719SOL    HW233057   4.946   6.720   2.169
10720SOL     OW33058   6.867   3.321   5.969
10720SOL    HW133059   6.889   3.234   5.924
10720SOL    HW233060   6.811   3.376   5.908
10721SOL     OW33061   5.792   2.258   4.233
10721SOL    HW133062   5.848   2.270   4.151
10721SOL    HW233063   5.699   2.291   4.214
10722SOL     OW33064   6.844   3.623   7.000
10722SOL    HW133065   6.904   3.650   6.925
10722SOL    HW233066   6.878   3.662   0.059
10723SOL     OW33067   5.394   3.942   6.753
10723SOL    HW133068   5.337   3.965   6.832
10723SOL    HW233069   5.444   3.858   6.773
10724SOL     OW33070   4.387   6.784   6.230
10724SOL    HW133071   4.356   6.875   6.205
10724SOL    HW233072   4.406   6.780   6.328
10725SOL     OW33073   0.025   5.313   4.280
10725SOL    HW133074   0.080   5.260   4.216
10725SOL    HW233075   6.963   5.268   4.294
10726SOL     OW33076   5.826   0.501   5.011
10726SOL    HW133077   5.875   0.578   5.050
10726SOL    HW233078   5.793   0.441   5.084
10727SOL     OW33079   1.446   4.611   5.105
10727SOL    HW133080   1.535   4.630   5.146
10727SOL    HW233081   1.433   4.668   5.024
10728SOL     OW33082   5.514   6.803   3.084
10728SOL    HW133083   5.560   6.784   2.997
10728SOL    HW233084   5.424   6.760   3.084
10729SOL     OW33085   6.355   1.948   2.574
10729SOL    HW133086   6.366   2.048   2.571
10729SOL    HW233087   6.337   1.919   2.668
10730SOL     OW33088   2.386   5.785   2.190
10730SOL    HW133089   2.324   5.727   2.243
10730SOL    HW233090   2.452   5.828   2.252
10731SOL     OW33091   2.871   5.627   0.436
10731SOL    HW133092   2.838   5.699   0.497
10731SOL    HW233093   2.866   5.539   0.482
10732SOL     OW33094   6.525   6.682   3.295
10732SOL    HW133095   6.492   6.590   3.317
10732SOL    HW233096   6.451   6.735   3.254
10733SOL     OW33097   5.987   2.001   6.839
10733SOL    HW133098   5.941   1.920   6.875
10733SOL    HW233099   6.071   1.974   6.793
10734SOL     OW33100   0.727   0.167   6.380
10734SOL    HW133101   0.694   0.091   6.324
10734SOL    HW233102   0.701   0.254   6.336
10735SOL     OW33103   0.964   5.171   2.380
10735SOL    HW133104   0.919   5.258   2.400
10735SOL    HW233105   0.995   5.129   2.465
10736SOL     OW33106   0.519   0.662   3.463
10736SOL    HW133107   0.474   0.581   3.425
10736SOL    HW233108   0.555   0.717   3.388
10737SOL     OW33109   0.562   2.043   1.017
10737SOL    HW133110   0.598   2.103   1.088
10737SOL    HW233111   0.630   2.033   0.944
10738SOL     OW33112   2.467   0.639   2.907
10738SOL    HW133113   2.413   0.589   2.839
10738SOL    HW233114   2.449   0.601   2.998
10739SOL     OW33115   6.172   2.018   1.948
10739SOL    HW133116   6.117   1.940   1.980
10739SOL    HW233117   6.262   2.015   1.991
10740SOL     OW33118   1.538   6.456   5.523
10740SOL    HW133119   1.469   6.395   5.482
10740SOL    HW233120   1.578   6.513   5.451
10741SOL     OW33121   2.036   1.962   3.622
10741SOL    HW133122   2.082   1.876   3.645
10741SOL    HW233123   2.053   1.985   3.527
10742SOL     OW33124   5.857   6.070   2.034
10742SOL    HW133125   5.770   6.020   2.039
10742SOL    HW233126   5.883   6.101   2.125
10743SOL     OW33127   3.756   1.740   5.202
10743SOL    HW133128   3.802   1.753   5.290
10743SOL    HW233129   3.821   1.703   5.135
10744SOL     OW33130   2.893   1.209   2.389
10744SOL    HW133131   2.982   1.255   2.388
10744SOL    HW233132   2.905   1.110   2.380
10745SOL     OW33133   2.504   4.635   0.739
10745SOL    HW133134   2.598   4.646   0.706
10745SOL    HW233135   2.500   4.660   0.836
10746SOL     OW33136   2.290   5.609   1.239
10746SOL    HW133137   2.277   5.521   1.284
10746SOL    HW233138   2.360   5.600   1.168
10747SOL     OW33139   5.355   1.904   3.450
10747SOL    HW133140   5.260   1.902   3.480
10747SOL    HW233141   5.399   1.987   3.483
10748SOL     OW33142   5.025   5.806   1.338
10748SOL    HW133143   5.086   5.876   1.376
10748SOL    HW233144   5.080   5.736   1.293
10749SOL     OW33145   6.208   4.638   3.177
10749SOL    HW133146   6.277   4.566   3.166
10749SOL    HW233147   6.126   4.613   3.126
10750SOL     OW33148   4.889   4.150   4.642
10750SOL    HW133149   4.847   4.153   4.551
10750SOL    HW233150   4.816   4.152   4.712
10751SOL     OW33151   1.208   2.678   5.071
10751SOL    HW133152   1.262   2.662   5.153
10751SOL    HW233153   1.233   2.766   5.030
10752SOL     OW33154   5.831   4.736   6.895
10752SOL    HW133155   5.768   4.772   6.826
10752SOL    HW233156   5.920   4.718   6.853
10753SOL     OW33157   4.631   0.142   4.283
10753SOL    HW133158   4.636   0.233   4.324
10753SOL    HW233159   4.535   0.117   4.268
10754SOL     OW33160   0.678   2.809   1.635
10754SOL    HW133161   0.621   2.762   1.702
10754SOL    HW233162   0.764   2.761   1.624
10755SOL     OW33163   0.095   1.722   1.072
10755SOL    HW133164   0.042   1.796   1.114
10755SOL    HW233165   0.166   1.760   1.014
10756SOL     OW33166   6.631   2.182   0.084
10756SOL    HW133167   6.570   2.124   0.030
10756SOL    HW233168   6.578   2.257   0.124
10757SOL     OW33169   0.281   4.259   0.564
10757SOL    HW133170   0.255   4.272   0.659
10757SOL    HW233171   0.210   4.208   0.516
10758SOL     OW33172   0.575   5.624   5.798
10758SOL    HW133173   0.553   5.714   5.759
10758SOL    HW233174   0.633   5.574   5.733
10759SOL     OW33175   1.503   3.131   6.021
10759SOL    HW133176   1.433   3.084   5.967
10759SOL    HW233177   1.592   3.090   6.001
10760SOL     OW33178   1.285   5.754   0.969
10760SOL    HW133179   1.344   5.808   1.029
10760SOL    HW233180   1.192   5.790   0.973
10761SOL     OW33181   0.875   2.459   6.143
10761SOL    HW133182   0.951   2.440   6.206
10761SOL    HW233183   0.829   2.543   6.170
10762SOL     OW33184   4.451   0.908   6.297
10762SOL    HW133185   4.415   0.994   6.334
10762SOL    HW233186   4.542   0.925   6.259
10763SOL     OW33187   5.082   0.515   2.048
10763SOL    HW133188   5.111   0.537   1.955
10763SOL    HW233189   5.141   0.563   2.113
10764SOL     OW33190   5.114   1.243   5.638
10764SOL    HW133191   5.209   1.262   5.613
10764SOL    HW233192   5.085   1.308   5.708
10765SOL     OW33193   5.482   1.308   2.481
10765SOL    HW133194   5.472   1.354   2.570
10765SOL    HW233195   5.483   1.209   2.494
10766SOL     OW33196   1.845   4.543   0.532
10766SOL    HW133197   1.832   4.523   0.434
10766SOL    HW233198   1.906   4.474   0.572
10767SOL     OW33199   2.333   6.205   0.805
10767SOL    HW133200   2.404   6.274   0.824
10767SOL    HW233201   2.341   6.175   0.710
10768SOL     OW33202   4.970   5.345   0.517
10768SOL    HW133203   5.067   5.322   0.509
10768SOL    HW233204   4.944   5.346   0.613
10769SOL     OW33205   2.663   4.412   5.343
10769SOL    HW133206   2.710   4.468   5.275
10769SOL    HW233207   2.708   4.323   5.350
10770SOL     OW33208   5.390   0.186   4.487
10770SOL    HW133209   5.459   0.193   4.415
10770SOL    HW233210   5.302   0.217   4.451
10771SOL     OW33211   4.359   0.177   4.994
10771SOL    HW133212   4.267   0.205   5.020
10771SOL    HW233213   4.382   0.091   5.040
10772SOL     OW33214   6.697   6.658   3.896
10772SOL    HW133215   6.733   6.612   3.815
10772SOL    HW233216   6.773   6.698   3.948
10773SOL     OW33217   0.149   4.387   6.802
10773SOL    HW133218   0.080   4.457   6.779
10773SOL    HW233219   0.212   4.376   6.726
10774SOL     OW33220   1.738   2.701   1.237
10774SOL    HW133221   1.833   2.675   1.257
10774SOL    HW233222   1.735   2.762   1.159
10775SOL     OW33223   2.034   4.414   1.740
10775SOL    HW133224   2.009   4.333   1.687
10775SOL    HW233225   2.075   4.386   1.827
10776SOL     OW33226   0.233   0.082   2.495
10776SOL    HW133227   0.184   0.147   2.553
10776SOL    HW233228   0.172   0.008   2.469
10777SOL     OW33229   3.998   0.379   3.587
10777SOL    HW133230   3.991   0.442   3.509
10777SOL    HW233231   4.076   0.405   3.644
10778SOL     OW33232   6.481   5.777   4.770
10778SOL    HW133233   6.388   5.749   4.793
10778SOL    HW233234   6.539   5.770   4.851
10779SOL     OW33235   6.385   4.591   2.884
10779SOL    HW133236   6.407   4.545   2.798
10779SOL    HW233237   6.349   4.523   2.949
10780SOL     OW33238   6.881   5.533   4.169
10780SOL    HW133239   6.946   5.492   4.233
10780SOL    HW233240   6.924   5.540   4.079
10781SOL     OW33241   5.533   0.787   4.516
10781SOL    HW133242   5.529   0.814   4.612
10781SOL    HW233243   5.538   0.869   4.458
10782SOL     OW33244   6.258   3.319   4.704
10782SOL    HW133245   6.339   3.353   4.752
10782SOL    HW233246   6.211   3.396   4.661
10783SOL     OW33247   1.804   2.691   2.782
10783SOL    HW133248   1.837   2.655   2.694
10783SOL    HW233249   1.882   2.724   2.835
10784SOL     OW33250   2.532   6.047   1.804
10784SOL    HW133251   2.433   6.032   1.800
10784SOL    HW233252   2.550   6.134   1.850
10785SOL     OW33253   1.661   5.062   1.571
10785SOL    HW133254   1.654   4.969   1.608
10785SOL    HW233255   1.744   5.106   1.606
10786SOL     OW33256   4.106   1.961   2.706
10786SOL    HW133257   4.106   1.954   2.607
10786SOL    HW233258   4.080   1.873   2.746
10787SOL     OW33259   3.415   1.253   4.173
10787SOL    HW133260   3.419   1.303   4.087
10787SOL    HW233261   3.431   1.316   4.249
10788SOL     OW33262   1.659   4.218   0.432
10788SOL    HW133263   1.631   4.232   0.527
10788SOL    HW233264   1.662   4.306   0.385
10789SOL     OW33265   6.323   1.113   0.487
10789SOL    HW133266   6.354   1.197   0.442
10789SOL    HW233267   6.279   1.054   0.420
10790SOL     OW33268   6.848   1.428   5.773
10790SOL    HW133269   6.860   1.468   5.864
10790SOL    HW233270   6.750   1.416   5.755
10791SOL     OW33271   2.232   2.086   2.042
10791SOL    HW133272   2.263   2.007   2.094
10791SOL    HW233273   2.306   2.153   2.037
10792SOL     OW33274   3.456   2.903   1.190
10792SOL    HW133275   3.403   2.931   1.110
10792SOL    HW233276   3.401   2.841   1.246
10793SOL     OW33277   5.197   1.576   4.492
10793SOL    HW133278   5.155   1.515   4.424
10793SOL    HW233279   5.274   1.625   4.450
10794SOL     OW33280   3.888   3.629   1.689
10794SOL    HW133281   3.902   3.560   1.618
10794SOL    HW233282   3.953   3.613   1.763
10795SOL     OW33283   6.391   3.548   2.415
10795SOL    HW133284   6.455   3.479   2.449
10795SOL    HW233285   6.379   3.620   2.484
10796SOL     OW33286   4.953   6.932   6.144
10796SOL    HW133287   4.857   6.956   6.127
10796SOL    HW233288   4.956   6.851   6.203
10797SOL     OW33289   3.858   3.052   6.689
10797SOL    HW133290   3.812   3.052   6.778
10797SOL    HW233291   3.905   2.965   6.677
10798SOL     OW33292   2.544   0.038   6.433
10798SOL    HW133293   2.546   0.138   6.434
10798SOL    HW233294   2.573   0.004   6.523
10799SOL     OW33295   3.569   2.132   2.702
10799SOL    HW133296   3.658   2.169   2.676
10799SOL    HW233297   3.515   2.114   2.619
10800SOL     OW33298   2.743   6.575   1.033
10800SOL    HW133299   2.724   6.480   1.057
10800SOL    HW233300   2.702   6.635   1.102
10801SOL     OW33301   1.970   6.339   5.821
10801SOL    HW133302   2.019   6.252   5.813
10801SOL    HW233303   2.025   6.403   5.875
10802SOL     OW33304   2.023   3.142   3.871
10802SOL    HW133305   2.017   3.099   3.961
10802SOL    HW233306   1.937   3.187   3.850
10803SOL     OW33307   5.447   4.623   5.853
10803SOL    HW133308   5.355   4.657   5.874
10803SOL    HW233309   5.515   4.691   5.882
10804SOL     OW33310   6.467   3.811   1.147
10804SOL    HW133311   6.415   3.748   1.205
10804SOL    HW233312   6.534   3.759   1.094
10805SOL     OW33313   3.106   6.839   7.016
10805SOL    HW133314   3.027   6.783   0.014
10805SOL    HW233315   3.186   6.781   7.004
10806SOL     OW33316   6.313   4.005   0.296
10806SOL    HW133317   6.260   3.962   0.223
10806SOL    HW233318   6.303   4.105   0.290
10807SOL     OW33319   3.432   6.326   3.645
10807SOL    HW133320   3.516   6.335   3.699
10807SOL    HW233321   3.424   6.233   3.610
10808SOL     OW33322   0.680   3.933   6.931
10808SOL    HW133323   0.725   3.959   7.016
10808SOL    HW233324   0.744   3.879   6.875
10809SOL     OW33325   2.919   1.024   4.456
10809SOL    HW133326   2.824   0.993   4.467
10809SOL    HW233327   2.940   1.091   4.527
10810SOL     OW33328   0.345   1.090   6.098
10810SOL    HW133329   0.252   1.118   6.123
10810SOL    HW233330   0.398   1.172   6.073
10811SOL     OW33331   3.799   4.924   5.996
10811SOL    HW133332   3.841   4.834   6.007
10811SOL    HW233333   3.868   4.995   6.015
10812SOL     OW33334   0.304   2.601   2.645
10812SOL    HW133335   0.364   2.599   2.564
10812SOL    HW233336   0.262   2.691   2.653
10813SOL     OW33337   3.223   6.404   1.787
10813SOL    HW133338   3.177   6.421   1.700
10813SOL    HW233339   3.311   6.360   1.771
10814SOL     OW33340   1.690   0.650   5.992
10814SOL    HW133341   1.760   0.681   6.057
10814SOL    HW233342   1.608   0.624   6.042
10815SOL     OW33343   4.762   4.663   3.236
10815SOL    HW133344   4.786   4.720   3.158
10815SOL    HW233345   4.785   4.568   3.216
10816SOL     OW33346   1.394   1.213   2.159
10816SOL    HW133347   1.308   1.265   2.152
10816SOL    HW233348   1.395   1.141   2.090
10817SOL     OW33349   5.615   0.269   2.746
10817SOL    HW133350   5.543   0.330   2.779
10817SOL    HW233351   5.658   0.222   2.823
10818SOL     OW33352   5.647   2.811   6.625
10818SOL    HW133353   5.601   2.872   6.689
10818SOL    HW233354   5.648   2.718   6.662
10819SOL     OW33355   0.832   3.718   6.322
10819SOL    HW133356   0.774   3.685   6.248
10819SOL    HW233357   0.925   3.683   6.310
10820SOL     OW33358   0.301   0.079   4.043
10820SOL    HW133359   0.246   0.005   4.082
10820SOL    HW233360   0.297   0.075   3.943
10821SOL     OW33361   6.990   6.343   1.964
10821SOL    HW133362   6.959   6.253   1.996
10821SOL    HW233363   6.926   6.413   1.997
10822SOL     OW33364   1.365   3.341   2.360
10822SOL    HW133365   1.409   3.423   2.325
10822SOL    HW233366   1.329   3.359   2.452
10823SOL     OW33367   2.054   5.831   1.641
10823SOL    HW133368   1.967   5.847   1.593
10823SOL    HW233369   2.128   5.829   1.574
10824SOL     OW33370   5.303   6.804   3.691
10824SOL    HW133371   5.297   6.860   3.773
10824SOL    HW233372   5.353   6.854   3.620
10825SOL     OW33373   2.733   1.684   1.062
10825SOL    HW133374   2.696   1.713   1.150
10825SOL    HW233375   2.714   1.754   0.993
10826SOL     OW33376   6.720   3.935   2.167
10826SOL    HW133377   6.673   3.857   2.126
10826SOL    HW233378   6.655   4.008   2.185
10827SOL     OW33379   6.108   3.056   3.931
10827SOL    HW133380   6.106   2.958   3.909
10827SOL    HW233381   6.191   3.077   3.983
10828SOL     OW33382   0.939   6.170   1.465
10828SOL    HW133383   0.915   6.237   1.535
10828SOL    HW233384   0.966   6.217   1.382
10829SOL     OW33385   2.268   3.518   1.381
10829SOL    HW133386   2.292   3.524   1.478
10829SOL    HW233387   2.175   3.485   1.372
10830SOL     OW33388   5.878   3.081   4.468
10830SOL    HW133389   5.973   3.050   4.471
10830SOL    HW233390   5.869   3.155   4.401
10831SOL     OW33391   5.102   0.242   2.118
10831SOL    HW133392   5.107   0.341   2.129
10831SOL    HW233393   5.182   0.210   2.067
10832SOL     OW33394   0.837   2.407   0.581
10832SOL    HW133395   0.832   2.502   0.550
10832SOL    HW233396   0.846   2.346   0.502
10833SOL     OW33397   2.355   0.173   3.661
10833SOL    HW133398   2.347   0.255   3.718
10833SOL    HW233399   2.292   0.181   3.584
10834SOL     OW33400   0.250   1.792   5.212
10834SOL    HW133401   0.274   1.850   5.134
10834SOL    HW233402   0.316   1.806   5.286
10835SOL     OW33403   6.635   1.912   2.209
10835SOL    HW133404   6.666   1.880   2.298
10835SOL    HW233405   6.561   1.853   2.176
10836SOL     OW33406   0.209   1.506   5.249
10836SOL    HW133407   0.121   1.538   5.284
10836SOL    HW233408   0.280   1.520   5.318
10837SOL     OW33409   6.746   4.905   0.225
10837SOL    HW133410   6.834   4.946   0.247
10837SOL    HW233411   6.733   4.822   0.278
10838SOL     OW33412   5.668   0.485   5.758
10838SOL    HW133413   5.608   0.429   5.815
10838SOL    HW233414   5.658   0.581   5.784
10839SOL     OW33415   2.940   2.475   0.028
10839SOL    HW133416   2.857   2.477   6.999
10839SOL    HW233417   2.916   2.456   0.123
10840SOL     OW33418   3.871   6.058   1.698
10840SOL    HW133419   3.906   6.133   1.642
10840SOL    HW233420   3.944   5.991   1.714
10841SOL     OW33421   3.966   6.293   5.979
10841SOL    HW133422   3.920   6.320   5.894
10841SOL    HW233423   3.976   6.373   6.038
10842SOL     OW33424   6.601   3.141   1.336
10842SOL    HW133425   6.568   3.205   1.267
10842SOL    HW233426   6.667   3.078   1.294
10843SOL     OW33427   1.155   1.973   1.780
10843SOL    HW133428   1.189   2.026   1.702
10843SOL    HW233429   1.168   1.876   1.763
10844SOL     OW33430   6.525   6.278   4.651
10844SOL    HW133431   6.600   6.343   4.661
10844SOL    HW233432   6.554   6.187   4.681
10845SOL     OW33433   1.373   1.504   1.595
10845SOL    HW133434   1.392   1.602   1.585
10845SOL    HW233435   1.275   1.492   1.615
10846SOL     OW33436   4.939   1.720   0.458
10846SOL    HW133437   4.904   1.702   0.550
10846SOL    HW233438   4.906   1.808   0.426
10847SOL     OW33439   2.640   1.502   5.927
10847SOL    HW133440   2.648   1.600   5.907
10847SOL    HW233441   2.549   1.470   5.901
10848SOL     OW33442   2.566   1.775   0.205
10848SOL    HW133443   2.656   1.750   0.169
10848SOL    HW233444   2.534   1.859   0.160
10849SOL     OW33445   3.146   4.905   3.705
10849SOL    HW133446   3.242   4.877   3.703
10849SOL    HW233447   3.111   4.896   3.799
10850SOL     OW33448   3.799   6.878   0.197
10850SOL    HW133449   3.767   6.790   0.162
10850SOL    HW233450   3.878   6.908   0.144
10851SOL     OW33451   3.167   2.788   5.871
10851SOL    HW133452   3.240   2.733   5.830
10851SOL    HW233453   3.204   2.843   5.945
10852SOL     OW33454   0.131   0.530   6.281
10852SOL    HW133455   0.069   0.452   6.272
10852SOL    HW233456   0.131   0.582   6.195
10853SOL     OW33457   3.193   1.705   4.457
10853SOL    HW133458   3.245   1.635   4.408
10853SOL    HW233459   3.242   1.732   4.539
10854SOL     OW33460   5.686   0.577   6.935
10854SOL    HW133461   5.719   0.503   6.994
10854SOL    HW233462   5.641   0.647   6.990
10855SOL     OW33463   2.977   6.053   2.620
10855SOL    HW133464   2.917   5.985   2.662
10855SOL    HW233465   2.942   6.145   2.640
10856SOL     OW33466   6.334   6.808   0.482
10856SOL    HW133467   6.379   6.896   0.498
10856SOL    HW233468   6.404   6.737   0.472
10857SOL     OW33469   6.156   2.505   2.963
10857SOL    HW133470   6.059   2.530   2.973
10857SOL    HW233471   6.196   2.490   3.054
10858SOL     OW33472   1.746   3.775   0.210
10858SOL    HW133473   1.679   3.741   0.145
10858SOL    HW233474   1.733   3.873   0.224
10859SOL     OW33475   1.888   3.717   3.120
10859SOL    HW133476   1.886   3.775   3.202
10859SOL    HW233477   1.967   3.742   3.064
10860SOL     OW33478   6.545   1.430   0.117
10860SOL    HW133479   6.569   1.522   0.146
10860SOL    HW233480   6.628   1.375   0.106
10861SOL     OW33481   3.575   2.842   1.903
10861SOL    HW133482   3.582   2.843   2.003
10861SOL    HW233483   3.601   2.931   1.866
10862SOL     OW33484   2.314   2.136   6.198
10862SOL    HW133485   2.246   2.102   6.133
10862SOL    HW233486   2.304   2.235   6.207
10863SOL     OW33487   2.802   0.307   2.705
10863SOL    HW133488   2.751   0.385   2.669
10863SOL    HW233489   2.806   0.234   2.637
10864SOL     OW33490   2.633   4.517   1.148
10864SOL    HW133491   2.645   4.508   1.049
10864SOL    HW233492   2.566   4.450   1.180
10865SOL     OW33493   5.270   3.018   3.634
10865SOL    HW133494   5.209   3.000   3.712
10865SOL    HW233495   5.250   3.108   3.596
10866SOL     OW33496   6.121   2.947   1.106
10866SOL    HW133497   6.221   2.945   1.093
10866SOL    HW233498   6.093   2.863   1.153
10867SOL     OW33499   2.861   3.014   0.237
10867SOL    HW133500   2.812   3.085   0.186
10867SOL    HW233501   2.798   2.939   0.257
10868SOL     OW33502   1.040   2.148   3.222
10868SOL    HW133503   0.977   2.193   3.158
10868SOL    HW233504   0.994   2.070   3.264
10869NA      NA33505   0.712   1.858   6.058
10870NA      NA33506   4.493   4.432   5.208
10871NA      NA33507   1.762   4.992   2.830
10872NA      NA33508   5.266   4.237   3.897
10873NA      NA33509   4.301   2.393   5.264
10874NA      NA33510   2.775   4.853   1.383
10875NA      NA33511   1.264   4.920   0.552
10876NA      NA33512   4.032   4.272   1.515
10877NA      NA33513   4.569   3.960   0.845
10878NA      NA33514   3.511   1.194   5.838
10879NA      NA33515   5.062   5.600   2.128
10880NA      NA33516   1.548   0.491   5.611
10881NA      NA33517   4.950   5.026   1.747
10882NA      NA33518   3.036   3.333   0.243
   7.02669   7.02669   7.02669
