Generated by trjconv : CNT in water t= 323.00000
33518
    1C        C    1   2.845   2.772   4.743
    1C        C    2   2.894   2.717   4.864
    1C        C    3   2.839   2.773   4.980
    1C        C    4   2.851   2.776   4.257
    1C        C    5   2.900   2.725   4.379
    1C        C    6   2.845   2.773   4.501
    1C        C    7   3.009   2.637   4.624
    1C        C    8   2.896   2.721   4.622
    1C        C    9   3.072   2.600   4.745
    1C        C   10   3.003   2.628   4.864
    1C        C   11   3.175   2.492   4.973
    1C        C   12   3.053   2.560   4.977
    1C        C   13   2.844   2.766   3.769
    1C        C   14   2.900   2.721   3.891
    1C        C   15   2.853   2.776   4.012
    1C        C   16   3.019   2.646   4.135
    1C        C   17   2.906   2.731   4.135
    1C        C   18   3.081   2.614   4.258
    1C        C   19   3.014   2.642   4.379
    1C        C   20   3.204   2.552   4.504
    1C        C   21   3.072   2.603   4.502
    1C        C   22   3.275   2.530   4.624
    1C        C   23   3.205   2.549   4.745
    1C        C   24   3.408   2.473   4.863
    1C        C   25   3.267   2.500   4.864
    1C        C   26   3.483   2.472   4.981
    1C        C   27   2.849   2.767   3.281
    1C        C   28   2.902   2.721   3.403
    1C        C   29   2.853   2.771   3.526
    1C        C   30   3.014   2.634   3.647
    1C        C   31   2.901   2.720   3.648
    1C        C   32   3.071   2.593   3.770
    1C        C   33   3.011   2.634   3.891
    1C        C   34   3.205   2.548   4.015
    1C        C   35   3.074   2.601   4.013
    1C        C   36   3.275   2.530   4.137
    1C        C   37   3.209   2.555   4.259
    1C        C   38   3.411   2.501   4.381
    1C        C   39   3.274   2.534   4.383
    1C        C   40   3.484   2.495   4.502
    1C        C   41   3.410   2.491   4.623
    1C        C   42   3.625   2.475   4.740
    1C        C   43   3.483   2.472   4.742
    1C        C   44   3.698   2.485   4.861
    1C        C   45   3.622   2.479   4.978
    1C        C   46   2.835   2.750   2.789
    1C        C   47   2.893   2.711   2.911
    1C        C   48   2.842   2.762   3.033
    1C        C   49   3.014   2.640   3.159
    1C        C   50   2.899   2.722   3.156
    1C        C   51   3.079   2.605   3.280
    1C        C   52   3.018   2.641   3.402
    1C        C   53   3.207   2.547   3.526
    1C        C   54   3.077   2.602   3.525
    1C        C   55   3.273   2.526   3.649
    1C        C   56   3.203   2.543   3.770
    1C        C   57   3.410   2.496   3.891
    1C        C   58   3.272   2.525   3.893
    1C        C   59   3.481   2.493   4.014
    1C        C   60   3.413   2.501   4.137
    1C        C   61   3.623   2.495   4.253
    1C        C   62   3.482   2.490   4.260
    1C        C   63   3.694   2.506   4.375
    1C        C   64   3.625   2.497   4.499
    1C        C   65   3.832   2.538   4.619
    1C        C   66   3.697   2.496   4.621
    1C        C   67   3.901   2.555   4.741
    1C        C   68   3.835   2.522   4.860
    1C        C   69   4.048   2.580   4.975
    1C        C   70   3.919   2.525   4.972
    1C        C   71   2.816   2.728   2.305
    1C        C   72   2.878   2.695   2.427
    1C        C   73   2.823   2.744   2.548
    1C        C   74   3.004   2.624   2.668
    1C        C   75   2.883   2.697   2.667
    1C        C   76   3.066   2.590   2.791
    1C        C   77   3.009   2.630   2.914
    1C        C   78   3.199   2.539   3.038
    1C        C   79   3.071   2.599   3.037
    1C        C   80   3.273   2.525   3.157
    1C        C   81   3.208   2.549   3.280
    1C        C   82   3.412   2.494   3.400
    1C        C   83   3.274   2.524   3.403
    1C        C   84   3.482   2.488   3.523
    1C        C   85   3.412   2.497   3.645
    1C        C   86   3.621   2.495   3.764
    1C        C   87   3.480   2.490   3.769
    1C        C   88   3.689   2.509   3.887
    1C        C   89   3.622   2.502   4.011
    1C        C   90   3.831   2.543   4.132
    1C        C   91   3.695   2.508   4.132
    1C        C   92   3.898   2.571   4.253
    1C        C   93   3.829   2.547   4.374
    1C        C   94   4.023   2.629   4.495
    1C        C   95   3.897   2.565   4.496
    1C        C   96   4.080   2.671   4.617
    1C        C   97   4.025   2.625   4.738
    1C        C   98   4.182   2.765   4.858
    1C        C   99   4.092   2.654   4.860
    1C        C  100   4.211   2.836   4.975
    1C        C  101   2.819   2.727   2.068
    1C        C  102   2.985   2.585   2.191
    1C        C  103   2.873   2.673   2.186
    1C        C  104   3.062   2.576   2.310
    1C        C  105   2.997   2.619   2.428
    1C        C  106   3.194   2.529   2.547
    1C        C  107   3.067   2.589   2.547
    1C        C  108   3.265   2.517   2.669
    1C        C  109   3.197   2.537   2.791
    1C        C  110   3.404   2.498   2.909
    1C        C  111   3.265   2.524   2.914
    1C        C  112   3.476   2.488   3.030
    1C        C  113   3.411   2.496   3.155
    1C        C  114   3.623   2.488   3.274
    1C        C  115   3.481   2.486   3.277
    1C        C  116   3.691   2.500   3.397
    1C        C  117   3.623   2.493   3.520
    1C        C  118   3.830   2.539   3.644
    1C        C  119   3.694   2.501   3.642
    1C        C  120   3.894   2.567   3.767
    1C        C  121   3.826   2.542   3.888
    1C        C  122   4.020   2.635   4.009
    1C        C  123   3.893   2.574   4.008
    1C        C  124   4.082   2.674   4.130
    1C        C  125   4.023   2.637   4.252
    1C        C  126   4.191   2.763   4.376
    1C        C  127   4.086   2.668   4.375
    1C        C  128   4.232   2.822   4.497
    1C        C  129   4.182   2.769   4.618
    1C        C  130   4.326   2.930   4.739
    1C        C  131   4.236   2.820   4.738
    1C        C  132   4.354   2.997   4.860
    1C        C  133   4.282   2.956   4.973
    1C        C  134   3.167   2.469   2.076
    1C        C  135   3.032   2.505   2.082
    1C        C  136   3.253   2.479   2.186
    1C        C  137   3.191   2.516   2.307
    1C        C  138   3.403   2.479   2.425
    1C        C  139   3.263   2.499   2.427
    1C        C  140   3.476   2.481   2.546
    1C        C  141   3.404   2.497   2.666
    1C        C  142   3.617   2.486   2.788
    1C        C  143   3.476   2.488   2.788
    1C        C  144   3.689   2.497   2.909
    1C        C  145   3.618   2.490   3.031
    1C        C  146   3.830   2.529   3.152
    1C        C  147   3.691   2.499   3.151
    1C        C  148   3.895   2.558   3.274
    1C        C  149   3.828   2.537   3.397
    1C        C  150   4.019   2.624   3.517
    1C        C  151   3.894   2.559   3.520
    1C        C  152   4.079   2.664   3.639
    1C        C  153   4.018   2.634   3.763
    1C        C  154   4.185   2.765   3.888
    1C        C  155   4.074   2.677   3.885
    1C        C  156   4.243   2.809   4.009
    1C        C  157   4.196   2.758   4.132
    1C        C  158   4.332   2.920   4.252
    1C        C  159   4.248   2.806   4.254
    1C        C  160   4.368   2.984   4.373
    1C        C  161   4.323   2.931   4.496
    1C        C  162   4.431   3.114   4.613
    1C        C  163   4.367   2.988   4.617
    1C        C  164   4.461   3.181   4.733
    1C        C  165   4.429   3.117   4.854
    1C        C  166   4.510   3.318   4.968
    1C        C  167   4.474   3.184   4.969
    1C        C  168   3.469   2.430   2.070
    1C        C  169   3.393   2.457   2.185
    1C        C  170   3.612   2.472   2.304
    1C        C  171   3.470   2.462   2.303
    1C        C  172   3.688   2.483   2.422
    1C        C  173   3.617   2.475   2.545
    1C        C  174   3.824   2.529   2.662
    1C        C  175   3.688   2.492   2.666
    1C        C  176   3.890   2.551   2.784
    1C        C  177   3.827   2.528   2.908
    1C        C  178   4.020   2.620   3.027
    1C        C  179   3.895   2.554   3.029
    1C        C  180   4.080   2.657   3.150
    1C        C  181   4.022   2.621   3.273
    1C        C  182   4.192   2.746   3.394
    1C        C  183   4.084   2.655   3.395
    1C        C  184   4.238   2.800   3.516
    1C        C  185   4.186   2.756   3.640
    1C        C  186   4.327   2.915   3.762
    1C        C  187   4.232   2.810   3.762
    1C        C  188   4.371   2.973   3.883
    1C        C  189   4.335   2.916   4.007
    1C        C  190   4.444   3.098   4.125
    1C        C  191   4.371   2.977   4.129
    1C        C  192   4.465   3.167   4.246
    1C        C  193   4.437   3.107   4.370
    1C        C  194   4.500   3.313   4.488
    1C        C  195   4.458   3.179   4.490
    1C        C  196   4.520   3.385   4.608
    1C        C  197   4.505   3.317   4.731
    1C        C  198   4.547   3.533   4.848
    1C        C  199   4.525   3.392   4.850
    1C        C  200   4.579   3.620   4.957
    1C        C  201   3.609   2.419   2.067
    1C        C  202   3.820   2.507   2.178
    1C        C  203   3.684   2.464   2.181
    1C        C  204   3.895   2.532   2.297
    1C        C  205   3.825   2.515   2.418
    1C        C  206   4.018   2.612   2.539
    1C        C  207   3.892   2.547   2.539
    1C        C  208   4.074   2.656   2.661
    1C        C  209   4.013   2.622   2.784
    1C        C  210   4.189   2.745   2.903
    1C        C  211   4.077   2.659   2.904
    1C        C  212   4.236   2.798   3.026
    1C        C  213   4.190   2.746   3.148
    1C        C  214   4.329   2.905   3.269
    1C        C  215   4.243   2.793   3.271
    1C        C  216   4.364   2.966   3.391
    1C        C  217   4.324   2.912   3.516
    1C        C  218   4.432   3.096   3.636
    1C        C  219   4.365   2.971   3.638
    1C        C  220   4.456   3.165   3.757
    1C        C  221   4.437   3.098   3.880
    1C        C  222   4.501   3.300   3.998
    1C        C  223   4.470   3.163   4.001
    1C        C  224   4.512   3.373   4.119
    1C        C  225   4.498   3.305   4.243
    1C        C  226   4.514   3.519   4.362
    1C        C  227   4.512   3.377   4.363
    1C        C  228   4.515   3.594   4.482
    1C        C  229   4.530   3.526   4.604
    1C        C  230   4.496   3.738   4.723
    1C        C  231   4.536   3.601   4.724
    1C        C  232   4.491   3.815   4.841
    1C        C  233   4.538   3.754   4.958
    1C        C  234   4.012   2.606   2.056
    1C        C  235   3.889   2.541   2.061
    1C        C  236   4.079   2.641   2.174
    1C        C  237   4.019   2.601   2.296
    1C        C  238   4.198   2.723   2.417
    1C        C  239   4.081   2.642   2.416
    1C        C  240   4.249   2.775   2.538
    1C        C  241   4.190   2.736   2.660
    1C        C  242   4.330   2.900   2.781
    1C        C  243   4.243   2.789   2.780
    1C        C  244   4.367   2.961   2.903
    1C        C  245   4.328   2.906   3.026
    1C        C  246   4.433   3.090   3.146
    1C        C  247   4.375   2.961   3.148
    1C        C  248   4.448   3.159   3.268
    1C        C  249   4.425   3.093   3.391
    1C        C  250   4.492   3.297   3.512
    1C        C  251   4.453   3.160   3.512
    1C        C  252   4.507   3.369   3.632
    1C        C  253   4.499   3.299   3.754
    1C        C  254   4.518   3.511   3.874
    1C        C  255   4.511   3.370   3.876
    1C        C  256   4.516   3.583   3.996
    1C        C  257   4.511   3.514   4.119
    1C        C  258   4.483   3.726   4.239
    1C        C  259   4.513   3.588   4.239
    1C        C  260   4.463   3.798   4.358
    1C        C  261   4.488   3.733   4.481
    1C        C  262   4.423   3.938   4.603
    1C        C  263   4.472   3.806   4.601
    1C        C  264   4.398   4.007   4.723
    1C        C  265   4.436   3.945   4.844
    1C        C  266   4.314   4.127   4.955
    1C        C  267   4.386   4.009   4.958
    1C        C  268   4.263   2.764   2.061
    1C        C  269   4.193   2.723   2.176
    1C        C  270   4.338   2.885   2.297
    1C        C  271   4.247   2.776   2.296
    1C        C  272   4.377   2.947   2.418
    1C        C  273   4.338   2.885   2.538
    1C        C  274   4.438   3.078   2.656
    1C        C  275   4.374   2.952   2.657
    1C        C  276   4.462   3.149   2.776
    1C        C  277   4.436   3.084   2.899
    1C        C  278   4.492   3.289   3.023
    1C        C  279   4.459   3.151   3.021
    1C        C  280   4.507   3.360   3.144
    1C        C  281   4.491   3.294   3.268
    1C        C  282   4.515   3.505   3.387
    1C        C  283   4.506   3.364   3.389
    1C        C  284   4.510   3.579   3.507
    1C        C  285   4.509   3.511   3.631
    1C        C  286   4.488   3.722   3.751
    1C        C  287   4.510   3.583   3.752
    1C        C  288   4.473   3.792   3.873
    1C        C  289   4.492   3.723   3.995
    1C        C  290   4.423   3.926   4.114
    1C        C  291   4.470   3.793   4.115
    1C        C  292   4.395   3.995   4.234
    1C        C  293   4.425   3.934   4.358
    1C        C  294   4.327   4.125   4.476
    1C        C  295   4.395   4.001   4.479
    1C        C  296   4.279   4.182   4.596
    1C        C  297   4.323   4.128   4.719
    1C        C  298   4.194   4.309   4.835
    1C        C  299   4.279   4.194   4.837
    1C        C  300   4.161   4.395   4.945
    1C        C  301   4.340   2.880   2.061
    1C        C  302   4.467   3.061   2.174
    1C        C  303   4.391   2.940   2.177
    1C        C  304   4.472   3.138   2.293
    1C        C  305   4.442   3.073   2.415
    1C        C  306   4.505   3.280   2.534
    1C        C  307   4.469   3.143   2.534
    1C        C  308   4.513   3.353   2.655
    1C        C  309   4.498   3.285   2.778
    1C        C  310   4.521   3.496   2.898
    1C        C  311   4.512   3.355   2.900
    1C        C  312   4.516   3.570   3.018
    1C        C  313   4.511   3.502   3.142
    1C        C  314   4.484   3.713   3.258
    1C        C  315   4.509   3.574   3.263
    1C        C  316   4.474   3.785   3.380
    1C        C  317   4.489   3.719   3.504
    1C        C  318   4.421   3.919   3.623
    1C        C  319   4.471   3.787   3.627
    1C        C  320   4.385   3.980   3.745
    1C        C  321   4.416   3.921   3.870
    1C        C  322   4.314   4.107   3.987
    1C        C  323   4.391   3.989   3.991
    1C        C  324   4.272   4.163   4.109
    1C        C  325   4.322   4.116   4.233
    1C        C  326   4.182   4.279   4.352
    1C        C  327   4.279   4.176   4.353
    1C        C  328   4.130   4.335   4.470
    1C        C  329   4.183   4.285   4.591
    1C        C  330   4.025   4.433   4.711
    1C        C  331   4.137   4.345   4.710
    1C        C  332   3.969   4.491   4.827
    1C        C  333   4.044   4.472   4.944
    1C        C  334   4.554   3.265   2.063
    1C        C  335   4.526   3.127   2.061
    1C        C  336   4.534   3.346   2.176
    1C        C  337   4.508   3.276   2.296
    1C        C  338   4.525   3.493   2.406
    1C        C  339   4.520   3.352   2.414
    1C        C  340   4.519   3.563   2.529
    1C        C  341   4.520   3.494   2.652
    1C        C  342   4.490   3.703   2.770
    1C        C  343   4.517   3.564   2.775
    1C        C  344   4.472   3.776   2.889
    1C        C  345   4.498   3.710   3.011
    1C        C  346   4.418   3.908   3.134
    1C        C  347   4.471   3.777   3.133
    1C        C  348   4.391   3.978   3.254
    1C        C  349   4.425   3.917   3.377
    1C        C  350   4.317   4.099   3.498
    1C        C  351   4.396   3.982   3.499
    1C        C  352   4.267   4.154   3.618
    1C        C  353   4.304   4.096   3.741
    1C        C  354   4.167   4.257   3.863
    1C        C  355   4.266   4.156   3.863
    1C        C  356   4.118   4.309   3.985
    1C        C  357   4.174   4.265   4.108
    1C        C  358   4.009   4.399   4.228
    1C        C  359   4.126   4.319   4.229
    1C        C  360   3.948   4.441   4.348
    1C        C  361   4.016   4.418   4.470
    1C        C  362   3.825   4.511   4.592
    1C        C  363   3.958   4.462   4.590
    1C        C  364   3.760   4.542   4.713
    1C        C  365   3.837   4.542   4.831
    1C        C  366   3.625   4.586   4.952
    1C        C  367   3.763   4.573   4.946
    1C        C  368   4.512   3.558   2.048
    1C        C  369   4.524   3.486   2.167
    1C        C  370   4.498   3.704   2.286
    1C        C  371   4.522   3.565   2.284
    1C        C  372   4.485   3.776   2.407
    1C        C  373   4.501   3.703   2.527
    1C        C  374   4.424   3.903   2.643
    1C        C  375   4.474   3.771   2.647
    1C        C  376   4.394   3.969   2.765
    1C        C  377   4.424   3.909   2.890
    1C        C  378   4.314   4.091   3.010
    1C        C  379   4.392   3.973   3.011
    1C        C  380   4.270   4.149   3.131
    1C        C  381   4.317   4.098   3.255
    1C        C  382   4.173   4.255   3.374
    1C        C  383   4.272   4.155   3.376
    1C        C  384   4.115   4.300   3.495
    1C        C  385   4.173   4.260   3.617
    1C        C  386   4.000   4.383   3.736
    1C        C  387   4.116   4.303   3.739
    1C        C  388   3.943   4.424   3.858
    1C        C  389   4.001   4.387   3.982
    1C        C  390   3.814   4.481   4.106
    1C        C  391   3.942   4.421   4.105
    1C        C  392   3.746   4.511   4.227
    1C        C  393   3.818   4.496   4.348
    1C        C  394   3.613   4.543   4.473
    1C        C  395   3.753   4.523   4.471
    1C        C  396   3.544   4.558   4.595
    1C        C  397   3.621   4.564   4.714
    1C        C  398   3.410   4.545   4.835
    1C        C  399   3.549   4.570   4.835
    1C        C  400   3.340   4.507   4.950
    1C        C  401   4.502   3.697   2.049
    1C        C  402   4.453   3.912   2.162
    1C        C  403   4.488   3.775   2.165
    1C        C  404   4.414   3.977   2.281
    1C        C  405   4.441   3.911   2.403
    1C        C  406   4.323   4.091   2.522
    1C        C  407   4.397   3.971   2.522
    1C        C  408   4.276   4.143   2.645
    1C        C  409   4.316   4.087   2.769
    1C        C  410   4.168   4.244   2.884
    1C        C  411   4.270   4.147   2.888
    1C        C  412   4.117   4.291   3.007
    1C        C  413   4.172   4.251   3.131
    1C        C  414   3.997   4.373   3.249
    1C        C  415   4.117   4.300   3.252
    1C        C  416   3.937   4.409   3.372
    1C        C  417   3.998   4.378   3.496
    1C        C  418   3.806   4.476   3.615
    1C        C  419   3.934   4.417   3.616
    1C        C  420   3.746   4.502   3.741
    1C        C  421   3.813   4.480   3.863
    1C        C  422   3.608   4.537   3.983
    1C        C  423   3.746   4.504   3.985
    1C        C  424   3.539   4.547   4.106
    1C        C  425   3.609   4.543   4.229
    1C        C  426   3.400   4.542   4.355
    1C        C  427   3.541   4.551   4.352
    1C        C  428   3.329   4.541   4.477
    1C        C  429   3.403   4.555   4.596
    1C        C  430   3.194   4.511   4.720
    1C        C  431   3.332   4.544   4.718
    1C        C  432   3.125   4.485   4.842
    1C        C  433   3.202   4.497   4.959
    1C        C  434   4.381   4.118   2.050
    1C        C  435   4.443   3.993   2.049
    1C        C  436   4.297   4.158   2.159
    1C        C  437   4.328   4.091   2.280
    1C        C  438   4.175   4.242   2.398
    1C        C  439   4.277   4.145   2.400
    1C        C  440   4.120   4.288   2.520
    1C        C  441   4.172   4.238   2.641
    1C        C  442   3.997   4.365   2.762
    1C        C  443   4.115   4.288   2.761
    1C        C  444   3.938   4.406   2.884
    1C        C  445   3.999   4.369   3.006
    1C        C  446   3.807   4.466   3.125
    1C        C  447   3.936   4.409   3.126
    1C        C  448   3.744   4.490   3.250
    1C        C  449   3.810   4.471   3.373
    1C        C  450   3.601   4.524   3.492
    1C        C  451   3.739   4.497   3.493
    1C        C  452   3.535   4.538   3.617
    1C        C  453   3.607   4.531   3.738
    1C        C  454   3.397   4.542   3.863
    1C        C  455   3.538   4.544   3.861
    1C        C  456   3.327   4.528   3.984
    1C        C  457   3.399   4.533   4.106
    1C        C  458   3.194   4.498   4.231
    1C        C  459   3.334   4.522   4.231
    1C        C  460   3.128   4.479   4.354
    1C        C  461   3.192   4.508   4.477
    1C        C  462   2.996   4.430   4.599
    1C        C  463   3.123   4.492   4.599
    1C        C  464   2.932   4.393   4.719
    1C        C  465   2.989   4.440   4.840
    1C        C  466   2.800   4.332   4.957
    1C        C  467   2.904   4.425   4.955
    1C        C  468   4.120   4.286   2.037
    1C        C  469   4.183   4.245   2.155
    1C        C  470   4.003   4.366   2.276
    1C        C  471   4.123   4.291   2.276
    1C        C  472   3.938   4.399   2.397
    1C        C  473   4.003   4.367   2.518
    1C        C  474   3.808   4.457   2.640
    1C        C  475   3.938   4.401   2.639
    1C        C  476   3.742   4.485   2.762
    1C        C  477   3.811   4.468   2.883
    1C        C  478   3.601   4.517   3.005
    1C        C  479   3.740   4.492   3.003
    1C        C  480   3.531   4.527   3.127
    1C        C  481   3.605   4.513   3.247
    1C        C  482   3.392   4.534   3.375
    1C        C  483   3.533   4.529   3.368
    1C        C  484   3.320   4.535   3.496
    1C        C  485   3.394   4.541   3.617
    1C        C  486   3.189   4.498   3.744
    1C        C  487   3.326   4.532   3.741
    1C        C  488   3.122   4.474   3.865
    1C        C  489   3.189   4.498   3.988
    1C        C  490   3.001   4.405   4.114
    1C        C  491   3.123   4.475   4.111
    1C        C  492   2.938   4.375   4.237
    1C        C  493   3.002   4.414   4.357
    1C        C  494   2.830   4.292   4.481
    1C        C  495   2.939   4.382   4.479
    1C        C  496   2.776   4.244   4.602
    1C        C  497   2.821   4.303   4.722
    1C        C  498   2.663   4.160   4.841
    1C        C  499   2.758   4.264   4.842
    1C        C  500   2.595   4.109   4.953
    1C        C  501   3.996   4.349   2.037
    1C        C  502   3.809   4.455   2.149
    1C        C  503   3.938   4.398   2.155
    1C        C  504   3.741   4.474   2.272
    1C        C  505   3.805   4.446   2.395
    1C        C  506   3.602   4.502   2.514
    1C        C  507   3.741   4.476   2.517
    1C        C  508   3.532   4.509   2.637
    1C        C  509   3.603   4.512   2.759
    1C        C  510   3.392   4.521   2.883
    1C        C  511   3.533   4.518   2.882
    1C        C  512   3.320   4.520   3.004
    1C        C  513   3.390   4.526   3.127
    1C        C  514   3.186   4.490   3.253
    1C        C  515   3.323   4.525   3.252
    1C        C  516   3.122   4.464   3.376
    1C        C  517   3.185   4.494   3.499
    1C        C  518   2.998   4.401   3.623
    1C        C  519   3.121   4.470   3.623
    1C        C  520   2.941   4.361   3.746
    1C        C  521   3.002   4.399   3.867
    1C        C  522   2.834   4.277   3.993
    1C        C  523   2.944   4.365   3.991
    1C        C  524   2.781   4.231   4.116
    1C        C  525   2.830   4.284   4.237
    1C        C  526   2.697   4.123   4.359
    1C        C  527   2.780   4.238   4.360
    1C        C  528   2.653   4.069   4.481
    1C        C  529   2.687   4.134   4.602
    1C        C  530   2.576   3.957   4.726
    1C        C  531   2.635   4.086   4.724
    1C        C  532   2.539   3.897   4.849
    1C        C  533   2.522   3.990   4.957
    1C        C  534   3.613   4.548   2.035
    1C        C  535   3.746   4.507   2.035
    1C        C  536   3.532   4.527   2.151
    1C        C  537   3.602   4.502   2.273
    1C        C  538   3.389   4.516   2.395
    1C        C  539   3.530   4.516   2.394
    1C        C  540   3.319   4.509   2.518
    1C        C  541   3.391   4.510   2.639
    1C        C  542   3.182   4.483   2.761
    1C        C  543   3.320   4.514   2.761
    1C        C  544   3.117   4.464   2.885
    1C        C  545   3.182   4.489   3.008
    1C        C  546   2.995   4.396   3.132
    1C        C  547   3.119   4.464   3.131
    1C        C  548   2.942   4.352   3.256
    1C        C  549   2.996   4.399   3.378
    1C        C  550   2.833   4.267   3.500
    1C        C  551   2.939   4.360   3.501
    1C        C  552   2.781   4.219   3.623
    1C        C  553   2.831   4.271   3.744
    1C        C  554   2.700   4.113   3.873
    1C        C  555   2.789   4.223   3.870
    1C        C  556   2.656   4.055   3.994
    1C        C  557   2.690   4.123   4.113
    1C        C  558   2.595   3.937   4.242
    1C        C  559   2.657   4.063   4.237
    1C        C  560   2.562   3.874   4.364
    1C        C  561   2.589   3.943   4.485
    1C        C  562   2.522   3.745   4.612
    1C        C  563   2.556   3.882   4.608
    1C        C  564   2.513   3.676   4.735
    1C        C  565   2.518   3.755   4.853
    1C        C  566   2.524   3.543   4.974
    1C        C  567   2.524   3.682   4.972
    1C        C  568   3.324   4.469   2.037
    1C        C  569   3.391   4.505   2.155
    1C        C  570   3.179   4.463   2.277
    1C        C  571   3.316   4.503   2.275
    1C        C  572   3.113   4.449   2.401
    1C        C  573   3.181   4.479   2.521
    1C        C  574   2.982   4.402   2.645
    1C        C  575   3.110   4.462   2.641
    1C        C  576   2.925   4.362   2.768
    1C        C  577   2.994   4.394   2.887
    1C        C  578   2.827   4.267   3.014
    1C        C  579   2.935   4.358   3.010
    1C        C  580   2.779   4.214   3.135
    1C        C  581   2.835   4.260   3.257
    1C        C  582   2.693   4.105   3.382
    1C        C  583   2.782   4.215   3.379
    1C        C  584   2.652   4.050   3.505
    1C        C  585   2.690   4.111   3.626
    1C        C  586   2.593   3.929   3.750
    1C        C  587   2.658   4.054   3.752
    1C        C  588   2.568   3.865   3.874
    1C        C  589   2.594   3.928   3.998
    1C        C  590   2.528   3.731   4.122
    1C        C  591   2.571   3.865   4.122
    1C        C  592   2.514   3.666   4.247
    1C        C  593   2.526   3.737   4.368
    1C        C  594   2.499   3.531   4.492
    1C        C  595   2.510   3.672   4.492
    1C        C  596   2.501   3.461   4.615
    1C        C  597   2.507   3.534   4.736
    1C        C  598   2.525   3.323   4.858
    1C        C  599   2.517   3.464   4.859
    1C        C  600   2.530   3.247   4.976
    1C        C  601   3.190   4.435   2.038
    1C        C  602   2.976   4.393   2.156
    1C        C  603   3.113   4.434   2.155
    1C        C  604   2.918   4.357   2.281
    1C        C  605   2.986   4.388   2.401
    1C        C  606   2.818   4.263   2.524
    1C        C  607   2.924   4.356   2.524
    1C        C  608   2.773   4.215   2.649
    1C        C  609   2.820   4.268   2.772
    1C        C  610   2.684   4.105   2.893
    1C        C  611   2.771   4.217   2.894
    1C        C  612   2.646   4.048   3.017
    1C        C  613   2.688   4.106   3.139
    1C        C  614   2.591   3.917   3.262
    1C        C  615   2.654   4.044   3.261
    1C        C  616   2.564   3.856   3.387
    1C        C  617   2.591   3.922   3.509
    1C        C  618   2.522   3.723   3.634
    1C        C  619   2.564   3.858   3.632
    1C        C  620   2.511   3.655   3.758
    1C        C  621   2.525   3.730   3.876
    1C        C  622   2.508   3.521   4.006
    1C        C  623   2.518   3.662   4.000
    1C        C  624   2.511   3.451   4.128
    1C        C  625   2.500   3.525   4.248
    1C        C  626   2.527   3.318   4.374
    1C        C  627   2.502   3.457   4.372
    1C        C  628   2.543   3.249   4.497
    1C        C  629   2.526   3.322   4.616
    1C        C  630   2.589   3.118   4.741
    1C        C  631   2.538   3.251   4.738
    1C        C  632   2.616   3.051   4.864
    1C        C  633   2.555   3.109   4.979
    1C        C  634   2.775   4.298   2.050
    1C        C  635   2.885   4.385   2.046
    1C        C  636   2.749   4.222   2.164
    1C        C  637   2.805   4.271   2.284
    1C        C  638   2.672   4.103   2.408
    1C        C  639   2.760   4.214   2.405
    1C        C  640   2.638   4.043   2.531
    1C        C  641   2.689   4.102   2.649
    1C        C  642   2.584   3.918   2.775
    1C        C  643   2.647   4.044   2.771
    1C        C  644   2.559   3.853   2.897
    1C        C  645   2.587   3.920   3.018
    1C        C  646   2.518   3.718   3.145
    1C        C  647   2.564   3.852   3.140
    1C        C  648   2.505   3.649   3.268
    1C        C  649   2.526   3.720   3.388
    1C        C  650   2.495   3.514   3.517
    1C        C  651   2.506   3.655   3.512
    1C        C  652   2.499   3.442   3.638
    1C        C  653   2.500   3.514   3.760
    1C        C  654   2.528   3.309   3.884
    1C        C  655   2.505   3.448   3.885
    1C        C  656   2.548   3.242   4.007
    1C        C  657   2.530   3.311   4.129
    1C        C  658   2.601   3.117   4.253
    1C        C  659   2.544   3.246   4.254
    1C        C  660   2.634   3.056   4.377
    1C        C  661   2.599   3.119   4.498
    1C        C  662   2.707   2.938   4.620
    1C        C  663   2.625   3.053   4.620
    1C        C  664   2.748   2.876   4.740
    1C        C  665   2.693   2.931   4.860
    1C        C  666   2.739   2.869   4.977
    1C        C  667   2.674   4.020   2.052
    1C        C  668   2.678   4.100   2.167
    1C        C  669   2.583   3.907   2.287
    1C        C  670   2.639   4.038   2.288
    1C        C  671   2.556   3.844   2.411
    1C        C  672   2.581   3.914   2.531
    1C        C  673   2.519   3.713   2.655
    1C        C  674   2.557   3.849   2.654
    1C        C  675   2.504   3.646   2.779
    1C        C  676   2.524   3.716   2.900
    1C        C  677   2.500   3.508   3.029
    1C        C  678   2.506   3.649   3.023
    1C        C  679   2.502   3.436   3.151
    1C        C  680   2.499   3.508   3.273
    1C        C  681   2.517   3.300   3.398
    1C        C  682   2.498   3.440   3.396
    1C        C  683   2.537   3.232   3.521
    1C        C  684   2.517   3.302   3.642
    1C        C  685   2.586   3.101   3.768
    1C        C  686   2.534   3.233   3.765
    1C        C  687   2.615   3.035   3.889
    1C        C  688   2.590   3.108   4.008
    1C        C  689   2.711   2.936   4.135
    1C        C  690   2.628   3.050   4.131
    1C        C  691   2.756   2.881   4.257
    1C        C  692   2.712   2.939   4.379
    1C        C  693   2.750   2.877   4.500
    1C        C  694   2.624   3.889   2.053
    1C        C  695   2.518   3.701   2.171
    1C        C  696   2.569   3.833   2.168
    1C        C  697   2.497   3.634   2.293
    1C        C  698   2.515   3.709   2.411
    1C        C  699   2.486   3.501   2.540
    1C        C  700   2.501   3.642   2.535
    1C        C  701   2.498   3.434   2.663
    1C        C  702   2.494   3.505   2.785
    1C        C  703   2.517   3.295   2.908
    1C        C  704   2.500   3.435   2.908
    1C        C  705   2.537   3.227   3.031
    1C        C  706   2.526   3.297   3.153
    1C        C  707   2.594   3.100   3.278
    1C        C  708   2.542   3.232   3.277
    1C        C  709   2.629   3.041   3.401
    1C        C  710   2.598   3.105   3.523
    1C        C  711   2.704   2.924   3.646
    1C        C  712   2.627   3.043   3.646
    1C        C  713   2.750   2.871   3.768
    1C        C  714   2.706   2.927   3.891
    1C        C  715   2.758   2.881   4.014
    1C        C  716   2.444   3.493   2.060
    1C        C  717   2.483   3.627   2.057
    1C        C  718   2.454   3.417   2.181
    1C        C  719   2.467   3.495   2.300
    1C        C  720   2.500   3.285   2.423
    1C        C  721   2.476   3.424   2.422
    1C        C  722   2.529   3.220   2.545
    1C        C  723   2.519   3.294   2.665
    1C        C  724   2.588   3.094   2.787
    1C        C  725   2.532   3.224   2.787
    1C        C  726   2.619   3.033   2.911
    1C        C  727   2.588   3.095   3.033
    1C        C  728   2.699   2.916   3.155
    1C        C  729   2.620   3.033   3.156
    1C        C  730   2.751   2.869   3.278
    1C        C  731   2.710   2.925   3.401
    1C        C  732   2.752   2.870   3.524
    1C        C  733   2.486   3.194   2.070
    1C        C  734   2.483   3.277   2.183
    1C        C  735   2.571   3.080   2.302
    1C        C  736   2.514   3.210   2.304
    1C        C  737   2.603   3.018   2.424
    1C        C  738   2.576   3.087   2.544
    1C        C  739   2.691   2.908   2.668
    1C        C  740   2.613   3.026   2.666
    1C        C  741   2.736   2.852   2.789
    1C        C  742   2.697   2.915   2.909
    1C        C  743   2.743   2.862   3.032
    1C        C  744   2.536   3.065   2.070
    1C        C  745   2.683   2.896   2.184
    1C        C  746   2.599   3.010   2.183
    1C        C  747   2.724   2.836   2.305
    1C        C  748   2.678   2.898   2.423
    1C        C  749   2.730   2.850   2.546
    1C        C  750   2.726   2.830   2.068
    1C        C  751   3.666   2.334   1.961
    1C        O  752   3.642   2.211   1.956
    1C        O  753   3.680   2.386   1.831
    1C        C  754   4.613   3.047   1.972
    1C        O  755   4.581   2.997   1.861
    1C        O  756   4.752   3.046   1.984
    1C        C  757   4.456   4.226   1.982
    1C        O  758   4.569   4.262   2.027
    1C        O  759   4.449   4.236   1.843
    1C        C  760   3.587   4.672   1.958
    1C        O  761   3.643   4.784   1.975
    1C        O  762   3.523   4.668   1.833
    1C        C  763   2.858   4.504   1.962
    1C        O  764   2.878   4.482   1.839
    1C        O  765   2.857   4.636   2.008
    1C        C  766   2.347   3.444   1.959
    1C        O  767   2.383   3.420   1.841
    1C        O  768   2.213   3.481   1.976
    1C        C  769   4.680   3.576   5.056
    1C        O  770   4.637   3.554   5.172
    1C        O  771   4.793   3.658   5.070
    1C        C  772   4.260   4.441   5.045
    1C        O  773   4.245   4.422   5.168
    1C        O  774   4.371   4.523   5.019
    1C        C  775   4.129   2.543   5.093
    1C        O  776   4.177   2.426   5.094
    1C        O  777   4.082   2.560   5.224
    1C        C  778   2.907   4.516   5.072
    1C        O  779   2.875   4.638   5.070
    1C        O  780   2.929   4.466   5.201
    1C        C  781   2.462   3.036   5.068
    1C        O  782   2.387   2.942   5.030
    1C        O  783   2.507   3.040   5.200
    1C        C  784   2.392   4.002   5.026
    1C        O  785   2.290   3.956   4.968
    1C        O  786   2.384   4.018   5.165
    1C        C  787   2.931   2.429   2.003
    1C        O  788   2.934   2.448   1.879
    1C        O  789   2.901   2.295   2.025
    1C        C  790   3.172   2.379   5.069
    1C        O  791   3.215   2.262   5.048
    1C        O  792   3.182   2.412   5.204
    1C        H  793   4.293   3.011   5.064
    1C        H  794   4.166   2.802   5.066
    1C        H  795   4.453   3.149   5.068
    1C        H  796   4.513   3.362   5.066
    1C        H  797   4.512   3.794   5.054
    1C        H  798   4.377   3.952   5.049
    1C        H  799   4.276   4.161   5.049
    1C        H  800   4.026   4.540   5.024
    1C        H  801   3.813   4.597   5.038
    1C        H  802   3.586   4.655   5.025
    1C        H  803   3.396   4.482   5.038
    1C        H  804   3.158   4.458   5.049
    1C        H  805   3.877   2.509   5.069
    1C        H  806   3.667   2.488   5.075
    1C        H  807   2.996   2.549   5.067
    1C        H  808   3.439   2.441   5.074
    1C        H  809   2.840   2.709   5.066
    1C        H  810   2.710   2.918   5.068
    1C        H  811   2.465   3.282   5.053
    1C        H  812   2.476   3.503   5.061
    1C        H  813   2.496   3.734   5.062
    1C        H  814   2.615   4.142   5.053
    1C        H  815   2.746   4.321   5.049
    1C        H  816   2.682   2.857   1.974
    1C        H  817   2.851   2.689   1.973
    1C        H  818   3.191   2.398   1.999
    1C        H  819   3.427   2.463   1.977
    1C        H  820   3.861   2.503   1.965
    1C        H  821   4.063   2.601   1.963
    1C        H  822   4.244   2.722   1.965
    1C        H  823   4.371   2.923   1.968
    1C        H  824   4.614   3.296   1.980
    1C        H  825   4.488   3.502   1.960
    1C        H  826   4.515   3.746   1.954
    1C        H  827   3.800   4.517   1.943
    1C        H  828   3.951   4.352   1.940
    1C        H  829   4.187   4.340   1.973
    1C        H  830   4.502   3.970   1.962
    1C        H  831   2.576   3.857   1.963
    1C        H  832   2.732   4.041   1.965
    1C        H  833   2.699   4.307   1.976
    1C        H  834   3.360   4.516   1.948
    1C        H  835   3.142   4.435   1.943
    1C        H  836   2.550   3.017   1.976
    1C        H  837   2.436   3.227   1.981
    1C        H  838   2.475   3.679   1.963
    2V3OU   H29  839   2.801   3.551   3.395
    2V3OU   C27  840   2.787   3.501   3.494
    2V3OU   H27  841   2.733   3.565   3.568
    2V3OU   H28  842   2.735   3.403   3.477
    2V3OU   O11  843   2.912   3.471   3.556
    2V3OU   C15  844   2.921   3.397   3.672
    2V3OU   C13  845   3.048   3.370   3.727
    2V3OU   C14  846   3.073   3.274   3.826
    2V3OU   C16  847   2.976   3.185   3.871
    2V3OU    H6  848   2.990   3.094   3.931
    2V3OU   C12  849   3.211   3.229   3.855
    2V3OU    O2  850   3.233   3.127   3.924
    2V3OU   C10  851   3.321   3.302   3.790
    2V3OU    C8  852   3.454   3.264   3.807
    2V3OU   O10  853   3.485   3.147   3.868
    2V3OU   H26  854   3.402   3.117   3.909
    2V3OU    C6  855   3.562   3.341   3.754
    2V3OU    C5  856   3.536   3.460   3.687
    2V3OU    C4  857   3.702   3.291   3.757
    2V3OU    H4  858   3.718   3.229   3.850
    2V3OU    H5  859   3.714   3.222   3.668
    2V3OU    C2  860   3.816   3.393   3.747
    2V3OU    O6  861   3.807   3.476   3.863
    2V3OU   H21  862   3.763   3.557   3.834
    2V3OU    C3  863   3.779   3.491   3.636
    2V3OU    H2  864   3.859   3.569   3.634
    2V3OU    H3  865   3.774   3.441   3.536
    2V3OU   C25  866   3.949   3.320   3.730
    2V3OU    O7  867   3.994   3.290   3.619
    2V3OU   C26  868   4.026   3.285   3.856
    2V3OU   H22  869   4.055   3.379   3.909
    2V3OU   H23  870   4.116   3.223   3.831
    2V3OU    O8  871   3.957   3.210   3.954
    2V3OU   H24  872   3.921   3.264   4.026
    2V3OU    C1  873   3.644   3.558   3.655
    2V3OU    H1  874   3.619   3.613   3.559
    2V3OU    O3  875   3.653   3.648   3.765
    2V3OU   C19  876   3.612   3.784   3.748
    2V3OU    H9  877   3.514   3.799   3.694
    2V3OU    O4  878   3.710   3.840   3.663
    2V3OU   C20  879   3.835   3.873   3.723
    2V3OU   H10  880   3.884   3.772   3.742
    2V3OU   C24  881   3.605   3.853   3.884
    2V3OU   H16  882   3.544   3.790   3.954
    2V3OU   H17  883   3.558   3.954   3.871
    2V3OU   C23  884   3.743   3.869   3.948
    2V3OU   H15  885   3.780   3.763   3.970
    2V3OU    N1  886   3.732   3.954   4.065
    2V3OU   H19  887   3.805   3.925   4.128
    2V3OU   H20  888   3.645   3.929   4.108
    2V3OU   C21  889   3.848   3.942   3.859
    2V3OU   H11  890   3.951   3.918   3.899
    2V3OU    O5  891   3.824   4.082   3.864
    2V3OU   H18  892   3.787   4.098   3.952
    2V3OU   C22  893   3.911   3.941   3.610
    2V3OU   H12  894   3.860   4.038   3.583
    2V3OU   H13  895   3.907   3.880   3.517
    2V3OU   H14  896   4.017   3.961   3.641
    2V3OU   C11  897   3.152   3.473   3.714
    2V3OU    O1  898   3.127   3.590   3.681
    2V3OU    C9  899   3.291   3.423   3.722
    2V3OU    C7  900   3.398   3.497   3.674
    2V3OU    O9  901   3.379   3.617   3.608
    2V3OU   H25  902   3.292   3.619   3.566
    2V3OU   C17  903   2.825   3.314   3.733
    2V3OU    H7  904   2.725   3.358   3.733
    2V3OU   C18  905   2.848   3.211   3.824
    2V3OU    H8  906   2.778   3.177   3.901
    3SOL     OW  907   2.802   4.597   5.998
    3SOL    HW1  908   2.823   4.678   5.943
    3SOL    HW2  909   2.847   4.517   5.960
    4SOL     OW  910   6.557   6.746   6.571
    4SOL    HW1  911   6.557   6.820   6.504
    4SOL    HW2  912   6.517   6.778   6.657
    5SOL     OW  913   4.801   2.127   2.534
    5SOL    HW1  914   4.830   2.062   2.604
    5SOL    HW2  915   4.716   2.096   2.492
    6SOL     OW  916   4.750   1.818   2.299
    6SOL    HW1  917   4.792   1.852   2.214
    6SOL    HW2  918   4.686   1.886   2.334
    7SOL     OW  919   0.624   4.058   4.270
    7SOL    HW1  920   0.662   4.113   4.195
    7SOL    HW2  921   0.699   4.020   4.325
    8SOL     OW  922   2.795   2.269   5.274
    8SOL    HW1  923   2.870   2.222   5.320
    8SOL    HW2  924   2.822   2.362   5.250
    9SOL     OW  925   5.865   2.498   5.969
    9SOL    HW1  926   5.821   2.570   5.915
    9SOL    HW2  927   5.934   2.540   6.029
   10SOL     OW  928   2.827   4.989   4.602
   10SOL    HW1  929   2.861   4.935   4.679
   10SOL    HW2  930   2.745   5.039   4.630
   11SOL     OW  931   2.041   1.483   6.221
   11SOL    HW1  932   2.027   1.393   6.261
   11SOL    HW2  933   2.115   1.530   6.269
   12SOL     OW  934   3.037   4.945   3.847
   12SOL    HW1  935   2.991   4.952   3.935
   12SOL    HW2  936   3.136   4.934   3.862
   13SOL     OW  937   4.169   6.249   3.271
   13SOL    HW1  938   4.177   6.193   3.354
   13SOL    HW2  939   4.218   6.335   3.285
   14SOL     OW  940   3.697   4.676   6.176
   14SOL    HW1  941   3.693   4.627   6.088
   14SOL    HW2  942   3.768   4.635   6.234
   15SOL     OW  943   0.800   6.890   0.177
   15SOL    HW1  944   0.853   6.859   0.099
   15SOL    HW2  945   0.821   6.833   0.257
   16SOL     OW  946   5.254   2.775   6.777
   16SOL    HW1  947   5.319   2.736   6.713
   16SOL    HW2  948   5.205   2.702   6.824
   17SOL     OW  949   4.883   6.999   6.401
   17SOL    HW1  950   4.830   0.029   6.472
   17SOL    HW2  951   4.967   6.963   6.441
   18SOL     OW  952   3.639   0.838   4.742
   18SOL    HW1  953   3.684   0.825   4.830
   18SOL    HW2  954   3.591   0.926   4.742
   19SOL     OW  955   0.457   2.440   2.235
   19SOL    HW1  956   0.461   2.537   2.209
   19SOL    HW2  957   0.543   2.396   2.213
   20SOL     OW  958   4.947   2.279   5.372
   20SOL    HW1  959   5.030   2.252   5.421
   20SOL    HW2  960   4.959   2.372   5.336
   21SOL     OW  961   2.703   0.863   3.022
   21SOL    HW1  962   2.723   0.938   2.959
   21SOL    HW2  963   2.781   0.847   3.082
   22SOL     OW  964   1.215   6.191   0.530
   22SOL    HW1  965   1.196   6.093   0.535
   22SOL    HW2  966   1.251   6.214   0.440
   23SOL     OW  967   3.922   5.303   2.413
   23SOL    HW1  968   3.981   5.271   2.487
   23SOL    HW2  969   3.930   5.241   2.334
   24SOL     OW  970   3.744   0.575   2.551
   24SOL    HW1  971   3.671   0.591   2.486
   24SOL    HW2  972   3.832   0.601   2.510
   25SOL     OW  973   2.019   0.268   3.598
   25SOL    HW1  974   2.031   0.184   3.545
   25SOL    HW2  975   1.924   0.298   3.591
   26SOL     OW  976   6.824   2.247   6.801
   26SOL    HW1  977   6.768   2.274   6.880
   26SOL    HW2  978   6.912   2.294   6.804
   27SOL     OW  979   1.771   1.257   2.096
   27SOL    HW1  980   1.799   1.256   2.192
   27SOL    HW2  981   1.686   1.310   2.088
   28SOL     OW  982   0.380   0.685   4.831
   28SOL    HW1  983   0.412   0.770   4.872
   28SOL    HW2  984   0.409   0.682   4.735
   29SOL     OW  985   6.692   1.005   1.253
   29SOL    HW1  986   6.775   0.998   1.199
   29SOL    HW2  987   6.669   0.915   1.291
   30SOL     OW  988   4.793   0.271   4.995
   30SOL    HW1  989   4.861   0.221   4.941
   30SOL    HW2  990   4.746   0.208   5.057
   31SOL     OW  991   0.826   2.158   5.723
   31SOL    HW1  992   0.906   2.170   5.665
   31SOL    HW2  993   0.755   2.109   5.673
   32SOL     OW  994   1.309   1.800   2.387
   32SOL    HW1  995   1.348   1.803   2.295
   32SOL    HW2  996   1.224   1.747   2.386
   33SOL     OW  997   0.861   4.701   5.163
   33SOL    HW1  998   0.922   4.689   5.242
   33SOL    HW2  999   0.898   4.772   5.104
   34SOL     OW 1000   2.698   5.565   5.041
   34SOL    HW1 1001   2.762   5.634   5.074
   34SOL    HW2 1002   2.739   5.513   4.967
   35SOL     OW 1003   4.066   2.420   5.531
   35SOL    HW1 1004   4.138   2.467   5.582
   35SOL    HW2 1005   3.981   2.473   5.536
   36SOL     OW 1006   4.949   1.424   3.619
   36SOL    HW1 1007   4.973   1.517   3.589
   36SOL    HW2 1008   4.956   1.361   3.541
   37SOL     OW 1009   1.644   1.951   4.835
   37SOL    HW1 1010   1.618   2.044   4.861
   37SOL    HW2 1011   1.580   1.886   4.875
   38SOL     OW 1012   1.447   4.384   1.784
   38SOL    HW1 1013   1.394   4.449   1.728
   38SOL    HW2 1014   1.411   4.292   1.771
   39SOL     OW 1015   5.939   4.999   6.091
   39SOL    HW1 1016   5.997   5.074   6.123
   39SOL    HW2 1017   5.844   5.017   6.119
   40SOL     OW 1018   3.410   2.042   0.365
   40SOL    HW1 1019   3.454   2.103   0.299
   40SOL    HW2 1020   3.405   2.086   0.454
   41SOL     OW 1021   5.854   3.540   2.956
   41SOL    HW1 1022   5.818   3.553   3.049
   41SOL    HW2 1023   5.820   3.452   2.920
   42SOL     OW 1024   3.355   6.181   4.806
   42SOL    HW1 1025   3.440   6.229   4.830
   42SOL    HW2 1026   3.288   6.247   4.772
   43SOL     OW 1027   4.376   0.662   5.730
   43SOL    HW1 1028   4.451   0.625   5.674
   43SOL    HW2 1029   4.394   0.642   5.826
   44SOL     OW 1030   5.825   2.091   5.064
   44SOL    HW1 1031   5.847   2.185   5.092
   44SOL    HW2 1032   5.801   2.037   5.144
   45SOL     OW 1033   4.460   5.325   1.597
   45SOL    HW1 1034   4.454   5.228   1.620
   45SOL    HW2 1035   4.539   5.365   1.644
   46SOL     OW 1036   1.198   2.241   3.743
   46SOL    HW1 1037   1.240   2.155   3.715
   46SOL    HW2 1038   1.163   2.288   3.662
   47SOL     OW 1039   4.002   4.332   1.424
   47SOL    HW1 1040   3.963   4.299   1.338
   47SOL    HW2 1041   4.045   4.421   1.409
   48SOL     OW 1042   6.653   2.538   6.764
   48SOL    HW1 1043   6.671   2.458   6.821
   48SOL    HW2 1044   6.737   2.592   6.757
   49SOL     OW 1045   5.784   2.508   1.682
   49SOL    HW1 1046   5.867   2.555   1.712
   49SOL    HW2 1047   5.722   2.497   1.760
   50SOL     OW 1048   6.431   1.218   5.457
   50SOL    HW1 1049   6.454   1.179   5.368
   50SOL    HW2 1050   6.415   1.316   5.448
   51SOL     OW 1051   2.089   6.499   2.807
   51SOL    HW1 1052   2.158   6.457   2.748
   51SOL    HW2 1053   2.113   6.485   2.903
   52SOL     OW 1054   5.341   3.427   1.751
   52SOL    HW1 1055   5.275   3.362   1.790
   52SOL    HW2 1056   5.379   3.389   1.667
   53SOL     OW 1057   5.285   0.462   3.452
   53SOL    HW1 1058   5.211   0.395   3.442
   53SOL    HW2 1059   5.373   0.415   3.446
   54SOL     OW 1060   5.383   6.831   0.931
   54SOL    HW1 1061   5.395   6.873   1.020
   54SOL    HW2 1062   5.460   6.853   0.872
   55SOL     OW 1063   2.278   2.436   4.944
   55SOL    HW1 1064   2.186   2.423   4.908
   55SOL    HW2 1065   2.322   2.513   4.896
   56SOL     OW 1066   1.170   1.401   1.334
   56SOL    HW1 1067   1.251   1.343   1.346
   56SOL    HW2 1068   1.088   1.343   1.334
   57SOL     OW 1069   3.786   1.423   0.763
   57SOL    HW1 1070   3.717   1.364   0.806
   57SOL    HW2 1071   3.849   1.366   0.710
   58SOL     OW 1072   0.625   6.467   5.690
   58SOL    HW1 1073   0.685   6.546   5.677
   58SOL    HW2 1074   0.672   6.384   5.662
   59SOL     OW 1075   0.133   3.668   5.980
   59SOL    HW1 1076   0.208   3.720   6.022
   59SOL    HW2 1077   0.060   3.655   6.046
   60SOL     OW 1078   4.693   2.683   4.042
   60SOL    HW1 1079   4.707   2.745   3.965
   60SOL    HW2 1080   4.622   2.616   4.019
   61SOL     OW 1081   6.590   1.173   4.343
   61SOL    HW1 1082   6.573   1.088   4.392
   61SOL    HW2 1083   6.567   1.161   4.246
   62SOL     OW 1084   2.101   1.259   2.033
   62SOL    HW1 1085   2.153   1.285   1.952
   62SOL    HW2 1086   2.005   1.243   2.008
   63SOL     OW 1087   4.222   0.351   3.651
   63SOL    HW1 1088   4.200   0.431   3.705
   63SOL    HW2 1089   4.203   0.268   3.704
   64SOL     OW 1090   0.349   2.977   6.682
   64SOL    HW1 1091   0.350   2.964   6.583
   64SOL    HW2 1092   0.433   3.020   6.712
   65SOL     OW 1093   1.164   5.999   5.992
   65SOL    HW1 1094   1.083   6.056   5.980
   65SOL    HW2 1095   1.138   5.912   6.033
   66SOL     OW 1096   3.233   0.639   3.447
   66SOL    HW1 1097   3.256   0.732   3.478
   66SOL    HW2 1098   3.239   0.635   3.347
   67SOL     OW 1099   0.622   3.300   6.316
   67SOL    HW1 1100   0.630   3.255   6.227
   67SOL    HW2 1101   0.685   3.258   6.381
   68SOL     OW 1102   0.004   1.741   6.390
   68SOL    HW1 1103   6.962   1.814   6.425
   68SOL    HW2 1104   7.002   1.657   6.441
   69SOL     OW 1105   1.605   3.158   4.942
   69SOL    HW1 1106   1.553   3.103   5.006
   69SOL    HW2 1107   1.655   3.230   4.991
   70SOL     OW 1108   5.387   5.136   4.872
   70SOL    HW1 1109   5.411   5.182   4.787
   70SOL    HW2 1110   5.289   5.146   4.889
   71SOL     OW 1111   4.939   1.656   3.271
   71SOL    HW1 1112   4.958   1.576   3.213
   71SOL    HW2 1113   4.840   1.668   3.279
   72SOL     OW 1114   0.575   1.409   3.050
   72SOL    HW1 1115   0.477   1.395   3.064
   72SOL    HW2 1116   0.590   1.496   3.003
   73SOL     OW 1117   2.974   0.534   1.146
   73SOL    HW1 1118   2.959   0.633   1.148
   73SOL    HW2 1119   3.069   0.516   1.122
   74SOL     OW 1120   3.134   1.121   6.413
   74SOL    HW1 1121   3.171   1.194   6.356
   74SOL    HW2 1122   3.177   1.123   6.503
   75SOL     OW 1123   3.985   1.323   1.734
   75SOL    HW1 1124   3.981   1.421   1.715
   75SOL    HW2 1125   3.908   1.297   1.792
   76SOL     OW 1126   2.706   3.522   6.234
   76SOL    HW1 1127   2.666   3.608   6.266
   76SOL    HW2 1128   2.773   3.542   6.162
   77SOL     OW 1129   1.764   5.900   3.124
   77SOL    HW1 1130   1.702   5.868   3.197
   77SOL    HW2 1131   1.795   5.821   3.071
   78SOL     OW 1132   4.295   1.526   1.244
   78SOL    HW1 1133   4.369   1.458   1.251
   78SOL    HW2 1134   4.329   1.615   1.274
   79SOL     OW 1135   2.850   6.083   1.234
   79SOL    HW1 1136   2.843   6.175   1.196
   79SOL    HW2 1137   2.768   6.063   1.288
   80SOL     OW 1138   4.540   1.381   4.410
   80SOL    HW1 1139   4.507   1.446   4.342
   80SOL    HW2 1140   4.546   1.290   4.370
   81SOL     OW 1141   1.690   6.602   1.625
   81SOL    HW1 1142   1.727   6.694   1.641
   81SOL    HW2 1143   1.642   6.571   1.707
   82SOL     OW 1144   6.721   5.782   1.046
   82SOL    HW1 1145   6.687   5.704   0.993
   82SOL    HW2 1146   6.815   5.764   1.075
   83SOL     OW 1147   1.113   1.220   6.623
   83SOL    HW1 1148   1.085   1.256   6.712
   83SOL    HW2 1149   1.152   1.129   6.634
   84SOL     OW 1150   5.998   4.140   3.407
   84SOL    HW1 1151   6.044   4.180   3.327
   84SOL    HW2 1152   6.022   4.044   3.414
   85SOL     OW 1153   1.224   0.931   3.434
   85SOL    HW1 1154   1.170   0.913   3.352
   85SOL    HW2 1155   1.219   1.028   3.457
   86SOL     OW 1156   0.066   1.282   6.719
   86SOL    HW1 1157   0.004   1.227   6.773
   86SOL    HW2 1158   0.161   1.260   6.742
   87SOL     OW 1159   3.937   4.223   1.165
   87SOL    HW1 1160   3.943   4.124   1.169
   87SOL    HW2 1161   4.019   4.259   1.120
   88SOL     OW 1162   3.175   2.401   6.311
   88SOL    HW1 1163   3.084   2.411   6.352
   88SOL    HW2 1164   3.169   2.420   6.213
   89SOL     OW 1165   3.176   3.724   0.400
   89SOL    HW1 1166   3.121   3.737   0.482
   89SOL    HW2 1167   3.177   3.627   0.374
   90SOL     OW 1168   4.164   4.826   2.539
   90SOL    HW1 1169   4.241   4.764   2.525
   90SOL    HW2 1170   4.133   4.820   2.635
   91SOL     OW 1171   5.736   4.704   6.389
   91SOL    HW1 1172   5.713   4.625   6.332
   91SOL    HW2 1173   5.740   4.675   6.485
   92SOL     OW 1174   5.004   4.146   0.221
   92SOL    HW1 1175   5.043   4.188   0.139
   92SOL    HW2 1176   4.907   4.170   0.228
   93SOL     OW 1177   3.062   3.701   0.136
   93SOL    HW1 1178   3.077   3.607   0.103
   93SOL    HW2 1179   3.117   3.717   0.217
   94SOL     OW 1180   1.724   6.122   7.016
   94SOL    HW1 1181   1.733   6.092   0.094
   94SOL    HW2 1182   1.676   6.210   7.013
   95SOL     OW 1183   1.667   0.424   3.133
   95SOL    HW1 1184   1.721   0.396   3.212
   95SOL    HW2 1185   1.723   0.483   3.074
   96SOL     OW 1186   4.667   5.795   6.144
   96SOL    HW1 1187   4.579   5.843   6.151
   96SOL    HW2 1188   4.727   5.846   6.083
   97SOL     OW 1189   2.204   3.759   5.160
   97SOL    HW1 1190   2.226   3.828   5.090
   97SOL    HW2 1191   2.271   3.765   5.234
   98SOL     OW 1192   1.110   1.162   1.105
   98SOL    HW1 1193   1.148   1.246   1.065
   98SOL    HW2 1194   1.074   1.183   1.196
   99SOL     OW 1195   3.759   3.531   2.658
   99SOL    HW1 1196   3.813   3.587   2.595
   99SOL    HW2 1197   3.667   3.569   2.667
  100SOL     OW 1198   6.855   6.845   4.220
  100SOL    HW1 1199   6.838   6.934   4.179
  100SOL    HW2 1200   6.882   6.779   4.149
  101SOL     OW 1201   0.285   5.766   2.341
  101SOL    HW1 1202   0.248   5.748   2.433
  101SOL    HW2 1203   0.211   5.794   2.281
  102SOL     OW 1204   3.774   6.045   1.837
  102SOL    HW1 1205   3.706   6.117   1.823
  102SOL    HW2 1206   3.828   6.066   1.918
  103SOL     OW 1207   1.674   2.227   2.727
  103SOL    HW1 1208   1.594   2.221   2.787
  103SOL    HW2 1209   1.678   2.318   2.685
  104SOL     OW 1210   1.721   4.874   1.657
  104SOL    HW1 1211   1.760   4.950   1.708
  104SOL    HW2 1212   1.682   4.908   1.571
  105SOL     OW 1213   5.690   1.476   5.775
  105SOL    HW1 1214   5.624   1.509   5.842
  105SOL    HW2 1215   5.671   1.518   5.686
  106SOL     OW 1216   4.205   6.110   2.886
  106SOL    HW1 1217   4.143   6.115   2.964
  106SOL    HW2 1218   4.160   6.060   2.811
  107SOL     OW 1219   0.203   0.904   6.781
  107SOL    HW1 1220   0.124   0.878   6.836
  107SOL    HW2 1221   0.175   0.917   6.686
  108SOL     OW 1222   3.555   0.171   5.955
  108SOL    HW1 1223   3.535   0.086   5.905
  108SOL    HW2 1224   3.524   0.163   6.049
  109SOL     OW 1225   2.809   0.837   2.451
  109SOL    HW1 1226   2.767   0.829   2.542
  109SOL    HW2 1227   2.874   0.763   2.438
  110SOL     OW 1228   2.496   4.872   4.504
  110SOL    HW1 1229   2.548   4.795   4.540
  110SOL    HW2 1230   2.446   4.843   4.422
  111SOL     OW 1231   1.746   1.442   3.358
  111SOL    HW1 1232   1.730   1.358   3.410
  111SOL    HW2 1233   1.814   1.425   3.287
  112SOL     OW 1234   5.208   6.324   0.351
  112SOL    HW1 1235   5.157   6.408   0.369
  112SOL    HW2 1236   5.276   6.341   0.279
  113SOL     OW 1237   0.743   5.812   2.639
  113SOL    HW1 1238   0.762   5.717   2.660
  113SOL    HW2 1239   0.667   5.818   2.575
  114SOL     OW 1240   1.474   6.030   1.779
  114SOL    HW1 1241   1.496   5.933   1.769
  114SOL    HW2 1242   1.422   6.045   1.863
  115SOL     OW 1243   5.540   0.775   3.065
  115SOL    HW1 1244   5.639   0.768   3.068
  115SOL    HW2 1245   5.501   0.733   3.147
  116SOL     OW 1246   0.155   5.628   1.387
  116SOL    HW1 1247   0.208   5.689   1.327
  116SOL    HW2 1248   0.184   5.642   1.481
  117SOL     OW 1249   1.775   1.058   0.631
  117SOL    HW1 1250   1.812   0.975   0.672
  117SOL    HW2 1251   1.683   1.039   0.596
  118SOL     OW 1252   1.958   2.423   2.749
  118SOL    HW1 1253   1.909   2.480   2.816
  118SOL    HW2 1254   1.967   2.330   2.784
  119SOL     OW 1255   0.128   0.346   6.688
  119SOL    HW1 1256   0.077   0.322   6.771
  119SOL    HW2 1257   0.211   0.290   6.683
  120SOL     OW 1258   5.258   0.183   4.033
  120SOL    HW1 1259   5.211   0.096   4.021
  120SOL    HW2 1260   5.192   0.257   4.035
  121SOL     OW 1261   1.461   3.946   0.354
  121SOL    HW1 1262   1.379   3.955   0.297
  121SOL    HW2 1263   1.461   3.857   0.399
  122SOL     OW 1264   1.640   3.502   0.190
  122SOL    HW1 1265   1.617   3.457   0.104
  122SOL    HW2 1266   1.666   3.597   0.173
  123SOL     OW 1267   0.944   0.984   2.432
  123SOL    HW1 1268   1.038   1.009   2.408
  123SOL    HW2 1269   0.883   1.004   2.355
  124SOL     OW 1270   2.999   2.175   0.546
  124SOL    HW1 1271   3.070   2.181   0.476
  124SOL    HW2 1272   2.983   2.265   0.586
  125SOL     OW 1273   3.369   2.600   0.838
  125SOL    HW1 1274   3.412   2.577   0.751
  125SOL    HW2 1275   3.423   2.560   0.913
  126SOL     OW 1276   3.774   2.902   2.816
  126SOL    HW1 1277   3.765   2.852   2.730
  126SOL    HW2 1278   3.849   2.968   2.808
  127SOL     OW 1279   6.648   6.421   6.272
  127SOL    HW1 1280   6.697   6.404   6.187
  127SOL    HW2 1281   6.593   6.505   6.262
  128SOL     OW 1282   5.116   3.430   1.498
  128SOL    HW1 1283   5.120   3.487   1.579
  128SOL    HW2 1284   5.094   3.486   1.418
  129SOL     OW 1285   3.010   4.444   0.934
  129SOL    HW1 1286   3.100   4.485   0.950
  129SOL    HW2 1287   3.018   4.374   0.862
  130SOL     OW 1288   6.366   0.509   4.918
  130SOL    HW1 1289   6.299   0.564   4.968
  130SOL    HW2 1290   6.457   0.526   4.956
  131SOL     OW 1291   5.730   0.790   3.850
  131SOL    HW1 1292   5.702   0.880   3.815
  131SOL    HW2 1293   5.773   0.802   3.940
  132SOL     OW 1294   3.299   2.837   1.363
  132SOL    HW1 1295   3.376   2.777   1.340
  132SOL    HW2 1296   3.231   2.834   1.290
  133SOL     OW 1297   5.219   1.235   4.204
  133SOL    HW1 1298   5.150   1.272   4.141
  133SOL    HW2 1299   5.175   1.209   4.290
  134SOL     OW 1300   0.519   0.013   2.515
  134SOL    HW1 1301   0.601   0.011   2.572
  134SOL    HW2 1302   0.444   6.982   2.562
  135SOL     OW 1303   5.273   3.569   3.987
  135SOL    HW1 1304   5.247   3.476   4.011
  135SOL    HW2 1305   5.272   3.627   4.069
  136SOL     OW 1306   2.165   6.092   4.791
  136SOL    HW1 1307   2.124   6.154   4.724
  136SOL    HW2 1308   2.173   6.139   4.879
  137SOL     OW 1309   4.483   1.112   4.333
  137SOL    HW1 1310   4.509   1.074   4.422
  137SOL    HW2 1311   4.528   1.061   4.260
  138SOL     OW 1312   0.856   4.556   3.353
  138SOL    HW1 1313   0.761   4.525   3.350
  138SOL    HW2 1314   0.917   4.477   3.365
  139SOL     OW 1315   2.308   5.750   5.954
  139SOL    HW1 1316   2.268   5.760   6.046
  139SOL    HW2 1317   2.406   5.770   5.959
  140SOL     OW 1318   1.498   6.854   2.986
  140SOL    HW1 1319   1.469   6.920   2.918
  140SOL    HW2 1320   1.597   6.858   2.996
  141SOL     OW 1321   6.721   2.362   6.315
  141SOL    HW1 1322   6.730   2.386   6.218
  141SOL    HW2 1323   6.805   2.318   6.347
  142SOL     OW 1324   2.138   3.644   1.783
  142SOL    HW1 1325   2.183   3.594   1.858
  142SOL    HW2 1326   2.099   3.729   1.818
  143SOL     OW 1327   5.698   5.755   1.156
  143SOL    HW1 1328   5.758   5.821   1.200
  143SOL    HW2 1329   5.692   5.672   1.213
  144SOL     OW 1330   2.523   4.942   4.994
  144SOL    HW1 1331   2.558   5.030   5.026
  144SOL    HW2 1332   2.476   4.895   5.070
  145SOL     OW 1333   1.484   5.362   1.759
  145SOL    HW1 1334   1.412   5.413   1.712
  145SOL    HW2 1335   1.516   5.414   1.837
  146SOL     OW 1336   4.723   1.232   6.140
  146SOL    HW1 1337   4.658   1.216   6.065
  146SOL    HW2 1338   4.762   1.323   6.130
  147SOL     OW 1339   5.190   1.792   5.683
  147SOL    HW1 1340   5.181   1.734   5.764
  147SOL    HW2 1341   5.103   1.838   5.666
  148SOL     OW 1342   0.721   5.646   1.696
  148SOL    HW1 1343   0.634   5.662   1.743
  148SOL    HW2 1344   0.704   5.636   1.598
  149SOL     OW 1345   3.382   1.738   4.701
  149SOL    HW1 1346   3.369   1.837   4.700
  149SOL    HW2 1347   3.459   1.715   4.642
  150SOL     OW 1348   4.601   0.011   6.050
  150SOL    HW1 1349   4.574   6.946   6.103
  150SOL    HW2 1350   4.568   0.093   6.096
  151SOL     OW 1351   3.819   0.903   1.757
  151SOL    HW1 1352   3.757   0.875   1.831
  151SOL    HW2 1353   3.912   0.911   1.793
  152SOL     OW 1354   6.712   1.387   0.173
  152SOL    HW1 1355   6.687   1.470   0.123
  152SOL    HW2 1356   6.806   1.396   0.208
  153SOL     OW 1357   2.852   0.391   3.133
  153SOL    HW1 1358   2.868   0.325   3.060
  153SOL    HW2 1359   2.938   0.411   3.180
  154SOL     OW 1360   0.045   3.034   0.456
  154SOL    HW1 1361   7.011   3.003   0.375
  154SOL    HW2 1362   7.003   3.024   0.537
  155SOL     OW 1363   1.079   0.298   3.031
  155SOL    HW1 1364   0.989   0.277   3.068
  155SOL    HW2 1365   1.140   0.325   3.105
  156SOL     OW 1366   6.014   1.051   0.158
  156SOL    HW1 1367   6.105   1.083   0.185
  156SOL    HW2 1368   6.000   1.068   0.061
  157SOL     OW 1369   5.374   3.300   0.779
  157SOL    HW1 1370   5.345   3.376   0.837
  157SOL    HW2 1371   5.297   3.237   0.766
  158SOL     OW 1372   1.656   2.180   1.109
  158SOL    HW1 1373   1.622   2.092   1.143
  158SOL    HW2 1374   1.729   2.164   1.042
  159SOL     OW 1375   4.411   5.019   1.088
  159SOL    HW1 1376   4.419   5.111   1.126
  159SOL    HW2 1377   4.364   4.959   1.154
  160SOL     OW 1378   6.445   0.061   1.049
  160SOL    HW1 1379   6.434   6.979   1.063
  160SOL    HW2 1380   6.510   0.098   1.115
  161SOL     OW 1381   2.199   0.160   2.408
  161SOL    HW1 1382   2.163   0.239   2.360
  161SOL    HW2 1383   2.156   0.077   2.373
  162SOL     OW 1384   3.055   6.929   0.219
  162SOL    HW1 1385   3.108   6.865   0.276
  162SOL    HW2 1386   2.991   6.877   0.162
  163SOL     OW 1387   0.379   4.902   2.964
  163SOL    HW1 1388   0.350   4.931   3.055
  163SOL    HW2 1389   0.472   4.933   2.948
  164SOL     OW 1390   0.904   2.893   2.613
  164SOL    HW1 1391   0.924   2.847   2.699
  164SOL    HW2 1392   0.962   2.975   2.605
  165SOL     OW 1393   6.022   5.112   0.288
  165SOL    HW1 1394   5.958   5.158   0.350
  165SOL    HW2 1395   6.005   5.014   0.289
  166SOL     OW 1396   6.437   3.544   2.210
  166SOL    HW1 1397   6.381   3.461   2.210
  166SOL    HW2 1398   6.380   3.623   2.187
  167SOL     OW 1399   5.932   1.021   6.543
  167SOL    HW1 1400   5.891   1.015   6.452
  167SOL    HW2 1401   6.008   0.956   6.550
  168SOL     OW 1402   3.954   1.966   1.784
  168SOL    HW1 1403   4.007   2.039   1.741
  168SOL    HW2 1404   3.873   1.946   1.729
  169SOL     OW 1405   5.633   2.794   6.969
  169SOL    HW1 1406   5.657   2.847   0.034
  169SOL    HW2 1407   5.713   2.741   6.939
  170SOL     OW 1408   6.986   6.195   2.580
  170SOL    HW1 1409   0.019   6.226   2.661
  170SOL    HW2 1410   0.034   6.156   2.514
  171SOL     OW 1411   2.029   3.402   0.264
  171SOL    HW1 1412   1.965   3.325   0.266
  171SOL    HW2 1413   2.052   3.428   0.358
  172SOL     OW 1414   6.199   2.546   2.542
  172SOL    HW1 1415   6.171   2.453   2.516
  172SOL    HW2 1416   6.283   2.542   2.595
  173SOL     OW 1417   5.807   0.933   4.811
  173SOL    HW1 1418   5.810   0.933   4.711
  173SOL    HW2 1419   5.731   0.991   4.841
  174SOL     OW 1420   4.705   5.309   4.398
  174SOL    HW1 1421   4.711   5.233   4.334
  174SOL    HW2 1422   4.716   5.276   4.491
  175SOL     OW 1423   3.622   1.236   1.302
  175SOL    HW1 1424   3.697   1.195   1.250
  175SOL    HW2 1425   3.645   1.235   1.399
  176SOL     OW 1426   5.021   4.711   2.734
  176SOL    HW1 1427   4.965   4.646   2.787
  176SOL    HW2 1428   4.970   4.796   2.721
  177SOL     OW 1429   5.027   2.538   4.984
  177SOL    HW1 1430   4.961   2.595   5.033
  177SOL    HW2 1431   4.979   2.472   4.927
  178SOL     OW 1432   2.915   4.833   4.816
  178SOL    HW1 1433   2.853   4.757   4.832
  178SOL    HW2 1434   2.988   4.832   4.885
  179SOL     OW 1435   4.323   6.874   6.820
  179SOL    HW1 1436   4.330   6.965   6.780
  179SOL    HW2 1437   4.310   6.881   6.918
  180SOL     OW 1438   2.498   6.882   0.834
  180SOL    HW1 1439   2.437   6.959   0.820
  180SOL    HW2 1440   2.577   6.891   0.774
  181SOL     OW 1441   3.502   3.028   6.120
  181SOL    HW1 1442   3.521   2.931   6.135
  181SOL    HW2 1443   3.405   3.040   6.099
  182SOL     OW 1444   4.614   2.763   0.077
  182SOL    HW1 1445   4.651   2.835   0.137
  182SOL    HW2 1446   4.529   2.796   0.035
  183SOL     OW 1447   3.994   2.203   3.561
  183SOL    HW1 1448   4.047   2.234   3.640
  183SOL    HW2 1449   4.052   2.204   3.479
  184SOL     OW 1450   0.438   6.627   4.022
  184SOL    HW1 1451   0.376   6.656   4.094
  184SOL    HW2 1452   0.527   6.671   4.034
  185SOL     OW 1453   1.072   1.008   3.902
  185SOL    HW1 1454   0.998   1.030   3.965
  185SOL    HW2 1455   1.152   0.978   3.953
  186SOL     OW 1456   5.342   6.991   4.395
  186SOL    HW1 1457   5.284   0.053   4.416
  186SOL    HW2 1458   5.398   7.012   4.314
  187SOL     OW 1459   5.532   6.662   2.251
  187SOL    HW1 1460   5.499   6.741   2.302
  187SOL    HW2 1461   5.590   6.606   2.312
  188SOL     OW 1462   1.111   2.859   4.002
  188SOL    HW1 1463   1.125   2.781   3.941
  188SOL    HW2 1464   1.017   2.891   3.995
  189SOL     OW 1465   1.451   4.737   6.738
  189SOL    HW1 1466   1.546   4.707   6.730
  189SOL    HW2 1467   1.399   4.669   6.790
  190SOL     OW 1468   5.873   4.466   6.810
  190SOL    HW1 1469   5.873   4.368   6.791
  190SOL    HW2 1470   5.963   4.504   6.791
  191SOL     OW 1471   6.515   1.166   5.887
  191SOL    HW1 1472   6.433   1.177   5.832
  191SOL    HW2 1473   6.579   1.241   5.868
  192SOL     OW 1474   6.836   4.930   1.554
  192SOL    HW1 1475   6.742   4.896   1.555
  192SOL    HW2 1476   6.899   4.853   1.541
  193SOL     OW 1477   5.119   3.781   5.244
  193SOL    HW1 1478   5.183   3.778   5.168
  193SOL    HW2 1479   5.054   3.705   5.235
  194SOL     OW 1480   3.931   6.363   3.040
  194SOL    HW1 1481   3.857   6.327   3.097
  194SOL    HW2 1482   4.015   6.313   3.058
  195SOL     OW 1483   1.631   1.009   3.333
  195SOL    HW1 1484   1.553   1.035   3.277
  195SOL    HW2 1485   1.714   1.012   3.277
  196SOL     OW 1486   3.422   6.815   0.298
  196SOL    HW1 1487   3.497   6.760   0.335
  196SOL    HW2 1488   3.454   6.910   0.286
  197SOL     OW 1489   2.741   6.550   0.153
  197SOL    HW1 1490   2.686   6.471   0.177
  197SOL    HW2 1491   2.731   6.621   0.223
  198SOL     OW 1492   4.806   6.812   1.338
  198SOL    HW1 1493   4.878   6.872   1.376
  198SOL    HW2 1494   4.721   6.864   1.329
  199SOL     OW 1495   6.547   1.321   2.706
  199SOL    HW1 1496   6.562   1.400   2.647
  199SOL    HW2 1497   6.605   1.246   2.676
  200SOL     OW 1498   1.094   4.455   2.878
  200SOL    HW1 1499   1.100   4.537   2.936
  200SOL    HW2 1500   1.054   4.380   2.930
  201SOL     OW 1501   3.787   6.454   5.995
  201SOL    HW1 1502   3.741   6.509   5.925
  201SOL    HW2 1503   3.838   6.379   5.951
  202SOL     OW 1504   5.165   0.595   5.279
  202SOL    HW1 1505   5.102   0.529   5.320
  202SOL    HW2 1506   5.113   0.667   5.233
  203SOL     OW 1507   4.885   2.401   4.724
  203SOL    HW1 1508   4.885   2.462   4.645
  203SOL    HW2 1509   4.840   2.315   4.700
  204SOL     OW 1510   0.559   0.694   6.534
  204SOL    HW1 1511   0.520   0.602   6.538
  204SOL    HW2 1512   0.540   0.742   6.620
  205SOL     OW 1513   0.653   1.237   2.233
  205SOL    HW1 1514   0.560   1.222   2.200
  205SOL    HW2 1515   0.714   1.167   2.194
  206SOL     OW 1516   0.267   4.733   2.604
  206SOL    HW1 1517   0.329   4.662   2.637
  206SOL    HW2 1518   0.282   4.747   2.506
  207SOL     OW 1519   4.071   0.457   5.093
  207SOL    HW1 1520   4.070   0.491   5.187
  207SOL    HW2 1521   4.017   0.373   5.087
  208SOL     OW 1522   4.835   3.469   5.953
  208SOL    HW1 1523   4.882   3.437   5.871
  208SOL    HW2 1524   4.742   3.432   5.955
  209SOL     OW 1525   1.002   5.423   5.732
  209SOL    HW1 1526   1.073   5.381   5.677
  209SOL    HW2 1527   0.915   5.422   5.682
  210SOL     OW 1528   3.821   2.051   2.056
  210SOL    HW1 1529   3.752   2.116   2.024
  210SOL    HW2 1530   3.863   2.006   1.978
  211SOL     OW 1531   0.986   6.458   4.035
  211SOL    HW1 1532   0.930   6.510   4.099
  211SOL    HW2 1533   0.933   6.382   3.998
  212SOL     OW 1534   2.389   4.359   2.278
  212SOL    HW1 1535   2.410   4.330   2.371
  212SOL    HW2 1536   2.427   4.450   2.262
  213SOL     OW 1537   4.140   0.672   6.649
  213SOL    HW1 1538   4.202   0.744   6.617
  213SOL    HW2 1539   4.059   0.713   6.690
  214SOL     OW 1540   3.150   6.277   2.421
  214SOL    HW1 1541   3.247   6.286   2.443
  214SOL    HW2 1542   3.139   6.245   2.327
  215SOL     OW 1543   3.062   3.650   1.897
  215SOL    HW1 1544   2.963   3.632   1.905
  215SOL    HW2 1545   3.110   3.595   1.966
  216SOL     OW 1546   1.427   6.793   4.916
  216SOL    HW1 1547   1.490   6.845   4.973
  216SOL    HW2 1548   1.387   6.854   4.847
  217SOL     OW 1549   2.187   2.716   4.682
  217SOL    HW1 1550   2.234   2.766   4.755
  217SOL    HW2 1551   2.171   2.777   4.605
  218SOL     OW 1552   0.874   2.961   4.694
  218SOL    HW1 1553   0.797   2.975   4.757
  218SOL    HW2 1554   0.960   2.977   4.742
  219SOL     OW 1555   3.234   6.164   6.225
  219SOL    HW1 1556   3.141   6.145   6.195
  219SOL    HW2 1557   3.283   6.212   6.153
  220SOL     OW 1558   3.046   6.149   6.701
  220SOL    HW1 1559   2.954   6.185   6.684
  220SOL    HW2 1560   3.044   6.087   6.779
  221SOL     OW 1561   6.210   3.982   2.370
  221SOL    HW1 1562   6.187   3.904   2.312
  221SOL    HW2 1563   6.143   3.991   2.444
  222SOL     OW 1564   2.365   4.756   5.602
  222SOL    HW1 1565   2.401   4.726   5.691
  222SOL    HW2 1566   2.313   4.840   5.614
  223SOL     OW 1567   6.755   4.005   0.446
  223SOL    HW1 1568   6.699   3.925   0.425
  223SOL    HW2 1569   6.842   3.975   0.486
  224SOL     OW 1570   2.457   2.100   3.841
  224SOL    HW1 1571   2.476   2.017   3.893
  224SOL    HW2 1572   2.400   2.077   3.761
  225SOL     OW 1573   4.990   1.440   6.308
  225SOL    HW1 1574   5.029   1.529   6.285
  225SOL    HW2 1575   5.012   1.374   6.236
  226SOL     OW 1576   0.566   6.473   0.137
  226SOL    HW1 1577   0.653   6.426   0.122
  226SOL    HW2 1578   0.551   6.540   0.064
  227SOL     OW 1579   1.432   4.330   2.491
  227SOL    HW1 1580   1.408   4.310   2.396
  227SOL    HW2 1581   1.348   4.339   2.545
  228SOL     OW 1582   3.277   6.294   3.891
  228SOL    HW1 1583   3.189   6.339   3.877
  228SOL    HW2 1584   3.325   6.288   3.804
  229SOL     OW 1585   5.969   5.602   0.478
  229SOL    HW1 1586   5.887   5.608   0.420
  229SOL    HW2 1587   6.016   5.690   0.480
  230SOL     OW 1588   3.233   5.121   3.524
  230SOL    HW1 1589   3.280   5.069   3.595
  230SOL    HW2 1590   3.286   5.203   3.503
  231SOL     OW 1591   6.078   1.977   5.520
  231SOL    HW1 1592   6.025   2.056   5.552
  231SOL    HW2 1593   6.018   1.900   5.504
  232SOL     OW 1594   0.864   4.383   6.350
  232SOL    HW1 1595   0.963   4.376   6.365
  232SOL    HW2 1596   0.836   4.478   6.359
  233SOL     OW 1597   1.857   1.063   4.472
  233SOL    HW1 1598   1.874   0.974   4.515
  233SOL    HW2 1599   1.814   1.049   4.383
  234SOL     OW 1600   2.580   6.235   5.509
  234SOL    HW1 1601   2.551   6.148   5.469
  234SOL    HW2 1602   2.536   6.246   5.598
  235SOL     OW 1603   2.898   3.516   2.528
  235SOL    HW1 1604   2.965   3.557   2.467
  235SOL    HW2 1605   2.870   3.427   2.492
  236SOL     OW 1606   6.073   2.798   6.686
  236SOL    HW1 1607   6.107   2.737   6.757
  236SOL    HW2 1608   6.071   2.892   6.720
  237SOL     OW 1609   0.003   6.858   0.713
  237SOL    HW1 1610   6.980   6.808   0.635
  237SOL    HW2 1611   0.099   6.879   0.694
  238SOL     OW 1612   6.478   2.604   7.007
  238SOL    HW1 1613   6.532   2.554   6.939
  238SOL    HW2 1614   6.401   2.548   0.021
  239SOL     OW 1615   0.000   5.059   7.000
  239SOL    HW1 1616   6.976   5.132   6.945
  239SOL    HW2 1617   0.068   5.010   6.945
  240SOL     OW 1618   0.351   3.060   5.314
  240SOL    HW1 1619   0.292   3.112   5.253
  240SOL    HW2 1620   0.323   2.964   5.314
  241SOL     OW 1621   0.396   0.547   3.863
  241SOL    HW1 1622   0.380   0.451   3.842
  241SOL    HW2 1623   0.380   0.563   3.961
  242SOL     OW 1624   2.107   2.635   5.736
  242SOL    HW1 1625   2.197   2.676   5.750
  242SOL    HW2 1626   2.042   2.673   5.803
  243SOL     OW 1627   4.705   6.914   5.812
  243SOL    HW1 1628   4.636   6.846   5.788
  243SOL    HW2 1629   4.686   6.949   5.904
  244SOL     OW 1630   4.911   3.190   4.540
  244SOL    HW1 1631   4.931   3.191   4.638
  244SOL    HW2 1632   4.866   3.104   4.515
  245SOL     OW 1633   6.857   2.372   4.349
  245SOL    HW1 1634   6.816   2.405   4.434
  245SOL    HW2 1635   6.947   2.413   4.337
  246SOL     OW 1636   5.767   3.281   2.950
  246SOL    HW1 1637   5.677   3.255   2.916
  246SOL    HW2 1638   5.806   3.205   3.002
  247SOL     OW 1639   1.903   2.191   2.907
  247SOL    HW1 1640   1.927   2.242   2.989
  247SOL    HW2 1641   1.817   2.226   2.870
  248SOL     OW 1642   4.739   2.849   4.712
  248SOL    HW1 1643   4.736   2.915   4.788
  248SOL    HW2 1644   4.676   2.774   4.731
  249SOL     OW 1645   4.599   0.315   5.264
  249SOL    HW1 1646   4.558   0.405   5.280
  249SOL    HW2 1647   4.698   0.324   5.258
  250SOL     OW 1648   4.521   2.248   5.523
  250SOL    HW1 1649   4.567   2.160   5.535
  250SOL    HW2 1650   4.579   2.321   5.558
  251SOL     OW 1651   3.994   4.947   5.954
  251SOL    HW1 1652   3.900   4.955   5.922
  251SOL    HW2 1653   4.056   4.945   5.875
  252SOL     OW 1654   6.563   1.512   6.234
  252SOL    HW1 1655   6.474   1.525   6.278
  252SOL    HW2 1656   6.624   1.464   6.296
  253SOL     OW 1657   2.721   4.396   0.567
  253SOL    HW1 1658   2.774   4.387   0.651
  253SOL    HW2 1659   2.727   4.490   0.534
  254SOL     OW 1660   6.673   2.720   3.630
  254SOL    HW1 1661   6.618   2.709   3.712
  254SOL    HW2 1662   6.720   2.808   3.632
  255SOL     OW 1663   2.314   2.317   3.951
  255SOL    HW1 1664   2.234   2.310   3.891
  255SOL    HW2 1665   2.388   2.260   3.915
  256SOL     OW 1666   6.632   4.467   6.945
  256SOL    HW1 1667   6.572   4.425   7.013
  256SOL    HW2 1668   6.648   4.403   6.870
  257SOL     OW 1669   3.454   5.390   5.602
  257SOL    HW1 1670   3.517   5.441   5.661
  257SOL    HW2 1671   3.501   5.311   5.564
  258SOL     OW 1672   5.306   3.269   4.812
  258SOL    HW1 1673   5.227   3.208   4.801
  258SOL    HW2 1674   5.291   3.328   4.892
  259SOL     OW 1675   2.200   2.999   2.302
  259SOL    HW1 1676   2.201   3.096   2.325
  259SOL    HW2 1677   2.216   2.988   2.204
  260SOL     OW 1678   4.346   0.880   1.122
  260SOL    HW1 1679   4.426   0.859   1.177
  260SOL    HW2 1680   4.280   0.805   1.130
  261SOL     OW 1681   6.920   3.877   1.130
  261SOL    HW1 1682   6.918   3.935   1.211
  261SOL    HW2 1683   6.999   3.901   1.073
  262SOL     OW 1684   0.529   3.933   2.255
  262SOL    HW1 1685   0.523   3.835   2.235
  262SOL    HW2 1686   0.602   3.973   2.200
  263SOL     OW 1687   0.167   1.718   3.940
  263SOL    HW1 1688   0.108   1.638   3.933
  263SOL    HW2 1689   0.263   1.688   3.938
  264SOL     OW 1690   6.370   4.102   5.611
  264SOL    HW1 1691   6.402   4.196   5.607
  264SOL    HW2 1692   6.388   4.064   5.702
  265SOL     OW 1693   4.827   4.057   3.043
  265SOL    HW1 1694   4.845   3.970   3.089
  265SOL    HW2 1695   4.854   4.050   2.947
  266SOL     OW 1696   3.601   2.745   6.186
  266SOL    HW1 1697   3.676   2.684   6.163
  266SOL    HW2 1698   3.531   2.740   6.115
  267SOL     OW 1699   0.130   2.784   6.286
  267SOL    HW1 1700   0.059   2.806   6.218
  267SOL    HW2 1701   0.137   2.860   6.351
  268SOL     OW 1702   4.874   5.497   5.159
  268SOL    HW1 1703   4.903   5.579   5.207
  268SOL    HW2 1704   4.861   5.422   5.224
  269SOL     OW 1705   1.666   1.824   0.288
  269SOL    HW1 1706   1.662   1.858   0.382
  269SOL    HW2 1707   1.574   1.804   0.256
  270SOL     OW 1708   6.347   0.833   1.841
  270SOL    HW1 1709   6.316   0.915   1.891
  270SOL    HW2 1710   6.433   0.853   1.795
  271SOL     OW 1711   3.053   1.476   0.285
  271SOL    HW1 1712   3.078   1.563   0.327
  271SOL    HW2 1713   3.021   1.413   0.356
  272SOL     OW 1714   3.469   5.088   4.351
  272SOL    HW1 1715   3.559   5.048   4.333
  272SOL    HW2 1716   3.439   5.063   4.443
  273SOL     OW 1717   1.639   5.628   5.919
  273SOL    HW1 1718   1.733   5.594   5.910
  273SOL    HW2 1719   1.640   5.718   5.962
  274SOL     OW 1720   4.955   2.253   4.418
  274SOL    HW1 1721   4.952   2.352   4.431
  274SOL    HW2 1722   4.927   2.207   4.503
  275SOL     OW 1723   0.695   5.847   6.354
  275SOL    HW1 1724   0.733   5.760   6.321
  275SOL    HW2 1725   0.669   5.903   6.275
  276SOL     OW 1726   6.422   5.312   4.091
  276SOL    HW1 1727   6.508   5.306   4.040
  276SOL    HW2 1728   6.394   5.220   4.118
  277SOL     OW 1729   3.447   1.131   6.460
  277SOL    HW1 1730   3.535   1.092   6.488
  277SOL    HW2 1731   3.419   1.092   6.373
  278SOL     OW 1732   6.274   3.674   1.788
  278SOL    HW1 1733   6.346   3.743   1.787
  278SOL    HW2 1734   6.189   3.715   1.821
  279SOL     OW 1735   6.417   2.873   4.420
  279SOL    HW1 1736   6.411   2.969   4.395
  279SOL    HW2 1737   6.377   2.817   4.347
  280SOL     OW 1738   4.446   0.037   3.396
  280SOL    HW1 1739   4.365   0.008   3.446
  280SOL    HW2 1740   4.502   0.096   3.455
  281SOL     OW 1741   2.974   5.211   3.444
  281SOL    HW1 1742   2.904   5.179   3.508
  281SOL    HW2 1743   3.064   5.199   3.486
  282SOL     OW 1744   3.770   2.541   5.460
  282SOL    HW1 1745   3.818   2.612   5.409
  282SOL    HW2 1746   3.749   2.465   5.398
  283SOL     OW 1747   5.640   0.388   5.540
  283SOL    HW1 1748   5.574   0.317   5.514
  283SOL    HW2 1749   5.726   0.345   5.567
  284SOL     OW 1750   1.269   4.606   4.633
  284SOL    HW1 1751   1.268   4.512   4.600
  284SOL    HW2 1752   1.181   4.628   4.675
  285SOL     OW 1753   5.296   5.931   0.212
  285SOL    HW1 1754   5.353   5.954   0.133
  285SOL    HW2 1755   5.354   5.912   0.291
  286SOL     OW 1756   4.326   4.951   5.497
  286SOL    HW1 1757   4.285   4.865   5.465
  286SOL    HW2 1758   4.423   4.953   5.474
  287SOL     OW 1759   1.617   5.506   6.770
  287SOL    HW1 1760   1.541   5.498   6.706
  287SOL    HW2 1761   1.625   5.600   6.801
  288SOL     OW 1762   3.949   1.003   0.401
  288SOL    HW1 1763   3.976   0.954   0.484
  288SOL    HW2 1764   3.959   0.943   0.322
  289SOL     OW 1765   1.033   4.984   5.850
  289SOL    HW1 1766   1.133   4.979   5.847
  289SOL    HW2 1767   1.000   4.937   5.932
  290SOL     OW 1768   4.792   0.911   3.422
  290SOL    HW1 1769   4.868   0.849   3.440
  290SOL    HW2 1770   4.799   0.944   3.328
  291SOL     OW 1771   4.580   1.018   3.682
  291SOL    HW1 1772   4.608   1.114   3.670
  291SOL    HW2 1773   4.660   0.959   3.677
  292SOL     OW 1774   5.122   0.973   3.757
  292SOL    HW1 1775   5.184   0.962   3.680
  292SOL    HW2 1776   5.040   1.022   3.727
  293SOL     OW 1777   4.325   6.281   0.999
  293SOL    HW1 1778   4.288   6.292   0.907
  293SOL    HW2 1779   4.250   6.262   1.062
  294SOL     OW 1780   6.287   5.893   6.580
  294SOL    HW1 1781   6.331   5.977   6.549
  294SOL    HW2 1782   6.223   5.914   6.655
  295SOL     OW 1783   2.025   2.061   5.411
  295SOL    HW1 1784   2.111   2.077   5.363
  295SOL    HW2 1785   1.959   2.132   5.386
  296SOL     OW 1786   7.004   2.658   1.369
  296SOL    HW1 1787   0.007   2.743   1.320
  296SOL    HW2 1788   0.034   2.582   1.324
  297SOL     OW 1789   3.585   5.423   3.638
  297SOL    HW1 1790   3.660   5.380   3.588
  297SOL    HW2 1791   3.501   5.415   3.584
  298SOL     OW 1792   4.570   6.857   0.185
  298SOL    HW1 1793   4.642   6.822   0.245
  298SOL    HW2 1794   4.576   6.957   0.181
  299SOL     OW 1795   4.358   1.906   6.729
  299SOL    HW1 1796   4.312   1.929   6.815
  299SOL    HW2 1797   4.311   1.830   6.685
  300SOL     OW 1798   3.872   0.312   2.351
  300SOL    HW1 1799   3.917   0.341   2.436
  300SOL    HW2 1800   3.937   0.263   2.293
  301SOL     OW 1801   5.058   0.787   1.191
  301SOL    HW1 1802   4.975   0.804   1.244
  301SOL    HW2 1803   5.133   0.842   1.228
  302SOL     OW 1804   0.304   0.806   2.300
  302SOL    HW1 1805   0.322   0.718   2.343
  302SOL    HW2 1806   0.332   0.803   2.204
  303SOL     OW 1807   6.728   5.821   1.562
  303SOL    HW1 1808   6.822   5.843   1.586
  303SOL    HW2 1809   6.727   5.760   1.482
  304SOL     OW 1810   2.064   6.374   6.347
  304SOL    HW1 1811   2.090   6.298   6.407
  304SOL    HW2 1812   2.061   6.342   6.253
  305SOL     OW 1813   1.456   2.795   0.816
  305SOL    HW1 1814   1.396   2.741   0.875
  305SOL    HW2 1815   1.551   2.771   0.835
  306SOL     OW 1816   6.931   1.278   2.806
  306SOL    HW1 1817   6.939   1.354   2.870
  306SOL    HW2 1818   0.004   1.254   2.770
  307SOL     OW 1819   3.961   4.601   0.294
  307SOL    HW1 1820   3.935   4.506   0.275
  307SOL    HW2 1821   3.928   4.660   0.221
  308SOL     OW 1822   5.952   2.572   3.877
  308SOL    HW1 1823   5.939   2.475   3.855
  308SOL    HW2 1824   5.991   2.619   3.798
  309SOL     OW 1825   1.651   6.089   0.470
  309SOL    HW1 1826   1.615   6.036   0.547
  309SOL    HW2 1827   1.602   6.176   0.465
  310SOL     OW 1828   4.938   6.651   4.261
  310SOL    HW1 1829   4.894   6.702   4.335
  310SOL    HW2 1830   5.037   6.648   4.278
  311SOL     OW 1831   2.895   5.058   2.873
  311SOL    HW1 1832   2.931   5.036   2.964
  311SOL    HW2 1833   2.971   5.086   2.813
  312SOL     OW 1834   3.727   1.971   3.869
  312SOL    HW1 1835   3.749   1.892   3.927
  312SOL    HW2 1836   3.639   2.010   3.897
  313SOL     OW 1837   3.368   4.046   2.541
  313SOL    HW1 1838   3.285   4.055   2.596
  313SOL    HW2 1839   3.443   4.096   2.585
  314SOL     OW 1840   2.297   4.904   4.771
  314SOL    HW1 1841   2.360   4.862   4.836
  314SOL    HW2 1842   2.207   4.862   4.781
  315SOL     OW 1843   0.874   2.079   3.955
  315SOL    HW1 1844   0.812   2.002   3.973
  315SOL    HW2 1845   0.954   2.046   3.906
  316SOL     OW 1846   3.758   0.609   4.244
  316SOL    HW1 1847   3.662   0.593   4.269
  316SOL    HW2 1848   3.816   0.594   4.324
  317SOL     OW 1849   0.144   1.766   1.684
  317SOL    HW1 1850   0.233   1.784   1.642
  317SOL    HW2 1851   0.071   1.791   1.620
  318SOL     OW 1852   6.283   0.136   6.654
  318SOL    HW1 1853   6.189   0.112   6.627
  318SOL    HW2 1854   6.326   0.187   6.580
  319SOL     OW 1855   6.796   1.941   3.416
  319SOL    HW1 1856   6.799   1.906   3.322
  319SOL    HW2 1857   6.718   2.002   3.426
  320SOL     OW 1858   5.944   3.129   0.106
  320SOL    HW1 1859   6.035   3.094   0.129
  320SOL    HW2 1860   5.918   3.095   0.015
  321SOL     OW 1861   4.529   2.253   0.406
  321SOL    HW1 1862   4.621   2.283   0.431
  321SOL    HW2 1863   4.492   2.311   0.334
  322SOL     OW 1864   3.364   2.876   4.554
  322SOL    HW1 1865   3.347   2.777   4.547
  322SOL    HW2 1866   3.279   2.922   4.580
  323SOL     OW 1867   1.339   2.825   5.351
  323SOL    HW1 1868   1.251   2.787   5.378
  323SOL    HW2 1869   1.387   2.858   5.432
  324SOL     OW 1870   2.693   0.581   3.033
  324SOL    HW1 1871   2.768   0.523   3.067
  324SOL    HW2 1872   2.715   0.677   3.050
  325SOL     OW 1873   0.815   3.393   2.501
  325SOL    HW1 1874   0.805   3.492   2.487
  325SOL    HW2 1875   0.825   3.375   2.599
  326SOL     OW 1876   0.673   4.322   6.162
  326SOL    HW1 1877   0.709   4.347   6.252
  326SOL    HW2 1878   0.747   4.283   6.107
  327SOL     OW 1879   2.730   4.724   3.174
  327SOL    HW1 1880   2.659   4.662   3.143
  327SOL    HW2 1881   2.732   4.726   3.274
  328SOL     OW 1882   2.279   4.878   1.867
  328SOL    HW1 1883   2.372   4.848   1.888
  328SOL    HW2 1884   2.266   4.971   1.900
  329SOL     OW 1885   2.425   3.394   5.828
  329SOL    HW1 1886   2.352   3.374   5.894
  329SOL    HW2 1887   2.388   3.389   5.735
  330SOL     OW 1888   3.027   6.554   0.679
  330SOL    HW1 1889   2.964   6.496   0.731
  330SOL    HW2 1890   3.052   6.508   0.594
  331SOL     OW 1891   5.286   5.461   0.474
  331SOL    HW1 1892   5.353   5.526   0.511
  331SOL    HW2 1893   5.197   5.506   0.467
  332SOL     OW 1894   5.790   2.498   4.892
  332SOL    HW1 1895   5.873   2.481   4.839
  332SOL    HW2 1896   5.717   2.437   4.859
  333SOL     OW 1897   4.416   0.635   4.865
  333SOL    HW1 1898   4.343   0.704   4.864
  333SOL    HW2 1899   4.381   0.550   4.904
  334SOL     OW 1900   2.981   2.563   0.262
  334SOL    HW1 1901   2.962   2.467   0.282
  334SOL    HW2 1902   2.965   2.581   0.165
  335SOL     OW 1903   3.234   0.214   6.648
  335SOL    HW1 1904   3.230   0.250   6.554
  335SOL    HW2 1905   3.174   0.268   6.706
  336SOL     OW 1906   3.295   0.904   3.568
  336SOL    HW1 1907   3.260   0.987   3.612
  336SOL    HW2 1908   3.360   0.929   3.497
  337SOL     OW 1909   0.025   3.379   5.855
  337SOL    HW1 1910   6.960   3.361   5.800
  337SOL    HW2 1911   0.072   3.460   5.819
  338SOL     OW 1912   3.029   2.265   1.298
  338SOL    HW1 1913   2.989   2.229   1.214
  338SOL    HW2 1914   2.959   2.266   1.370
  339SOL     OW 1915   4.467   5.299   4.720
  339SOL    HW1 1916   4.415   5.318   4.637
  339SOL    HW2 1917   4.471   5.380   4.777
  340SOL     OW 1918   5.253   3.467   5.060
  340SOL    HW1 1919   5.235   3.451   5.157
  340SOL    HW2 1920   5.170   3.449   5.007
  341SOL     OW 1921   5.864   6.616   4.631
  341SOL    HW1 1922   5.805   6.536   4.648
  341SOL    HW2 1923   5.945   6.586   4.581
  342SOL     OW 1924   5.081   3.427   0.414
  342SOL    HW1 1925   5.040   3.494   0.476
  342SOL    HW2 1926   5.161   3.386   0.458
  343SOL     OW 1927   0.322   6.047   2.136
  343SOL    HW1 1928   0.236   6.095   2.153
  343SOL    HW2 1929   0.385   6.065   2.212
  344SOL     OW 1930   0.932   3.462   1.856
  344SOL    HW1 1931   0.871   3.386   1.835
  344SOL    HW2 1932   0.983   3.442   1.940
  345SOL     OW 1933   5.452   2.366   3.547
  345SOL    HW1 1934   5.421   2.313   3.625
  345SOL    HW2 1935   5.440   2.313   3.463
  346SOL     OW 1936   2.221   1.024   2.616
  346SOL    HW1 1937   2.148   1.087   2.643
  346SOL    HW2 1938   2.186   0.931   2.616
  347SOL     OW 1939   3.133   6.155   0.242
  347SOL    HW1 1940   3.087   6.122   0.161
  347SOL    HW2 1941   3.181   6.240   0.221
  348SOL     OW 1942   4.900   4.004   2.780
  348SOL    HW1 1943   4.844   3.996   2.698
  348SOL    HW2 1944   4.996   3.987   2.757
  349SOL     OW 1945   6.866   4.835   1.863
  349SOL    HW1 1946   6.767   4.845   1.864
  349SOL    HW2 1947   6.898   4.806   1.954
  350SOL     OW 1948   2.628   2.048   1.525
  350SOL    HW1 1949   2.697   1.985   1.563
  350SOL    HW2 1950   2.674   2.119   1.472
  351SOL     OW 1951   2.436   3.278   0.650
  351SOL    HW1 1952   2.445   3.194   0.596
  351SOL    HW2 1953   2.431   3.357   0.590
  352SOL     OW 1954   3.397   6.972   3.733
  352SOL    HW1 1955   3.490   6.955   3.765
  352SOL    HW2 1956   3.362   6.890   3.686
  353SOL     OW 1957   3.053   0.110   0.022
  353SOL    HW1 1958   3.054   0.046   0.099
  353SOL    HW2 1959   3.122   0.181   0.037
  354SOL     OW 1960   4.390   2.201   1.748
  354SOL    HW1 1961   4.372   2.267   1.821
  354SOL    HW2 1962   4.307   2.186   1.695
  355SOL     OW 1963   1.832   4.654   3.040
  355SOL    HW1 1964   1.829   4.558   3.012
  355SOL    HW2 1965   1.762   4.672   3.109
  356SOL     OW 1966   2.341   0.842   5.458
  356SOL    HW1 1967   2.346   0.781   5.537
  356SOL    HW2 1968   2.432   0.855   5.420
  357SOL     OW 1969   6.902   6.349   5.309
  357SOL    HW1 1970   6.986   6.332   5.258
  357SOL    HW2 1971   6.924   6.392   5.396
  358SOL     OW 1972   4.769   6.266   0.949
  358SOL    HW1 1973   4.690   6.242   0.894
  358SOL    HW2 1974   4.777   6.365   0.955
  359SOL     OW 1975   3.042   1.678   2.128
  359SOL    HW1 1976   3.043   1.647   2.033
  359SOL    HW2 1977   3.101   1.620   2.183
  360SOL     OW 1978   1.318   4.660   5.586
  360SOL    HW1 1979   1.302   4.568   5.620
  360SOL    HW2 1980   1.237   4.716   5.603
  361SOL     OW 1981   6.776   6.269   3.335
  361SOL    HW1 1982   6.807   6.175   3.326
  361SOL    HW2 1983   6.775   6.314   3.246
  362SOL     OW 1984   3.321   2.568   1.680
  362SOL    HW1 1985   3.372   2.485   1.703
  362SOL    HW2 1986   3.353   2.643   1.738
  363SOL     OW 1987   5.832   4.295   3.145
  363SOL    HW1 1988   5.812   4.241   3.063
  363SOL    HW2 1989   5.930   4.311   3.151
  364SOL     OW 1990   6.984   5.026   6.361
  364SOL    HW1 1991   6.970   5.088   6.284
  364SOL    HW2 1992   6.915   5.044   6.431
  365SOL     OW 1993   5.428   0.312   1.704
  365SOL    HW1 1994   5.474   0.223   1.709
  365SOL    HW2 1995   5.421   0.351   1.796
  366SOL     OW 1996   5.708   2.059   6.711
  366SOL    HW1 1997   5.775   2.132   6.725
  366SOL    HW2 1998   5.663   2.038   6.798
  367SOL     OW 1999   6.060   2.825   0.845
  367SOL    HW1 2000   6.159   2.838   0.850
  367SOL    HW2 2001   6.039   2.753   0.779
  368SOL     OW 2002   0.749   2.640   5.026
  368SOL    HW1 2003   0.821   2.687   4.975
  368SOL    HW2 2004   0.785   2.554   5.062
  369SOL     OW 2005   5.809   5.389   2.195
  369SOL    HW1 2006   5.749   5.317   2.231
  369SOL    HW2 2007   5.822   5.459   2.265
  370SOL     OW 2008   1.255   1.610   4.424
  370SOL    HW1 2009   1.163   1.576   4.445
  370SOL    HW2 2010   1.260   1.707   4.450
  371SOL     OW 2011   1.908   4.517   6.603
  371SOL    HW1 2012   1.971   4.576   6.654
  371SOL    HW2 2013   1.948   4.494   6.514
  372SOL     OW 2014   2.009   6.790   5.886
  372SOL    HW1 2015   2.011   6.823   5.980
  372SOL    HW2 2016   1.979   6.694   5.884
  373SOL     OW 2017   5.644   5.972   4.962
  373SOL    HW1 2018   5.668   5.961   5.059
  373SOL    HW2 2019   5.636   5.882   4.920
  374SOL     OW 2020   2.611   2.268   3.673
  374SOL    HW1 2021   2.577   2.231   3.760
  374SOL    HW2 2022   2.705   2.239   3.659
  375SOL     OW 2023   0.720   4.463   4.038
  375SOL    HW1 2024   0.786   4.514   3.983
  375SOL    HW2 2025   0.627   4.490   4.013
  376SOL     OW 2026   1.005   1.275   5.188
  376SOL    HW1 2027   1.016   1.250   5.092
  376SOL    HW2 2028   1.071   1.346   5.212
  377SOL     OW 2029   1.289   1.650   0.492
  377SOL    HW1 2030   1.326   1.558   0.507
  377SOL    HW2 2031   1.342   1.696   0.420
  378SOL     OW 2032   4.476   2.001   0.486
  378SOL    HW1 2033   4.492   2.098   0.466
  378SOL    HW2 2034   4.547   1.946   0.442
  379SOL     OW 2035   5.934   2.208   0.872
  379SOL    HW1 2036   5.887   2.121   0.862
  379SOL    HW2 2037   5.870   2.283   0.859
  380SOL     OW 2038   3.313   1.282   0.829
  380SOL    HW1 2039   3.327   1.343   0.907
  380SOL    HW2 2040   3.225   1.234   0.841
  381SOL     OW 2041   1.614   3.953   3.639
  381SOL    HW1 2042   1.598   3.965   3.737
  381SOL    HW2 2043   1.709   3.924   3.624
  382SOL     OW 2044   5.930   0.774   0.411
  382SOL    HW1 2045   6.009   0.718   0.437
  382SOL    HW2 2046   5.931   0.790   0.313
  383SOL     OW 2047   3.424   3.304   6.590
  383SOL    HW1 2048   3.378   3.228   6.637
  383SOL    HW2 2049   3.509   3.271   6.550
  384SOL     OW 2050   6.353   5.442   4.580
  384SOL    HW1 2051   6.255   5.463   4.587
  384SOL    HW2 2052   6.400   5.518   4.536
  385SOL     OW 2053   3.154   4.726   5.239
  385SOL    HW1 2054   3.224   4.666   5.279
  385SOL    HW2 2055   3.081   4.671   5.200
  386SOL     OW 2056   3.076   6.220   4.091
  386SOL    HW1 2057   3.121   6.196   4.177
  386SOL    HW2 2058   3.088   6.317   4.074
  387SOL     OW 2059   1.104   6.286   2.933
  387SOL    HW1 2060   1.090   6.218   3.004
  387SOL    HW2 2061   1.071   6.251   2.845
  388SOL     OW 2062   1.271   2.192   5.781
  388SOL    HW1 2063   1.241   2.217   5.873
  388SOL    HW2 2064   1.203   2.224   5.714
  389SOL     OW 2065   3.858   3.977   1.934
  389SOL    HW1 2066   3.893   4.008   1.846
  389SOL    HW2 2067   3.788   4.040   1.966
  390SOL     OW 2068   2.675   1.694   2.242
  390SOL    HW1 2069   2.724   1.779   2.255
  390SOL    HW2 2070   2.683   1.637   2.323
  391SOL     OW 2071   2.415   1.847   6.447
  391SOL    HW1 2072   2.470   1.917   6.401
  391SOL    HW2 2073   2.386   1.881   6.536
  392SOL     OW 2074   1.538   4.840   0.714
  392SOL    HW1 2075   1.476   4.862   0.638
  392SOL    HW2 2076   1.586   4.755   0.693
  393SOL     OW 2077   1.573   4.353   6.426
  393SOL    HW1 2078   1.605   4.419   6.494
  393SOL    HW2 2079   1.533   4.274   6.473
  394SOL     OW 2080   6.987   1.620   0.063
  394SOL    HW1 2081   6.923   1.554   0.023
  394SOL    HW2 2082   6.949   1.657   0.147
  395SOL     OW 2083   4.915   3.706   2.744
  395SOL    HW1 2084   4.938   3.696   2.647
  395SOL    HW2 2085   4.886   3.800   2.762
  396SOL     OW 2086   3.688   4.195   1.432
  396SOL    HW1 2087   3.723   4.260   1.500
  396SOL    HW2 2088   3.757   4.125   1.414
  397SOL     OW 2089   4.966   1.821   6.039
  397SOL    HW1 2090   4.972   1.914   6.005
  397SOL    HW2 2091   4.871   1.796   6.054
  398SOL     OW 2092   0.416   6.266   2.449
  398SOL    HW1 2093   0.366   6.333   2.393
  398SOL    HW2 2094   0.354   6.193   2.476
  399SOL     OW 2095   6.105   6.281   2.167
  399SOL    HW1 2096   6.008   6.258   2.156
  399SOL    HW2 2097   6.114   6.378   2.191
  400SOL     OW 2098   6.445   6.862   5.795
  400SOL    HW1 2099   6.448   6.961   5.779
  400SOL    HW2 2100   6.369   6.822   5.743
  401SOL     OW 2101   4.949   0.633   5.636
  401SOL    HW1 2102   5.033   0.654   5.687
  401SOL    HW2 2103   4.903   0.718   5.611
  402SOL     OW 2104   5.593   6.933   3.013
  402SOL    HW1 2105   5.559   7.016   3.057
  402SOL    HW2 2106   5.521   6.864   3.011
  403SOL     OW 2107   3.934   2.161   4.343
  403SOL    HW1 2108   3.866   2.163   4.416
  403SOL    HW2 2109   3.890   2.180   4.256
  404SOL     OW 2110   1.178   5.320   4.929
  404SOL    HW1 2111   1.184   5.380   5.009
  404SOL    HW2 2112   1.214   5.368   4.849
  405SOL     OW 2113   1.790   3.584   1.837
  405SOL    HW1 2114   1.864   3.517   1.835
  405SOL    HW2 2115   1.737   3.579   1.752
  406SOL     OW 2116   0.963   4.656   4.753
  406SOL    HW1 2117   0.926   4.673   4.661
  406SOL    HW2 2118   0.941   4.732   4.813
  407SOL     OW 2119   1.044   0.627   3.808
  407SOL    HW1 2120   1.027   0.706   3.748
  407SOL    HW2 2121   0.961   0.572   3.814
  408SOL     OW 2122   0.979   2.478   2.639
  408SOL    HW1 2123   1.029   2.511   2.559
  408SOL    HW2 2124   1.044   2.464   2.714
  409SOL     OW 2125   7.011   2.916   1.196
  409SOL    HW1 2126   6.927   2.942   1.242
  409SOL    HW2 2127   0.041   2.998   1.162
  410SOL     OW 2128   1.780   1.603   1.522
  410SOL    HW1 2129   1.713   1.651   1.579
  410SOL    HW2 2130   1.872   1.629   1.550
  411SOL     OW 2131   5.493   0.250   1.279
  411SOL    HW1 2132   5.446   0.339   1.284
  411SOL    HW2 2133   5.487   0.215   1.186
  412SOL     OW 2134   4.428   5.915   3.715
  412SOL    HW1 2135   4.368   5.915   3.795
  412SOL    HW2 2136   4.523   5.929   3.745
  413SOL     OW 2137   5.216   4.152   1.745
  413SOL    HW1 2138   5.122   4.118   1.739
  413SOL    HW2 2139   5.270   4.115   1.670
  414SOL     OW 2140   3.502   5.635   3.787
  414SOL    HW1 2141   3.428   5.594   3.840
  414SOL    HW2 2142   3.544   5.565   3.730
  415SOL     OW 2143   0.840   5.974   6.837
  415SOL    HW1 2144   0.750   6.005   6.807
  415SOL    HW2 2145   0.841   5.966   6.937
  416SOL     OW 2146   5.172   6.118   4.134
  416SOL    HW1 2147   5.219   6.176   4.201
  416SOL    HW2 2148   5.073   6.131   4.143
  417SOL     OW 2149   3.103   5.475   0.018
  417SOL    HW1 2150   3.151   5.431   0.094
  417SOL    HW2 2151   3.012   5.436   0.009
  418SOL     OW 2152   3.983   6.475   0.656
  418SOL    HW1 2153   3.922   6.398   0.671
  418SOL    HW2 2154   4.069   6.443   0.617
  419SOL     OW 2155   1.841   0.411   2.117
  419SOL    HW1 2156   1.847   0.327   2.063
  419SOL    HW2 2157   1.833   0.489   2.055
  420SOL     OW 2158   4.880   1.108   6.707
  420SOL    HW1 2159   4.951   1.039   6.699
  420SOL    HW2 2160   4.903   1.186   6.648
  421SOL     OW 2161   6.762   4.075   5.893
  421SOL    HW1 2162   6.733   3.985   5.926
  421SOL    HW2 2163   6.837   4.065   5.829
  422SOL     OW 2164   5.872   3.352   1.246
  422SOL    HW1 2165   5.811   3.288   1.293
  422SOL    HW2 2166   5.950   3.301   1.207
  423SOL     OW 2167   1.053   2.082   6.652
  423SOL    HW1 2168   1.064   2.020   6.575
  423SOL    HW2 2169   0.960   2.117   6.654
  424SOL     OW 2170   1.862   4.593   1.192
  424SOL    HW1 2171   1.952   4.606   1.234
  424SOL    HW2 2172   1.852   4.497   1.164
  425SOL     OW 2173   5.828   1.953   3.409
  425SOL    HW1 2174   5.874   1.898   3.340
  425SOL    HW2 2175   5.757   1.898   3.454
  426SOL     OW 2176   4.125   1.868   4.684
  426SOL    HW1 2177   4.115   1.911   4.595
  426SOL    HW2 2178   4.216   1.889   4.722
  427SOL     OW 2179   4.865   5.897   3.247
  427SOL    HW1 2180   4.785   5.887   3.306
  427SOL    HW2 2181   4.893   5.808   3.213
  428SOL     OW 2182   4.094   0.395   4.680
  428SOL    HW1 2183   4.011   0.352   4.645
  428SOL    HW2 2184   4.106   0.484   4.635
  429SOL     OW 2185   1.377   3.369   1.326
  429SOL    HW1 2186   1.438   3.334   1.397
  429SOL    HW2 2187   1.417   3.452   1.285
  430SOL     OW 2188   0.350   0.577   5.421
  430SOL    HW1 2189   0.263   0.618   5.451
  430SOL    HW2 2190   0.338   0.479   5.410
  431SOL     OW 2191   3.214   0.054   0.667
  431SOL    HW1 2192   3.210   6.971   0.664
  431SOL    HW2 2193   3.131   0.090   0.708
  432SOL     OW 2194   6.538   1.824   0.429
  432SOL    HW1 2195   6.513   1.917   0.401
  432SOL    HW2 2196   6.469   1.789   0.492
  433SOL     OW 2197   2.593   6.537   4.916
  433SOL    HW1 2198   2.584   6.605   4.843
  433SOL    HW2 2199   2.511   6.481   4.919
  434SOL     OW 2200   3.320   5.973   3.089
  434SOL    HW1 2201   3.341   5.941   2.996
  434SOL    HW2 2202   3.226   5.947   3.111
  435SOL     OW 2203   5.122   3.000   6.738
  435SOL    HW1 2204   5.078   3.004   6.828
  435SOL    HW2 2205   5.188   2.925   6.736
  436SOL     OW 2206   2.553   6.107   1.336
  436SOL    HW1 2207   2.500   6.084   1.255
  436SOL    HW2 2208   2.542   6.204   1.357
  437SOL     OW 2209   1.302   1.083   0.521
  437SOL    HW1 2210   1.256   1.142   0.587
  437SOL    HW2 2211   1.385   1.045   0.563
  438SOL     OW 2212   1.606   4.158   3.438
  438SOL    HW1 2213   1.594   4.092   3.512
  438SOL    HW2 2214   1.556   4.126   3.357
  439SOL     OW 2215   5.715   5.178   2.494
  439SOL    HW1 2216   5.681   5.168   2.401
  439SOL    HW2 2217   5.650   5.136   2.558
  440SOL     OW 2218   1.725   1.240   4.918
  440SOL    HW1 2219   1.728   1.271   4.823
  440SOL    HW2 2220   1.798   1.285   4.970
  441SOL     OW 2221   0.963   2.569   4.143
  441SOL    HW1 2222   1.063   2.566   4.146
  441SOL    HW2 2223   0.933   2.628   4.068
  442SOL     OW 2224   3.677   5.337   5.941
  442SOL    HW1 2225   3.731   5.382   5.870
  442SOL    HW2 2226   3.580   5.344   5.919
  443SOL     OW 2227   6.020   4.256   4.490
  443SOL    HW1 2228   6.014   4.180   4.555
  443SOL    HW2 2229   5.991   4.341   4.534
  444SOL     OW 2230   4.828   1.188   5.774
  444SOL    HW1 2231   4.922   1.155   5.766
  444SOL    HW2 2232   4.828   1.276   5.822
  445SOL     OW 2233   0.580   5.827   2.983
  445SOL    HW1 2234   0.517   5.860   3.052
  445SOL    HW2 2235   0.662   5.791   3.027
  446SOL     OW 2236   3.345   5.477   3.935
  446SOL    HW1 2237   3.285   5.550   3.968
  446SOL    HW2 2238   3.302   5.389   3.953
  447SOL     OW 2239   0.473   2.759   5.925
  447SOL    HW1 2240   0.472   2.692   5.999
  447SOL    HW2 2241   0.456   2.850   5.962
  448SOL     OW 2242   1.921   0.492   3.286
  448SOL    HW1 2243   1.924   0.591   3.273
  448SOL    HW2 2244   1.984   0.448   3.223
  449SOL     OW 2245   4.043   1.341   3.810
  449SOL    HW1 2246   4.021   1.412   3.743
  449SOL    HW2 2247   4.141   1.323   3.808
  450SOL     OW 2248   1.444   5.660   3.095
  450SOL    HW1 2249   1.470   5.565   3.112
  450SOL    HW2 2250   1.346   5.664   3.076
  451SOL     OW 2251   1.190   2.391   3.513
  451SOL    HW1 2252   1.172   2.362   3.419
  451SOL    HW2 2253   1.251   2.470   3.511
  452SOL     OW 2254   5.798   6.527   1.004
  452SOL    HW1 2255   5.824   6.614   1.046
  452SOL    HW2 2256   5.732   6.544   0.932
  453SOL     OW 2257   3.747   1.058   5.751
  453SOL    HW1 2258   3.688   1.081   5.672
  453SOL    HW2 2259   3.767   0.960   5.750
  454SOL     OW 2260   6.640   4.569   6.068
  454SOL    HW1 2261   6.691   4.631   6.008
  454SOL    HW2 2262   6.654   4.475   6.037
  455SOL     OW 2263   6.149   2.200   3.595
  455SOL    HW1 2264   6.188   2.157   3.514
  455SOL    HW2 2265   6.123   2.131   3.661
  456SOL     OW 2266   6.501   6.635   3.861
  456SOL    HW1 2267   6.538   6.549   3.897
  456SOL    HW2 2268   6.411   6.618   3.821
  457SOL     OW 2269   1.628   2.047   3.793
  457SOL    HW1 2270   1.566   1.983   3.837
  457SOL    HW2 2271   1.638   2.023   3.696
  458SOL     OW 2272   3.854   5.882   3.207
  458SOL    HW1 2273   3.758   5.908   3.209
  458SOL    HW2 2274   3.874   5.820   3.282
  459SOL     OW 2275   1.724   6.181   5.301
  459SOL    HW1 2276   1.752   6.276   5.313
  459SOL    HW2 2277   1.800   6.121   5.324
  460SOL     OW 2278   1.937   6.653   3.995
  460SOL    HW1 2279   1.897   6.715   3.928
  460SOL    HW2 2280   1.931   6.559   3.962
  461SOL     OW 2281   6.446   6.501   6.576
  461SOL    HW1 2282   6.506   6.434   6.534
  461SOL    HW2 2283   6.491   6.590   6.580
  462SOL     OW 2284   3.799   3.357   6.563
  462SOL    HW1 2285   3.760   3.446   6.587
  462SOL    HW2 2286   3.898   3.365   6.557
  463SOL     OW 2287   5.530   5.979   3.526
  463SOL    HW1 2288   5.463   5.926   3.473
  463SOL    HW2 2289   5.484   6.057   3.568
  464SOL     OW 2290   2.824   1.539   5.121
  464SOL    HW1 2291   2.743   1.545   5.064
  464SOL    HW2 2292   2.800   1.501   5.210
  465SOL     OW 2293   0.835   3.242   6.660
  465SOL    HW1 2294   0.834   3.273   6.565
  465SOL    HW2 2295   0.920   3.191   6.677
  466SOL     OW 2296   0.815   6.773   3.048
  466SOL    HW1 2297   0.868   6.722   2.980
  466SOL    HW2 2298   0.724   6.732   3.056
  467SOL     OW 2299   1.938   1.268   1.041
  467SOL    HW1 2300   2.028   1.313   1.041
  467SOL    HW2 2301   1.907   1.256   1.135
  468SOL     OW 2302   3.672   0.335   6.491
  468SOL    HW1 2303   3.602   0.405   6.503
  468SOL    HW2 2304   3.669   0.301   6.397
  469SOL     OW 2305   2.899   2.951   6.584
  469SOL    HW1 2306   2.990   2.954   6.543
  469SOL    HW2 2307   2.832   2.982   6.517
  470SOL     OW 2308   4.558   6.630   1.566
  470SOL    HW1 2309   4.618   6.603   1.491
  470SOL    HW2 2310   4.550   6.730   1.568
  471SOL     OW 2311   2.589   2.480   4.036
  471SOL    HW1 2312   2.585   2.493   3.937
  471SOL    HW2 2313   2.505   2.515   4.078
  472SOL     OW 2314   4.408   3.408   6.522
  472SOL    HW1 2315   4.331   3.394   6.584
  472SOL    HW2 2316   4.377   3.396   6.428
  473SOL     OW 2317   1.187   2.911   2.838
  473SOL    HW1 2318   1.096   2.884   2.869
  473SOL    HW2 2319   1.223   2.840   2.776
  474SOL     OW 2320   5.150   4.990   4.301
  474SOL    HW1 2321   5.115   5.084   4.301
  474SOL    HW2 2322   5.241   4.989   4.341
  475SOL     OW 2323   5.353   1.256   6.108
  475SOL    HW1 2324   5.321   1.233   6.200
  475SOL    HW2 2325   5.435   1.203   6.087
  476SOL     OW 2326   0.528   3.348   3.395
  476SOL    HW1 2327   0.627   3.365   3.400
  476SOL    HW2 2328   0.498   3.302   3.479
  477SOL     OW 2329   2.239   6.056   3.858
  477SOL    HW1 2330   2.251   5.995   3.936
  477SOL    HW2 2331   2.275   6.147   3.881
  478SOL     OW 2332   3.453   5.998   1.945
  478SOL    HW1 2333   3.434   5.963   1.853
  478SOL    HW2 2334   3.408   6.086   1.957
  479SOL     OW 2335   4.213   1.554   5.897
  479SOL    HW1 2336   4.273   1.572   5.975
  479SOL    HW2 2337   4.246   1.606   5.818
  480SOL     OW 2338   2.894   0.655   6.795
  480SOL    HW1 2339   2.810   0.688   6.837
  480SOL    HW2 2340   2.879   0.640   6.697
  481SOL     OW 2341   2.339   6.739   1.120
  481SOL    HW1 2342   2.331   6.680   1.039
  481SOL    HW2 2343   2.306   6.831   1.097
  482SOL     OW 2344   4.080   4.841   2.276
  482SOL    HW1 2345   3.993   4.875   2.241
  482SOL    HW2 2346   4.074   4.830   2.375
  483SOL     OW 2347   6.392   2.088   2.418
  483SOL    HW1 2348   6.353   2.050   2.501
  483SOL    HW2 2349   6.459   2.025   2.380
  484SOL     OW 2350   1.920   3.585   4.841
  484SOL    HW1 2351   1.995   3.650   4.835
  484SOL    HW2 2352   1.833   3.635   4.846
  485SOL     OW 2353   4.067   5.443   3.046
  485SOL    HW1 2354   4.045   5.401   2.958
  485SOL    HW2 2355   4.079   5.542   3.034
  486SOL     OW 2356   7.008   1.142   6.983
  486SOL    HW1 2357   0.046   1.183   0.040
  486SOL    HW2 2358   6.978   1.051   7.010
  487SOL     OW 2359   0.535   0.530   2.884
  487SOL    HW1 2360   0.568   0.486   2.967
  487SOL    HW2 2361   0.484   0.613   2.908
  488SOL     OW 2362   0.774   1.320   1.837
  488SOL    HW1 2363   0.703   1.386   1.817
  488SOL    HW2 2364   0.853   1.366   1.877
  489SOL     OW 2365   4.047   6.343   6.114
  489SOL    HW1 2366   3.963   6.398   6.115
  489SOL    HW2 2367   4.035   6.266   6.051
  490SOL     OW 2368   0.348   6.127   2.990
  490SOL    HW1 2369   0.329   6.223   3.011
  490SOL    HW2 2370   0.375   6.119   2.894
  491SOL     OW 2371   1.144   3.326   2.464
  491SOL    HW1 2372   1.188   3.376   2.389
  491SOL    HW2 2373   1.066   3.378   2.497
  492SOL     OW 2374   1.394   0.427   4.800
  492SOL    HW1 2375   1.294   0.429   4.800
  492SOL    HW2 2376   1.427   0.428   4.894
  493SOL     OW 2377   4.982   6.175   5.673
  493SOL    HW1 2378   4.978   6.085   5.629
  493SOL    HW2 2379   4.900   6.189   5.728
  494SOL     OW 2380   0.535   6.863   0.182
  494SOL    HW1 2381   0.500   6.833   0.093
  494SOL    HW2 2382   0.630   6.891   0.172
  495SOL     OW 2383   4.768   5.831   4.121
  495SOL    HW1 2384   4.754   5.732   4.123
  495SOL    HW2 2385   4.866   5.851   4.121
  496SOL     OW 2386   4.950   3.081   1.803
  496SOL    HW1 2387   5.011   3.003   1.795
  496SOL    HW2 2388   4.869   3.055   1.856
  497SOL     OW 2389   2.930   1.566   4.345
  497SOL    HW1 2390   2.866   1.643   4.346
  497SOL    HW2 2391   3.006   1.585   4.408
  498SOL     OW 2392   1.005   4.298   1.676
  498SOL    HW1 2393   0.921   4.320   1.725
  498SOL    HW2 2394   1.078   4.279   1.742
  499SOL     OW 2395   1.818   6.148   4.450
  499SOL    HW1 2396   1.808   6.065   4.505
  499SOL    HW2 2397   1.741   6.156   4.387
  500SOL     OW 2398   0.470   2.743   5.458
  500SOL    HW1 2399   0.533   2.759   5.534
  500SOL    HW2 2400   0.516   2.765   5.372
  501SOL     OW 2401   3.082   6.090   0.945
  501SOL    HW1 2402   3.034   6.123   0.863
  501SOL    HW2 2403   3.036   6.008   0.979
  502SOL     OW 2404   1.020   3.925   6.723
  502SOL    HW1 2405   0.998   3.845   6.779
  502SOL    HW2 2406   0.962   3.927   6.642
  503SOL     OW 2407   0.448   5.411   6.788
  503SOL    HW1 2408   0.526   5.460   6.828
  503SOL    HW2 2409   0.482   5.339   6.728
  504SOL     OW 2410   1.398   4.988   2.933
  504SOL    HW1 2411   1.358   5.079   2.933
  504SOL    HW2 2412   1.494   4.994   2.907
  505SOL     OW 2413   2.965   6.061   5.240
  505SOL    HW1 2414   2.916   6.013   5.167
  505SOL    HW2 2415   2.948   6.015   5.327
  506SOL     OW 2416   2.898   4.961   4.080
  506SOL    HW1 2417   2.857   4.870   4.069
  506SOL    HW2 2418   2.970   4.957   4.150
  507SOL     OW 2419   3.421   6.895   3.368
  507SOL    HW1 2420   3.398   6.823   3.303
  507SOL    HW2 2421   3.362   6.887   3.448
  508SOL     OW 2422   6.700   3.341   2.509
  508SOL    HW1 2423   6.739   3.373   2.423
  508SOL    HW2 2424   6.617   3.289   2.490
  509SOL     OW 2425   3.087   1.166   0.889
  509SOL    HW1 2426   3.109   1.087   0.946
  509SOL    HW2 2427   2.988   1.176   0.883
  510SOL     OW 2428   6.439   4.529   6.512
  510SOL    HW1 2429   6.348   4.551   6.475
  510SOL    HW2 2430   6.464   4.597   6.580
  511SOL     OW 2431   1.013   2.187   6.066
  511SOL    HW1 2432   0.944   2.122   6.036
  511SOL    HW2 2433   1.074   2.144   6.132
  512SOL     OW 2434   6.536   2.897   6.985
  512SOL    HW1 2435   6.604   2.890   6.912
  512SOL    HW2 2436   6.508   2.805   7.013
  513SOL     OW 2437   5.744   6.885   3.224
  513SOL    HW1 2438   5.833   6.866   3.185
  513SOL    HW2 2439   5.675   6.888   3.151
  514SOL     OW 2440   6.175   1.659   4.360
  514SOL    HW1 2441   6.252   1.671   4.424
  514SOL    HW2 2442   6.186   1.573   4.311
  515SOL     OW 2443   0.685   0.331   6.490
  515SOL    HW1 2444   0.602   0.384   6.507
  515SOL    HW2 2445   0.759   0.364   6.548
  516SOL     OW 2446   2.817   4.790   2.240
  516SOL    HW1 2447   2.765   4.873   2.221
  516SOL    HW2 2448   2.832   4.740   2.155
  517SOL     OW 2449   4.464   5.652   1.352
  517SOL    HW1 2450   4.458   5.648   1.252
  517SOL    HW2 2451   4.558   5.672   1.379
  518SOL     OW 2452   3.131   2.151   3.581
  518SOL    HW1 2453   3.196   2.122   3.652
  518SOL    HW2 2454   3.167   2.127   3.491
  519SOL     OW 2455   0.282   6.572   4.617
  519SOL    HW1 2456   0.367   6.578   4.669
  519SOL    HW2 2457   0.236   6.661   4.618
  520SOL     OW 2458   5.974   3.704   6.980
  520SOL    HW1 2459   6.002   3.674   0.054
  520SOL    HW2 2460   5.942   3.799   6.984
  521SOL     OW 2461   6.416   5.305   5.172
  521SOL    HW1 2462   6.324   5.326   5.139
  521SOL    HW2 2463   6.483   5.362   5.123
  522SOL     OW 2464   3.298   3.339   4.762
  522SOL    HW1 2465   3.371   3.355   4.696
  522SOL    HW2 2466   3.220   3.399   4.741
  523SOL     OW 2467   0.653   6.022   1.713
  523SOL    HW1 2468   0.616   6.049   1.625
  523SOL    HW2 2469   0.582   5.976   1.766
  524SOL     OW 2470   0.469   2.117   2.496
  524SOL    HW1 2471   0.502   2.129   2.590
  524SOL    HW2 2472   0.461   2.207   2.452
  525SOL     OW 2473   1.743   3.461   5.702
  525SOL    HW1 2474   1.698   3.466   5.612
  525SOL    HW2 2475   1.778   3.551   5.727
  526SOL     OW 2476   4.085   6.265   3.863
  526SOL    HW1 2477   4.087   6.327   3.941
  526SOL    HW2 2478   4.170   6.272   3.812
  527SOL     OW 2479   5.850   2.622   0.341
  527SOL    HW1 2480   5.912   2.639   0.265
  527SOL    HW2 2481   5.870   2.686   0.415
  528SOL     OW 2482   0.611   2.733   3.613
  528SOL    HW1 2483   0.691   2.676   3.628
  528SOL    HW2 2484   0.563   2.748   3.699
  529SOL     OW 2485   1.207   6.740   5.192
  529SOL    HW1 2486   1.140   6.787   5.250
  529SOL    HW2 2487   1.213   6.787   5.104
  530SOL     OW 2488   3.590   3.256   4.330
  530SOL    HW1 2489   3.648   3.236   4.409
  530SOL    HW2 2490   3.496   3.229   4.350
  531SOL     OW 2491   0.447   1.810   3.198
  531SOL    HW1 2492   0.537   1.816   3.242
  531SOL    HW2 2493   0.416   1.901   3.173
  532SOL     OW 2494   0.663   3.017   6.665
  532SOL    HW1 2495   0.722   3.098   6.676
  532SOL    HW2 2496   0.694   2.946   6.728
  533SOL     OW 2497   4.103   6.476   4.045
  533SOL    HW1 2498   4.012   6.514   4.062
  533SOL    HW2 2499   4.167   6.550   4.023
  534SOL     OW 2500   5.371   6.497   2.124
  534SOL    HW1 2501   5.426   6.557   2.182
  534SOL    HW2 2502   5.282   6.481   2.167
  535SOL     OW 2503   0.320   3.313   5.103
  535SOL    HW1 2504   0.300   3.315   5.200
  535SOL    HW2 2505   0.251   3.256   5.056
  536SOL     OW 2506   6.309   5.301   1.926
  536SOL    HW1 2507   6.218   5.292   1.968
  536SOL    HW2 2508   6.379   5.298   1.998
  537SOL     OW 2509   2.582   6.789   4.416
  537SOL    HW1 2510   2.583   6.882   4.452
  537SOL    HW2 2511   2.672   6.765   4.381
  538SOL     OW 2512   0.932   4.808   3.240
  538SOL    HW1 2513   0.967   4.883   3.296
  538SOL    HW2 2514   0.920   4.726   3.297
  539SOL     OW 2515   1.667   5.583   1.237
  539SOL    HW1 2516   1.739   5.547   1.178
  539SOL    HW2 2517   1.621   5.507   1.284
  540SOL     OW 2518   1.282   0.770   3.106
  540SOL    HW1 2519   1.357   0.802   3.049
  540SOL    HW2 2520   1.285   0.671   3.114
  541SOL     OW 2521   5.059   5.814   4.121
  541SOL    HW1 2522   5.119   5.893   4.137
  541SOL    HW2 2523   5.083   5.741   4.185
  542SOL     OW 2524   5.995   6.082   6.519
  542SOL    HW1 2525   6.048   6.161   6.488
  542SOL    HW2 2526   5.898   6.104   6.518
  543SOL     OW 2527   1.209   3.447   5.029
  543SOL    HW1 2528   1.305   3.428   5.054
  543SOL    HW2 2529   1.169   3.365   4.989
  544SOL     OW 2530   2.187   4.197   0.138
  544SOL    HW1 2531   2.159   4.104   0.115
  544SOL    HW2 2532   2.173   4.257   0.059
  545SOL     OW 2533   2.821   1.428   1.658
  545SOL    HW1 2534   2.808   1.437   1.559
  545SOL    HW2 2535   2.858   1.337   1.678
  546SOL     OW 2536   2.269   2.747   0.754
  546SOL    HW1 2537   2.337   2.690   0.801
  546SOL    HW2 2538   2.179   2.704   0.761
  547SOL     OW 2539   3.294   0.687   0.209
  547SOL    HW1 2540   3.269   0.778   0.177
  547SOL    HW2 2541   3.383   0.690   0.255
  548SOL     OW 2542   3.541   3.907   2.370
  548SOL    HW1 2543   3.482   3.943   2.442
  548SOL    HW2 2544   3.556   3.810   2.385
  549SOL     OW 2545   5.073   2.945   1.352
  549SOL    HW1 2546   5.018   2.869   1.388
  549SOL    HW2 2547   5.064   3.024   1.413
  550SOL     OW 2548   0.160   5.620   3.889
  550SOL    HW1 2549   0.076   5.616   3.836
  550SOL    HW2 2550   0.145   5.673   3.973
  551SOL     OW 2551   0.642   0.296   2.764
  551SOL    HW1 2552   0.735   0.326   2.744
  551SOL    HW2 2553   0.609   0.342   2.847
  552SOL     OW 2554   5.436   4.615   0.204
  552SOL    HW1 2555   5.359   4.658   0.251
  552SOL    HW2 2556   5.413   4.520   0.183
  553SOL     OW 2557   2.615   6.563   2.453
  553SOL    HW1 2558   2.632   6.574   2.551
  553SOL    HW2 2559   2.571   6.645   2.417
  554SOL     OW 2560   5.304   0.128   6.649
  554SOL    HW1 2561   5.233   0.058   6.654
  554SOL    HW2 2562   5.315   0.157   6.554
  555SOL     OW 2563   1.961   5.476   3.685
  555SOL    HW1 2564   1.866   5.507   3.689
  555SOL    HW2 2565   2.021   5.554   3.670
  556SOL     OW 2566   4.487   2.433   3.276
  556SOL    HW1 2567   4.418   2.426   3.347
  556SOL    HW2 2568   4.446   2.408   3.188
  557SOL     OW 2569   0.449   4.914   0.508
  557SOL    HW1 2570   0.505   4.997   0.518
  557SOL    HW2 2571   0.354   4.940   0.491
  558SOL     OW 2572   2.981   3.404   4.420
  558SOL    HW1 2573   3.000   3.382   4.324
  558SOL    HW2 2574   2.967   3.320   4.472
  559SOL     OW 2575   6.750   5.998   0.088
  559SOL    HW1 2576   6.783   6.083   0.047
  559SOL    HW2 2577   6.811   5.923   0.061
  560SOL     OW 2578   4.716   4.854   6.788
  560SOL    HW1 2579   4.813   4.874   6.775
  560SOL    HW2 2580   4.677   4.821   6.702
  561SOL     OW 2581   0.383   1.344   1.011
  561SOL    HW1 2582   0.364   1.382   1.102
  561SOL    HW2 2583   0.444   1.405   0.961
  562SOL     OW 2584   5.271   0.447   6.056
  562SOL    HW1 2585   5.222   0.534   6.061
  562SOL    HW2 2586   5.205   0.372   6.048
  563SOL     OW 2587   2.207   1.000   3.782
  563SOL    HW1 2588   2.253   0.915   3.809
  563SOL    HW2 2589   2.139   0.980   3.711
  564SOL     OW 2590   1.352   2.004   0.125
  564SOL    HW1 2591   1.387   2.092   0.095
  564SOL    HW2 2592   1.256   1.995   0.098
  565SOL     OW 2593   3.810   2.912   5.163
  565SOL    HW1 2594   3.757   2.933   5.081
  565SOL    HW2 2595   3.783   2.974   5.237
  566SOL     OW 2596   6.844   5.229   3.708
  566SOL    HW1 2597   6.843   5.135   3.743
  566SOL    HW2 2598   6.780   5.284   3.761
  567SOL     OW 2599   3.043   3.031   1.471
  567SOL    HW1 2600   3.041   2.938   1.433
  567SOL    HW2 2601   2.951   3.068   1.473
  568SOL     OW 2602   4.778   1.552   0.067
  568SOL    HW1 2603   4.859   1.519   0.115
  568SOL    HW2 2604   4.700   1.494   0.090
  569SOL     OW 2605   1.709   2.965   6.594
  569SOL    HW1 2606   1.736   2.883   6.543
  569SOL    HW2 2607   1.683   2.940   6.687
  570SOL     OW 2608   2.961   6.513   6.821
  570SOL    HW1 2609   2.921   6.546   6.735
  570SOL    HW2 2610   3.029   6.579   6.853
  571SOL     OW 2611   3.119   0.361   1.979
  571SOL    HW1 2612   3.135   0.325   2.071
  571SOL    HW2 2613   3.031   0.409   1.977
  572SOL     OW 2614   3.023   4.730   5.733
  572SOL    HW1 2615   2.979   4.800   5.788
  572SOL    HW2 2616   2.978   4.724   5.644
  573SOL     OW 2617   5.298   2.025   5.758
  573SOL    HW1 2618   5.263   1.934   5.734
  573SOL    HW2 2619   5.395   2.030   5.734
  574SOL     OW 2620   3.207   1.855   4.216
  574SOL    HW1 2621   3.181   1.794   4.290
  574SOL    HW2 2622   3.252   1.802   4.144
  575SOL     OW 2623   5.200   3.719   0.616
  575SOL    HW1 2624   5.269   3.688   0.550
  575SOL    HW2 2625   5.119   3.751   0.567
  576SOL     OW 2626   1.014   2.349   2.965
  576SOL    HW1 2627   1.095   2.294   2.943
  576SOL    HW2 2628   0.942   2.289   3.000
  577SOL     OW 2629   1.045   1.190   2.192
  577SOL    HW1 2630   1.052   1.164   2.096
  577SOL    HW2 2631   1.133   1.227   2.223
  578SOL     OW 2632   5.802   5.449   3.450
  578SOL    HW1 2633   5.805   5.355   3.482
  578SOL    HW2 2634   5.712   5.468   3.410
  579SOL     OW 2635   1.827   2.869   2.527
  579SOL    HW1 2636   1.916   2.869   2.573
  579SOL    HW2 2637   1.770   2.796   2.564
  580SOL     OW 2638   6.686   5.079   0.022
  580SOL    HW1 2639   6.733   5.025   0.092
  580SOL    HW2 2640   6.712   5.175   0.032
  581SOL     OW 2641   2.941   3.221   2.092
  581SOL    HW1 2642   2.994   3.241   2.010
  581SOL    HW2 2643   2.935   3.122   2.106
  582SOL     OW 2644   4.724   6.943   2.023
  582SOL    HW1 2645   4.813   6.974   2.057
  582SOL    HW2 2646   4.695   6.862   2.073
  583SOL     OW 2647   3.210   5.220   5.721
  583SOL    HW1 2648   3.130   5.161   5.707
  583SOL    HW2 2649   3.281   5.197   5.655
  584SOL     OW 2650   3.130   4.005   6.184
  584SOL    HW1 2651   3.177   3.918   6.191
  584SOL    HW2 2652   3.197   4.079   6.180
  585SOL     OW 2653   5.319   3.138   6.150
  585SOL    HW1 2654   5.251   3.210   6.133
  585SOL    HW2 2655   5.325   3.121   6.249
  586SOL     OW 2656   3.748   1.785   5.864
  586SOL    HW1 2657   3.693   1.867   5.881
  586SOL    HW2 2658   3.741   1.723   5.943
  587SOL     OW 2659   3.945   1.256   5.790
  587SOL    HW1 2660   4.021   1.194   5.809
  587SOL    HW2 2661   3.872   1.207   5.743
  588SOL     OW 2662   2.316   4.922   1.347
  588SOL    HW1 2663   2.314   4.843   1.409
  588SOL    HW2 2664   2.266   4.901   1.264
  589SOL     OW 2665   3.035   4.990   1.677
  589SOL    HW1 2666   3.019   5.084   1.707
  589SOL    HW2 2667   3.000   4.978   1.584
  590SOL     OW 2668   4.930   3.383   2.943
  590SOL    HW1 2669   4.921   3.291   2.980
  590SOL    HW2 2670   4.907   3.383   2.846
  591SOL     OW 2671   3.841   5.665   4.303
  591SOL    HW1 2672   3.847   5.753   4.257
  591SOL    HW2 2673   3.779   5.605   4.252
  592SOL     OW 2674   3.185   0.798   1.342
  592SOL    HW1 2675   3.228   0.868   1.400
  592SOL    HW2 2676   3.233   0.793   1.254
  593SOL     OW 2677   4.521   2.418   2.975
  593SOL    HW1 2678   4.595   2.353   2.995
  593SOL    HW2 2679   4.559   2.511   2.973
  594SOL     OW 2680   5.452   2.271   6.586
  594SOL    HW1 2681   5.491   2.253   6.496
  594SOL    HW2 2682   5.520   2.249   6.656
  595SOL     OW 2683   5.788   6.719   3.786
  595SOL    HW1 2684   5.755   6.663   3.710
  595SOL    HW2 2685   5.753   6.682   3.872
  596SOL     OW 2686   2.213   4.324   3.122
  596SOL    HW1 2687   2.189   4.239   3.168
  596SOL    HW2 2688   2.283   4.372   3.175
  597SOL     OW 2689   3.499   6.768   6.788
  597SOL    HW1 2690   3.509   6.669   6.792
  597SOL    HW2 2691   3.482   6.803   6.880
  598SOL     OW 2692   3.594   4.412   5.673
  598SOL    HW1 2693   3.631   4.391   5.583
  598SOL    HW2 2694   3.496   4.430   5.666
  599SOL     OW 2695   2.192   6.493   2.379
  599SOL    HW1 2696   2.140   6.427   2.326
  599SOL    HW2 2697   2.220   6.452   2.466
  600SOL     OW 2698   0.992   1.156   0.295
  600SOL    HW1 2699   0.998   1.232   0.360
  600SOL    HW2 2700   0.998   1.069   0.344
  601SOL     OW 2701   2.875   6.975   4.470
  601SOL    HW1 2702   2.939   6.902   4.447
  601SOL    HW2 2703   2.904   0.043   4.424
  602SOL     OW 2704   2.398   2.579   6.316
  602SOL    HW1 2705   2.343   2.568   6.233
  602SOL    HW2 2706   2.448   2.665   6.312
  603SOL     OW 2707   3.575   1.673   3.860
  603SOL    HW1 2708   3.562   1.682   3.762
  603SOL    HW2 2709   3.656   1.618   3.879
  604SOL     OW 2710   0.625   3.732   1.592
  604SOL    HW1 2711   0.673   3.652   1.557
  604SOL    HW2 2712   0.573   3.706   1.674
  605SOL     OW 2713   6.721   6.386   2.223
  605SOL    HW1 2714   6.772   6.430   2.297
  605SOL    HW2 2715   6.677   6.303   2.258
  606SOL     OW 2716   5.063   0.716   6.377
  606SOL    HW1 2717   5.119   0.791   6.343
  606SOL    HW2 2718   5.117   0.632   6.378
  607SOL     OW 2719   5.859   0.092   5.545
  607SOL    HW1 2720   5.910   0.178   5.546
  607SOL    HW2 2721   5.782   0.098   5.608
  608SOL     OW 2722   2.603   6.334   6.231
  608SOL    HW1 2723   2.613   6.393   6.312
  608SOL    HW2 2724   2.553   6.251   6.256
  609SOL     OW 2725   4.056   3.304   3.348
  609SOL    HW1 2726   3.968   3.344   3.323
  609SOL    HW2 2727   4.060   3.293   3.448
  610SOL     OW 2728   4.878   3.367   1.827
  610SOL    HW1 2729   4.797   3.397   1.776
  610SOL    HW2 2730   4.880   3.267   1.830
  611SOL     OW 2731   3.499   0.119   0.259
  611SOL    HW1 2732   3.588   0.155   0.285
  611SOL    HW2 2733   3.428   0.187   0.277
  612SOL     OW 2734   3.608   6.320   5.683
  612SOL    HW1 2735   3.575   6.231   5.715
  612SOL    HW2 2736   3.708   6.323   5.691
  613SOL     OW 2737   4.226   6.857   5.878
  613SOL    HW1 2738   4.278   6.801   5.943
  613SOL    HW2 2739   4.136   6.817   5.865
  614SOL     OW 2740   4.497   4.592   1.315
  614SOL    HW1 2741   4.454   4.566   1.402
  614SOL    HW2 2742   4.437   4.565   1.239
  615SOL     OW 2743   0.284   2.433   1.552
  615SOL    HW1 2744   0.214   2.504   1.550
  615SOL    HW2 2745   0.319   2.423   1.646
  616SOL     OW 2746   0.483   2.408   3.831
  616SOL    HW1 2747   0.395   2.383   3.870
  616SOL    HW2 2748   0.500   2.353   3.750
  617SOL     OW 2749   6.280   3.333   6.196
  617SOL    HW1 2750   6.357   3.330   6.260
  617SOL    HW2 2751   6.195   3.342   6.248
  618SOL     OW 2752   6.637   2.577   6.455
  618SOL    HW1 2753   6.669   2.497   6.404
  618SOL    HW2 2754   6.633   2.554   6.553
  619SOL     OW 2755   4.795   0.668   6.327
  619SOL    HW1 2756   4.783   0.575   6.360
  619SOL    HW2 2757   4.892   0.693   6.329
  620SOL     OW 2758   4.947   2.704   1.416
  620SOL    HW1 2759   5.038   2.663   1.410
  620SOL    HW2 2760   4.888   2.666   1.345
  621SOL     OW 2761   2.026   6.477   6.021
  621SOL    HW1 2762   2.117   6.491   5.982
  621SOL    HW2 2763   1.972   6.420   5.959
  622SOL     OW 2764   1.191   1.070   4.293
  622SOL    HW1 2765   1.220   1.070   4.197
  622SOL    HW2 2766   1.188   1.163   4.328
  623SOL     OW 2767   1.426   6.098   5.965
  623SOL    HW1 2768   1.331   6.066   5.970
  623SOL    HW2 2769   1.472   6.054   5.888
  624SOL     OW 2770   0.636   1.832   1.599
  624SOL    HW1 2771   0.672   1.883   1.521
  624SOL    HW2 2772   0.610   1.740   1.570
  625SOL     OW 2773   1.671   2.062   1.536
  625SOL    HW1 2774   1.754   2.037   1.487
  625SOL    HW2 2775   1.681   2.040   1.633
  626SOL     OW 2776   0.809   5.704   3.037
  626SOL    HW1 2777   0.799   5.610   3.004
  626SOL    HW2 2778   0.892   5.711   3.092
  627SOL     OW 2779   6.842   6.466   0.829
  627SOL    HW1 2780   6.931   6.477   0.785
  627SOL    HW2 2781   6.798   6.383   0.795
  628SOL     OW 2782   5.702   5.937   5.682
  628SOL    HW1 2783   5.774   5.958   5.615
  628SOL    HW2 2784   5.727   5.976   5.770
  629SOL     OW 2785   0.695   0.857   6.846
  629SOL    HW1 2786   0.710   0.828   6.752
  629SOL    HW2 2787   0.724   0.952   6.857
  630SOL     OW 2788   0.218   1.562   0.700
  630SOL    HW1 2789   0.246   1.471   0.668
  630SOL    HW2 2790   0.269   1.631   0.650
  631SOL     OW 2791   3.813   1.375   5.418
  631SOL    HW1 2792   3.820   1.431   5.500
  631SOL    HW2 2793   3.875   1.411   5.348
  632SOL     OW 2794   4.317   1.803   1.291
  632SOL    HW1 2795   4.234   1.853   1.267
  632SOL    HW2 2796   4.328   1.802   1.391
  633SOL     OW 2797   3.239   3.521   6.989
  633SOL    HW1 2798   3.303   3.504   0.047
  633SOL    HW2 2799   3.211   3.434   6.947
  634SOL     OW 2800   3.989   3.651   2.546
  634SOL    HW1 2801   4.009   3.555   2.525
  634SOL    HW2 2802   4.019   3.708   2.470
  635SOL     OW 2803   4.551   5.623   0.885
  635SOL    HW1 2804   4.638   5.606   0.840
  635SOL    HW2 2805   4.477   5.621   0.817
  636SOL     OW 2806   3.053   6.544   0.196
  636SOL    HW1 2807   2.965   6.588   0.178
  636SOL    HW2 2808   3.088   6.505   0.111
  637SOL     OW 2809   6.988   3.106   3.268
  637SOL    HW1 2810   6.972   3.103   3.170
  637SOL    HW2 2811   6.914   3.155   3.313
  638SOL     OW 2812   5.875   2.944   3.220
  638SOL    HW1 2813   5.909   3.022   3.167
  638SOL    HW2 2814   5.916   2.859   3.184
  639SOL     OW 2815   4.878   3.373   2.671
  639SOL    HW1 2816   4.914   3.339   2.584
  639SOL    HW2 2817   4.781   3.396   2.660
  640SOL     OW 2818   0.517   5.125   4.092
  640SOL    HW1 2819   0.586   5.070   4.045
  640SOL    HW2 2820   0.563   5.190   4.153
  641SOL     OW 2821   0.565   4.385   5.233
  641SOL    HW1 2822   0.654   4.379   5.187
  641SOL    HW2 2823   0.569   4.332   5.318
  642SOL     OW 2824   0.161   3.319   3.941
  642SOL    HW1 2825   0.253   3.350   3.962
  642SOL    HW2 2826   0.164   3.251   3.868
  643SOL     OW 2827   6.323   6.527   6.071
  643SOL    HW1 2828   6.386   6.560   6.141
  643SOL    HW2 2829   6.270   6.450   6.108
  644SOL     OW 2830   1.515   6.599   4.338
  644SOL    HW1 2831   1.468   6.541   4.271
  644SOL    HW2 2832   1.572   6.666   4.291
  645SOL     OW 2833   4.249   0.046   5.395
  645SOL    HW1 2834   4.291   0.087   5.314
  645SOL    HW2 2835   4.215   0.118   5.455
  646SOL     OW 2836   3.454   0.832   4.535
  646SOL    HW1 2837   3.376   0.838   4.597
  646SOL    HW2 2838   3.539   0.842   4.587
  647SOL     OW 2839   5.480   2.158   5.192
  647SOL    HW1 2840   5.539   2.078   5.208
  647SOL    HW2 2841   5.505   2.200   5.104
  648SOL     OW 2842   0.702   3.597   3.849
  648SOL    HW1 2843   0.621   3.556   3.808
  648SOL    HW2 2844   0.742   3.662   3.785
  649SOL     OW 2845   2.106   4.250   1.605
  649SOL    HW1 2846   2.101   4.255   1.705
  649SOL    HW2 2847   2.037   4.186   1.571
  650SOL     OW 2848   6.020   4.834   0.313
  650SOL    HW1 2849   5.962   4.769   0.263
  650SOL    HW2 2850   6.002   4.828   0.411
  651SOL     OW 2851   1.185   6.608   6.384
  651SOL    HW1 2852   1.130   6.674   6.436
  651SOL    HW2 2853   1.173   6.625   6.287
  652SOL     OW 2854   5.074   6.859   3.695
  652SOL    HW1 2855   4.981   6.857   3.659
  652SOL    HW2 2856   5.105   6.954   3.701
  653SOL     OW 2857   1.382   5.943   6.870
  653SOL    HW1 2858   1.433   6.023   6.842
  653SOL    HW2 2859   1.298   5.936   6.816
  654SOL     OW 2860   0.684   5.785   0.318
  654SOL    HW1 2861   0.768   5.773   0.370
  654SOL    HW2 2862   0.647   5.877   0.335
  655SOL     OW 2863   6.991   5.796   1.103
  655SOL    HW1 2864   0.001   5.892   1.088
  655SOL    HW2 2865   0.054   5.737   1.088
  656SOL     OW 2866   2.040   5.889   0.988
  656SOL    HW1 2867   2.051   5.952   1.065
  656SOL    HW2 2868   2.056   5.795   1.020
  657SOL     OW 2869   2.581   3.550   1.335
  657SOL    HW1 2870   2.540   3.633   1.297
  657SOL    HW2 2871   2.527   3.471   1.307
  658SOL     OW 2872   1.797   3.306   6.303
  658SOL    HW1 2873   1.831   3.365   6.377
  658SOL    HW2 2874   1.718   3.254   6.336
  659SOL     OW 2875   1.492   6.174   5.172
  659SOL    HW1 2876   1.431   6.222   5.235
  659SOL    HW2 2877   1.584   6.169   5.211
  660SOL     OW 2878   5.991   3.899   2.546
  660SOL    HW1 2879   6.026   3.811   2.512
  660SOL    HW2 2880   5.912   3.926   2.491
  661SOL     OW 2881   4.855   3.783   3.148
  661SOL    HW1 2882   4.929   3.744   3.094
  661SOL    HW2 2883   4.845   3.733   3.233
  662SOL     OW 2884   4.278   0.407   4.899
  662SOL    HW1 2885   4.210   0.404   4.827
  662SOL    HW2 2886   4.233   0.399   4.988
  663SOL     OW 2887   1.127   3.473   6.619
  663SOL    HW1 2888   1.138   3.383   6.660
  663SOL    HW2 2889   1.102   3.464   6.523
  664SOL     OW 2890   0.119   5.415   6.534
  664SOL    HW1 2891   0.160   5.473   6.604
  664SOL    HW2 2892   0.181   5.407   6.456
  665SOL     OW 2893   4.507   5.104   0.663
  665SOL    HW1 2894   4.441   5.168   0.702
  665SOL    HW2 2895   4.462   5.046   0.596
  666SOL     OW 2896   4.898   1.879   2.984
  666SOL    HW1 2897   4.910   1.932   3.068
  666SOL    HW2 2898   4.953   1.795   2.990
  667SOL     OW 2899   6.126   4.077   3.140
  667SOL    HW1 2900   6.114   3.983   3.173
  667SOL    HW2 2901   6.153   4.076   3.044
  668SOL     OW 2902   4.964   6.242   0.160
  668SOL    HW1 2903   4.893   6.193   0.209
  668SOL    HW2 2904   5.044   6.254   0.219
  669SOL     OW 2905   4.049   6.050   3.529
  669SOL    HW1 2906   4.000   6.133   3.504
  669SOL    HW2 2907   4.147   6.065   3.521
  670SOL     OW 2908   2.771   3.093   1.365
  670SOL    HW1 2909   2.687   3.127   1.323
  670SOL    HW2 2910   2.793   3.004   1.326
  671SOL     OW 2911   2.670   5.603   6.937
  671SOL    HW1 2912   2.618   5.637   7.015
  671SOL    HW2 2913   2.615   5.611   6.854
  672SOL     OW 2914   0.602   4.690   1.885
  672SOL    HW1 2915   0.698   4.669   1.865
  672SOL    HW2 2916   0.546   4.609   1.869
  673SOL     OW 2917   6.575   0.544   1.563
  673SOL    HW1 2918   6.645   0.590   1.509
  673SOL    HW2 2919   6.591   0.445   1.560
  674SOL     OW 2920   0.218   3.263   4.679
  674SOL    HW1 2921   0.123   3.243   4.700
  674SOL    HW2 2922   0.252   3.197   4.613
  675SOL     OW 2923   0.439   0.941   4.901
  675SOL    HW1 2924   0.483   0.921   4.989
  675SOL    HW2 2925   0.405   1.035   4.901
  676SOL     OW 2926   3.991   5.718   2.947
  676SOL    HW1 2927   3.950   5.806   2.972
  676SOL    HW2 2928   3.921   5.647   2.949
  677SOL     OW 2929   5.844   1.677   6.880
  677SOL    HW1 2930   5.790   1.729   6.814
  677SOL    HW2 2931   5.873   1.737   6.954
  678SOL     OW 2932   1.139   1.235   4.940
  678SOL    HW1 2933   1.102   1.213   4.850
  678SOL    HW2 2934   1.231   1.272   4.929
  679SOL     OW 2935   5.054   1.920   4.523
  679SOL    HW1 2936   5.124   1.922   4.452
  679SOL    HW2 2937   5.069   1.841   4.582
  680SOL     OW 2938   6.031   5.265   6.234
  680SOL    HW1 2939   5.990   5.336   6.176
  680SOL    HW2 2940   5.987   5.266   6.324
  681SOL     OW 2941   5.501   6.088   1.384
  681SOL    HW1 2942   5.471   6.010   1.439
  681SOL    HW2 2943   5.423   6.125   1.333
  682SOL     OW 2944   1.782   6.746   0.566
  682SOL    HW1 2945   1.731   6.806   0.504
  682SOL    HW2 2946   1.827   6.800   0.636
  683SOL     OW 2947   3.605   2.916   6.606
  683SOL    HW1 2948   3.639   2.999   6.651
  683SOL    HW2 2949   3.670   2.888   6.535
  684SOL     OW 2950   5.966   0.750   6.855
  684SOL    HW1 2951   5.974   0.657   6.890
  684SOL    HW2 2952   5.878   0.761   6.809
  685SOL     OW 2953   4.437   1.205   3.981
  685SOL    HW1 2954   4.534   1.183   3.997
  685SOL    HW2 2955   4.379   1.144   4.034
  686SOL     OW 2956   5.610   3.012   3.295
  686SOL    HW1 2957   5.554   2.941   3.253
  686SOL    HW2 2958   5.705   2.981   3.300
  687SOL     OW 2959   0.317   2.961   4.890
  687SOL    HW1 2960   0.339   2.895   4.962
  687SOL    HW2 2961   0.396   3.022   4.877
  688SOL     OW 2962   1.556   2.569   6.480
  688SOL    HW1 2963   1.598   2.485   6.445
  688SOL    HW2 2964   1.628   2.634   6.505
  689SOL     OW 2965   0.196   4.423   6.150
  689SOL    HW1 2966   0.282   4.381   6.181
  689SOL    HW2 2967   0.217   4.500   6.089
  690SOL     OW 2968   0.704   3.880   3.702
  690SOL    HW1 2969   0.749   3.912   3.785
  690SOL    HW2 2970   0.693   3.956   3.638
  691SOL     OW 2971   2.631   0.444   6.340
  691SOL    HW1 2972   2.636   0.409   6.246
  691SOL    HW2 2973   2.724   0.465   6.372
  692SOL     OW 2974   4.045   6.439   3.491
  692SOL    HW1 2975   4.040   6.476   3.398
  692SOL    HW2 2976   3.973   6.481   3.547
  693SOL     OW 2977   6.360   0.540   3.320
  693SOL    HW1 2978   6.261   0.528   3.318
  693SOL    HW2 2979   6.385   0.623   3.271
  694SOL     OW 2980   3.705   6.206   2.517
  694SOL    HW1 2981   3.696   6.125   2.459
  694SOL    HW2 2982   3.763   6.186   2.596
  695SOL     OW 2983   4.419   5.727   5.369
  695SOL    HW1 2984   4.503   5.696   5.415
  695SOL    HW2 2985   4.340   5.705   5.426
  696SOL     OW 2986   3.280   5.734   2.270
  696SOL    HW1 2987   3.300   5.638   2.252
  696SOL    HW2 2988   3.182   5.750   2.262
  697SOL     OW 2989   2.187   3.174   4.523
  697SOL    HW1 2990   2.225   3.089   4.486
  697SOL    HW2 2991   2.162   3.235   4.447
  698SOL     OW 2992   5.781   0.172   6.662
  698SOL    HW1 2993   5.749   0.175   6.567
  698SOL    HW2 2994   5.801   0.264   6.694
  699SOL     OW 2995   1.513   4.116   6.566
  699SOL    HW1 2996   1.554   4.037   6.521
  699SOL    HW2 2997   1.414   4.103   6.572
  700SOL     OW 2998   2.547   1.834   3.555
  700SOL    HW1 2999   2.623   1.882   3.511
  700SOL    HW2 3000   2.468   1.833   3.492
  701SOL     OW 3001   6.096   3.428   4.954
  701SOL    HW1 3002   6.085   3.426   5.054
  701SOL    HW2 3003   6.185   3.467   4.931
  702SOL     OW 3004   0.138   6.588   6.144
  702SOL    HW1 3005   0.071   6.662   6.137
  702SOL    HW2 3006   0.103   6.507   6.096
  703SOL     OW 3007   3.599   4.232   6.473
  703SOL    HW1 3008   3.556   4.283   6.399
  703SOL    HW2 3009   3.697   4.252   6.475
  704SOL     OW 3010   1.443   1.481   6.375
  704SOL    HW1 3011   1.454   1.555   6.442
  704SOL    HW2 3012   1.348   1.449   6.376
  705SOL     OW 3013   6.236   6.529   3.037
  705SOL    HW1 3014   6.308   6.532   2.968
  705SOL    HW2 3015   6.171   6.456   3.014
  706SOL     OW 3016   4.313   2.255   3.980
  706SOL    HW1 3017   4.240   2.221   4.040
  706SOL    HW2 3018   4.400   2.216   4.007
  707SOL     OW 3019   4.353   6.821   2.166
  707SOL    HW1 3020   4.254   6.833   2.170
  707SOL    HW2 3021   4.380   6.790   2.075
  708SOL     OW 3022   3.992   0.875   1.411
  708SOL    HW1 3023   3.927   0.916   1.475
  708SOL    HW2 3024   4.064   0.941   1.390
  709SOL     OW 3025   1.016   5.097   0.965
  709SOL    HW1 3026   1.102   5.142   0.989
  709SOL    HW2 3027   1.035   5.012   0.915
  710SOL     OW 3028   3.499   2.887   2.289
  710SOL    HW1 3029   3.511   2.978   2.251
  710SOL    HW2 3030   3.460   2.826   2.220
  711SOL     OW 3031   0.018   2.316   5.887
  711SOL    HW1 3032   0.096   2.256   5.873
  711SOL    HW2 3033   0.031   2.369   5.971
  712SOL     OW 3034   3.864   3.713   0.954
  712SOL    HW1 3035   3.821   3.762   0.878
  712SOL    HW2 3036   3.866   3.771   1.035
  713SOL     OW 3037   3.765   2.823   6.416
  713SOL    HW1 3038   3.714   2.778   6.342
  713SOL    HW2 3039   3.857   2.846   6.383
  714SOL     OW 3040   6.383   4.550   3.799
  714SOL    HW1 3041   6.290   4.567   3.766
  714SOL    HW2 3042   6.402   4.607   3.879
  715SOL     OW 3043   5.754   5.898   6.936
  715SOL    HW1 3044   5.788   5.960   6.865
  715SOL    HW2 3045   5.780   5.934   0.010
  716SOL     OW 3046   1.215   0.439   0.810
  716SOL    HW1 3047   1.164   0.396   0.884
  716SOL    HW2 3048   1.152   0.467   0.737
  717SOL     OW 3049   5.675   4.395   6.555
  717SOL    HW1 3050   5.718   4.476   6.595
  717SOL    HW2 3051   5.745   4.339   6.511
  718SOL     OW 3052   4.621   2.515   6.420
  718SOL    HW1 3053   4.712   2.499   6.459
  718SOL    HW2 3054   4.551   2.486   6.485
  719SOL     OW 3055   6.565   1.302   1.952
  719SOL    HW1 3056   6.659   1.309   1.984
  719SOL    HW2 3057   6.562   1.245   1.870
  720SOL     OW 3058   3.781   0.621   6.655
  720SOL    HW1 3059   3.841   0.667   6.720
  720SOL    HW2 3060   3.758   0.529   6.689
  721SOL     OW 3061   2.729   1.205   4.413
  721SOL    HW1 3062   2.827   1.228   4.411
  721SOL    HW2 3063   2.719   1.108   4.438
  722SOL     OW 3064   2.669   0.410   4.458
  722SOL    HW1 3065   2.623   0.465   4.527
  722SOL    HW2 3066   2.608   0.338   4.426
  723SOL     OW 3067   2.136   3.534   3.186
  723SOL    HW1 3068   2.193   3.581   3.118
  723SOL    HW2 3069   2.040   3.545   3.163
  724SOL     OW 3070   1.565   2.548   4.794
  724SOL    HW1 3071   1.584   2.463   4.746
  724SOL    HW2 3072   1.645   2.573   4.850
  725SOL     OW 3073   4.080   6.087   0.702
  725SOL    HW1 3074   4.100   5.993   0.676
  725SOL    HW2 3075   3.994   6.117   0.659
  726SOL     OW 3076   4.305   5.089   0.418
  726SOL    HW1 3077   4.254   5.022   0.363
  726SOL    HW2 3078   4.274   5.084   0.513
  727SOL     OW 3079   5.976   5.491   6.060
  727SOL    HW1 3080   5.879   5.509   6.041
  727SOL    HW2 3081   6.032   5.534   5.989
  728SOL     OW 3082   6.339   3.503   4.831
  728SOL    HW1 3083   6.309   3.503   4.735
  728SOL    HW2 3084   6.370   3.411   4.855
  729SOL     OW 3085   1.071   1.986   0.572
  729SOL    HW1 3086   1.168   1.988   0.546
  729SOL    HW2 3087   1.050   1.900   0.616
  730SOL     OW 3088   5.537   1.499   2.837
  730SOL    HW1 3089   5.560   1.447   2.755
  730SOL    HW2 3090   5.499   1.588   2.810
  731SOL     OW 3091   5.197   4.348   5.624
  731SOL    HW1 3092   5.246   4.383   5.704
  731SOL    HW2 3093   5.231   4.257   5.602
  732SOL     OW 3094   0.147   2.540   1.129
  732SOL    HW1 3095   0.153   2.444   1.101
  732SOL    HW2 3096   0.237   2.583   1.121
  733SOL     OW 3097   6.196   6.171   5.656
  733SOL    HW1 3098   6.218   6.074   5.668
  733SOL    HW2 3099   6.146   6.204   5.736
  734SOL     OW 3100   6.777   4.760   2.372
  734SOL    HW1 3101   6.872   4.747   2.400
  734SOL    HW2 3102   6.740   4.841   2.418
  735SOL     OW 3103   3.741   2.132   0.542
  735SOL    HW1 3104   3.727   2.035   0.521
  735SOL    HW2 3105   3.834   2.147   0.574
  736SOL     OW 3106   0.595   0.424   3.129
  736SOL    HW1 3107   0.530   0.356   3.163
  736SOL    HW2 3108   0.671   0.433   3.193
  737SOL     OW 3109   4.934   2.548   5.957
  737SOL    HW1 3110   4.904   2.601   6.037
  737SOL    HW2 3111   4.881   2.576   5.877
  738SOL     OW 3112   2.034   4.330   2.534
  738SOL    HW1 3113   2.113   4.270   2.551
  738SOL    HW2 3114   2.060   4.401   2.469
  739SOL     OW 3115   4.132   0.409   4.037
  739SOL    HW1 3116   4.128   0.439   3.942
  739SOL    HW2 3117   4.107   0.484   4.097
  740SOL     OW 3118   5.552   0.464   0.888
  740SOL    HW1 3119   5.517   0.381   0.930
  740SOL    HW2 3120   5.635   0.494   0.936
  741SOL     OW 3121   1.990   6.420   3.243
  741SOL    HW1 3122   1.981   6.507   3.292
  741SOL    HW2 3123   2.034   6.352   3.302
  742SOL     OW 3124   1.983   6.755   1.936
  742SOL    HW1 3125   1.979   6.665   1.980
  742SOL    HW2 3126   2.053   6.811   1.981
  743SOL     OW 3127   0.063   3.853   4.111
  743SOL    HW1 3128   0.099   3.926   4.052
  743SOL    HW2 3129   0.104   3.766   4.083
  744SOL     OW 3130   5.548   0.094   6.788
  744SOL    HW1 3131   5.472   0.152   6.760
  744SOL    HW2 3132   5.634   0.142   6.774
  745SOL     OW 3133   0.625   5.231   5.067
  745SOL    HW1 3134   0.702   5.225   5.130
  745SOL    HW2 3135   0.634   5.313   5.010
  746SOL     OW 3136   6.885   4.863   6.124
  746SOL    HW1 3137   6.866   4.924   6.047
  746SOL    HW2 3138   6.829   4.891   6.203
  747SOL     OW 3139   3.933   6.552   4.758
  747SOL    HW1 3140   4.026   6.524   4.781
  747SOL    HW2 3141   3.916   6.536   4.660
  748SOL     OW 3142   3.295   5.180   2.518
  748SOL    HW1 3143   3.198   5.178   2.494
  748SOL    HW2 3144   3.314   5.111   2.588
  749SOL     OW 3145   6.476   4.218   5.170
  749SOL    HW1 3146   6.574   4.228   5.185
  749SOL    HW2 3147   6.431   4.306   5.184
  750SOL     OW 3148   1.974   2.258   0.697
  750SOL    HW1 3149   1.996   2.236   0.603
  750SOL    HW2 3150   2.057   2.258   0.753
  751SOL     OW 3151   3.658   2.411   6.445
  751SOL    HW1 3152   3.595   2.430   6.370
  751SOL    HW2 3153   3.664   2.313   6.460
  752SOL     OW 3154   3.720   1.306   2.213
  752SOL    HW1 3155   3.784   1.355   2.273
  752SOL    HW2 3156   3.647   1.268   2.268
  753SOL     OW 3157   1.664   3.640   5.034
  753SOL    HW1 3158   1.565   3.640   5.019
  753SOL    HW2 3159   1.694   3.732   5.057
  754SOL     OW 3160   5.521   2.861   5.797
  754SOL    HW1 3161   5.455   2.846   5.871
  754SOL    HW2 3162   5.472   2.887   5.714
  755SOL     OW 3163   1.870   4.626   5.434
  755SOL    HW1 3164   1.900   4.642   5.528
  755SOL    HW2 3165   1.894   4.704   5.377
  756SOL     OW 3166   3.657   0.381   0.622
  756SOL    HW1 3167   3.704   0.313   0.678
  756SOL    HW2 3168   3.561   0.356   0.610
  757SOL     OW 3169   0.625   0.062   3.964
  757SOL    HW1 3170   0.549   0.118   3.995
  757SOL    HW2 3171   0.612   6.984   3.996
  758SOL     OW 3172   3.879   6.812   1.858
  758SOL    HW1 3173   3.908   6.804   1.763
  758SOL    HW2 3174   3.850   6.907   1.875
  759SOL     OW 3175   0.943   1.224   1.336
  759SOL    HW1 3176   0.851   1.200   1.305
  759SOL    HW2 3177   0.955   1.196   1.431
  760SOL     OW 3178   5.000   0.404   5.498
  760SOL    HW1 3179   4.983   0.489   5.549
  760SOL    HW2 3180   4.944   0.403   5.415
  761SOL     OW 3181   5.839   2.924   5.629
  761SOL    HW1 3182   5.912   2.967   5.576
  761SOL    HW2 3183   5.814   2.837   5.587
  762SOL     OW 3184   2.857   0.583   5.106
  762SOL    HW1 3185   2.881   0.663   5.051
  762SOL    HW2 3186   2.825   0.613   5.196
  763SOL     OW 3187   4.236   5.137   6.339
  763SOL    HW1 3188   4.249   5.117   6.242
  763SOL    HW2 3189   4.322   5.121   6.388
  764SOL     OW 3190   4.995   1.734   4.782
  764SOL    HW1 3191   4.988   1.783   4.869
  764SOL    HW2 3192   5.091   1.722   4.758
  765SOL     OW 3193   1.351   6.305   1.172
  765SOL    HW1 3194   1.405   6.370   1.119
  765SOL    HW2 3195   1.315   6.235   1.111
  766SOL     OW 3196   2.439   3.460   6.471
  766SOL    HW1 3197   2.473   3.545   6.511
  766SOL    HW2 3198   2.339   3.457   6.478
  767SOL     OW 3199   6.527   5.882   1.712
  767SOL    HW1 3200   6.438   5.858   1.674
  767SOL    HW2 3201   6.598   5.863   1.645
  768SOL     OW 3202   1.848   6.366   1.836
  768SOL    HW1 3203   1.759   6.364   1.790
  768SOL    HW2 3204   1.918   6.331   1.774
  769SOL     OW 3205   3.315   0.844   4.956
  769SOL    HW1 3206   3.306   0.943   4.964
  769SOL    HW2 3207   3.272   0.812   4.872
  770SOL     OW 3208   2.226   4.124   3.303
  770SOL    HW1 3209   2.196   4.092   3.393
  770SOL    HW2 3210   2.274   4.211   3.312
  771SOL     OW 3211   2.704   5.366   2.487
  771SOL    HW1 3212   2.662   5.424   2.557
  771SOL    HW2 3213   2.644   5.289   2.467
  772SOL     OW 3214   5.405   4.966   0.889
  772SOL    HW1 3215   5.326   4.959   0.829
  772SOL    HW2 3216   5.487   4.935   0.840
  773SOL     OW 3217   0.329   3.458   4.873
  773SOL    HW1 3218   0.323   3.397   4.952
  773SOL    HW2 3219   0.306   3.407   4.790
  774SOL     OW 3220   1.377   1.686   1.415
  774SOL    HW1 3221   1.292   1.717   1.458
  774SOL    HW2 3222   1.364   1.593   1.379
  775SOL     OW 3223   0.508   2.596   2.514
  775SOL    HW1 3224   0.454   2.513   2.496
  775SOL    HW2 3225   0.484   2.632   2.604
  776SOL     OW 3226   0.719   6.714   6.304
  776SOL    HW1 3227   0.643   6.779   6.303
  776SOL    HW2 3228   0.714   6.658   6.388
  777SOL     OW 3229   2.572   5.053   1.309
  777SOL    HW1 3230   2.485   5.007   1.328
  777SOL    HW2 3231   2.645   4.985   1.307
  778SOL     OW 3232   3.180   1.430   2.285
  778SOL    HW1 3233   3.150   1.394   2.374
  778SOL    HW2 3234   3.158   1.363   2.214
  779SOL     OW 3235   0.031   2.483   2.392
  779SOL    HW1 3236   0.084   2.566   2.376
  779SOL    HW2 3237   6.996   2.459   2.310
  780SOL     OW 3238   6.421   4.104   3.659
  780SOL    HW1 3239   6.426   4.184   3.600
  780SOL    HW2 3240   6.513   4.083   3.694
  781SOL     OW 3241   5.654   0.755   0.087
  781SOL    HW1 3242   5.619   0.671   0.130
  781SOL    HW2 3243   5.751   0.766   0.110
  782SOL     OW 3244   1.686   4.052   6.789
  782SOL    HW1 3245   1.671   4.013   6.698
  782SOL    HW2 3246   1.744   4.133   6.782
  783SOL     OW 3247   3.891   5.321   0.915
  783SOL    HW1 3248   3.957   5.396   0.905
  783SOL    HW2 3249   3.804   5.349   0.875
  784SOL     OW 3250   5.625   6.412   0.715
  784SOL    HW1 3251   5.609   6.455   0.626
  784SOL    HW2 3252   5.715   6.369   0.716
  785SOL     OW 3253   0.398   2.640   2.757
  785SOL    HW1 3254   0.314   2.693   2.743
  785SOL    HW2 3255   0.387   2.582   2.838
  786SOL     OW 3256   1.233   0.665   1.179
  786SOL    HW1 3257   1.203   0.623   1.265
  786SOL    HW2 3258   1.161   0.654   1.111
  787SOL     OW 3259   3.530   0.124   6.782
  787SOL    HW1 3260   3.471   0.188   6.734
  787SOL    HW2 3261   3.479   0.078   6.854
  788SOL     OW 3262   3.962   2.829   5.525
  788SOL    HW1 3263   3.931   2.787   5.440
  788SOL    HW2 3264   3.891   2.890   5.560
  789SOL     OW 3265   5.191   4.252   0.416
  789SOL    HW1 3266   5.114   4.206   0.372
  789SOL    HW2 3267   5.197   4.222   0.512
  790SOL     OW 3268   1.377   1.363   4.176
  790SOL    HW1 3269   1.454   1.397   4.122
  790SOL    HW2 3270   1.400   1.367   4.273
  791SOL     OW 3271   3.569   5.530   4.104
  791SOL    HW1 3272   3.523   5.473   4.173
  791SOL    HW2 3273   3.534   5.506   4.013
  792SOL     OW 3274   0.713   6.773   1.186
  792SOL    HW1 3275   0.762   6.723   1.258
  792SOL    HW2 3276   0.629   6.811   1.223
  793SOL     OW 3277   4.847   5.147   3.761
  793SOL    HW1 3278   4.917   5.183   3.699
  793SOL    HW2 3279   4.775   5.103   3.707
  794SOL     OW 3280   3.392   3.813   5.496
  794SOL    HW1 3281   3.388   3.804   5.595
  794SOL    HW2 3282   3.375   3.724   5.453
  795SOL     OW 3283   3.806   6.866   4.057
  795SOL    HW1 3284   3.830   6.769   4.052
  795SOL    HW2 3285   3.889   6.921   4.049
  796SOL     OW 3286   0.665   1.644   6.570
  796SOL    HW1 3287   0.585   1.652   6.630
  796SOL    HW2 3288   0.655   1.564   6.511
  797SOL     OW 3289   5.288   2.886   1.174
  797SOL    HW1 3290   5.274   2.942   1.093
  797SOL    HW2 3291   5.229   2.918   1.248
  798SOL     OW 3292   4.514   0.281   2.036
  798SOL    HW1 3293   4.415   0.297   2.045
  798SOL    HW2 3294   4.556   0.281   2.126
  799SOL     OW 3295   6.278   0.547   5.951
  799SOL    HW1 3296   6.316   0.635   5.920
  799SOL    HW2 3297   6.341   0.473   5.925
  800SOL     OW 3298   5.252   2.131   2.715
  800SOL    HW1 3299   5.322   2.126   2.644
  800SOL    HW2 3300   5.236   2.226   2.739
  801SOL     OW 3301   1.287   3.514   4.439
  801SOL    HW1 3302   1.325   3.450   4.373
  801SOL    HW2 3303   1.213   3.567   4.397
  802SOL     OW 3304   4.470   1.374   0.606
  802SOL    HW1 3305   4.480   1.414   0.515
  802SOL    HW2 3306   4.499   1.278   0.603
  803SOL     OW 3307   0.307   6.630   5.030
  803SOL    HW1 3308   0.278   6.695   4.960
  803SOL    HW2 3309   0.258   6.649   5.115
  804SOL     OW 3310   5.367   5.339   6.214
  804SOL    HW1 3311   5.280   5.338   6.262
  804SOL    HW2 3312   5.419   5.256   6.237
  805SOL     OW 3313   3.799   0.332   5.486
  805SOL    HW1 3314   3.848   0.263   5.432
  805SOL    HW2 3315   3.806   0.309   5.583
  806SOL     OW 3316   4.965   1.373   4.118
  806SOL    HW1 3317   5.031   1.443   4.092
  806SOL    HW2 3318   4.926   1.396   4.207
  807SOL     OW 3319   1.053   1.872   3.828
  807SOL    HW1 3320   1.125   1.866   3.897
  807SOL    HW2 3321   0.981   1.806   3.849
  808SOL     OW 3322   4.239   3.626   6.591
  808SOL    HW1 3323   4.321   3.641   6.647
  808SOL    HW2 3324   4.266   3.606   6.497
  809SOL     OW 3325   6.852   5.247   1.965
  809SOL    HW1 3326   6.861   5.213   1.872
  809SOL    HW2 3327   6.859   5.347   1.965
  810SOL     OW 3328   3.104   2.574   1.223
  810SOL    HW1 3329   3.132   2.498   1.281
  810SOL    HW2 3330   3.145   2.564   1.132
  811SOL     OW 3331   4.143   5.909   5.119
  811SOL    HW1 3332   4.061   5.956   5.151
  811SOL    HW2 3333   4.128   5.811   5.122
  812SOL     OW 3334   0.240   1.414   1.955
  812SOL    HW1 3335   0.150   1.373   1.936
  812SOL    HW2 3336   0.228   1.509   1.983
  813SOL     OW 3337   3.291   6.390   5.575
  813SOL    HW1 3338   3.226   6.322   5.541
  813SOL    HW2 3339   3.373   6.344   5.609
  814SOL     OW 3340   6.501   6.318   2.622
  814SOL    HW1 3341   6.453   6.244   2.670
  814SOL    HW2 3342   6.450   6.342   2.540
  815SOL     OW 3343   0.573   3.873   3.355
  815SOL    HW1 3344   0.493   3.907   3.405
  815SOL    HW2 3345   0.556   3.780   3.323
  816SOL     OW 3346   6.281   6.492   0.309
  816SOL    HW1 3347   6.225   6.409   0.305
  816SOL    HW2 3348   6.333   6.493   0.394
  817SOL     OW 3349   1.907   3.780   0.993
  817SOL    HW1 3350   1.924   3.878   0.976
  817SOL    HW2 3351   1.982   3.742   1.046
  818SOL     OW 3352   6.410   2.914   2.035
  818SOL    HW1 3353   6.327   2.890   1.984
  818SOL    HW2 3354   6.451   2.830   2.073
  819SOL     OW 3355   5.700   2.826   2.838
  819SOL    HW1 3356   5.721   2.919   2.810
  819SOL    HW2 3357   5.763   2.763   2.792
  820SOL     OW 3358   2.981   2.844   5.634
  820SOL    HW1 3359   2.894   2.801   5.610
  820SOL    HW2 3360   3.012   2.902   5.559
  821SOL     OW 3361   1.109   3.863   0.930
  821SOL    HW1 3362   1.147   3.941   0.979
  821SOL    HW2 3363   1.167   3.783   0.945
  822SOL     OW 3364   1.636   4.552   4.767
  822SOL    HW1 3365   1.627   4.604   4.682
  822SOL    HW2 3366   1.554   4.495   4.780
  823SOL     OW 3367   5.572   4.001   6.912
  823SOL    HW1 3368   5.656   3.968   6.870
  823SOL    HW2 3369   5.500   3.932   6.902
  824SOL     OW 3370   5.327   1.294   5.803
  824SOL    HW1 3371   5.237   1.331   5.826
  824SOL    HW2 3372   5.397   1.342   5.855
  825SOL     OW 3373   0.331   4.135   1.062
  825SOL    HW1 3374   0.292   4.049   1.032
  825SOL    HW2 3375   0.257   4.198   1.087
  826SOL     OW 3376   5.365   3.001   5.582
  826SOL    HW1 3377   5.427   2.970   5.510
  826SOL    HW2 3378   5.394   3.091   5.615
  827SOL     OW 3379   3.209   4.849   5.573
  827SOL    HW1 3380   3.174   4.795   5.650
  827SOL    HW2 3381   3.213   4.792   5.491
  828SOL     OW 3382   4.831   6.739   6.558
  828SOL    HW1 3383   4.807   6.836   6.566
  828SOL    HW2 3384   4.852   6.718   6.463
  829SOL     OW 3385   3.045   3.774   3.054
  829SOL    HW1 3386   3.026   3.837   3.129
  829SOL    HW2 3387   2.958   3.736   3.020
  830SOL     OW 3388   4.359   4.652   6.190
  830SOL    HW1 3389   4.315   4.596   6.120
  830SOL    HW2 3390   4.366   4.746   6.157
  831SOL     OW 3391   5.560   1.048   6.378
  831SOL    HW1 3392   5.530   1.097   6.460
  831SOL    HW2 3393   5.527   0.954   6.381
  832SOL     OW 3394   2.966   0.770   2.102
  832SOL    HW1 3395   2.976   0.786   2.004
  832SOL    HW2 3396   3.048   0.725   2.137
  833SOL     OW 3397   0.334   3.794   5.323
  833SOL    HW1 3398   0.381   3.719   5.276
  833SOL    HW2 3399   0.385   3.819   5.406
  834SOL     OW 3400   3.439   3.832   0.749
  834SOL    HW1 3401   3.429   3.733   0.745
  834SOL    HW2 3402   3.415   3.872   0.660
  835SOL     OW 3403   3.461   0.488   5.203
  835SOL    HW1 3404   3.520   0.561   5.169
  835SOL    HW2 3405   3.365   0.514   5.192
  836SOL     OW 3406   3.987   6.389   0.163
  836SOL    HW1 3407   3.931   6.320   0.118
  836SOL    HW2 3408   4.019   6.455   0.095
  837SOL     OW 3409   5.569   6.668   0.385
  837SOL    HW1 3410   5.489   6.654   0.328
  837SOL    HW2 3411   5.640   6.716   0.333
  838SOL     OW 3412   2.203   0.698   4.541
  838SOL    HW1 3413   2.248   0.611   4.559
  838SOL    HW2 3414   2.272   0.771   4.538
  839SOL     OW 3415   2.418   2.609   2.119
  839SOL    HW1 3416   2.421   2.695   2.068
  839SOL    HW2 3417   2.505   2.595   2.166
  840SOL     OW 3418   5.796   6.704   6.765
  840SOL    HW1 3419   5.754   6.721   6.854
  840SOL    HW2 3420   5.784   6.607   6.741
  841SOL     OW 3421   4.093   5.062   6.864
  841SOL    HW1 3422   4.039   5.093   6.942
  841SOL    HW2 3423   4.032   5.033   6.790
  842SOL     OW 3424   4.040   0.039   4.869
  842SOL    HW1 3425   4.083   6.997   4.939
  842SOL    HW2 3426   4.111   0.082   4.814
  843SOL     OW 3427   1.674   1.417   1.078
  843SOL    HW1 3428   1.703   1.386   0.987
  843SOL    HW2 3429   1.693   1.345   1.145
  844SOL     OW 3430   6.179   0.605   0.830
  844SOL    HW1 3431   6.275   0.581   0.842
  844SOL    HW2 3432   6.122   0.523   0.842
  845SOL     OW 3433   5.830   4.115   5.013
  845SOL    HW1 3434   5.764   4.135   5.086
  845SOL    HW2 3435   5.828   4.017   4.994
  846SOL     OW 3436   2.035   1.865   7.015
  846SOL    HW1 3437   1.960   1.931   7.014
  846SOL    HW2 3438   2.001   1.775   6.989
  847SOL     OW 3439   1.580   3.126   0.994
  847SOL    HW1 3440   1.508   3.120   1.064
  847SOL    HW2 3441   1.670   3.112   1.038
  848SOL     OW 3442   5.646   0.841   6.033
  848SOL    HW1 3443   5.635   0.753   5.988
  848SOL    HW2 3444   5.728   0.839   6.091
  849SOL     OW 3445   0.435   4.219   6.063
  849SOL    HW1 3446   0.524   4.262   6.078
  849SOL    HW2 3447   0.389   4.206   6.151
  850SOL     OW 3448   5.173   0.838   3.238
  850SOL    HW1 3449   5.144   0.777   3.165
  850SOL    HW2 3450   5.143   0.931   3.218
  851SOL     OW 3451   0.537   1.943   2.309
  851SOL    HW1 3452   0.500   2.000   2.382
  851SOL    HW2 3453   0.630   1.972   2.287
  852SOL     OW 3454   1.455   2.632   0.275
  852SOL    HW1 3455   1.499   2.680   0.351
  852SOL    HW2 3456   1.363   2.603   0.303
  853SOL     OW 3457   1.796   4.295   2.798
  853SOL    HW1 3458   1.806   4.303   2.897
  853SOL    HW2 3459   1.699   4.300   2.774
  854SOL     OW 3460   4.583   5.687   1.623
  854SOL    HW1 3461   4.503   5.745   1.611
  854SOL    HW2 3462   4.554   5.593   1.640
  855SOL     OW 3463   0.210   0.331   2.025
  855SOL    HW1 3464   0.188   0.423   2.055
  855SOL    HW2 3465   0.161   0.310   1.941
  856SOL     OW 3466   1.335   1.696   5.389
  856SOL    HW1 3467   1.284   1.655   5.465
  856SOL    HW2 3468   1.417   1.642   5.372
  857SOL     OW 3469   6.197   4.804   1.705
  857SOL    HW1 3470   6.248   4.748   1.770
  857SOL    HW2 3471   6.221   4.900   1.718
  858SOL     OW 3472   3.054   3.915   1.283
  858SOL    HW1 3473   3.141   3.937   1.327
  858SOL    HW2 3474   3.020   3.827   1.318
  859SOL     OW 3475   4.716   5.351   5.644
  859SOL    HW1 3476   4.681   5.270   5.596
  859SOL    HW2 3477   4.759   5.322   5.730
  860SOL     OW 3478   4.461   3.835   0.811
  860SOL    HW1 3479   4.555   3.861   0.834
  860SOL    HW2 3480   4.450   3.736   0.826
  861SOL     OW 3481   2.446   0.335   3.525
  861SOL    HW1 3482   2.380   0.408   3.506
  861SOL    HW2 3483   2.537   0.365   3.499
  862SOL     OW 3484   0.470   3.549   5.266
  862SOL    HW1 3485   0.565   3.520   5.249
  862SOL    HW2 3486   0.408   3.478   5.232
  863SOL     OW 3487   6.719   0.448   0.685
  863SOL    HW1 3488   6.654   0.511   0.642
  863SOL    HW2 3489   6.690   0.354   0.668
  864SOL     OW 3490   3.980   4.803   3.574
  864SOL    HW1 3491   3.942   4.798   3.667
  864SOL    HW2 3492   4.060   4.742   3.568
  865SOL     OW 3493   1.123   5.763   6.175
  865SOL    HW1 3494   1.161   5.792   6.262
  865SOL    HW2 3495   1.025   5.744   6.186
  866SOL     OW 3496   1.603   2.023   2.042
  866SOL    HW1 3497   1.619   2.121   2.033
  866SOL    HW2 3498   1.506   2.004   2.027
  867SOL     OW 3499   3.724   3.861   0.725
  867SOL    HW1 3500   3.626   3.883   0.718
  867SOL    HW2 3501   3.750   3.803   0.647
  868SOL     OW 3502   5.762   0.240   1.228
  868SOL    HW1 3503   5.685   0.276   1.281
  868SOL    HW2 3504   5.827   0.314   1.210
  869SOL     OW 3505   6.221   5.147   2.900
  869SOL    HW1 3506   6.179   5.058   2.888
  869SOL    HW2 3507   6.321   5.138   2.899
  870SOL     OW 3508   4.183   2.982   0.923
  870SOL    HW1 3509   4.219   2.979   1.017
  870SOL    HW2 3510   4.085   3.002   0.927
  871SOL     OW 3511   4.856   3.142   3.091
  871SOL    HW1 3512   4.845   3.184   3.181
  871SOL    HW2 3513   4.798   3.061   3.084
  872SOL     OW 3514   5.445   3.946   3.803
  872SOL    HW1 3515   5.435   3.864   3.746
  872SOL    HW2 3516   5.520   4.002   3.768
  873SOL     OW 3517   5.723   6.459   4.199
  873SOL    HW1 3518   5.798   6.397   4.176
  873SOL    HW2 3519   5.715   6.467   4.298
  874SOL     OW 3520   0.823   4.474   5.875
  874SOL    HW1 3521   0.742   4.528   5.901
  874SOL    HW2 3522   0.898   4.494   5.938
  875SOL     OW 3523   3.861   2.730   0.820
  875SOL    HW1 3524   3.841   2.679   0.736
  875SOL    HW2 3525   3.826   2.679   0.899
  876SOL     OW 3526   0.772   5.485   3.313
  876SOL    HW1 3527   0.790   5.452   3.220
  876SOL    HW2 3528   0.806   5.418   3.379
  877SOL     OW 3529   4.020   3.588   0.036
  877SOL    HW1 3530   4.112   3.622   0.017
  877SOL    HW2 3531   3.957   3.665   0.046
  878SOL     OW 3532   4.045   5.467   5.291
  878SOL    HW1 3533   3.966   5.528   5.291
  878SOL    HW2 3534   4.025   5.385   5.237
  879SOL     OW 3535   2.652   2.227   1.930
  879SOL    HW1 3536   2.580   2.219   1.999
  879SOL    HW2 3537   2.736   2.261   1.973
  880SOL     OW 3538   3.405   3.870   5.769
  880SOL    HW1 3539   3.410   3.865   5.869
  880SOL    HW2 3540   3.353   3.951   5.743
  881SOL     OW 3541   4.546   4.028   5.286
  881SOL    HW1 3542   4.645   4.020   5.281
  881SOL    HW2 3543   4.517   4.113   5.242
  882SOL     OW 3544   1.404   1.602   3.961
  882SOL    HW1 3545   1.316   1.592   4.007
  882SOL    HW2 3546   1.421   1.699   3.942
  883SOL     OW 3547   4.567   5.538   5.891
  883SOL    HW1 3548   4.594   5.634   5.887
  883SOL    HW2 3549   4.549   5.504   5.799
  884SOL     OW 3550   0.279   3.935   0.117
  884SOL    HW1 3551   0.375   3.937   0.145
  884SOL    HW2 3552   0.274   3.917   0.019
  885SOL     OW 3553   4.997   5.555   6.145
  885SOL    HW1 3554   4.962   5.630   6.200
  885SOL    HW2 3555   5.062   5.590   6.078
  886SOL     OW 3556   3.825   0.571   0.767
  886SOL    HW1 3557   3.802   0.493   0.708
  886SOL    HW2 3558   3.915   0.556   0.807
  887SOL     OW 3559   4.069   6.966   4.066
  887SOL    HW1 3560   4.028   0.041   4.059
  887SOL    HW2 3561   4.118   6.958   4.153
  888SOL     OW 3562   5.931   6.138   2.797
  888SOL    HW1 3563   5.890   6.200   2.730
  888SOL    HW2 3564   6.026   6.118   2.769
  889SOL     OW 3565   1.854   6.416   5.373
  889SOL    HW1 3566   1.852   6.495   5.434
  889SOL    HW2 3567   1.947   6.404   5.337
  890SOL     OW 3568   2.268   4.595   2.146
  890SOL    HW1 3569   2.304   4.664   2.209
  890SOL    HW2 3570   2.220   4.640   2.071
  891SOL     OW 3571   6.249   4.282   1.093
  891SOL    HW1 3572   6.176   4.225   1.054
  891SOL    HW2 3573   6.328   4.225   1.113
  892SOL     OW 3574   3.867   4.106   5.702
  892SOL    HW1 3575   3.767   4.108   5.711
  892SOL    HW2 3576   3.892   4.110   5.606
  893SOL     OW 3577   1.977   1.043   2.392
  893SOL    HW1 3578   2.073   1.044   2.419
  893SOL    HW2 3579   1.970   1.035   2.293
  894SOL     OW 3580   1.610   2.289   3.664
  894SOL    HW1 3581   1.574   2.288   3.571
  894SOL    HW2 3582   1.597   2.199   3.706
  895SOL     OW 3583   1.254   5.981   4.875
  895SOL    HW1 3584   1.233   5.967   4.778
  895SOL    HW2 3585   1.274   5.893   4.918
  896SOL     OW 3586   5.727   6.977   2.387
  896SOL    HW1 3587   5.684   0.049   2.399
  896SOL    HW2 3588   5.710   6.943   2.295
  897SOL     OW 3589   4.889   1.064   0.207
  897SOL    HW1 3590   4.965   1.028   0.261
  897SOL    HW2 3591   4.817   1.096   0.269
  898SOL     OW 3592   4.214   5.718   2.772
  898SOL    HW1 3593   4.197   5.646   2.839
  898SOL    HW2 3594   4.180   5.805   2.807
  899SOL     OW 3595   0.239   5.173   0.255
  899SOL    HW1 3596   0.290   5.247   0.298
  899SOL    HW2 3597   0.164   5.145   0.315
  900SOL     OW 3598   4.960   6.090   1.410
  900SOL    HW1 3599   5.023   6.034   1.464
  900SOL    HW2 3600   4.879   6.036   1.387
  901SOL     OW 3601   1.041   1.089   5.506
  901SOL    HW1 3602   1.100   1.170   5.504
  901SOL    HW2 3603   1.026   1.061   5.601
  902SOL     OW 3604   0.122   2.160   6.982
  902SOL    HW1 3605   0.046   2.105   6.949
  902SOL    HW2 3606   0.200   2.100   7.002
  903SOL     OW 3607   6.853   3.665   6.380
  903SOL    HW1 3608   6.766   3.709   6.404
  903SOL    HW2 3609   6.924   3.693   6.444
  904SOL     OW 3610   1.774   2.717   3.880
  904SOL    HW1 3611   1.708   2.786   3.907
  904SOL    HW2 3612   1.735   2.661   3.807
  905SOL     OW 3613   4.697   3.691   6.415
  905SOL    HW1 3614   4.720   3.617   6.478
  905SOL    HW2 3615   4.617   3.665   6.361
  906SOL     OW 3616   0.843   3.662   5.901
  906SOL    HW1 3617   0.822   3.670   5.804
  906SOL    HW2 3618   0.767   3.697   5.955
  907SOL     OW 3619   5.992   3.123   3.041
  907SOL    HW1 3620   6.025   3.032   3.013
  907SOL    HW2 3621   5.996   3.185   2.963
  908SOL     OW 3622   1.582   6.124   3.333
  908SOL    HW1 3623   1.663   6.162   3.378
  908SOL    HW2 3624   1.602   6.030   3.304
  909SOL     OW 3625   2.561   6.502   2.014
  909SOL    HW1 3626   2.509   6.580   1.979
  909SOL    HW2 3627   2.652   6.501   1.973
  910SOL     OW 3628   2.652   0.662   1.318
  910SOL    HW1 3629   2.554   0.659   1.338
  910SOL    HW2 3630   2.673   0.597   1.245
  911SOL     OW 3631   0.012   5.321   1.163
  911SOL    HW1 3632   0.088   5.329   1.227
  911SOL    HW2 3633   0.020   5.235   1.112
  912SOL     OW 3634   6.178   0.896   4.530
  912SOL    HW1 3635   6.109   0.825   4.536
  912SOL    HW2 3636   6.255   0.863   4.476
  913SOL     OW 3637   1.985   0.562   3.571
  913SOL    HW1 3638   1.988   0.486   3.635
  913SOL    HW2 3639   1.924   0.540   3.495
  914SOL     OW 3640   2.768   6.158   4.875
  914SOL    HW1 3641   2.825   6.230   4.914
  914SOL    HW2 3642   2.764   6.170   4.775
  915SOL     OW 3643   1.225   3.401   6.943
  915SOL    HW1 3644   1.162   3.478   6.932
  915SOL    HW2 3645   1.319   3.433   6.930
  916SOL     OW 3646   1.568   2.669   1.855
  916SOL    HW1 3647   1.662   2.637   1.839
  916SOL    HW2 3648   1.525   2.690   1.767
  917SOL     OW 3649   5.369   0.443   1.936
  917SOL    HW1 3650   5.277   0.450   1.973
  917SOL    HW2 3651   5.436   0.458   2.009
  918SOL     OW 3652   2.632   6.685   6.651
  918SOL    HW1 3653   2.550   6.743   6.649
  918SOL    HW2 3654   2.626   6.622   6.728
  919SOL     OW 3655   6.701   5.817   2.537
  919SOL    HW1 3656   6.721   5.914   2.544
  919SOL    HW2 3657   6.767   5.773   2.476
  920SOL     OW 3658   1.818   5.983   3.536
  920SOL    HW1 3659   1.818   6.063   3.475
  920SOL    HW2 3660   1.903   5.982   3.588
  921SOL     OW 3661   4.717   4.173   3.999
  921SOL    HW1 3662   4.745   4.156   3.904
  921SOL    HW2 3663   4.748   4.097   4.057
  922SOL     OW 3664   3.376   2.654   6.050
  922SOL    HW1 3665   3.277   2.643   6.055
  922SOL    HW2 3666   3.398   2.720   5.979
  923SOL     OW 3667   2.934   4.575   6.445
  923SOL    HW1 3668   2.928   4.482   6.482
  923SOL    HW2 3669   2.968   4.570   6.351
  924SOL     OW 3670   6.642   2.788   2.878
  924SOL    HW1 3671   6.557   2.839   2.893
  924SOL    HW2 3672   6.659   2.727   2.955
  925SOL     OW 3673   0.112   1.923   6.084
  925SOL    HW1 3674   0.026   1.925   6.135
  925SOL    HW2 3675   0.129   2.012   6.043
  926SOL     OW 3676   6.651   1.058   0.482
  926SOL    HW1 3677   6.609   1.143   0.449
  926SOL    HW2 3678   6.619   0.982   0.425
  927SOL     OW 3679   5.475   4.018   3.299
  927SOL    HW1 3680   5.518   4.088   3.242
  927SOL    HW2 3681   5.482   3.929   3.253
  928SOL     OW 3682   1.533   6.631   0.580
  928SOL    HW1 3683   1.627   6.645   0.547
  928SOL    HW2 3684   1.483   6.718   0.575
  929SOL     OW 3685   0.818   0.879   1.234
  929SOL    HW1 3686   0.745   0.927   1.282
  929SOL    HW2 3687   0.905   0.925   1.252
  930SOL     OW 3688   5.468   6.041   4.624
  930SOL    HW1 3689   5.568   6.043   4.634
  930SOL    HW2 3690   5.425   6.056   4.713
  931SOL     OW 3691   5.463   3.536   2.539
  931SOL    HW1 3692   5.524   3.574   2.470
  931SOL    HW2 3693   5.369   3.564   2.519
  932SOL     OW 3694   2.854   6.644   2.607
  932SOL    HW1 3695   2.934   6.669   2.662
  932SOL    HW2 3696   2.866   6.551   2.571
  933SOL     OW 3697   0.815   5.762   3.395
  933SOL    HW1 3698   0.783   5.672   3.366
  933SOL    HW2 3699   0.760   5.833   3.353
  934SOL     OW 3700   1.499   0.860   4.692
  934SOL    HW1 3701   1.426   0.925   4.714
  934SOL    HW2 3702   1.478   0.815   4.605
  935SOL     OW 3703   5.428   3.869   5.414
  935SOL    HW1 3704   5.414   3.942   5.482
  935SOL    HW2 3705   5.354   3.802   5.423
  936SOL     OW 3706   1.627   1.321   6.275
  936SOL    HW1 3707   1.559   1.372   6.327
  936SOL    HW2 3708   1.694   1.281   6.337
  937SOL     OW 3709   4.809   1.462   4.333
  937SOL    HW1 3710   4.837   1.526   4.405
  937SOL    HW2 3711   4.730   1.410   4.364
  938SOL     OW 3712   0.280   5.413   6.295
  938SOL    HW1 3713   0.244   5.466   6.219
  938SOL    HW2 3714   0.362   5.364   6.267
  939SOL     OW 3715   4.531   0.752   5.430
  939SOL    HW1 3716   4.478   0.690   5.372
  939SOL    HW2 3717   4.553   0.706   5.516
  940SOL     OW 3718   0.603   3.190   2.806
  940SOL    HW1 3719   0.701   3.203   2.791
  940SOL    HW2 3720   0.558   3.280   2.809
  941SOL     OW 3721   6.370   0.447   4.620
  941SOL    HW1 3722   6.387   0.351   4.598
  941SOL    HW2 3723   6.365   0.459   4.719
  942SOL     OW 3724   5.066   0.051   3.895
  942SOL    HW1 3725   4.967   0.046   3.910
  942SOL    HW2 3726   5.092   0.146   3.874
  943SOL     OW 3727   1.167   3.594   4.027
  943SOL    HW1 3728   1.194   3.667   3.964
  943SOL    HW2 3729   1.068   3.585   4.027
  944SOL     OW 3730   6.630   3.929   5.506
  944SOL    HW1 3731   6.679   4.015   5.518
  944SOL    HW2 3732   6.534   3.948   5.488
  945SOL     OW 3733   6.525   4.517   5.744
  945SOL    HW1 3734   6.539   4.614   5.765
  945SOL    HW2 3735   6.613   4.471   5.742
  946SOL     OW 3736   4.574   3.414   5.911
  946SOL    HW1 3737   4.538   3.440   5.822
  946SOL    HW2 3738   4.509   3.443   5.982
  947SOL     OW 3739   3.348   3.148   4.382
  947SOL    HW1 3740   3.318   3.112   4.471
  947SOL    HW2 3741   3.275   3.136   4.315
  948SOL     OW 3742   4.064   0.543   0.872
  948SOL    HW1 3743   4.086   0.555   0.969
  948SOL    HW2 3744   4.143   0.569   0.816
  949SOL     OW 3745   0.551   6.471   6.514
  949SOL    HW1 3746   0.639   6.445   6.474
  949SOL    HW2 3747   0.556   6.565   6.548
  950SOL     OW 3748   4.225   5.067   1.704
  950SOL    HW1 3749   4.266   5.150   1.667
  950SOL    HW2 3750   4.276   5.039   1.786
  951SOL     OW 3751   1.677   0.732   2.957
  951SOL    HW1 3752   1.746   0.660   2.945
  951SOL    HW2 3753   1.605   0.720   2.889
  952SOL     OW 3754   5.656   1.784   2.576
  952SOL    HW1 3755   5.582   1.794   2.509
  952SOL    HW2 3756   5.732   1.735   2.534
  953SOL     OW 3757   5.361   5.853   5.038
  953SOL    HW1 3758   5.268   5.822   5.017
  953SOL    HW2 3759   5.424   5.818   4.969
  954SOL     OW 3760   5.034   5.573   0.464
  954SOL    HW1 3761   5.039   5.641   0.391
  954SOL    HW2 3762   4.972   5.499   0.437
  955SOL     OW 3763   0.185   5.128   3.413
  955SOL    HW1 3764   0.277   5.129   3.452
  955SOL    HW2 3765   0.141   5.042   3.436
  956SOL     OW 3766   0.175   2.329   2.765
  956SOL    HW1 3767   0.251   2.373   2.717
  956SOL    HW2 3768   0.168   2.233   2.737
  957SOL     OW 3769   1.064   5.315   4.525
  957SOL    HW1 3770   1.098   5.222   4.536
  957SOL    HW2 3771   1.111   5.375   4.589
  958SOL     OW 3772   4.649   2.518   2.266
  958SOL    HW1 3773   4.563   2.469   2.255
  958SOL    HW2 3774   4.691   2.531   2.176
  959SOL     OW 3775   3.340   5.408   3.479
  959SOL    HW1 3776   3.281   5.485   3.503
  959SOL    HW2 3777   3.346   5.401   3.380
  960SOL     OW 3778   0.009   5.674   3.421
  960SOL    HW1 3779   0.085   5.611   3.411
  960SOL    HW2 3780   6.999   5.709   3.331
  961SOL     OW 3781   4.849   0.150   3.429
  961SOL    HW1 3782   4.788   0.122   3.355
  961SOL    HW2 3783   4.807   0.129   3.517
  962SOL     OW 3784   1.246   0.748   4.083
  962SOL    HW1 3785   1.309   0.750   4.005
  962SOL    HW2 3786   1.286   0.695   4.157
  963SOL     OW 3787   6.690   2.454   6.022
  963SOL    HW1 3788   6.735   2.409   5.944
  963SOL    HW2 3789   6.654   2.542   5.993
  964SOL     OW 3790   6.131   4.332   0.425
  964SOL    HW1 3791   6.185   4.248   0.434
  964SOL    HW2 3792   6.076   4.328   0.342
  965SOL     OW 3793   5.572   1.615   0.923
  965SOL    HW1 3794   5.581   1.687   0.992
  965SOL    HW2 3795   5.496   1.637   0.861
  966SOL     OW 3796   5.236   2.769   2.182
  966SOL    HW1 3797   5.161   2.833   2.201
  966SOL    HW2 3798   5.205   2.675   2.197
  967SOL     OW 3799   2.629   4.831   1.582
  967SOL    HW1 3800   2.574   4.904   1.621
  967SOL    HW2 3801   2.681   4.786   1.655
  968SOL     OW 3802   3.781   1.782   2.517
  968SOL    HW1 3803   3.713   1.843   2.559
  968SOL    HW2 3804   3.801   1.815   2.424
  969SOL     OW 3805   3.755   5.484   6.953
  969SOL    HW1 3806   3.814   5.515   6.878
  969SOL    HW2 3807   3.659   5.500   6.930
  970SOL     OW 3808   4.683   1.254   5.127
  970SOL    HW1 3809   4.764   1.309   5.147
  970SOL    HW2 3810   4.626   1.301   5.061
  971SOL     OW 3811   6.943   2.046   2.522
  971SOL    HW1 3812   6.890   2.130   2.508
  971SOL    HW2 3813   6.994   2.054   2.608
  972SOL     OW 3814   5.474   4.040   1.290
  972SOL    HW1 3815   5.567   4.070   1.312
  972SOL    HW2 3816   5.476   3.984   1.207
  973SOL     OW 3817   6.722   4.302   6.744
  973SOL    HW1 3818   6.646   4.274   6.685
  973SOL    HW2 3819   6.781   4.365   6.694
  974SOL     OW 3820   5.351   0.238   2.214
  974SOL    HW1 3821   5.272   0.255   2.155
  974SOL    HW2 3822   5.423   0.194   2.160
  975SOL     OW 3823   1.687   6.080   6.557
  975SOL    HW1 3824   1.773   6.080   6.506
  975SOL    HW2 3825   1.655   5.986   6.569
  976SOL     OW 3826   6.633   3.351   3.067
  976SOL    HW1 3827   6.623   3.393   2.977
  976SOL    HW2 3828   6.648   3.253   3.057
  977SOL     OW 3829   1.325   0.609   3.372
  977SOL    HW1 3830   1.384   0.604   3.452
  977SOL    HW2 3831   1.319   0.704   3.340
  978SOL     OW 3832   4.785   4.013   5.547
  978SOL    HW1 3833   4.722   3.963   5.606
  978SOL    HW2 3834   4.813   3.955   5.470
  979SOL     OW 3835   0.222   2.001   1.039
  979SOL    HW1 3836   0.173   2.007   1.125
  979SOL    HW2 3837   0.306   1.948   1.051
  980SOL     OW 3838   4.101   2.153   4.118
  980SOL    HW1 3839   4.036   2.078   4.108
  980SOL    HW2 3840   4.113   2.173   4.215
  981SOL     OW 3841   1.197   1.941   5.358
  981SOL    HW1 3842   1.245   1.854   5.356
  981SOL    HW2 3843   1.116   1.932   5.417
  982SOL     OW 3844   2.828   2.128   3.372
  982SOL    HW1 3845   2.733   2.121   3.339
  982SOL    HW2 3846   2.827   2.149   3.470
  983SOL     OW 3847   5.839   2.166   4.484
  983SOL    HW1 3848   5.808   2.259   4.503
  983SOL    HW2 3849   5.916   2.144   4.544
  984SOL     OW 3850   3.168   1.507   3.991
  984SOL    HW1 3851   3.156   1.456   3.906
  984SOL    HW2 3852   3.137   1.452   4.068
  985SOL     OW 3853   5.172   4.901   6.456
  985SOL    HW1 3854   5.083   4.937   6.482
  985SOL    HW2 3855   5.244   4.961   6.491
  986SOL     OW 3856   5.514   4.150   0.537
  986SOL    HW1 3857   5.490   4.118   0.446
  986SOL    HW2 3858   5.455   4.104   0.605
  987SOL     OW 3859   4.256   6.919   1.852
  987SOL    HW1 3860   4.175   6.928   1.909
  987SOL    HW2 3861   4.261   6.995   1.788
  988SOL     OW 3862   3.382   3.214   3.001
  988SOL    HW1 3863   3.416   3.157   3.076
  988SOL    HW2 3864   3.301   3.172   2.961
  989SOL     OW 3865   6.491   1.032   5.246
  989SOL    HW1 3866   6.580   1.019   5.288
  989SOL    HW2 3867   6.448   0.943   5.229
  990SOL     OW 3868   4.313   0.618   2.079
  990SOL    HW1 3869   4.319   0.524   2.046
  990SOL    HW2 3870   4.346   0.680   2.007
  991SOL     OW 3871   1.776   2.647   5.128
  991SOL    HW1 3872   1.803   2.636   5.032
  991SOL    HW2 3873   1.854   2.625   5.187
  992SOL     OW 3874   0.017   2.789   2.078
  992SOL    HW1 3875   0.085   2.825   2.014
  992SOL    HW2 3876   6.981   2.716   2.034
  993SOL     OW 3877   1.436   4.312   2.074
  993SOL    HW1 3878   1.472   4.383   2.013
  993SOL    HW2 3879   1.511   4.251   2.101
  994SOL     OW 3880   3.055   4.036   2.158
  994SOL    HW1 3881   3.053   4.038   2.058
  994SOL    HW2 3882   2.980   4.091   2.194
  995SOL     OW 3883   3.606   3.189   5.681
  995SOL    HW1 3884   3.673   3.257   5.708
  995SOL    HW2 3885   3.653   3.106   5.650
  996SOL     OW 3886   1.631   4.584   4.349
  996SOL    HW1 3887   1.624   4.488   4.379
  996SOL    HW2 3888   1.721   4.620   4.373
  997SOL     OW 3889   0.719   0.705   3.216
  997SOL    HW1 3890   0.775   0.782   3.187
  997SOL    HW2 3891   0.765   0.619   3.194
  998SOL     OW 3892   3.781   6.862   4.562
  998SOL    HW1 3893   3.746   6.772   4.537
  998SOL    HW2 3894   3.780   6.921   4.481
  999SOL     OW 3895   5.176   4.473   2.068
  999SOL    HW1 3896   5.246   4.472   1.996
  999SOL    HW2 3897   5.195   4.548   2.131
 1000SOL     OW 3898   1.359   0.760   1.754
 1000SOL    HW1 3899   1.337   0.825   1.827
 1000SOL    HW2 3900   1.456   0.737   1.759
 1001SOL     OW 3901   5.922   6.744   1.109
 1001SOL    HW1 3902   6.006   6.690   1.104
 1001SOL    HW2 3903   5.939   6.834   1.069
 1002SOL     OW 3904   5.941   1.848   0.060
 1002SOL    HW1 3905   5.973   1.776   0.122
 1002SOL    HW2 3906   6.018   1.906   0.032
 1003SOL     OW 3907   2.035   5.950   1.860
 1003SOL    HW1 3908   2.036   5.866   1.915
 1003SOL    HW2 3909   2.111   6.008   1.888
 1004SOL     OW 3910   0.098   0.204   1.774
 1004SOL    HW1 3911   0.175   0.159   1.728
 1004SOL    HW2 3912   0.077   0.290   1.726
 1005SOL     OW 3913   0.736   2.472   3.214
 1005SOL    HW1 3914   0.674   2.412   3.163
 1005SOL    HW2 3915   0.782   2.535   3.151
 1006SOL     OW 3916   1.250   4.731   1.005
 1006SOL    HW1 3917   1.297   4.761   1.088
 1006SOL    HW2 3918   1.316   4.724   0.930
 1007SOL     OW 3919   5.208   6.772   4.295
 1007SOL    HW1 3920   5.153   6.844   4.253
 1007SOL    HW2 3921   5.258   6.809   4.373
 1008SOL     OW 3922   2.136   3.318   4.755
 1008SOL    HW1 3923   2.193   3.278   4.683
 1008SOL    HW2 3924   2.088   3.398   4.718
 1009SOL     OW 3925   0.417   5.419   5.159
 1009SOL    HW1 3926   0.421   5.326   5.197
 1009SOL    HW2 3927   0.481   5.426   5.083
 1010SOL     OW 3928   3.740   2.571   5.948
 1010SOL    HW1 3929   3.762   2.499   5.882
 1010SOL    HW2 3930   3.763   2.540   6.040
 1011SOL     OW 3931   2.533   5.361   2.212
 1011SOL    HW1 3932   2.532   5.452   2.252
 1011SOL    HW2 3933   2.510   5.293   2.282
 1012SOL     OW 3934   6.488   0.295   0.918
 1012SOL    HW1 3935   6.561   0.298   0.986
 1012SOL    HW2 3936   6.414   0.235   0.952
 1013SOL     OW 3937   0.969   0.925   6.081
 1013SOL    HW1 3938   0.985   1.018   6.046
 1013SOL    HW2 3939   1.040   0.864   6.046
 1014SOL     OW 3940   4.821   5.935   6.733
 1014SOL    HW1 3941   4.907   5.892   6.760
 1014SOL    HW2 3942   4.778   5.976   6.814
 1015SOL     OW 3943   2.226   6.746   5.417
 1015SOL    HW1 3944   2.233   6.686   5.496
 1015SOL    HW2 3945   2.264   6.699   5.337
 1016SOL     OW 3946   3.708   3.441   0.153
 1016SOL    HW1 3947   3.675   3.457   0.060
 1016SOL    HW2 3948   3.802   3.408   0.150
 1017SOL     OW 3949   4.006   2.709   1.088
 1017SOL    HW1 3950   4.071   2.670   1.154
 1017SOL    HW2 3951   3.929   2.646   1.076
 1018SOL     OW 3952   0.693   3.405   4.362
 1018SOL    HW1 3953   0.605   3.399   4.410
 1018SOL    HW2 3954   0.766   3.422   4.429
 1019SOL     OW 3955   7.012   0.458   0.779
 1019SOL    HW1 3956   0.015   0.371   0.733
 1019SOL    HW2 3957   6.913   0.465   0.795
 1020SOL     OW 3958   1.034   6.694   1.387
 1020SOL    HW1 3959   1.092   6.659   1.314
 1020SOL    HW2 3960   0.950   6.639   1.392
 1021SOL     OW 3961   5.636   0.455   1.484
 1021SOL    HW1 3962   5.615   0.517   1.408
 1021SOL    HW2 3963   5.555   0.443   1.541
 1022SOL     OW 3964   3.387   4.932   6.366
 1022SOL    HW1 3965   3.414   4.991   6.442
 1022SOL    HW2 3966   3.291   4.951   6.342
 1023SOL     OW 3967   1.083   6.744   2.189
 1023SOL    HW1 3968   1.038   6.803   2.255
 1023SOL    HW2 3969   1.026   6.738   2.106
 1024SOL     OW 3970   0.060   3.137   4.173
 1024SOL    HW1 3971   0.062   3.103   4.079
 1024SOL    HW2 3972   0.009   3.223   4.176
 1025SOL     OW 3973   3.008   3.087   0.797
 1025SOL    HW1 3974   2.975   3.178   0.775
 1025SOL    HW2 3975   2.932   3.022   0.793
 1026SOL     OW 3976   2.432   2.777   1.380
 1026SOL    HW1 3977   2.381   2.717   1.318
 1026SOL    HW2 3978   2.402   2.761   1.474
 1027SOL     OW 3979   2.974   6.616   0.997
 1027SOL    HW1 3980   3.063   6.584   1.029
 1027SOL    HW2 3981   2.948   6.567   0.913
 1028SOL     OW 3982   2.869   6.364   7.010
 1028SOL    HW1 3983   2.830   6.429   0.058
 1028SOL    HW2 3984   2.909   6.414   6.933
 1029SOL     OW 3985   2.232   0.542   0.082
 1029SOL    HW1 3986   2.254   0.542   0.180
 1029SOL    HW2 3987   2.152   0.484   0.066
 1030SOL     OW 3988   3.269   3.978   1.614
 1030SOL    HW1 3989   3.171   3.965   1.626
 1030SOL    HW2 3990   3.310   4.004   1.702
 1031SOL     OW 3991   4.754   5.084   0.823
 1031SOL    HW1 3992   4.669   5.054   0.779
 1031SOL    HW2 3993   4.797   5.156   0.769
 1032SOL     OW 3994   1.985   1.526   4.907
 1032SOL    HW1 3995   1.996   1.442   4.959
 1032SOL    HW2 3996   2.053   1.593   4.937
 1033SOL     OW 3997   1.342   6.109   0.803
 1033SOL    HW1 3998   1.315   6.201   0.773
 1033SOL    HW2 3999   1.372   6.056   0.723
 1034SOL     OW 4000   0.579   5.613   5.328
 1034SOL    HW1 4001   0.512   5.538   5.322
 1034SOL    HW2 4002   0.534   5.699   5.304
 1035SOL     OW 4003   1.082   1.394   4.150
 1035SOL    HW1 4004   1.090   1.399   4.050
 1035SOL    HW2 4005   1.173   1.392   4.191
 1036SOL     OW 4006   2.661   1.372   2.199
 1036SOL    HW1 4007   2.638   1.283   2.162
 1036SOL    HW2 4008   2.721   1.420   2.135
 1037SOL     OW 4009   1.644   0.610   1.535
 1037SOL    HW1 4010   1.684   0.519   1.545
 1037SOL    HW2 4011   1.590   0.632   1.616
 1038SOL     OW 4012   1.694   0.208   5.861
 1038SOL    HW1 4013   1.597   0.187   5.847
 1038SOL    HW2 4014   1.712   0.211   5.960
 1039SOL     OW 4015   3.413   2.890   5.837
 1039SOL    HW1 4016   3.486   2.957   5.827
 1039SOL    HW2 4017   3.425   2.817   5.770
 1040SOL     OW 4018   4.728   2.802   2.581
 1040SOL    HW1 4019   4.752   2.887   2.629
 1040SOL    HW2 4020   4.730   2.818   2.482
 1041SOL     OW 4021   6.138   0.142   4.482
 1041SOL    HW1 4022   6.173   0.191   4.402
 1041SOL    HW2 4023   6.145   0.044   4.467
 1042SOL     OW 4024   3.690   5.263   2.700
 1042SOL    HW1 4025   3.645   5.258   2.611
 1042SOL    HW2 4026   3.786   5.234   2.690
 1043SOL     OW 4027   4.063   1.272   4.422
 1043SOL    HW1 4028   4.140   1.310   4.473
 1043SOL    HW2 4029   3.978   1.314   4.453
 1044SOL     OW 4030   4.935   4.391   2.207
 1044SOL    HW1 4031   5.010   4.424   2.149
 1044SOL    HW2 4032   4.905   4.464   2.268
 1045SOL     OW 4033   3.848   6.103   2.107
 1045SOL    HW1 4034   3.895   6.188   2.130
 1045SOL    HW2 4035   3.753   6.109   2.135
 1046SOL     OW 4036   1.231   0.039   0.620
 1046SOL    HW1 4037   1.255   0.104   0.548
 1046SOL    HW2 4038   1.171   6.984   0.582
 1047SOL     OW 4039   1.441   0.163   2.982
 1047SOL    HW1 4040   1.470   0.256   2.963
 1047SOL    HW2 4041   1.456   0.142   3.079
 1048SOL     OW 4042   5.579   6.478   5.055
 1048SOL    HW1 4043   5.605   6.552   4.993
 1048SOL    HW2 4044   5.540   6.402   5.003
 1049SOL     OW 4045   6.168   5.402   3.580
 1049SOL    HW1 4046   6.109   5.339   3.631
 1049SOL    HW2 4047   6.251   5.355   3.552
 1050SOL     OW 4048   4.388   5.395   1.001
 1050SOL    HW1 4049   4.405   5.343   1.085
 1050SOL    HW2 4050   4.472   5.441   0.973
 1051SOL     OW 4051   2.317   5.465   0.608
 1051SOL    HW1 4052   2.230   5.468   0.558
 1051SOL    HW2 4053   2.393   5.475   0.544
 1052SOL     OW 4054   3.825   0.776   4.550
 1052SOL    HW1 4055   3.744   0.785   4.609
 1052SOL    HW2 4056   3.834   0.682   4.519
 1053SOL     OW 4057   5.276   5.337   3.203
 1053SOL    HW1 4058   5.304   5.423   3.159
 1053SOL    HW2 4059   5.305   5.260   3.147
 1054SOL     OW 4060   2.095   3.711   5.486
 1054SOL    HW1 4061   2.186   3.678   5.460
 1054SOL    HW2 4062   2.077   3.798   5.441
 1055SOL     OW 4063   5.469   6.400   3.738
 1055SOL    HW1 4064   5.542   6.352   3.786
 1055SOL    HW2 4065   5.402   6.434   3.804
 1056SOL     OW 4066   1.817   4.681   5.973
 1056SOL    HW1 4067   1.768   4.768   5.976
 1056SOL    HW2 4068   1.862   4.672   5.883
 1057SOL     OW 4069   3.489   3.213   2.581
 1057SOL    HW1 4070   3.443   3.225   2.493
 1057SOL    HW2 4071   3.450   3.134   2.628
 1058SOL     OW 4072   5.105   1.708   2.937
 1058SOL    HW1 4073   5.151   1.741   2.854
 1058SOL    HW2 4074   5.150   1.625   2.968
 1059SOL     OW 4075   2.579   0.367   1.710
 1059SOL    HW1 4076   2.662   0.316   1.686
 1059SOL    HW2 4077   2.525   0.383   1.628
 1060SOL     OW 4078   6.880   4.337   4.624
 1060SOL    HW1 4079   6.857   4.390   4.543
 1060SOL    HW2 4080   6.899   4.242   4.599
 1061SOL     OW 4081   5.339   3.682   1.279
 1061SOL    HW1 4082   5.249   3.656   1.314
 1061SOL    HW2 4083   5.408   3.616   1.310
 1062SOL     OW 4084   5.831   4.242   5.568
 1062SOL    HW1 4085   5.770   4.179   5.615
 1062SOL    HW2 4086   5.926   4.224   5.596
 1063SOL     OW 4087   1.478   4.714   1.542
 1063SOL    HW1 4088   1.504   4.809   1.527
 1063SOL    HW2 4089   1.516   4.656   1.470
 1064SOL     OW 4090   1.707   4.438   2.289
 1064SOL    HW1 4091   1.657   4.516   2.252
 1064SOL    HW2 4092   1.755   4.391   2.214
 1065SOL     OW 4093   4.397   0.043   3.982
 1065SOL    HW1 4094   4.324   0.011   3.921
 1065SOL    HW2 4095   4.366   0.035   4.077
 1066SOL     OW 4096   4.787   0.148   3.957
 1066SOL    HW1 4097   4.815   0.218   3.891
 1066SOL    HW2 4098   4.820   0.173   4.048
 1067SOL     OW 4099   1.202   3.326   0.420
 1067SOL    HW1 4100   1.147   3.375   0.488
 1067SOL    HW2 4101   1.272   3.272   0.465
 1068SOL     OW 4102   4.765   4.949   2.553
 1068SOL    HW1 4103   4.757   5.044   2.524
 1068SOL    HW2 4104   4.728   4.889   2.482
 1069SOL     OW 4105   4.885   4.918   0.501
 1069SOL    HW1 4106   4.867   4.875   0.590
 1069SOL    HW2 4107   4.799   4.943   0.457
 1070SOL     OW 4108   0.781   0.497   1.982
 1070SOL    HW1 4109   0.726   0.499   2.066
 1070SOL    HW2 4110   0.721   0.478   1.904
 1071SOL     OW 4111   2.320   0.702   3.781
 1071SOL    HW1 4112   2.322   0.672   3.686
 1071SOL    HW2 4113   2.327   0.623   3.841
 1072SOL     OW 4114   1.823   6.357   1.513
 1072SOL    HW1 4115   1.772   6.438   1.540
 1072SOL    HW2 4116   1.769   6.302   1.449
 1073SOL     OW 4117   4.408   6.481   2.081
 1073SOL    HW1 4118   4.338   6.419   2.115
 1073SOL    HW2 4119   4.367   6.547   2.018
 1074SOL     OW 4120   2.511   5.477   0.388
 1074SOL    HW1 4121   2.555   5.567   0.390
 1074SOL    HW2 4122   2.578   5.408   0.359
 1075SOL     OW 4123   3.986   6.622   3.685
 1075SOL    HW1 4124   3.959   6.696   3.623
 1075SOL    HW2 4125   4.081   6.635   3.713
 1076SOL     OW 4126   6.436   4.374   5.539
 1076SOL    HW1 4127   6.373   4.415   5.473
 1076SOL    HW2 4128   6.457   4.440   5.611
 1077SOL     OW 4129   6.058   0.352   0.796
 1077SOL    HW1 4130   5.975   0.315   0.754
 1077SOL    HW2 4131   6.135   0.291   0.778
 1078SOL     OW 4132   0.673   1.411   2.447
 1078SOL    HW1 4133   0.679   1.345   2.373
 1078SOL    HW2 4134   0.711   1.498   2.417
 1079SOL     OW 4135   1.826   6.181   2.095
 1079SOL    HW1 4136   1.829   6.212   2.000
 1079SOL    HW2 4137   1.750   6.225   2.143
 1080SOL     OW 4138   1.823   4.672   3.484
 1080SOL    HW1 4139   1.816   4.673   3.584
 1080SOL    HW2 4140   1.894   4.607   3.456
 1081SOL     OW 4141   0.070   6.354   6.027
 1081SOL    HW1 4142   0.124   6.279   5.989
 1081SOL    HW2 4143   6.993   6.351   5.991
 1082SOL     OW 4144   3.811   1.894   6.442
 1082SOL    HW1 4145   3.867   1.964   6.396
 1082SOL    HW2 4146   3.767   1.837   6.373
 1083SOL     OW 4147   4.228   4.067   1.164
 1083SOL    HW1 4148   4.214   4.163   1.138
 1083SOL    HW2 4149   4.286   4.063   1.245
 1084SOL     OW 4150   6.497   5.544   1.179
 1084SOL    HW1 4151   6.427   5.481   1.211
 1084SOL    HW2 4152   6.551   5.501   1.106
 1085SOL     OW 4153   0.994   4.218   3.752
 1085SOL    HW1 4154   1.069   4.194   3.812
 1085SOL    HW2 4155   1.029   4.243   3.662
 1086SOL     OW 4156   6.681   5.896   1.960
 1086SOL    HW1 4157   6.712   5.803   1.982
 1086SOL    HW2 4158   6.612   5.892   1.888
 1087SOL     OW 4159   6.070   3.343   5.265
 1087SOL    HW1 4160   6.153   3.397   5.253
 1087SOL    HW2 4161   6.088   3.247   5.243
 1088SOL     OW 4162   5.916   4.579   3.416
 1088SOL    HW1 4163   5.969   4.603   3.335
 1088SOL    HW2 4164   5.843   4.515   3.391
 1089SOL     OW 4165   1.425   6.739   4.562
 1089SOL    HW1 4166   1.452   6.664   4.501
 1089SOL    HW2 4167   1.326   6.739   4.573
 1090SOL     OW 4168   2.369   1.450   3.771
 1090SOL    HW1 4169   2.457   1.410   3.795
 1090SOL    HW2 4170   2.310   1.452   3.853
 1091SOL     OW 4171   2.694   2.972   5.363
 1091SOL    HW1 4172   2.663   3.010   5.449
 1091SOL    HW2 4173   2.623   2.984   5.293
 1092SOL     OW 4174   1.892   3.854   0.625
 1092SOL    HW1 4175   1.816   3.919   0.629
 1092SOL    HW2 4176   1.857   3.761   0.639
 1093SOL     OW 4177   1.672   1.767   1.956
 1093SOL    HW1 4178   1.649   1.854   2.000
 1093SOL    HW2 4179   1.725   1.710   2.020
 1094SOL     OW 4180   0.793   6.294   3.918
 1094SOL    HW1 4181   0.697   6.322   3.921
 1094SOL    HW2 4182   0.832   6.322   3.830
 1095SOL     OW 4183   0.718   2.587   5.766
 1095SOL    HW1 4184   0.716   2.668   5.825
 1095SOL    HW2 4185   0.787   2.599   5.695
 1096SOL     OW 4186   3.308   4.605   1.702
 1096SOL    HW1 4187   3.394   4.636   1.740
 1096SOL    HW2 4188   3.299   4.506   1.715
 1097SOL     OW 4189   1.667   4.245   4.050
 1097SOL    HW1 4190   1.618   4.330   4.069
 1097SOL    HW2 4191   1.734   4.228   4.122
 1098SOL     OW 4192   4.578   3.315   0.995
 1098SOL    HW1 4193   4.675   3.335   0.982
 1098SOL    HW2 4194   4.567   3.223   1.031
 1099SOL     OW 4195   4.440   1.748   5.257
 1099SOL    HW1 4196   4.391   1.749   5.344
 1099SOL    HW2 4197   4.389   1.803   5.190
 1100SOL     OW 4198   3.411   1.864   6.241
 1100SOL    HW1 4199   3.316   1.887   6.264
 1100SOL    HW2 4200   3.415   1.825   6.149
 1101SOL     OW 4201   6.448   2.237   0.068
 1101SOL    HW1 4202   6.452   2.158   0.129
 1101SOL    HW2 4203   6.421   2.208   6.993
 1102SOL     OW 4204   0.484   5.567   4.076
 1102SOL    HW1 4205   0.388   5.585   4.098
 1102SOL    HW2 4206   0.498   5.578   3.978
 1103SOL     OW 4207   3.641   1.658   0.781
 1103SOL    HW1 4208   3.556   1.663   0.728
 1103SOL    HW2 4209   3.686   1.570   0.763
 1104SOL     OW 4210   2.244   3.415   5.197
 1104SOL    HW1 4211   2.309   3.342   5.220
 1104SOL    HW2 4212   2.287   3.504   5.213
 1105SOL     OW 4213   6.095   3.822   4.755
 1105SOL    HW1 4214   6.090   3.832   4.854
 1105SOL    HW2 4215   6.179   3.867   4.722
 1106SOL     OW 4216   0.636   1.934   0.802
 1106SOL    HW1 4217   0.662   1.839   0.820
 1106SOL    HW2 4218   0.705   1.977   0.744
 1107SOL     OW 4219   2.152   0.214   6.469
 1107SOL    HW1 4220   2.116   0.121   6.474
 1107SOL    HW2 4221   2.186   0.242   6.559
 1108SOL     OW 4222   3.237   1.071   6.051
 1108SOL    HW1 4223   3.161   1.033   6.105
 1108SOL    HW2 4224   3.228   1.170   6.047
 1109SOL     OW 4225   4.263   0.113   4.776
 1109SOL    HW1 4226   4.309   0.076   4.857
 1109SOL    HW2 4227   4.302   0.203   4.755
 1110SOL     OW 4228   2.976   2.224   3.114
 1110SOL    HW1 4229   2.924   2.215   3.200
 1110SOL    HW2 4230   2.917   2.263   3.044
 1111SOL     OW 4231   4.987   4.916   6.790
 1111SOL    HW1 4232   5.014   4.991   6.730
 1111SOL    HW2 4233   5.059   4.847   6.792
 1112SOL     OW 4234   5.940   1.354   2.400
 1112SOL    HW1 4235   6.036   1.342   2.425
 1112SOL    HW2 4236   5.885   1.282   2.444
 1113SOL     OW 4237   0.122   3.880   3.319
 1113SOL    HW1 4238   0.210   3.896   3.364
 1113SOL    HW2 4239   0.058   3.953   3.342
 1114SOL     OW 4240   4.387   1.529   6.652
 1114SOL    HW1 4241   4.376   1.497   6.558
 1114SOL    HW2 4242   4.318   1.598   6.673
 1115SOL     OW 4243   4.245   3.059   0.297
 1115SOL    HW1 4244   4.224   3.089   0.390
 1115SOL    HW2 4245   4.290   3.133   0.247
 1116SOL     OW 4246   5.334   5.662   5.500
 1116SOL    HW1 4247   5.345   5.755   5.538
 1116SOL    HW2 4248   5.325   5.597   5.575
 1117SOL     OW 4249   1.631   2.328   1.477
 1117SOL    HW1 4250   1.548   2.319   1.422
 1117SOL    HW2 4251   1.658   2.239   1.512
 1118SOL     OW 4252   2.323   4.103   1.872
 1118SOL    HW1 4253   2.368   4.027   1.826
 1118SOL    HW2 4254   2.388   4.147   1.934
 1119SOL     OW 4255   4.769   4.420   0.497
 1119SOL    HW1 4256   4.815   4.487   0.438
 1119SOL    HW2 4257   4.699   4.466   0.551
 1120SOL     OW 4258   5.824   0.239   4.919
 1120SOL    HW1 4259   5.763   0.282   4.852
 1120SOL    HW2 4260   5.916   0.233   4.882
 1121SOL     OW 4261   4.973   5.172   2.756
 1121SOL    HW1 4262   4.933   5.087   2.790
 1121SOL    HW2 4263   5.073   5.167   2.764
 1122SOL     OW 4264   4.428   3.239   0.192
 1122SOL    HW1 4265   4.447   3.222   0.288
 1122SOL    HW2 4266   4.355   3.307   0.183
 1123SOL     OW 4267   5.488   1.891   3.295
 1123SOL    HW1 4268   5.407   1.885   3.237
 1123SOL    HW2 4269   5.471   1.845   3.382
 1124SOL     OW 4270   6.159   3.997   5.272
 1124SOL    HW1 4271   6.126   4.091   5.280
 1124SOL    HW2 4272   6.255   3.993   5.299
 1125SOL     OW 4273   3.129   1.317   4.774
 1125SOL    HW1 4274   3.143   1.403   4.822
 1125SOL    HW2 4275   3.034   1.311   4.742
 1126SOL     OW 4276   5.392   6.063   6.964
 1126SOL    HW1 4277   5.423   5.968   6.960
 1126SOL    HW2 4278   5.467   6.123   6.937
 1127SOL     OW 4279   4.936   4.975   5.044
 1127SOL    HW1 4280   4.912   5.020   5.130
 1127SOL    HW2 4281   4.933   4.876   5.057
 1128SOL     OW 4282   5.143   2.207   5.532
 1128SOL    HW1 4283   5.165   2.111   5.515
 1128SOL    HW2 4284   5.119   2.220   5.628
 1129SOL     OW 4285   3.475   0.512   6.545
 1129SOL    HW1 4286   3.410   0.501   6.469
 1129SOL    HW2 4287   3.489   0.609   6.563
 1130SOL     OW 4288   1.864   4.348   1.085
 1130SOL    HW1 4289   1.911   4.277   1.137
 1130SOL    HW2 4290   1.911   4.363   0.998
 1131SOL     OW 4291   0.186   6.131   5.933
 1131SOL    HW1 4292   0.108   6.068   5.928
 1131SOL    HW2 4293   0.245   6.104   6.009
 1132SOL     OW 4294   5.041   7.012   1.323
 1132SOL    HW1 4295   5.027   0.063   1.250
 1132SOL    HW2 4296   5.070   0.042   1.406
 1133SOL     OW 4297   0.847   1.120   0.953
 1133SOL    HW1 4298   0.914   1.047   0.937
 1133SOL    HW2 4299   0.892   1.196   0.998
 1134SOL     OW 4300   4.979   1.425   1.519
 1134SOL    HW1 4301   4.986   1.460   1.425
 1134SOL    HW2 4302   4.894   1.457   1.560
 1135SOL     OW 4303   2.026   1.196   2.713
 1135SOL    HW1 4304   2.033   1.244   2.800
 1135SOL    HW2 4305   1.931   1.196   2.683
 1136SOL     OW 4306   3.456   5.403   4.848
 1136SOL    HW1 4307   3.489   5.483   4.799
 1136SOL    HW2 4308   3.509   5.391   4.932
 1137SOL     OW 4309   1.345   1.776   5.849
 1137SOL    HW1 4310   1.378   1.693   5.805
 1137SOL    HW2 4311   1.362   1.854   5.791
 1138SOL     OW 4312   0.639   1.354   6.553
 1138SOL    HW1 4313   0.693   1.299   6.489
 1138SOL    HW2 4314   0.695   1.379   6.631
 1139SOL     OW 4315   2.987   5.577   1.540
 1139SOL    HW1 4316   2.892   5.549   1.551
 1139SOL    HW2 4317   3.035   5.570   1.628
 1140SOL     OW 4318   3.497   1.161   1.901
 1140SOL    HW1 4319   3.413   1.215   1.899
 1140SOL    HW2 4320   3.479   1.069   1.866
 1141SOL     OW 4321   6.989   6.451   6.510
 1141SOL    HW1 4322   6.934   6.534   6.517
 1141SOL    HW2 4323   0.068   6.473   6.533
 1142SOL     OW 4324   2.883   0.245   4.387
 1142SOL    HW1 4325   2.945   0.312   4.345
 1142SOL    HW2 4326   2.802   0.292   4.422
 1143SOL     OW 4327   1.956   3.552   1.588
 1143SOL    HW1 4328   1.991   3.587   1.675
 1143SOL    HW2 4329   1.856   3.548   1.591
 1144SOL     OW 4330   6.034   4.650   5.480
 1144SOL    HW1 4331   6.067   4.574   5.537
 1144SOL    HW2 4332   5.958   4.696   5.527
 1145SOL     OW 4333   6.692   4.257   2.253
 1145SOL    HW1 4334   6.778   4.237   2.299
 1145SOL    HW2 4335   6.701   4.235   2.156
 1146SOL     OW 4336   6.181   0.781   1.596
 1146SOL    HW1 4337   6.223   0.723   1.526
 1146SOL    HW2 4338   6.237   0.780   1.678
 1147SOL     OW 4339   1.575   4.383   1.127
 1147SOL    HW1 4340   1.573   4.476   1.089
 1147SOL    HW2 4341   1.666   4.344   1.115
 1148SOL     OW 4342   4.535   6.869   6.495
 1148SOL    HW1 4343   4.576   6.855   6.586
 1148SOL    HW2 4344   4.437   6.886   6.505
 1149SOL     OW 4345   6.784   4.413   2.705
 1149SOL    HW1 4346   6.779   4.374   2.797
 1149SOL    HW2 4347   6.693   4.437   2.673
 1150SOL     OW 4348   2.487   3.880   0.791
 1150SOL    HW1 4349   2.486   3.856   0.694
 1150SOL    HW2 4350   2.484   3.796   0.846
 1151SOL     OW 4351   5.216   5.057   6.197
 1151SOL    HW1 4352   5.139   5.109   6.162
 1151SOL    HW2 4353   5.186   4.998   6.273
 1152SOL     OW 4354   6.965   5.863   5.571
 1152SOL    HW1 4355   0.032   5.840   5.623
 1152SOL    HW2 4356   6.906   5.921   5.627
 1153SOL     OW 4357   2.382   0.396   2.226
 1153SOL    HW1 4358   2.406   0.492   2.215
 1153SOL    HW2 4359   2.343   0.381   2.317
 1154SOL     OW 4360   0.471   4.105   1.993
 1154SOL    HW1 4361   0.406   4.094   2.069
 1154SOL    HW2 4362   0.483   4.017   1.946
 1155SOL     OW 4363   2.493   5.309   6.684
 1155SOL    HW1 4364   2.509   5.407   6.687
 1155SOL    HW2 4365   2.428   5.287   6.611
 1156SOL     OW 4366   2.723   1.231   4.914
 1156SOL    HW1 4367   2.734   1.132   4.913
 1156SOL    HW2 4368   2.626   1.254   4.931
 1157SOL     OW 4369   6.111   0.551   5.154
 1157SOL    HW1 4370   6.118   0.453   5.173
 1157SOL    HW2 4371   6.174   0.601   5.214
 1158SOL     OW 4372   6.920   5.627   5.356
 1158SOL    HW1 4373   7.016   5.599   5.356
 1158SOL    HW2 4374   6.905   5.697   5.425
 1159SOL     OW 4375   5.399   6.925   3.576
 1159SOL    HW1 4376   5.436   6.849   3.629
 1159SOL    HW2 4377   5.464   6.950   3.505
 1160SOL     OW 4378   3.791   3.186   1.371
 1160SOL    HW1 4379   3.784   3.168   1.469
 1160SOL    HW2 4380   3.699   3.192   1.332
 1161SOL     OW 4381   5.191   0.480   6.365
 1161SOL    HW1 4382   5.203   0.449   6.271
 1161SOL    HW2 4383   5.277   0.519   6.399
 1162SOL     OW 4384   2.882   2.056   6.802
 1162SOL    HW1 4385   2.825   1.980   6.770
 1162SOL    HW2 4386   2.953   2.075   6.735
 1163SOL     OW 4387   6.889   3.144   1.957
 1163SOL    HW1 4388   6.920   3.072   1.895
 1163SOL    HW2 4389   6.833   3.103   2.029
 1164SOL     OW 4390   5.297   2.387   4.501
 1164SOL    HW1 4391   5.237   2.336   4.439
 1164SOL    HW2 4392   5.243   2.421   4.578
 1165SOL     OW 4393   1.865   4.666   4.443
 1165SOL    HW1 4394   1.931   4.740   4.428
 1165SOL    HW2 4395   1.908   4.594   4.497
 1166SOL     OW 4396   3.989   0.238   0.519
 1166SOL    HW1 4397   3.937   0.201   0.595
 1166SOL    HW2 4398   3.969   0.185   0.436
 1167SOL     OW 4399   3.552   6.346   6.392
 1167SOL    HW1 4400   3.603   6.400   6.325
 1167SOL    HW2 4401   3.461   6.386   6.404
 1168SOL     OW 4402   6.084   1.880   3.527
 1168SOL    HW1 4403   6.109   1.792   3.487
 1168SOL    HW2 4404   6.014   1.924   3.469
 1169SOL     OW 4405   5.433   2.783   6.538
 1169SOL    HW1 4406   5.428   2.686   6.513
 1169SOL    HW2 4407   5.423   2.839   6.456
 1170SOL     OW 4408   5.434   1.257   2.218
 1170SOL    HW1 4409   5.419   1.160   2.203
 1170SOL    HW2 4410   5.531   1.275   2.230
 1171SOL     OW 4411   2.902   6.778   0.024
 1171SOL    HW1 4412   2.813   6.767   6.996
 1171SOL    HW2 4413   2.962   6.831   6.981
 1172SOL     OW 4414   3.493   3.774   1.771
 1172SOL    HW1 4415   3.510   3.849   1.835
 1172SOL    HW2 4416   3.405   3.788   1.726
 1173SOL     OW 4417   3.136   6.817   5.757
 1173SOL    HW1 4418   3.185   6.900   5.783
 1173SOL    HW2 4419   3.068   6.839   5.687
 1174SOL     OW 4420   3.120   4.289   0.444
 1174SOL    HW1 4421   3.093   4.252   0.533
 1174SOL    HW2 4422   3.190   4.359   0.456
 1175SOL     OW 4423   3.990   2.939   6.697
 1175SOL    HW1 4424   4.068   2.982   6.742
 1175SOL    HW2 4425   3.916   3.005   6.686
 1176SOL     OW 4426   6.084   4.573   0.567
 1176SOL    HW1 4427   6.100   4.486   0.520
 1176SOL    HW2 4428   5.986   4.587   0.578
 1177SOL     OW 4429   0.040   1.627   6.131
 1177SOL    HW1 4430   6.964   1.621   6.093
 1177SOL    HW2 4431   0.039   1.681   6.214
 1178SOL     OW 4432   4.083   3.832   1.178
 1178SOL    HW1 4433   3.993   3.862   1.147
 1178SOL    HW2 4434   4.151   3.902   1.157
 1179SOL     OW 4435   3.431   5.857   0.412
 1179SOL    HW1 4436   3.389   5.806   0.487
 1179SOL    HW2 4437   3.515   5.811   0.383
 1180SOL     OW 4438   2.497   6.801   3.563
 1180SOL    HW1 4439   2.528   6.893   3.585
 1180SOL    HW2 4440   2.568   6.735   3.589
 1181SOL     OW 4441   6.630   2.617   4.873
 1181SOL    HW1 4442   6.691   2.626   4.952
 1181SOL    HW2 4443   6.597   2.522   4.866
 1182SOL     OW 4444   3.105   5.350   3.828
 1182SOL    HW1 4445   3.078   5.367   3.922
 1182SOL    HW2 4446   3.057   5.270   3.793
 1183SOL     OW 4447   4.009   6.275   1.445
 1183SOL    HW1 4448   3.936   6.267   1.513
 1183SOL    HW2 4449   4.076   6.202   1.458
 1184SOL     OW 4450   4.150   6.994   6.269
 1184SOL    HW1 4451   4.075   6.965   6.210
 1184SOL    HW2 4452   4.162   6.928   6.343
 1185SOL     OW 4453   1.551   6.974   0.820
 1185SOL    HW1 4454   1.534   6.928   0.733
 1185SOL    HW2 4455   1.496   0.041   0.826
 1186SOL     OW 4456   6.084   5.594   6.281
 1186SOL    HW1 4457   6.053   5.563   6.191
 1186SOL    HW2 4458   6.075   5.693   6.287
 1187SOL     OW 4459   5.408   0.221   5.263
 1187SOL    HW1 4460   5.483   0.164   5.297
 1187SOL    HW2 4461   5.322   0.171   5.269
 1188SOL     OW 4462   3.288   6.130   6.498
 1188SOL    HW1 4463   3.270   6.141   6.401
 1188SOL    HW2 4464   3.205   6.095   6.543
 1189SOL     OW 4465   6.214   1.045   2.166
 1189SOL    HW1 4466   6.209   1.051   2.066
 1189SOL    HW2 4467   6.304   1.075   2.197
 1190SOL     OW 4468   3.607   4.934   4.022
 1190SOL    HW1 4469   3.587   5.031   4.028
 1190SOL    HW2 4470   3.632   4.910   3.928
 1191SOL     OW 4471   3.042   6.782   4.419
 1191SOL    HW1 4472   3.130   6.788   4.467
 1191SOL    HW2 4473   3.057   6.744   4.328
 1192SOL     OW 4474   5.433   6.101   2.789
 1192SOL    HW1 4475   5.353   6.145   2.830
 1192SOL    HW2 4476   5.405   6.017   2.743
 1193SOL     OW 4477   0.369   0.632   5.716
 1193SOL    HW1 4478   0.305   0.576   5.768
 1193SOL    HW2 4479   0.414   0.576   5.646
 1194SOL     OW 4480   6.891   1.471   1.235
 1194SOL    HW1 4481   6.837   1.458   1.152
 1194SOL    HW2 4482   6.890   1.386   1.288
 1195SOL     OW 4483   6.779   3.223   1.328
 1195SOL    HW1 4484   6.715   3.198   1.255
 1195SOL    HW2 4485   6.826   3.141   1.361
 1196SOL     OW 4486   6.303   5.045   1.742
 1196SOL    HW1 4487   6.260   5.105   1.810
 1196SOL    HW2 4488   6.295   5.087   1.651
 1197SOL     OW 4489   4.675   6.492   4.194
 1197SOL    HW1 4490   4.739   6.532   4.259
 1197SOL    HW2 4491   4.636   6.408   4.233
 1198SOL     OW 4492   1.316   3.656   2.397
 1198SOL    HW1 4493   1.411   3.684   2.389
 1198SOL    HW2 4494   1.305   3.564   2.359
 1199SOL     OW 4495   3.779   3.313   2.955
 1199SOL    HW1 4496   3.835   3.350   2.881
 1199SOL    HW2 4497   3.761   3.216   2.938
 1200SOL     OW 4498   3.863   3.783   4.491
 1200SOL    HW1 4499   3.920   3.788   4.574
 1200SOL    HW2 4500   3.801   3.704   4.498
 1201SOL     OW 4501   6.572   0.907   4.422
 1201SOL    HW1 4502   6.496   0.842   4.423
 1201SOL    HW2 4503   6.628   0.892   4.341
 1202SOL     OW 4504   6.147   0.958   6.015
 1202SOL    HW1 4505   6.219   0.979   5.949
 1202SOL    HW2 4506   6.177   0.985   6.106
 1203SOL     OW 4507   0.180   6.790   1.253
 1203SOL    HW1 4508   0.084   6.768   1.269
 1203SOL    HW2 4509   0.190   6.830   1.162
 1204SOL     OW 4510   4.338   1.770   1.834
 1204SOL    HW1 4511   4.397   1.850   1.846
 1204SOL    HW2 4512   4.267   1.770   1.904
 1205SOL     OW 4513   3.961   3.319   7.011
 1205SOL    HW1 4514   3.947   3.312   6.912
 1205SOL    HW2 4515   3.993   3.411   0.017
 1206SOL     OW 4516   1.380   2.106   4.537
 1206SOL    HW1 4517   1.325   2.162   4.475
 1206SOL    HW2 4518   1.364   2.135   4.631
 1207SOL     OW 4519   0.004   0.297   6.917
 1207SOL    HW1 4520   0.062   0.290   6.999
 1207SOL    HW2 4521   6.932   0.254   6.935
 1208SOL     OW 4522   3.346   3.608   1.288
 1208SOL    HW1 4523   3.286   3.549   1.343
 1208SOL    HW2 4524   3.328   3.704   1.312
 1209SOL     OW 4525   5.536   0.862   4.291
 1209SOL    HW1 4526   5.535   0.953   4.248
 1209SOL    HW2 4527   5.542   0.792   4.221
 1210SOL     OW 4528   4.811   6.837   3.585
 1210SOL    HW1 4529   4.734   6.897   3.608
 1210SOL    HW2 4530   4.808   6.756   3.644
 1211SOL     OW 4531   1.078   3.640   3.606
 1211SOL    HW1 4532   1.166   3.597   3.628
 1211SOL    HW2 4533   1.066   3.721   3.663
 1212SOL     OW 4534   6.559   0.844   6.094
 1212SOL    HW1 4535   6.499   0.850   6.015
 1212SOL    HW2 4536   6.578   0.936   6.129
 1213SOL     OW 4537   5.823   2.554   2.816
 1213SOL    HW1 4538   5.846   2.461   2.789
 1213SOL    HW2 4539   5.725   2.562   2.833
 1214SOL     OW 4540   0.603   2.347   6.065
 1214SOL    HW1 4541   0.664   2.330   6.142
 1214SOL    HW2 4542   0.521   2.291   6.074
 1215SOL     OW 4543   2.417   5.199   2.855
 1215SOL    HW1 4544   2.496   5.158   2.810
 1215SOL    HW2 4545   2.424   5.185   2.954
 1216SOL     OW 4546   0.371   0.939   0.094
 1216SOL    HW1 4547   0.310   0.880   0.042
 1216SOL    HW2 4548   0.406   1.011   0.035
 1217SOL     OW 4549   2.785   5.038   0.656
 1217SOL    HW1 4550   2.796   5.128   0.612
 1217SOL    HW2 4551   2.688   5.023   0.675
 1218SOL     OW 4552   0.846   3.971   5.548
 1218SOL    HW1 4553   0.847   3.967   5.448
 1218SOL    HW2 4554   0.939   3.990   5.581
 1219SOL     OW 4555   5.040   5.371   1.802
 1219SOL    HW1 4556   5.006   5.459   1.769
 1219SOL    HW2 4557   5.048   5.308   1.725
 1220SOL     OW 4558   6.593   4.158   2.727
 1220SOL    HW1 4559   6.541   4.233   2.687
 1220SOL    HW2 4560   6.531   4.084   2.753
 1221SOL     OW 4561   5.578   3.895   6.221
 1221SOL    HW1 4562   5.642   3.818   6.226
 1221SOL    HW2 4563   5.531   3.904   6.309
 1222SOL     OW 4564   0.819   0.463   0.387
 1222SOL    HW1 4565   0.900   0.521   0.378
 1222SOL    HW2 4566   0.737   0.517   0.373
 1223SOL     OW 4567   3.873   1.451   0.086
 1223SOL    HW1 4568   3.922   1.539   0.084
 1223SOL    HW2 4569   3.917   1.388   0.022
 1224SOL     OW 4570   2.428   5.853   0.218
 1224SOL    HW1 4571   2.487   5.851   0.299
 1224SOL    HW2 4572   2.427   5.762   0.176
 1225SOL     OW 4573   4.076   2.395   0.381
 1225SOL    HW1 4574   4.042   2.467   0.321
 1225SOL    HW2 4575   4.013   2.382   0.458
 1226SOL     OW 4576   4.523   6.160   0.847
 1226SOL    HW1 4577   4.495   6.203   0.762
 1226SOL    HW2 4578   4.464   6.192   0.922
 1227SOL     OW 4579   5.010   5.129   6.558
 1227SOL    HW1 4580   5.059   5.202   6.511
 1227SOL    HW2 4581   4.971   5.165   6.643
 1228SOL     OW 4582   3.290   2.926   0.391
 1228SOL    HW1 4583   3.295   2.991   0.315
 1228SOL    HW2 4584   3.290   2.976   0.477
 1229SOL     OW 4585   2.097   5.446   0.413
 1229SOL    HW1 4586   2.125   5.525   0.359
 1229SOL    HW2 4587   1.997   5.444   0.422
 1230SOL     OW 4588   5.808   5.663   2.276
 1230SOL    HW1 4589   5.816   5.667   2.376
 1230SOL    HW2 4590   5.825   5.753   2.237
 1231SOL     OW 4591   1.577   1.542   5.410
 1231SOL    HW1 4592   1.550   1.496   5.326
 1231SOL    HW2 4593   1.641   1.484   5.461
 1232SOL     OW 4594   5.736   1.324   5.050
 1232SOL    HW1 4595   5.776   1.289   5.135
 1232SOL    HW2 4596   5.776   1.413   5.029
 1233SOL     OW 4597   0.624   5.752   4.959
 1233SOL    HW1 4598   0.526   5.746   4.978
 1233SOL    HW2 4599   0.668   5.813   5.026
 1234SOL     OW 4600   6.201   2.042   5.273
 1234SOL    HW1 4601   6.122   1.983   5.290
 1234SOL    HW2 4602   6.284   1.996   5.304
 1235SOL     OW 4603   6.232   4.915   1.097
 1235SOL    HW1 4604   6.226   4.816   1.109
 1235SOL    HW2 4605   6.189   4.941   1.010
 1236SOL     OW 4606   3.651   1.005   2.241
 1236SOL    HW1 4607   3.654   0.964   2.150
 1236SOL    HW2 4608   3.597   1.089   2.237
 1237SOL     OW 4609   0.863   5.066   5.255
 1237SOL    HW1 4610   0.944   5.060   5.313
 1237SOL    HW2 4611   0.806   4.984   5.268
 1238SOL     OW 4612   0.873   0.354   5.574
 1238SOL    HW1 4613   0.843   0.319   5.663
 1238SOL    HW2 4614   0.794   0.387   5.523
 1239SOL     OW 4615   0.335   0.035   5.827
 1239SOL    HW1 4616   0.379   7.013   5.745
 1239SOL    HW2 4617   0.330   6.981   5.897
 1240SOL     OW 4618   5.862   5.315   1.043
 1240SOL    HW1 4619   5.876   5.226   1.001
 1240SOL    HW2 4620   5.778   5.356   1.008
 1241SOL     OW 4621   5.937   4.609   5.226
 1241SOL    HW1 4622   5.953   4.653   5.315
 1241SOL    HW2 4623   5.893   4.520   5.241
 1242SOL     OW 4624   2.237   4.041   0.418
 1242SOL    HW1 4625   2.160   4.088   0.461
 1242SOL    HW2 4626   2.263   4.090   0.335
 1243SOL     OW 4627   0.359   1.217   4.875
 1243SOL    HW1 4628   0.332   1.264   4.791
 1243SOL    HW2 4629   0.439   1.262   4.914
 1244SOL     OW 4630   5.295   6.074   5.221
 1244SOL    HW1 4631   5.370   6.065   5.287
 1244SOL    HW2 4632   5.304   6.003   5.152
 1245SOL     OW 4633   5.738   4.645   6.642
 1245SOL    HW1 4634   5.767   4.589   6.720
 1245SOL    HW2 4635   5.647   4.682   6.660
 1246SOL     OW 4636   3.088   1.892   2.420
 1246SOL    HW1 4637   3.023   1.900   2.344
 1246SOL    HW2 4638   3.042   1.914   2.506
 1247SOL     OW 4639   5.758   0.162   6.403
 1247SOL    HW1 4640   5.660   0.179   6.404
 1247SOL    HW2 4641   5.776   0.070   6.366
 1248SOL     OW 4642   1.611   6.179   4.242
 1248SOL    HW1 4643   1.569   6.153   4.154
 1248SOL    HW2 4644   1.676   6.253   4.227
 1249SOL     OW 4645   0.360   3.231   1.372
 1249SOL    HW1 4646   0.285   3.211   1.309
 1249SOL    HW2 4647   0.366   3.330   1.384
 1250SOL     OW 4648   6.072   4.697   3.148
 1250SOL    HW1 4649   6.025   4.629   3.091
 1250SOL    HW2 4650   6.163   4.663   3.172
 1251SOL     OW 4651   1.846   1.060   3.148
 1251SOL    HW1 4652   1.792   1.039   3.066
 1251SOL    HW2 4653   1.939   1.024   3.135
 1252SOL     OW 4654   3.468   4.673   6.321
 1252SOL    HW1 4655   3.442   4.770   6.319
 1252SOL    HW2 4656   3.567   4.665   6.312
 1253SOL     OW 4657   2.627   0.573   2.537
 1253SOL    HW1 4658   2.581   0.600   2.621
 1253SOL    HW2 4659   2.725   0.590   2.545
 1254SOL     OW 4660   6.982   2.689   3.863
 1254SOL    HW1 4661   6.913   2.662   3.930
 1254SOL    HW2 4662   6.988   2.620   3.792
 1255SOL     OW 4663   5.339   2.056   6.293
 1255SOL    HW1 4664   5.338   2.042   6.194
 1255SOL    HW2 4665   5.380   2.145   6.313
 1256SOL     OW 4666   0.520   6.345   3.906
 1256SOL    HW1 4667   0.454   6.279   3.942
 1256SOL    HW2 4668   0.484   6.438   3.918
 1257SOL     OW 4669   6.980   4.617   4.105
 1257SOL    HW1 4670   6.994   4.591   4.200
 1257SOL    HW2 4671   6.937   4.542   4.055
 1258SOL     OW 4672   2.123   4.895   3.272
 1258SOL    HW1 4673   2.190   4.953   3.226
 1258SOL    HW2 4674   2.069   4.951   3.335
 1259SOL     OW 4675   3.818   6.735   4.943
 1259SOL    HW1 4676   3.877   6.683   4.881
 1259SOL    HW2 4677   3.797   6.824   4.902
 1260SOL     OW 4678   3.036   1.207   0.492
 1260SOL    HW1 4679   3.078   1.133   0.440
 1260SOL    HW2 4680   2.973   1.170   0.560
 1261SOL     OW 4681   0.033   5.199   6.704
 1261SOL    HW1 4682   0.069   5.266   6.639
 1261SOL    HW2 4683   0.005   5.245   6.788
 1262SOL     OW 4684   5.123   5.182   1.628
 1262SOL    HW1 4685   5.062   5.109   1.658
 1262SOL    HW2 4686   5.120   5.188   1.528
 1263SOL     OW 4687   6.968   1.831   1.419
 1263SOL    HW1 4688   6.900   1.899   1.445
 1263SOL    HW2 4689   6.933   1.740   1.440
 1264SOL     OW 4690   0.181   3.614   1.503
 1264SOL    HW1 4691   0.108   3.588   1.440
 1264SOL    HW2 4692   0.160   3.577   1.594
 1265SOL     OW 4693   5.755   5.186   3.521
 1265SOL    HW1 4694   5.662   5.166   3.551
 1265SOL    HW2 4695   5.813   5.106   3.535
 1266SOL     OW 4696   0.871   1.069   4.067
 1266SOL    HW1 4697   0.865   1.169   4.072
 1266SOL    HW2 4698   0.847   1.031   4.156
 1267SOL     OW 4699   5.503   6.419   1.234
 1267SOL    HW1 4700   5.532   6.463   1.149
 1267SOL    HW2 4701   5.584   6.386   1.283
 1268SOL     OW 4702   4.593   2.593   0.392
 1268SOL    HW1 4703   4.493   2.592   0.391
 1268SOL    HW2 4704   4.626   2.662   0.326
 1269SOL     OW 4705   5.715   6.851   5.847
 1269SOL    HW1 4706   5.809   6.886   5.847
 1269SOL    HW2 4707   5.716   6.752   5.865
 1270SOL     OW 4708   1.882   3.864   4.130
 1270SOL    HW1 4709   1.858   3.770   4.107
 1270SOL    HW2 4710   1.807   3.907   4.179
 1271SOL     OW 4711   3.341   1.505   3.364
 1271SOL    HW1 4712   3.436   1.476   3.377
 1271SOL    HW2 4713   3.332   1.600   3.391
 1272SOL     OW 4714   6.025   5.427   0.035
 1272SOL    HW1 4715   6.003   5.441   6.954
 1272SOL    HW2 4716   5.947   5.384   0.081
 1273SOL     OW 4717   1.024   4.497   6.743
 1273SOL    HW1 4718   1.064   4.528   6.829
 1273SOL    HW2 4719   1.084   4.429   6.701
 1274SOL     OW 4720   6.347   2.759   1.741
 1274SOL    HW1 4721   6.270   2.805   1.784
 1274SOL    HW2 4722   6.380   2.813   1.663
 1275SOL     OW 4723   3.145   1.233   3.890
 1275SOL    HW1 4724   3.178   1.193   3.975
 1275SOL    HW2 4725   3.222   1.251   3.829
 1276SOL     OW 4726   0.035   0.379   4.818
 1276SOL    HW1 4727   0.068   0.413   4.730
 1276SOL    HW2 4728   0.061   0.443   4.890
 1277SOL     OW 4729   1.100   6.657   6.040
 1277SOL    HW1 4730   1.050   6.699   5.964
 1277SOL    HW2 4731   1.169   6.594   6.003
 1278SOL     OW 4732   0.958   0.377   5.292
 1278SOL    HW1 4733   0.945   0.308   5.220
 1278SOL    HW2 4734   0.964   0.331   5.381
 1279SOL     OW 4735   3.715   5.906   1.023
 1279SOL    HW1 4736   3.803   5.861   1.040
 1279SOL    HW2 4737   3.675   5.870   0.939
 1280SOL     OW 4738   3.336   6.789   4.208
 1280SOL    HW1 4739   3.324   6.874   4.157
 1280SOL    HW2 4740   3.354   6.714   4.145
 1281SOL     OW 4741   1.462   6.116   2.864
 1281SOL    HW1 4742   1.543   6.109   2.921
 1281SOL    HW2 4743   1.447   6.212   2.839
 1282SOL     OW 4744   0.792   1.262   6.278
 1282SOL    HW1 4745   0.796   1.199   6.356
 1282SOL    HW2 4746   0.883   1.271   6.238
 1283SOL     OW 4747   5.955   2.728   5.259
 1283SOL    HW1 4748   6.019   2.705   5.186
 1283SOL    HW2 4749   5.965   2.824   5.284
 1284SOL     OW 4750   4.722   1.142   2.471
 1284SOL    HW1 4751   4.821   1.130   2.464
 1284SOL    HW2 4752   4.702   1.235   2.500
 1285SOL     OW 4753   4.796   2.926   6.743
 1285SOL    HW1 4754   4.764   3.007   6.792
 1285SOL    HW2 4755   4.896   2.929   6.736
 1286SOL     OW 4756   5.002   3.591   1.896
 1286SOL    HW1 4757   4.933   3.646   1.849
 1286SOL    HW2 4758   4.976   3.495   1.894
 1287SOL     OW 4759   5.107   4.658   5.313
 1287SOL    HW1 4760   5.080   4.643   5.218
 1287SOL    HW2 4761   5.043   4.722   5.356
 1288SOL     OW 4762   4.749   3.690   0.552
 1288SOL    HW1 4763   4.835   3.733   0.526
 1288SOL    HW2 4764   4.673   3.746   0.522
 1289SOL     OW 4765   0.829   5.885   2.176
 1289SOL    HW1 4766   0.774   5.948   2.121
 1289SOL    HW2 4767   0.873   5.817   2.117
 1290SOL     OW 4768   1.196   0.230   6.937
 1290SOL    HW1 4769   1.215   0.220   6.840
 1290SOL    HW2 4770   1.265   0.289   6.979
 1291SOL     OW 4771   0.062   3.890   5.384
 1291SOL    HW1 4772   0.013   3.817   5.335
 1291SOL    HW2 4773   0.157   3.891   5.354
 1292SOL     OW 4774   0.157   6.082   2.448
 1292SOL    HW1 4775   0.214   6.011   2.489
 1292SOL    HW2 4776   0.144   6.063   2.351
 1293SOL     OW 4777   1.137   1.414   0.180
 1293SOL    HW1 4778   1.227   1.444   0.147
 1293SOL    HW2 4779   1.136   1.314   0.188
 1294SOL     OW 4780   1.524   3.932   7.005
 1294SOL    HW1 4781   1.552   3.955   6.912
 1294SOL    HW2 4782   1.429   3.903   7.005
 1295SOL     OW 4783   0.130   3.508   2.543
 1295SOL    HW1 4784   0.076   3.572   2.598
 1295SOL    HW2 4785   0.139   3.542   2.450
 1296SOL     OW 4786   3.464   0.319   5.426
 1296SOL    HW1 4787   3.474   0.377   5.346
 1296SOL    HW2 4788   3.478   0.374   5.509
 1297SOL     OW 4789   5.764   0.826   1.034
 1297SOL    HW1 4790   5.862   0.841   1.028
 1297SOL    HW2 4791   5.720   0.906   1.075
 1298SOL     OW 4792   6.289   4.874   2.596
 1298SOL    HW1 4793   6.191   4.887   2.583
 1298SOL    HW2 4794   6.335   4.963   2.596
 1299SOL     OW 4795   0.975   3.982   3.276
 1299SOL    HW1 4796   1.007   4.060   3.223
 1299SOL    HW2 4797   0.879   3.965   3.255
 1300SOL     OW 4798   3.590   3.340   1.737
 1300SOL    HW1 4799   3.565   3.268   1.672
 1300SOL    HW2 4800   3.650   3.303   1.807
 1301SOL     OW 4801   0.311   5.394   1.539
 1301SOL    HW1 4802   0.223   5.402   1.585
 1301SOL    HW2 4803   0.384   5.391   1.607
 1302SOL     OW 4804   4.147   0.321   5.408
 1302SOL    HW1 4805   4.196   0.328   5.321
 1302SOL    HW2 4806   4.165   0.402   5.463
 1303SOL     OW 4807   4.421   1.290   2.375
 1303SOL    HW1 4808   4.343   1.325   2.428
 1303SOL    HW2 4809   4.470   1.367   2.335
 1304SOL     OW 4810   1.433   0.934   7.002
 1304SOL    HW1 4811   1.412   0.895   6.912
 1304SOL    HW2 4812   1.462   1.029   6.992
 1305SOL     OW 4813   4.399   3.057   7.014
 1305SOL    HW1 4814   4.450   3.102   6.941
 1305SOL    HW2 4815   4.391   3.120   0.076
 1306SOL     OW 4816   0.519   4.121   5.024
 1306SOL    HW1 4817   0.475   4.132   5.113
 1306SOL    HW2 4818   0.522   4.209   4.977
 1307SOL     OW 4819   1.054   3.667   4.935
 1307SOL    HW1 4820   1.116   3.595   4.968
 1307SOL    HW2 4821   0.960   3.635   4.943
 1308SOL     OW 4822   5.312   6.468   4.524
 1308SOL    HW1 4823   5.219   6.500   4.505
 1308SOL    HW2 4824   5.311   6.369   4.536
 1309SOL     OW 4825   4.744   3.063   5.190
 1309SOL    HW1 4826   4.713   3.148   5.233
 1309SOL    HW2 4827   4.776   2.999   5.261
 1310SOL     OW 4828   0.359   3.962   4.870
 1310SOL    HW1 4829   0.388   3.871   4.899
 1310SOL    HW2 4830   0.407   4.031   4.926
 1311SOL     OW 4831   0.034   0.704   4.480
 1311SOL    HW1 4832   0.085   0.786   4.453
 1311SOL    HW2 4833   6.973   0.692   4.418
 1312SOL     OW 4834   1.461   0.485   6.581
 1312SOL    HW1 4835   1.374   0.518   6.617
 1312SOL    HW2 4836   1.522   0.462   6.657
 1313SOL     OW 4837   1.120   4.434   4.149
 1313SOL    HW1 4838   1.093   4.491   4.071
 1313SOL    HW2 4839   1.173   4.488   4.214
 1314SOL     OW 4840   3.881   1.077   5.357
 1314SOL    HW1 4841   3.954   1.039   5.415
 1314SOL    HW2 4842   3.849   1.162   5.397
 1315SOL     OW 4843   0.096   0.999   0.740
 1315SOL    HW1 4844   0.033   0.926   0.766
 1315SOL    HW2 4845   0.115   1.057   0.819
 1316SOL     OW 4846   2.053   6.285   4.546
 1316SOL    HW1 4847   2.004   6.207   4.509
 1316SOL    HW2 4848   1.989   6.359   4.565
 1317SOL     OW 4849   2.049   4.089   5.526
 1317SOL    HW1 4850   2.149   4.089   5.525
 1317SOL    HW2 4851   2.015   4.041   5.445
 1318SOL     OW 4852   1.062   0.979   0.827
 1318SOL    HW1 4853   1.138   0.920   0.854
 1318SOL    HW2 4854   1.098   1.061   0.782
 1319SOL     OW 4855   0.139   0.975   6.512
 1319SOL    HW1 4856   0.109   1.057   6.463
 1319SOL    HW2 4857   0.188   0.915   6.450
 1320SOL     OW 4858   5.418   3.659   0.386
 1320SOL    HW1 4859   5.440   3.591   0.457
 1320SOL    HW2 4860   5.341   3.627   0.332
 1321SOL     OW 4861   5.006   2.103   6.066
 1321SOL    HW1 4862   4.951   2.163   6.009
 1321SOL    HW2 4863   4.994   2.127   6.162
 1322SOL     OW 4864   3.882   0.742   3.767
 1322SOL    HW1 4865   3.826   0.722   3.848
 1322SOL    HW2 4866   3.949   0.812   3.789
 1323SOL     OW 4867   4.682   1.801   5.392
 1323SOL    HW1 4868   4.702   1.715   5.439
 1323SOL    HW2 4869   4.597   1.792   5.340
 1324SOL     OW 4870   1.191   2.864   0.018
 1324SOL    HW1 4871   1.278   2.912   0.007
 1324SOL    HW2 4872   1.143   2.900   0.098
 1325SOL     OW 4873   1.671   6.574   2.157
 1325SOL    HW1 4874   1.765   6.562   2.126
 1325SOL    HW2 4875   1.645   6.671   2.150
 1326SOL     OW 4876   4.997   3.522   4.943
 1326SOL    HW1 4877   4.933   3.580   4.992
 1326SOL    HW2 4878   4.956   3.432   4.928
 1327SOL     OW 4879   1.693   4.360   1.675
 1327SOL    HW1 4880   1.606   4.341   1.722
 1327SOL    HW2 4881   1.715   4.457   1.684
 1328SOL     OW 4882   1.882   2.756   0.903
 1328SOL    HW1 4883   1.909   2.811   0.824
 1328SOL    HW2 4884   1.936   2.784   0.983
 1329SOL     OW 4885   1.120   2.480   1.047
 1329SOL    HW1 4886   1.114   2.548   0.975
 1329SOL    HW2 4887   1.075   2.514   1.130
 1330SOL     OW 4888   6.918   1.048   1.529
 1330SOL    HW1 4889   6.909   0.951   1.506
 1330SOL    HW2 4890   6.908   1.059   1.628
 1331SOL     OW 4891   4.984   2.633   3.397
 1331SOL    HW1 4892   5.055   2.621   3.328
 1331SOL    HW2 4893   4.910   2.688   3.358
 1332SOL     OW 4894   2.689   0.091   0.138
 1332SOL    HW1 4895   2.708   0.012   0.080
 1332SOL    HW2 4896   2.728   0.173   0.096
 1333SOL     OW 4897   3.594   3.474   5.494
 1333SOL    HW1 4898   3.636   3.389   5.523
 1333SOL    HW2 4899   3.619   3.547   5.557
 1334SOL     OW 4900   6.138   2.312   4.484
 1334SOL    HW1 4901   6.097   2.236   4.535
 1334SOL    HW2 4902   6.231   2.287   4.456
 1335SOL     OW 4903   2.781   1.391   3.224
 1335SOL    HW1 4904   2.861   1.393   3.164
 1335SOL    HW2 4905   2.794   1.453   3.301
 1336SOL     OW 4906   1.859   1.897   5.702
 1336SOL    HW1 4907   1.887   1.817   5.649
 1336SOL    HW2 4908   1.844   1.871   5.797
 1337SOL     OW 4909   1.558   1.659   5.139
 1337SOL    HW1 4910   1.625   1.634   5.069
 1337SOL    HW2 4911   1.585   1.746   5.181
 1338SOL     OW 4912   5.693   2.004   6.407
 1338SOL    HW1 4913   5.775   1.996   6.351
 1338SOL    HW2 4914   5.716   2.045   6.495
 1339SOL     OW 4915   0.844   1.190   6.536
 1339SOL    HW1 4916   0.830   1.103   6.584
 1339SOL    HW2 4917   0.933   1.227   6.560
 1340SOL     OW 4918   0.739   2.257   2.032
 1340SOL    HW1 4919   0.776   2.257   2.125
 1340SOL    HW2 4920   0.757   2.168   1.989
 1341SOL     OW 4921   5.412   0.485   5.825
 1341SOL    HW1 4922   5.357   0.460   5.745
 1341SOL    HW2 4923   5.354   0.487   5.906
 1342SOL     OW 4924   1.686   4.923   5.926
 1342SOL    HW1 4925   1.625   4.931   6.005
 1342SOL    HW2 4926   1.646   4.861   5.859
 1343SOL     OW 4927   4.539   5.997   2.543
 1343SOL    HW1 4928   4.522   5.942   2.625
 1343SOL    HW2 4929   4.598   5.946   2.481
 1344SOL     OW 4930   0.039   4.817   3.710
 1344SOL    HW1 4931   0.063   4.830   3.614
 1344SOL    HW2 4932   7.016   4.726   3.723
 1345SOL     OW 4933   1.774   1.258   2.858
 1345SOL    HW1 4934   1.775   1.168   2.901
 1345SOL    HW2 4935   1.679   1.283   2.836
 1346SOL     OW 4936   0.861   6.610   4.216
 1346SOL    HW1 4937   0.816   6.673   4.154
 1346SOL    HW2 4938   0.908   6.662   4.288
 1347SOL     OW 4939   6.593   5.534   4.193
 1347SOL    HW1 4940   6.525   5.466   4.167
 1347SOL    HW2 4941   6.661   5.490   4.253
 1348SOL     OW 4942   5.021   4.926   2.409
 1348SOL    HW1 4943   5.095   4.883   2.460
 1348SOL    HW2 4944   4.937   4.923   2.462
 1349SOL     OW 4945   4.737   1.951   6.127
 1349SOL    HW1 4946   4.645   1.933   6.162
 1349SOL    HW2 4947   4.801   1.957   6.204
 1350SOL     OW 4948   4.984   4.406   6.721
 1350SOL    HW1 4949   4.955   4.433   6.813
 1350SOL    HW2 4950   5.025   4.484   6.675
 1351SOL     OW 4951   6.511   1.796   3.394
 1351SOL    HW1 4952   6.466   1.771   3.308
 1351SOL    HW2 4953   6.539   1.892   3.392
 1352SOL     OW 4954   6.536   6.914   3.001
 1352SOL    HW1 4955   6.621   6.914   2.949
 1352SOL    HW2 4956   6.458   6.914   2.938
 1353SOL     OW 4957   6.875   3.843   6.119
 1353SOL    HW1 4958   6.904   3.756   6.159
 1353SOL    HW2 4959   6.800   3.827   6.055
 1354SOL     OW 4960   0.562   2.312   0.247
 1354SOL    HW1 4961   0.484   2.362   0.208
 1354SOL    HW2 4962   0.539   2.282   0.339
 1355SOL     OW 4963   0.183   2.488   5.365
 1355SOL    HW1 4964   0.231   2.528   5.443
 1355SOL    HW2 4965   0.235   2.410   5.330
 1356SOL     OW 4966   2.926   3.590   2.790
 1356SOL    HW1 4967   2.927   3.558   2.695
 1356SOL    HW2 4968   2.848   3.548   2.837
 1357SOL     OW 4969   1.142   4.153   5.475
 1357SOL    HW1 4970   1.159   4.091   5.552
 1357SOL    HW2 4971   1.092   4.233   5.508
 1358SOL     OW 4972   4.137   1.071   5.850
 1358SOL    HW1 4973   4.190   1.012   5.789
 1358SOL    HW2 4974   4.155   1.045   5.945
 1359SOL     OW 4975   6.523   4.789   1.845
 1359SOL    HW1 4976   6.550   4.867   1.901
 1359SOL    HW2 4977   6.428   4.764   1.866
 1360SOL     OW 4978   4.317   3.037   1.184
 1360SOL    HW1 4979   4.368   2.999   1.262
 1360SOL    HW2 4980   4.223   3.057   1.212
 1361SOL     OW 4981   0.405   6.024   5.486
 1361SOL    HW1 4982   0.309   6.054   5.487
 1361SOL    HW2 4983   0.463   6.096   5.524
 1362SOL     OW 4984   3.128   3.859   4.378
 1362SOL    HW1 4985   3.184   3.942   4.378
 1362SOL    HW2 4986   3.060   3.864   4.451
 1363SOL     OW 4987   6.754   5.859   3.632
 1363SOL    HW1 4988   6.699   5.938   3.657
 1363SOL    HW2 4989   6.745   5.842   3.533
 1364SOL     OW 4990   6.849   2.321   0.725
 1364SOL    HW1 4991   6.841   2.406   0.674
 1364SOL    HW2 4992   6.939   2.314   0.767
 1365SOL     OW 4993   1.106   2.689   5.553
 1365SOL    HW1 4994   1.199   2.650   5.559
 1365SOL    HW2 4995   1.043   2.618   5.521
 1366SOL     OW 4996   0.255   4.245   0.207
 1366SOL    HW1 4997   0.318   4.184   0.159
 1366SOL    HW2 4998   0.289   4.261   0.300
 1367SOL     OW 4999   1.614   6.010   2.432
 1367SOL    HW1 5000   1.661   6.087   2.477
 1367SOL    HW2 5001   1.657   5.992   2.344
 1368SOL     OW 5002   6.960   0.321   4.094
 1368SOL    HW1 5003   6.860   0.323   4.101
 1368SOL    HW2 5004   6.987   0.292   4.002
 1369SOL     OW 5005   2.438   0.011   2.427
 1369SOL    HW1 5006   2.367   0.072   2.392
 1369SOL    HW2 5007   2.446   0.023   2.526
 1370SOL     OW 5008   4.478   1.711   2.472
 1370SOL    HW1 5009   4.572   1.722   2.440
 1370SOL    HW2 5010   4.476   1.645   2.547
 1371SOL     OW 5011   6.086   1.605   4.947
 1371SOL    HW1 5012   6.174   1.644   4.920
 1371SOL    HW2 5013   6.039   1.571   4.865
 1372SOL     OW 5014   1.221   2.581   0.441
 1372SOL    HW1 5015   1.293   2.534   0.491
 1372SOL    HW2 5016   1.151   2.515   0.415
 1373SOL     OW 5017   4.326   2.601   0.366
 1373SOL    HW1 5018   4.272   2.642   0.293
 1373SOL    HW2 5019   4.274   2.603   0.451
 1374SOL     OW 5020   4.516   2.183   0.963
 1374SOL    HW1 5021   4.459   2.154   0.886
 1374SOL    HW2 5022   4.477   2.149   1.049
 1375SOL     OW 5023   0.019   6.081   6.182
 1375SOL    HW1 5024   0.061   6.163   6.222
 1375SOL    HW2 5025   6.936   6.086   6.194
 1376SOL     OW 5026   4.623   4.665   5.299
 1376SOL    HW1 5027   4.706   4.610   5.301
 1376SOL    HW2 5028   4.638   4.750   5.350
 1377SOL     OW 5029   1.028   3.411   5.251
 1377SOL    HW1 5030   1.053   3.320   5.283
 1377SOL    HW2 5031   1.092   3.440   5.180
 1378SOL     OW 5032   5.699   1.487   4.618
 1378SOL    HW1 5033   5.668   1.525   4.530
 1378SOL    HW2 5034   5.633   1.419   4.650
 1379SOL     OW 5035   4.029   6.078   3.116
 1379SOL    HW1 5036   4.056   6.127   3.199
 1379SOL    HW2 5037   3.972   5.999   3.141
 1380SOL     OW 5038   0.006   6.842   3.736
 1380SOL    HW1 5039   0.040   6.771   3.798
 1380SOL    HW2 5040   0.066   6.848   3.657
 1381SOL     OW 5041   6.007   1.789   0.652
 1381SOL    HW1 5042   5.938   1.833   0.710
 1381SOL    HW2 5043   5.961   1.736   0.581
 1382SOL     OW 5044   5.240   2.979   0.703
 1382SOL    HW1 5045   5.189   3.034   0.638
 1382SOL    HW2 5046   5.222   3.011   0.796
 1383SOL     OW 5047   0.804   0.726   2.230
 1383SOL    HW1 5048   0.743   0.805   2.227
 1383SOL    HW2 5049   0.753   0.644   2.205
 1384SOL     OW 5050   4.706   0.589   1.911
 1384SOL    HW1 5051   4.743   0.675   1.875
 1384SOL    HW2 5052   4.701   0.594   2.011
 1385SOL     OW 5053   2.815   4.769   3.449
 1385SOL    HW1 5054   2.910   4.777   3.421
 1385SOL    HW2 5055   2.810   4.753   3.548
 1386SOL     OW 5056   2.974   0.798   3.748
 1386SOL    HW1 5057   2.948   0.840   3.835
 1386SOL    HW2 5058   3.072   0.808   3.734
 1387SOL     OW 5059   3.264   6.093   2.766
 1387SOL    HW1 5060   3.307   6.175   2.804
 1387SOL    HW2 5061   3.330   6.017   2.769
 1388SOL     OW 5062   0.392   0.789   2.876
 1388SOL    HW1 5063   0.474   0.825   2.831
 1388SOL    HW2 5064   0.408   0.782   2.974
 1389SOL     OW 5065   6.847   1.504   3.893
 1389SOL    HW1 5066   6.790   1.546   3.822
 1389SOL    HW2 5067   6.797   1.429   3.935
 1390SOL     OW 5068   6.149   3.000   6.242
 1390SOL    HW1 5069   6.152   3.055   6.159
 1390SOL    HW2 5070   6.178   3.055   6.320
 1391SOL     OW 5071   6.063   0.223   5.235
 1391SOL    HW1 5072   6.124   0.210   5.156
 1391SOL    HW2 5073   5.968   0.214   5.205
 1392SOL     OW 5074   5.755   6.550   5.822
 1392SOL    HW1 5075   5.818   6.493   5.769
 1392SOL    HW2 5076   5.719   6.498   5.899
 1393SOL     OW 5077   6.644   4.301   6.018
 1393SOL    HW1 5078   6.603   4.272   6.105
 1393SOL    HW2 5079   6.680   4.220   5.971
 1394SOL     OW 5080   3.620   6.000   5.640
 1394SOL    HW1 5081   3.709   5.967   5.673
 1394SOL    HW2 5082   3.557   6.008   5.717
 1395SOL     OW 5083   1.555   4.724   4.956
 1395SOL    HW1 5084   1.634   4.772   4.994
 1395SOL    HW2 5085   1.587   4.658   4.888
 1396SOL     OW 5086   6.806   1.268   5.066
 1396SOL    HW1 5087   6.706   1.273   5.066
 1396SOL    HW2 5088   6.844   1.352   5.027
 1397SOL     OW 5089   0.557   5.988   4.797
 1397SOL    HW1 5090   0.461   5.977   4.772
 1397SOL    HW2 5091   0.579   5.925   4.872
 1398SOL     OW 5092   2.831   0.645   6.514
 1398SOL    HW1 5093   2.785   0.722   6.470
 1398SOL    HW2 5094   2.930   0.655   6.504
 1399SOL     OW 5095   3.905   5.597   0.739
 1399SOL    HW1 5096   3.893   5.695   0.724
 1399SOL    HW2 5097   3.978   5.582   0.806
 1400SOL     OW 5098   0.454   1.706   3.929
 1400SOL    HW1 5099   0.445   1.658   3.841
 1400SOL    HW2 5100   0.446   1.804   3.914
 1401SOL     OW 5101   6.060   0.304   4.238
 1401SOL    HW1 5102   6.147   0.268   4.207
 1401SOL    HW2 5103   5.987   0.240   4.215
 1402SOL     OW 5104   5.069   3.840   6.154
 1402SOL    HW1 5105   5.147   3.780   6.166
 1402SOL    HW2 5106   5.095   3.934   6.178
 1403SOL     OW 5107   2.687   1.751   0.403
 1403SOL    HW1 5108   2.711   1.720   0.495
 1403SOL    HW2 5109   2.765   1.798   0.362
 1404SOL     OW 5110   6.705   0.225   6.687
 1404SOL    HW1 5111   6.621   0.254   6.732
 1404SOL    HW2 5112   6.688   0.142   6.635
 1405SOL     OW 5113   2.771   2.952   0.764
 1405SOL    HW1 5114   2.677   2.967   0.795
 1405SOL    HW2 5115   2.791   2.854   0.764
 1406SOL     OW 5116   0.938   5.641   0.925
 1406SOL    HW1 5117   1.003   5.579   0.882
 1406SOL    HW2 5118   0.867   5.589   0.973
 1407SOL     OW 5119   0.606   3.320   4.098
 1407SOL    HW1 5120   0.529   3.384   4.092
 1407SOL    HW2 5121   0.660   3.340   4.179
 1408SOL     OW 5122   4.789   1.503   6.033
 1408SOL    HW1 5123   4.829   1.491   6.124
 1408SOL    HW2 5124   4.817   1.590   5.995
 1409SOL     OW 5125   0.151   0.335   5.492
 1409SOL    HW1 5126   0.092   0.402   5.537
 1409SOL    HW2 5127   0.223   0.306   5.556
 1410SOL     OW 5128   1.634   4.143   6.235
 1410SOL    HW1 5129   1.623   4.213   6.306
 1410SOL    HW2 5130   1.726   4.104   6.242
 1411SOL     OW 5131   2.927   6.794   0.516
 1411SOL    HW1 5132   3.016   6.821   0.479
 1411SOL    HW2 5133   2.941   6.733   0.594
 1412SOL     OW 5134   1.362   3.135   1.170
 1412SOL    HW1 5135   1.360   3.229   1.206
 1412SOL    HW2 5136   1.316   3.132   1.082
 1413SOL     OW 5137   2.119   1.172   4.437
 1413SOL    HW1 5138   2.109   1.271   4.447
 1413SOL    HW2 5139   2.030   1.131   4.422
 1414SOL     OW 5140   1.891   1.540   2.096
 1414SOL    HW1 5141   1.868   1.454   2.051
 1414SOL    HW2 5142   1.824   1.559   2.169
 1415SOL     OW 5143   1.742   1.259   4.642
 1415SOL    HW1 5144   1.787   1.343   4.611
 1415SOL    HW2 5145   1.768   1.183   4.582
 1416SOL     OW 5146   4.541   6.207   4.597
 1416SOL    HW1 5147   4.613   6.142   4.619
 1416SOL    HW2 5148   4.540   6.225   4.499
 1417SOL     OW 5149   3.101   2.757   0.557
 1417SOL    HW1 5150   3.192   2.716   0.560
 1417SOL    HW2 5151   3.094   2.818   0.478
 1418SOL     OW 5152   3.349   3.599   2.115
 1418SOL    HW1 5153   3.430   3.657   2.126
 1418SOL    HW2 5154   3.376   3.512   2.073
 1419SOL     OW 5155   3.305   6.180   4.272
 1419SOL    HW1 5156   3.371   6.189   4.197
 1419SOL    HW2 5157   3.314   6.258   4.334
 1420SOL     OW 5158   2.935   6.368   2.554
 1420SOL    HW1 5159   2.869   6.294   2.565
 1420SOL    HW2 5160   3.013   6.336   2.501
 1421SOL     OW 5161   2.050   4.781   4.088
 1421SOL    HW1 5162   2.109   4.779   4.007
 1421SOL    HW2 5163   2.105   4.798   4.169
 1422SOL     OW 5164   1.706   4.444   6.199
 1422SOL    HW1 5165   1.776   4.502   6.242
 1422SOL    HW2 5166   1.632   4.427   6.264
 1423SOL     OW 5167   4.550   6.778   4.598
 1423SOL    HW1 5168   4.487   6.832   4.543
 1423SOL    HW2 5169   4.562   6.821   4.688
 1424SOL     OW 5170   6.378   3.663   6.396
 1424SOL    HW1 5171   6.359   3.761   6.382
 1424SOL    HW2 5172   6.408   3.622   6.310
 1425SOL     OW 5173   1.904   5.081   5.885
 1425SOL    HW1 5174   1.848   4.999   5.880
 1425SOL    HW2 5175   1.954   5.082   5.972
 1426SOL     OW 5176   2.606   2.879   6.984
 1426SOL    HW1 5177   2.533   2.919   6.929
 1426SOL    HW2 5178   2.695   2.911   6.951
 1427SOL     OW 5179   6.667   0.352   4.238
 1427SOL    HW1 5180   6.720   0.309   4.311
 1427SOL    HW2 5181   6.626   0.436   4.273
 1428SOL     OW 5182   0.591   1.919   0.207
 1428SOL    HW1 5183   0.536   1.846   0.166
 1428SOL    HW2 5184   0.605   1.992   0.139
 1429SOL     OW 5185   4.564   1.380   0.125
 1429SOL    HW1 5186   4.518   1.400   0.039
 1429SOL    HW2 5187   4.583   1.282   0.132
 1430SOL     OW 5188   2.183   5.146   3.878
 1430SOL    HW1 5189   2.087   5.160   3.855
 1430SOL    HW2 5190   2.192   5.121   3.974
 1431SOL     OW 5191   2.448   2.152   6.748
 1431SOL    HW1 5192   2.355   2.115   6.752
 1431SOL    HW2 5193   2.445   2.244   6.709
 1432SOL     OW 5194   3.024   1.615   1.076
 1432SOL    HW1 5195   2.991   1.594   1.168
 1432SOL    HW2 5196   3.102   1.556   1.054
 1433SOL     OW 5197   4.885   0.404   5.257
 1433SOL    HW1 5198   4.947   0.350   5.201
 1433SOL    HW2 5199   4.842   0.475   5.202
 1434SOL     OW 5200   0.874   0.328   5.901
 1434SOL    HW1 5201   0.890   0.425   5.916
 1434SOL    HW2 5202   0.778   0.307   5.918
 1435SOL     OW 5203   6.531   6.778   3.231
 1435SOL    HW1 5204   6.522   6.834   3.148
 1435SOL    HW2 5205   6.448   6.725   3.245
 1436SOL     OW 5206   4.799   4.012   6.897
 1436SOL    HW1 5207   4.735   4.005   6.821
 1436SOL    HW2 5208   4.886   3.971   6.870
 1437SOL     OW 5209   3.287   1.830   5.540
 1437SOL    HW1 5210   3.227   1.813   5.619
 1437SOL    HW2 5211   3.308   1.743   5.496
 1438SOL     OW 5212   3.170   6.981   2.001
 1438SOL    HW1 5213   3.112   7.002   1.922
 1438SOL    HW2 5214   3.259   0.009   1.989
 1439SOL     OW 5215   6.654   4.651   0.920
 1439SOL    HW1 5216   6.610   4.637   1.008
 1439SOL    HW2 5217   6.743   4.605   0.919
 1440SOL     OW 5218   3.223   2.946   6.133
 1440SOL    HW1 5219   3.231   2.976   6.038
 1440SOL    HW2 5220   3.192   2.851   6.135
 1441SOL     OW 5221   5.930   1.875   3.983
 1441SOL    HW1 5222   5.852   1.936   3.974
 1441SOL    HW2 5223   5.927   1.829   4.072
 1442SOL     OW 5224   6.695   5.457   6.567
 1442SOL    HW1 5225   6.748   5.461   6.652
 1442SOL    HW2 5226   6.755   5.433   6.491
 1443SOL     OW 5227   0.837   2.917   4.067
 1443SOL    HW1 5228   0.791   2.848   4.011
 1443SOL    HW2 5229   0.819   3.008   4.029
 1444SOL     OW 5230   4.067   5.668   1.127
 1444SOL    HW1 5231   4.048   5.764   1.110
 1444SOL    HW2 5232   3.987   5.625   1.170
 1445SOL     OW 5233   0.573   3.477   2.785
 1445SOL    HW1 5234   0.475   3.495   2.784
 1445SOL    HW2 5235   0.613   3.505   2.697
 1446SOL     OW 5236   5.169   2.531   0.439
 1446SOL    HW1 5237   5.168   2.525   0.538
 1446SOL    HW2 5238   5.257   2.497   0.405
 1447SOL     OW 5239   6.262   6.964   5.405
 1447SOL    HW1 5240   6.268   6.893   5.475
 1447SOL    HW2 5241   6.166   6.980   5.383
 1448SOL     OW 5242   6.506   2.210   6.388
 1448SOL    HW1 5243   6.442   2.205   6.311
 1448SOL    HW2 5244   6.592   2.252   6.357
 1449SOL     OW 5245   0.886   0.924   0.422
 1449SOL    HW1 5246   0.848   0.932   0.515
 1449SOL    HW2 5247   0.959   0.856   0.422
 1450SOL     OW 5248   0.822   2.360   1.323
 1450SOL    HW1 5249   0.814   2.338   1.420
 1450SOL    HW2 5250   0.828   2.276   1.270
 1451SOL     OW 5251   2.077   0.425   2.256
 1451SOL    HW1 5252   1.986   0.426   2.215
 1451SOL    HW2 5253   2.137   0.487   2.206
 1452SOL     OW 5254   4.641   0.789   4.712
 1452SOL    HW1 5255   4.603   0.731   4.785
 1452SOL    HW2 5256   4.657   0.733   4.631
 1453SOL     OW 5257   0.172   3.591   5.473
 1453SOL    HW1 5258   0.241   3.662   5.486
 1453SOL    HW2 5259   0.111   3.616   5.398
 1454SOL     OW 5260   0.063   3.511   2.235
 1454SOL    HW1 5261   6.981   3.500   2.243
 1454SOL    HW2 5262   0.108   3.425   2.257
 1455SOL     OW 5263   0.633   0.919   2.137
 1455SOL    HW1 5264   0.692   0.965   2.070
 1455SOL    HW2 5265   0.554   0.880   2.090
 1456SOL     OW 5266   6.891   6.540   5.100
 1456SOL    HW1 5267   6.885   6.473   5.174
 1456SOL    HW2 5268   6.954   6.507   5.030
 1457SOL     OW 5269   1.287   6.644   1.518
 1457SOL    HW1 5270   1.281   6.563   1.576
 1457SOL    HW2 5271   1.227   6.634   1.439
 1458SOL     OW 5272   5.949   5.506   3.198
 1458SOL    HW1 5273   5.869   5.560   3.172
 1458SOL    HW2 5274   5.927   5.448   3.277
 1459SOL     OW 5275   2.857   5.494   5.900
 1459SOL    HW1 5276   2.922   5.508   5.826
 1459SOL    HW2 5277   2.846   5.580   5.951
 1460SOL     OW 5278   0.686   5.764   5.555
 1460SOL    HW1 5279   0.663   5.684   5.500
 1460SOL    HW2 5280   0.633   5.842   5.523
 1461SOL     OW 5281   6.754   5.032   3.506
 1461SOL    HW1 5282   6.778   5.116   3.553
 1461SOL    HW2 5283   6.684   4.983   3.558
 1462SOL     OW 5284   1.222   0.607   6.674
 1462SOL    HW1 5285   1.185   0.596   6.766
 1462SOL    HW2 5286   1.150   0.591   6.607
 1463SOL     OW 5287   0.189   5.963   6.873
 1463SOL    HW1 5288   0.116   5.972   6.941
 1463SOL    HW2 5289   0.235   5.876   6.885
 1464SOL     OW 5290   6.657   0.249   1.152
 1464SOL    HW1 5291   6.742   0.199   1.169
 1464SOL    HW2 5292   6.596   0.237   1.230
 1465SOL     OW 5293   1.622   1.218   3.516
 1465SOL    HW1 5294   1.630   1.133   3.465
 1465SOL    HW2 5295   1.688   1.219   3.591
 1466SOL     OW 5296   1.394   1.544   2.214
 1466SOL    HW1 5297   1.406   1.453   2.174
 1466SOL    HW2 5298   1.305   1.549   2.260
 1467SOL     OW 5299   1.774   1.824   3.079
 1467SOL    HW1 5300   1.817   1.741   3.044
 1467SOL    HW2 5301   1.845   1.885   3.114
 1468SOL     OW 5302   4.712   5.812   2.400
 1468SOL    HW1 5303   4.730   5.725   2.445
 1468SOL    HW2 5304   4.735   5.803   2.302
 1469SOL     OW 5305   0.783   1.086   1.990
 1469SOL    HW1 5306   0.762   1.169   1.938
 1469SOL    HW2 5307   0.863   1.042   1.950
 1470SOL     OW 5308   1.556   1.571   2.603
 1470SOL    HW1 5309   1.592   1.665   2.601
 1470SOL    HW2 5310   1.506   1.553   2.518
 1471SOL     OW 5311   0.912   0.107   1.154
 1471SOL    HW1 5312   0.894   0.068   1.063
 1471SOL    HW2 5313   0.972   0.045   1.205
 1472SOL     OW 5314   3.929   6.251   5.770
 1472SOL    HW1 5315   4.004   6.255   5.704
 1472SOL    HW2 5316   3.948   6.181   5.839
 1473SOL     OW 5317   5.062   6.140   4.670
 1473SOL    HW1 5318   5.019   6.215   4.619
 1473SOL    HW2 5319   4.996   6.101   4.734
 1474SOL     OW 5320   5.519   5.404   2.454
 1474SOL    HW1 5321   5.612   5.366   2.455
 1474SOL    HW2 5322   5.452   5.330   2.452
 1475SOL     OW 5323   6.627   0.126   2.086
 1475SOL    HW1 5324   6.703   0.148   2.025
 1475SOL    HW2 5325   6.541   0.151   2.042
 1476SOL     OW 5326   2.786   1.125   1.346
 1476SOL    HW1 5327   2.851   1.049   1.335
 1476SOL    HW2 5328   2.703   1.091   1.389
 1477SOL     OW 5329   3.611   6.941   6.587
 1477SOL    HW1 5330   3.614   6.852   6.630
 1477SOL    HW2 5331   3.601   7.012   6.657
 1478SOL     OW 5332   6.264   5.362   0.209
 1478SOL    HW1 5333   6.264   5.269   0.174
 1478SOL    HW2 5334   6.183   5.411   0.176
 1479SOL     OW 5335   1.753   2.780   6.814
 1479SOL    HW1 5336   1.775   2.683   6.797
 1479SOL    HW2 5337   1.687   2.786   6.888
 1480SOL     OW 5338   3.384   0.463   5.780
 1480SOL    HW1 5339   3.324   0.538   5.750
 1480SOL    HW2 5340   3.474   0.473   5.738
 1481SOL     OW 5341   6.764   2.681   5.683
 1481SOL    HW1 5342   6.775   2.608   5.616
 1481SOL    HW2 5343   6.751   2.768   5.635
 1482SOL     OW 5344   4.780   2.415   1.422
 1482SOL    HW1 5345   4.703   2.401   1.484
 1482SOL    HW2 5346   4.864   2.427   1.474
 1483SOL     OW 5347   4.810   2.157   6.991
 1483SOL    HW1 5348   4.875   2.089   0.008
 1483SOL    HW2 5349   4.790   2.141   6.895
 1484SOL     OW 5350   6.016   4.665   3.925
 1484SOL    HW1 5351   6.102   4.713   3.910
 1484SOL    HW2 5352   5.968   4.705   4.003
 1485SOL     OW 5353   3.810   1.531   3.027
 1485SOL    HW1 5354   3.717   1.502   3.052
 1485SOL    HW2 5355   3.868   1.530   3.109
 1486SOL     OW 5356   5.235   1.821   2.680
 1486SOL    HW1 5357   5.324   1.782   2.703
 1486SOL    HW2 5358   5.237   1.919   2.696
 1487SOL     OW 5359   6.353   2.254   6.151
 1487SOL    HW1 5360   6.357   2.348   6.120
 1487SOL    HW2 5361   6.283   2.204   6.100
 1488SOL     OW 5362   5.091   1.268   3.846
 1488SOL    HW1 5363   5.071   1.177   3.882
 1488SOL    HW2 5364   5.075   1.269   3.747
 1489SOL     OW 5365   4.004   5.352   4.423
 1489SOL    HW1 5366   3.939   5.417   4.463
 1489SOL    HW2 5367   3.954   5.283   4.371
 1490SOL     OW 5368   1.217   2.833   2.212
 1490SOL    HW1 5369   1.135   2.809   2.263
 1490SOL    HW2 5370   1.249   2.753   2.161
 1491SOL     OW 5371   6.125   3.853   3.347
 1491SOL    HW1 5372   6.035   3.843   3.389
 1491SOL    HW2 5373   6.133   3.789   3.270
 1492SOL     OW 5374   5.808   0.812   2.263
 1492SOL    HW1 5375   5.726   0.822   2.320
 1492SOL    HW2 5376   5.880   0.768   2.315
 1493SOL     OW 5377   4.182   6.463   4.779
 1493SOL    HW1 5378   4.281   6.458   4.769
 1493SOL    HW2 5379   4.155   6.414   4.862
 1494SOL     OW 5380   5.544   1.754   6.418
 1494SOL    HW1 5381   5.573   1.849   6.407
 1494SOL    HW2 5382   5.458   1.750   6.469
 1495SOL     OW 5383   6.682   2.710   4.560
 1495SOL    HW1 5384   6.585   2.692   4.576
 1495SOL    HW2 5385   6.699   2.808   4.557
 1496SOL     OW 5386   0.538   1.586   1.511
 1496SOL    HW1 5387   0.456   1.529   1.517
 1496SOL    HW2 5388   0.619   1.527   1.513
 1497SOL     OW 5389   6.162   3.192   3.399
 1497SOL    HW1 5390   6.154   3.255   3.322
 1497SOL    HW2 5391   6.081   3.202   3.458
 1498SOL     OW 5392   2.036   5.316   6.644
 1498SOL    HW1 5393   2.021   5.222   6.676
 1498SOL    HW2 5394   1.998   5.380   6.711
 1499SOL     OW 5395   0.893   2.888   6.443
 1499SOL    HW1 5396   0.990   2.879   6.419
 1499SOL    HW2 5397   0.879   2.857   6.536
 1500SOL     OW 5398   6.729   6.723   0.034
 1500SOL    HW1 5399   6.658   6.711   0.104
 1500SOL    HW2 5400   6.702   6.676   6.967
 1501SOL     OW 5401   5.426   2.521   6.482
 1501SOL    HW1 5402   5.434   2.437   6.536
 1501SOL    HW2 5403   5.427   2.499   6.385
 1502SOL     OW 5404   4.695   0.198   0.457
 1502SOL    HW1 5405   4.604   0.157   0.459
 1502SOL    HW2 5406   4.715   0.230   0.365
 1503SOL     OW 5407   0.645   3.897   1.366
 1503SOL    HW1 5408   0.560   3.948   1.349
 1503SOL    HW2 5409   0.631   3.834   1.442
 1504SOL     OW 5410   0.634   0.574   5.898
 1504SOL    HW1 5411   0.712   0.599   5.956
 1504SOL    HW2 5412   0.600   0.655   5.851
 1505SOL     OW 5413   5.392   1.027   5.807
 1505SOL    HW1 5414   5.386   1.126   5.804
 1505SOL    HW2 5415   5.417   0.992   5.717
 1506SOL     OW 5416   0.997   5.907   0.990
 1506SOL    HW1 5417   0.937   5.974   0.946
 1506SOL    HW2 5418   0.968   5.815   0.963
 1507SOL     OW 5419   0.959   1.860   5.508
 1507SOL    HW1 5420   0.901   1.881   5.429
 1507SOL    HW2 5421   0.903   1.825   5.583
 1508SOL     OW 5422   6.678   0.942   2.005
 1508SOL    HW1 5423   6.728   0.995   2.074
 1508SOL    HW2 5424   6.585   0.924   2.039
 1509SOL     OW 5425   4.074   1.681   6.222
 1509SOL    HW1 5426   4.015   1.715   6.149
 1509SOL    HW2 5427   4.032   1.601   6.264
 1510SOL     OW 5428   4.619   2.134   4.767
 1510SOL    HW1 5429   4.541   2.196   4.758
 1510SOL    HW2 5430   4.667   2.154   4.852
 1511SOL     OW 5431   3.797   3.258   1.900
 1511SOL    HW1 5432   3.857   3.277   1.823
 1511SOL    HW2 5433   3.824   3.171   1.943
 1512SOL     OW 5434   0.199   5.148   1.469
 1512SOL    HW1 5435   0.275   5.083   1.467
 1512SOL    HW2 5436   0.236   5.241   1.481
 1513SOL     OW 5437   3.575   1.029   3.921
 1513SOL    HW1 5438   3.536   0.944   3.958
 1513SOL    HW2 5439   3.633   1.008   3.843
 1514SOL     OW 5440   3.956   1.881   6.023
 1514SOL    HW1 5441   3.889   1.864   5.950
 1514SOL    HW2 5442   3.960   1.979   6.042
 1515SOL     OW 5443   5.720   2.186   3.469
 1515SOL    HW1 5444   5.686   2.166   3.561
 1515SOL    HW2 5445   5.782   2.113   3.440
 1516SOL     OW 5446   6.659   6.961   0.524
 1516SOL    HW1 5447   6.712   6.876   0.533
 1516SOL    HW2 5448   6.597   6.954   0.446
 1517SOL     OW 5449   4.646   6.209   3.569
 1517SOL    HW1 5450   4.715   6.218   3.497
 1517SOL    HW2 5451   4.575   6.278   3.556
 1518SOL     OW 5452   1.079   2.989   0.280
 1518SOL    HW1 5453   1.077   3.071   0.223
 1518SOL    HW2 5454   1.166   2.985   0.330
 1519SOL     OW 5455   6.206   5.127   1.483
 1519SOL    HW1 5456   6.145   5.051   1.506
 1519SOL    HW2 5457   6.159   5.190   1.421
 1520SOL     OW 5458   0.167   3.763   2.125
 1520SOL    HW1 5459   0.156   3.671   2.163
 1520SOL    HW2 5460   0.178   3.757   2.026
 1521SOL     OW 5461   1.937   3.731   6.233
 1521SOL    HW1 5462   1.914   3.828   6.237
 1521SOL    HW2 5463   2.000   3.715   6.158
 1522SOL     OW 5464   6.444   0.150   5.416
 1522SOL    HW1 5465   6.381   0.073   5.422
 1522SOL    HW2 5466   6.535   0.120   5.446
 1523SOL     OW 5467   5.175   5.351   0.865
 1523SOL    HW1 5468   5.214   5.298   0.790
 1523SOL    HW2 5469   5.247   5.373   0.931
 1524SOL     OW 5470   1.784   2.014   1.819
 1524SOL    HW1 5471   1.764   1.966   1.904
 1524SOL    HW2 5472   1.862   2.076   1.834
 1525SOL     OW 5473   6.691   2.346   7.014
 1525SOL    HW1 5474   6.749   2.370   0.076
 1525SOL    HW2 5475   6.606   2.305   0.031
 1526SOL     OW 5476   6.599   0.035   6.482
 1526SOL    HW1 5477   6.558   6.975   6.432
 1526SOL    HW2 5478   6.536   0.113   6.480
 1527SOL     OW 5479   3.325   1.310   5.263
 1527SOL    HW1 5480   3.289   1.217   5.272
 1527SOL    HW2 5481   3.251   1.370   5.232
 1528SOL     OW 5482   4.957   6.345   2.843
 1528SOL    HW1 5483   5.023   6.270   2.839
 1528SOL    HW2 5484   4.873   6.314   2.888
 1529SOL     OW 5485   3.942   0.641   0.400
 1529SOL    HW1 5486   3.960   0.694   0.482
 1529SOL    HW2 5487   3.978   0.690   0.320
 1530SOL     OW 5488   3.394   1.843   2.150
 1530SOL    HW1 5489   3.415   1.926   2.202
 1530SOL    HW2 5490   3.347   1.778   2.209
 1531SOL     OW 5491   4.409   1.147   4.820
 1531SOL    HW1 5492   4.322   1.166   4.775
 1531SOL    HW2 5493   4.429   1.219   4.886
 1532SOL     OW 5494   2.552   3.651   5.815
 1532SOL    HW1 5495   2.494   3.570   5.821
 1532SOL    HW2 5496   2.566   3.689   5.907
 1533SOL     OW 5497   6.512   3.502   6.798
 1533SOL    HW1 5498   6.451   3.426   6.775
 1533SOL    HW2 5499   6.469   3.589   6.773
 1534SOL     OW 5500   2.135   4.661   6.683
 1534SOL    HW1 5501   2.134   4.755   6.647
 1534SOL    HW2 5502   2.226   4.642   6.721
 1535SOL     OW 5503   5.350   6.159   3.667
 1535SOL    HW1 5504   5.272   6.150   3.729
 1535SOL    HW2 5505   5.401   6.242   3.688
 1536SOL     OW 5506   4.018   4.318   5.272
 1536SOL    HW1 5507   4.102   4.344   5.226
 1536SOL    HW2 5508   3.948   4.295   5.204
 1537SOL     OW 5509   4.533   6.503   3.017
 1537SOL    HW1 5510   4.610   6.441   3.004
 1537SOL    HW2 5511   4.567   6.597   3.026
 1538SOL     OW 5512   4.007   6.105   6.006
 1538SOL    HW1 5513   4.069   6.031   5.979
 1538SOL    HW2 5514   3.933   6.068   6.062
 1539SOL     OW 5515   4.065   3.838   2.034
 1539SOL    HW1 5516   4.128   3.852   1.958
 1539SOL    HW2 5517   3.980   3.889   2.018
 1540SOL     OW 5518   2.038   5.884   5.912
 1540SOL    HW1 5519   1.939   5.895   5.904
 1540SOL    HW2 5520   2.067   5.914   6.003
 1541SOL     OW 5521   3.619   2.872   2.552
 1541SOL    HW1 5522   3.563   2.901   2.630
 1541SOL    HW2 5523   3.562   2.867   2.470
 1542SOL     OW 5524   6.270   6.013   1.918
 1542SOL    HW1 5525   6.305   5.988   1.827
 1542SOL    HW2 5526   6.213   5.939   1.953
 1543SOL     OW 5527   3.616   4.331   5.172
 1543SOL    HW1 5528   3.542   4.265   5.162
 1543SOL    HW2 5529   3.702   4.289   5.141
 1544SOL     OW 5530   3.267   3.636   3.116
 1544SOL    HW1 5531   3.183   3.683   3.086
 1544SOL    HW2 5532   3.306   3.685   3.193
 1545SOL     OW 5533   4.739   0.885   3.951
 1545SOL    HW1 5534   4.731   0.841   3.861
 1545SOL    HW2 5535   4.751   0.984   3.939
 1546SOL     OW 5536   3.422   6.274   6.052
 1546SOL    HW1 5537   3.478   6.278   6.135
 1546SOL    HW2 5538   3.449   6.348   5.990
 1547SOL     OW 5539   1.448   3.821   3.003
 1547SOL    HW1 5540   1.443   3.761   3.082
 1547SOL    HW2 5541   1.368   3.881   3.000
 1548SOL     OW 5542   4.569   3.939   5.684
 1548SOL    HW1 5543   4.498   3.909   5.620
 1548SOL    HW2 5544   4.530   3.953   5.774
 1549SOL     OW 5545   4.859   0.822   2.881
 1549SOL    HW1 5546   4.823   0.916   2.883
 1549SOL    HW2 5547   4.792   0.762   2.837
 1550SOL     OW 5548   2.960   4.305   0.008
 1550SOL    HW1 5549   2.889   4.331   0.074
 1550SOL    HW2 5550   3.044   4.282   0.058
 1551SOL     OW 5551   2.009   4.220   6.120
 1551SOL    HW1 5552   2.088   4.269   6.159
 1551SOL    HW2 5553   1.979   4.267   6.037
 1552SOL     OW 5554   0.017   6.693   0.266
 1552SOL    HW1 5555   6.976   6.645   0.199
 1552SOL    HW2 5556   0.088   6.631   0.299
 1553SOL     OW 5557   0.181   1.188   5.655
 1553SOL    HW1 5558   0.264   1.133   5.657
 1553SOL    HW2 5559   0.159   1.218   5.748
 1554SOL     OW 5560   4.524   1.396   3.212
 1554SOL    HW1 5561   4.530   1.489   3.247
 1554SOL    HW2 5562   4.568   1.390   3.123
 1555SOL     OW 5563   5.269   1.754   0.213
 1555SOL    HW1 5564   5.281   1.700   0.130
 1555SOL    HW2 5565   5.239   1.846   0.188
 1556SOL     OW 5566   2.683   1.209   0.851
 1556SOL    HW1 5567   2.713   1.141   0.783
 1556SOL    HW2 5568   2.673   1.165   0.940
 1557SOL     OW 5569   1.761   1.217   6.479
 1557SOL    HW1 5570   1.804   1.163   6.551
 1557SOL    HW2 5571   1.662   1.211   6.487
 1558SOL     OW 5572   5.284   0.864   4.668
 1558SOL    HW1 5573   5.187   0.840   4.661
 1558SOL    HW2 5574   5.313   0.857   4.764
 1559SOL     OW 5575   0.322   2.685   6.992
 1559SOL    HW1 5576   0.342   2.651   6.900
 1559SOL    HW2 5577   0.233   2.732   6.991
 1560SOL     OW 5578   2.920   2.007   6.137
 1560SOL    HW1 5579   2.906   2.099   6.174
 1560SOL    HW2 5580   2.839   1.951   6.155
 1561SOL     OW 5581   0.259   6.239   3.389
 1561SOL    HW1 5582   0.257   6.255   3.487
 1561SOL    HW2 5583   0.332   6.174   3.366
 1562SOL     OW 5584   3.670   5.482   2.995
 1562SOL    HW1 5585   3.719   5.397   2.973
 1562SOL    HW2 5586   3.663   5.492   3.094
 1563SOL     OW 5587   2.134   0.367   6.228
 1563SOL    HW1 5588   2.138   0.324   6.318
 1563SOL    HW2 5589   2.211   0.335   6.173
 1564SOL     OW 5590   1.341   3.186   3.137
 1564SOL    HW1 5591   1.350   3.166   3.039
 1564SOL    HW2 5592   1.288   3.113   3.180
 1565SOL     OW 5593   4.466   5.026   4.819
 1565SOL    HW1 5594   4.421   5.103   4.773
 1565SOL    HW2 5595   4.429   5.017   4.911
 1566SOL     OW 5596   5.258   4.910   3.872
 1566SOL    HW1 5597   5.176   4.954   3.908
 1566SOL    HW2 5598   5.240   4.813   3.856
 1567SOL     OW 5599   5.882   6.160   6.769
 1567SOL    HW1 5600   5.904   6.156   6.866
 1567SOL    HW2 5601   5.955   6.116   6.716
 1568SOL     OW 5602   1.894   5.386   1.188
 1568SOL    HW1 5603   1.827   5.341   1.129
 1568SOL    HW2 5604   1.871   5.370   1.284
 1569SOL     OW 5605   3.098   7.000   3.449
 1569SOL    HW1 5606   3.086   6.996   3.350
 1569SOL    HW2 5607   3.167   6.934   3.477
 1570SOL     OW 5608   2.031   6.706   0.954
 1570SOL    HW1 5609   1.959   6.703   1.024
 1570SOL    HW2 5610   2.084   6.621   0.957
 1571SOL     OW 5611   6.110   1.853   2.298
 1571SOL    HW1 5612   6.190   1.863   2.358
 1571SOL    HW2 5613   6.049   1.782   2.335
 1572SOL     OW 5614   0.796   6.286   0.437
 1572SOL    HW1 5615   0.893   6.295   0.413
 1572SOL    HW2 5616   0.782   6.205   0.493
 1573SOL     OW 5617   6.312   3.389   1.812
 1573SOL    HW1 5618   6.403   3.349   1.827
 1573SOL    HW2 5619   6.319   3.489   1.813
 1574SOL     OW 5620   0.147   1.058   3.051
 1574SOL    HW1 5621   0.116   0.979   2.999
 1574SOL    HW2 5622   0.226   1.032   3.107
 1575SOL     OW 5623   2.392   2.071   0.875
 1575SOL    HW1 5624   2.465   2.008   0.848
 1575SOL    HW2 5625   2.409   2.106   0.967
 1576SOL     OW 5626   0.742   1.050   2.868
 1576SOL    HW1 5627   0.761   1.094   2.780
 1576SOL    HW2 5628   0.749   0.951   2.858
 1577SOL     OW 5629   2.737   0.615   5.363
 1577SOL    HW1 5630   2.821   0.566   5.387
 1577SOL    HW2 5631   2.658   0.565   5.398
 1578SOL     OW 5632   5.413   3.142   5.893
 1578SOL    HW1 5633   5.370   3.116   5.980
 1578SOL    HW2 5634   5.512   3.132   5.900
 1579SOL     OW 5635   0.767   1.831   2.644
 1579SOL    HW1 5636   0.827   1.905   2.616
 1579SOL    HW2 5637   0.821   1.758   2.685
 1580SOL     OW 5638   3.143   4.087   4.084
 1580SOL    HW1 5639   3.201   4.134   4.017
 1580SOL    HW2 5640   3.184   3.998   4.106
 1581SOL     OW 5641   6.741   4.203   5.536
 1581SOL    HW1 5642   6.710   4.278   5.478
 1581SOL    HW2 5643   6.782   4.240   5.620
 1582SOL     OW 5644   2.489   6.912   4.029
 1582SOL    HW1 5645   2.395   6.878   4.037
 1582SOL    HW2 5646   2.552   6.840   4.057
 1583SOL     OW 5647   1.090   5.229   3.214
 1583SOL    HW1 5648   1.000   5.202   3.249
 1583SOL    HW2 5649   1.143   5.271   3.287
 1584SOL     OW 5650   1.121   5.952   6.382
 1584SOL    HW1 5651   1.110   6.040   6.335
 1584SOL    HW2 5652   1.036   5.930   6.431
 1585SOL     OW 5653   5.154   1.352   3.258
 1585SOL    HW1 5654   5.074   1.365   3.316
 1585SOL    HW2 5655   5.161   1.255   3.232
 1586SOL     OW 5656   3.458   4.939   2.156
 1586SOL    HW1 5657   3.495   4.850   2.130
 1586SOL    HW2 5658   3.486   5.008   2.088
 1587SOL     OW 5659   3.175   5.734   6.496
 1587SOL    HW1 5660   3.179   5.650   6.442
 1587SOL    HW2 5661   3.140   5.808   6.440
 1588SOL     OW 5662   3.929   0.438   2.838
 1588SOL    HW1 5663   3.881   0.483   2.762
 1588SOL    HW2 5664   3.930   0.499   2.917
 1589SOL     OW 5665   6.347   3.138   2.225
 1589SOL    HW1 5666   6.342   3.051   2.177
 1589SOL    HW2 5667   6.286   3.204   2.181
 1590SOL     OW 5668   4.084   6.263   5.545
 1590SOL    HW1 5669   4.177   6.297   5.562
 1590SOL    HW2 5670   4.039   6.321   5.478
 1591SOL     OW 5671   6.834   5.279   2.231
 1591SOL    HW1 5672   6.823   5.256   2.135
 1591SOL    HW2 5673   6.906   5.223   2.271
 1592SOL     OW 5674   2.139   4.045   6.916
 1592SOL    HW1 5675   2.120   3.957   6.873
 1592SOL    HW2 5676   2.230   4.076   6.889
 1593SOL     OW 5677   1.527   6.261   5.655
 1593SOL    HW1 5678   1.535   6.162   5.667
 1593SOL    HW2 5679   1.586   6.290   5.579
 1594SOL     OW 5680   0.519   6.305   1.984
 1594SOL    HW1 5681   0.423   6.307   1.955
 1594SOL    HW2 5682   0.556   6.213   1.971
 1595SOL     OW 5683   1.532   5.363   0.336
 1595SOL    HW1 5684   1.473   5.402   0.266
 1595SOL    HW2 5685   1.536   5.424   0.415
 1596SOL     OW 5686   0.180   2.602   4.024
 1596SOL    HW1 5687   0.208   2.509   3.999
 1596SOL    HW2 5688   0.110   2.634   3.960
 1597SOL     OW 5689   1.181   6.247   0.129
 1597SOL    HW1 5690   1.233   6.165   0.106
 1597SOL    HW2 5691   1.152   6.293   0.045
 1598SOL     OW 5692   6.982   3.996   5.764
 1598SOL    HW1 5693   6.975   3.899   5.740
 1598SOL    HW2 5694   7.015   4.047   5.684
 1599SOL     OW 5695   4.877   4.702   5.079
 1599SOL    HW1 5696   4.911   4.641   5.008
 1599SOL    HW2 5697   4.818   4.650   5.141
 1600SOL     OW 5698   4.727   1.034   3.186
 1600SOL    HW1 5699   4.639   1.057   3.227
 1600SOL    HW2 5700   4.721   1.044   3.087
 1601SOL     OW 5701   0.069   5.040   4.603
 1601SOL    HW1 5702   0.164   5.035   4.573
 1601SOL    HW2 5703   0.051   4.967   4.669
 1602SOL     OW 5704   3.840   5.206   3.111
 1602SOL    HW1 5705   3.766   5.150   3.149
 1602SOL    HW2 5706   3.903   5.232   3.185
 1603SOL     OW 5707   1.138   6.587   3.005
 1603SOL    HW1 5708   1.071   6.635   2.948
 1603SOL    HW2 5709   1.138   6.490   2.982
 1604SOL     OW 5710   5.725   4.509   1.241
 1604SOL    HW1 5711   5.783   4.430   1.257
 1604SOL    HW2 5712   5.685   4.540   1.328
 1605SOL     OW 5713   6.263   5.591   1.432
 1605SOL    HW1 5714   6.191   5.659   1.443
 1605SOL    HW2 5715   6.245   5.536   1.351
 1606SOL     OW 5716   3.599   1.138   5.547
 1606SOL    HW1 5717   3.608   1.231   5.511
 1606SOL    HW2 5718   3.509   1.102   5.523
 1607SOL     OW 5719   4.218   1.044   1.402
 1607SOL    HW1 5720   4.160   1.076   1.477
 1607SOL    HW2 5721   4.306   1.014   1.439
 1608SOL     OW 5722   0.619   0.628   3.668
 1608SOL    HW1 5723   0.636   0.714   3.620
 1608SOL    HW2 5724   0.547   0.642   3.736
 1609SOL     OW 5725   4.434   0.109   0.391
 1609SOL    HW1 5726   4.416   0.019   0.431
 1609SOL    HW2 5727   4.371   0.176   0.431
 1610SOL     OW 5728   5.838   4.981   6.490
 1610SOL    HW1 5729   5.930   5.009   6.461
 1610SOL    HW2 5730   5.816   4.893   6.450
 1611SOL     OW 5731   2.270   3.606   0.729
 1611SOL    HW1 5732   2.212   3.687   0.736
 1611SOL    HW2 5733   2.315   3.590   0.817
 1612SOL     OW 5734   2.762   6.803   6.311
 1612SOL    HW1 5735   2.812   6.867   6.253
 1612SOL    HW2 5736   2.790   6.815   6.406
 1613SOL     OW 5737   1.739   4.965   1.981
 1613SOL    HW1 5738   1.818   4.950   1.921
 1613SOL    HW2 5739   1.663   4.906   1.952
 1614SOL     OW 5740   5.743   3.452   0.275
 1614SOL    HW1 5741   5.694   3.453   0.363
 1614SOL    HW2 5742   5.720   3.368   0.226
 1615SOL     OW 5743   5.823   5.068   0.658
 1615SOL    HW1 5744   5.811   5.142   0.591
 1615SOL    HW2 5745   5.733   5.038   0.691
 1616SOL     OW 5746   2.988   1.266   5.055
 1616SOL    HW1 5747   2.908   1.284   4.998
 1616SOL    HW2 5748   3.008   1.348   5.110
 1617SOL     OW 5749   6.132   6.942   2.675
 1617SOL    HW1 5750   6.090   6.898   2.596
 1617SOL    HW2 5751   6.208   6.999   2.645
 1618SOL     OW 5752   1.824   4.291   2.068
 1618SOL    HW1 5753   1.863   4.332   1.986
 1618SOL    HW2 5754   1.888   4.224   2.106
 1619SOL     OW 5755   1.498   3.448   2.074
 1619SOL    HW1 5756   1.438   3.422   1.998
 1619SOL    HW2 5757   1.588   3.406   2.062
 1620SOL     OW 5758   2.773   4.792   1.821
 1620SOL    HW1 5759   2.853   4.811   1.763
 1620SOL    HW2 5760   2.797   4.721   1.887
 1621SOL     OW 5761   0.360   1.030   0.549
 1621SOL    HW1 5762   0.420   0.957   0.517
 1621SOL    HW2 5763   0.276   0.990   0.586
 1622SOL     OW 5764   0.605   3.048   4.773
 1622SOL    HW1 5765   0.571   3.072   4.682
 1622SOL    HW2 5766   0.592   2.950   4.789
 1623SOL     OW 5767   2.208   2.979   4.840
 1623SOL    HW1 5768   2.202   3.077   4.820
 1623SOL    HW2 5769   2.259   2.966   4.925
 1624SOL     OW 5770   2.915   0.839   4.932
 1624SOL    HW1 5771   2.971   0.881   5.003
 1624SOL    HW2 5772   2.834   0.895   4.915
 1625SOL     OW 5773   1.025   5.369   0.487
 1625SOL    HW1 5774   1.046   5.407   0.577
 1625SOL    HW2 5775   0.966   5.289   0.498
 1626SOL     OW 5776   4.257   1.975   7.002
 1626SOL    HW1 5777   4.274   2.073   6.997
 1626SOL    HW2 5778   4.159   1.957   6.992
 1627SOL     OW 5779   6.054   3.732   2.971
 1627SOL    HW1 5780   5.966   3.687   2.952
 1627SOL    HW2 5781   6.098   3.687   3.048
 1628SOL     OW 5782   4.770   4.245   0.057
 1628SOL    HW1 5783   4.743   4.161   0.008
 1628SOL    HW2 5784   4.752   4.234   0.154
 1629SOL     OW 5785   2.496   0.834   4.066
 1629SOL    HW1 5786   2.516   0.913   4.124
 1629SOL    HW2 5787   2.555   0.758   4.093
 1630SOL     OW 5788   1.451   5.001   5.577
 1630SOL    HW1 5789   1.461   4.917   5.523
 1630SOL    HW2 5790   1.538   5.050   5.577
 1631SOL     OW 5791   0.891   2.763   6.698
 1631SOL    HW1 5792   0.832   2.785   6.776
 1631SOL    HW2 5793   0.983   2.742   6.731
 1632SOL     OW 5794   6.842   2.151   0.147
 1632SOL    HW1 5795   6.909   2.224   0.157
 1632SOL    HW2 5796   6.857   2.104   0.060
 1633SOL     OW 5797   5.232   3.527   4.467
 1633SOL    HW1 5798   5.182   3.572   4.541
 1633SOL    HW2 5799   5.233   3.587   4.387
 1634SOL     OW 5800   4.505   5.447   5.017
 1634SOL    HW1 5801   4.519   5.445   5.116
 1634SOL    HW2 5802   4.529   5.538   4.982
 1635SOL     OW 5803   0.216   4.966   6.101
 1635SOL    HW1 5804   0.137   4.957   6.040
 1635SOL    HW2 5805   0.242   4.876   6.136
 1636SOL     OW 5806   3.014   4.273   1.719
 1636SOL    HW1 5807   2.952   4.332   1.769
 1636SOL    HW2 5808   2.976   4.254   1.628
 1637SOL     OW 5809   1.194   0.797   2.710
 1637SOL    HW1 5810   1.115   0.759   2.662
 1637SOL    HW2 5811   1.165   0.873   2.767
 1638SOL     OW 5812   0.233   4.257   3.247
 1638SOL    HW1 5813   0.195   4.297   3.164
 1638SOL    HW2 5814   0.222   4.157   3.243
 1639SOL     OW 5815   5.013   0.120   2.679
 1639SOL    HW1 5816   5.097   0.097   2.729
 1639SOL    HW2 5817   4.972   0.201   2.720
 1640SOL     OW 5818   5.834   1.195   0.306
 1640SOL    HW1 5819   5.880   1.140   0.236
 1640SOL    HW2 5820   5.837   1.147   0.394
 1641SOL     OW 5821   4.758   2.440   3.337
 1641SOL    HW1 5822   4.659   2.441   3.325
 1641SOL    HW2 5823   4.802   2.479   3.257
 1642SOL     OW 5824   5.748   3.678   6.177
 1642SOL    HW1 5825   5.771   3.581   6.168
 1642SOL    HW2 5826   5.832   3.730   6.195
 1643SOL     OW 5827   3.142   5.116   4.444
 1643SOL    HW1 5828   3.129   5.206   4.404
 1643SOL    HW2 5829   3.063   5.093   4.501
 1644SOL     OW 5830   6.260   3.447   0.455
 1644SOL    HW1 5831   6.167   3.412   0.447
 1644SOL    HW2 5832   6.270   3.530   0.401
 1645SOL     OW 5833   3.052   5.476   5.707
 1645SOL    HW1 5834   3.106   5.394   5.688
 1645SOL    HW2 5835   3.112   5.552   5.727
 1646SOL     OW 5836   2.774   6.010   0.447
 1646SOL    HW1 5837   2.843   5.953   0.403
 1646SOL    HW2 5838   2.811   6.102   0.461
 1647SOL     OW 5839   5.937   2.868   4.636
 1647SOL    HW1 5840   5.919   2.770   4.648
 1647SOL    HW2 5841   5.946   2.888   4.538
 1648SOL     OW 5842   5.513   5.293   0.563
 1648SOL    HW1 5843   5.416   5.272   0.564
 1648SOL    HW2 5844   5.560   5.237   0.632
 1649SOL     OW 5845   3.178   0.882   4.480
 1649SOL    HW1 5846   3.267   0.891   4.436
 1649SOL    HW2 5847   3.106   0.877   4.410
 1650SOL     OW 5848   1.943   6.011   5.396
 1650SOL    HW1 5849   1.966   6.058   5.481
 1650SOL    HW2 5850   1.923   5.915   5.415
 1651SOL     OW 5851   0.731   1.974   1.400
 1651SOL    HW1 5852   0.798   2.002   1.468
 1651SOL    HW2 5853   0.770   1.987   1.308
 1652SOL     OW 5854   1.096   4.045   2.562
 1652SOL    HW1 5855   1.150   4.109   2.617
 1652SOL    HW2 5856   1.011   4.024   2.610
 1653SOL     OW 5857   1.251   6.988   1.093
 1653SOL    HW1 5858   1.180   6.963   1.158
 1653SOL    HW2 5859   1.340   6.982   1.137
 1654SOL     OW 5860   0.385   3.647   1.196
 1654SOL    HW1 5861   0.439   3.614   1.119
 1654SOL    HW2 5862   0.393   3.747   1.201
 1655SOL     OW 5863   6.817   2.220   5.266
 1655SOL    HW1 5864   6.719   2.232   5.277
 1655SOL    HW2 5865   6.847   2.138   5.314
 1656SOL     OW 5866   2.558   4.634   2.271
 1656SOL    HW1 5867   2.503   4.712   2.241
 1656SOL    HW2 5868   2.654   4.662   2.277
 1657SOL     OW 5869   0.159   1.252   3.512
 1657SOL    HW1 5870   0.116   1.286   3.596
 1657SOL    HW2 5871   0.092   1.250   3.438
 1658SOL     OW 5872   0.721   6.128   1.088
 1658SOL    HW1 5873   0.751   6.132   0.992
 1658SOL    HW2 5874   0.621   6.136   1.092
 1659SOL     OW 5875   3.668   0.459   5.893
 1659SOL    HW1 5876   3.615   0.376   5.904
 1659SOL    HW2 5877   3.607   0.539   5.895
 1660SOL     OW 5878   1.147   5.512   4.100
 1660SOL    HW1 5879   1.075   5.543   4.162
 1660SOL    HW2 5880   1.106   5.470   4.019
 1661SOL     OW 5881   2.373   0.857   1.943
 1661SOL    HW1 5882   2.456   0.805   1.923
 1661SOL    HW2 5883   2.396   0.940   1.994
 1662SOL     OW 5884   6.322   0.536   4.159
 1662SOL    HW1 5885   6.305   0.438   4.172
 1662SOL    HW2 5886   6.331   0.580   4.248
 1663SOL     OW 5887   4.419   5.819   2.256
 1663SOL    HW1 5888   4.385   5.817   2.350
 1663SOL    HW2 5889   4.511   5.857   2.254
 1664SOL     OW 5890   1.731   0.315   4.701
 1664SOL    HW1 5891   1.731   0.230   4.755
 1664SOL    HW2 5892   1.638   0.337   4.674
 1665SOL     OW 5893   0.182   1.951   2.961
 1665SOL    HW1 5894   0.211   1.856   2.950
 1665SOL    HW2 5895   0.236   1.994   3.034
 1666SOL     OW 5896   5.442   2.613   7.012
 1666SOL    HW1 5897   5.491   2.697   6.989
 1666SOL    HW2 5898   5.413   2.567   6.927
 1667SOL     OW 5899   6.708   5.671   1.350
 1667SOL    HW1 5900   6.796   5.624   1.347
 1667SOL    HW2 5901   6.657   5.649   1.267
 1668SOL     OW 5902   4.932   5.901   5.594
 1668SOL    HW1 5903   4.986   5.842   5.654
 1668SOL    HW2 5904   4.984   5.918   5.510
 1669SOL     OW 5905   7.014   5.734   6.732
 1669SOL    HW1 5906   6.983   5.829   6.723
 1669SOL    HW2 5907   0.058   5.711   6.657
 1670SOL     OW 5908   0.042   3.715   5.714
 1670SOL    HW1 5909   0.085   3.728   5.803
 1670SOL    HW2 5910   0.112   3.717   5.643
 1671SOL     OW 5911   5.278   1.291   1.482
 1671SOL    HW1 5912   5.262   1.241   1.567
 1671SOL    HW2 5913   5.376   1.295   1.463
 1672SOL     OW 5914   2.017   2.831   1.129
 1672SOL    HW1 5915   2.059   2.785   1.208
 1672SOL    HW2 5916   1.946   2.894   1.161
 1673SOL     OW 5917   0.402   1.888   4.405
 1673SOL    HW1 5918   0.462   1.854   4.332
 1673SOL    HW2 5919   0.422   1.984   4.422
 1674SOL     OW 5920   0.695   3.736   2.816
 1674SOL    HW1 5921   0.604   3.771   2.834
 1674SOL    HW2 5922   0.754   3.754   2.895
 1675SOL     OW 5923   4.580   0.168   6.303
 1675SOL    HW1 5924   4.490   0.186   6.343
 1675SOL    HW2 5925   4.619   0.086   6.346
 1676SOL     OW 5926   1.813   2.442   1.822
 1676SOL    HW1 5927   1.902   2.458   1.864
 1676SOL    HW2 5928   1.812   2.482   1.730
 1677SOL     OW 5929   3.101   3.626   5.329
 1677SOL    HW1 5930   3.069   3.667   5.244
 1677SOL    HW2 5931   3.200   3.615   5.327
 1678SOL     OW 5932   4.766   3.971   4.391
 1678SOL    HW1 5933   4.781   4.000   4.297
 1678SOL    HW2 5934   4.729   4.047   4.444
 1679SOL     OW 5935   2.306   2.143   4.188
 1679SOL    HW1 5936   2.354   2.211   4.135
 1679SOL    HW2 5937   2.228   2.186   4.235
 1680SOL     OW 5938   0.136   3.135   4.996
 1680SOL    HW1 5939   0.086   3.152   4.911
 1680SOL    HW2 5940   0.211   3.071   4.980
 1681SOL     OW 5941   6.721   5.899   0.341
 1681SOL    HW1 5942   6.706   5.939   0.250
 1681SOL    HW2 5943   6.764   5.809   0.332
 1682SOL     OW 5944   1.070   0.829   4.279
 1682SOL    HW1 5945   1.101   0.923   4.297
 1682SOL    HW2 5946   1.110   0.796   4.194
 1683SOL     OW 5947   4.781   5.278   1.650
 1683SOL    HW1 5948   4.745   5.308   1.738
 1683SOL    HW2 5949   4.821   5.187   1.660
 1684SOL     OW 5950   1.576   5.640   2.358
 1684SOL    HW1 5951   1.630   5.660   2.440
 1684SOL    HW2 5952   1.559   5.726   2.308
 1685SOL     OW 5953   2.589   0.839   5.342
 1685SOL    HW1 5954   2.622   0.924   5.383
 1685SOL    HW2 5955   2.666   0.776   5.331
 1686SOL     OW 5956   2.837   5.943   5.026
 1686SOL    HW1 5957   2.837   6.021   4.964
 1686SOL    HW2 5958   2.914   5.883   5.005
 1687SOL     OW 5959   2.313   3.964   1.363
 1687SOL    HW1 5960   2.229   3.935   1.410
 1687SOL    HW2 5961   2.336   4.057   1.392
 1688SOL     OW 5962   1.935   2.357   4.496
 1688SOL    HW1 5963   1.903   2.270   4.533
 1688SOL    HW2 5964   2.010   2.340   4.433
 1689SOL     OW 5965   5.898   1.585   2.718
 1689SOL    HW1 5966   5.981   1.536   2.743
 1689SOL    HW2 5967   5.864   1.636   2.797
 1690SOL     OW 5968   1.701   3.133   3.738
 1690SOL    HW1 5969   1.633   3.069   3.775
 1690SOL    HW2 5970   1.705   3.215   3.796
 1691SOL     OW 5971   5.725   3.618   3.177
 1691SOL    HW1 5972   5.761   3.712   3.180
 1691SOL    HW2 5973   5.732   3.577   3.268
 1692SOL     OW 5974   5.708   6.824   1.530
 1692SOL    HW1 5975   5.705   6.738   1.581
 1692SOL    HW2 5976   5.620   6.838   1.484
 1693SOL     OW 5977   0.398   2.252   1.794
 1693SOL    HW1 5978   0.374   2.262   1.890
 1693SOL    HW2 5979   0.355   2.170   1.757
 1694SOL     OW 5980   5.380   0.462   2.691
 1694SOL    HW1 5981   5.284   0.470   2.665
 1694SOL    HW2 5982   5.390   0.485   2.788
 1695SOL     OW 5983   3.254   1.436   5.890
 1695SOL    HW1 5984   3.265   1.455   5.987
 1695SOL    HW2 5985   3.331   1.381   5.858
 1696SOL     OW 5986   4.613   4.672   0.555
 1696SOL    HW1 5987   4.543   4.649   0.622
 1696SOL    HW2 5988   4.698   4.696   0.602
 1697SOL     OW 5989   5.549   7.003   0.709
 1697SOL    HW1 5990   5.597   0.071   0.686
 1697SOL    HW2 5991   5.551   6.940   0.631
 1698SOL     OW 5992   4.268   0.370   0.071
 1698SOL    HW1 5993   4.281   0.417   7.000
 1698SOL    HW2 5994   4.315   0.422   0.143
 1699SOL     OW 5995   1.874   0.830   0.715
 1699SOL    HW1 5996   1.962   0.794   0.746
 1699SOL    HW2 5997   1.828   0.763   0.657
 1700SOL     OW 5998   5.571   2.526   3.241
 1700SOL    HW1 5999   5.652   2.484   3.282
 1700SOL    HW2 6000   5.516   2.456   3.196
 1701SOL     OW 6001   4.435   4.350   6.528
 1701SOL    HW1 6002   4.523   4.333   6.573
 1701SOL    HW2 6003   4.369   4.381   6.596
 1702SOL     OW 6004   6.885   2.677   0.138
 1702SOL    HW1 6005   6.935   2.591   0.129
 1702SOL    HW2 6006   6.788   2.658   0.152
 1703SOL     OW 6007   3.058   2.646   1.730
 1703SOL    HW1 6008   3.014   2.582   1.794
 1703SOL    HW2 6009   3.146   2.609   1.702
 1704SOL     OW 6010   1.001   2.253   0.969
 1704SOL    HW1 6011   1.058   2.332   0.989
 1704SOL    HW2 6012   0.937   2.276   0.895
 1705SOL     OW 6013   3.292   1.604   1.846
 1705SOL    HW1 6014   3.194   1.592   1.831
 1705SOL    HW2 6015   3.315   1.701   1.834
 1706SOL     OW 6016   4.613   0.898   2.533
 1706SOL    HW1 6017   4.657   0.987   2.525
 1706SOL    HW2 6018   4.555   0.882   2.453
 1707SOL     OW 6019   5.223   1.868   1.872
 1707SOL    HW1 6020   5.204   1.776   1.907
 1707SOL    HW2 6021   5.320   1.890   1.884
 1708SOL     OW 6022   5.149   5.136   2.264
 1708SOL    HW1 6023   5.100   5.089   2.337
 1708SOL    HW2 6024   5.085   5.160   2.191
 1709SOL     OW 6025   3.222   5.466   1.876
 1709SOL    HW1 6026   3.221   5.372   1.842
 1709SOL    HW2 6027   3.172   5.471   1.963
 1710SOL     OW 6028   5.202   5.340   3.950
 1710SOL    HW1 6029   5.211   5.375   3.857
 1710SOL    HW2 6030   5.183   5.242   3.947
 1711SOL     OW 6031   0.672   4.756   4.229
 1711SOL    HW1 6032   0.623   4.732   4.313
 1711SOL    HW2 6033   0.754   4.699   4.222
 1712SOL     OW 6034   0.214   2.764   5.779
 1712SOL    HW1 6035   0.129   2.750   5.830
 1712SOL    HW2 6036   0.292   2.739   5.836
 1713SOL     OW 6037   5.113   2.824   1.846
 1713SOL    HW1 6038   5.058   2.830   1.929
 1713SOL    HW2 6039   5.062   2.776   1.774
 1714SOL     OW 6040   3.571   1.974   5.628
 1714SOL    HW1 6041   3.489   1.921   5.650
 1714SOL    HW2 6042   3.591   2.036   5.704
 1715SOL     OW 6043   0.201   5.517   2.894
 1715SOL    HW1 6044   0.148   5.439   2.929
 1715SOL    HW2 6045   0.142   5.576   2.840
 1716SOL     OW 6046   4.796   6.770   2.892
 1716SOL    HW1 6047   4.878   6.720   2.919
 1716SOL    HW2 6048   4.735   6.779   2.971
 1717SOL     OW 6049   2.223   6.563   5.629
 1717SOL    HW1 6050   2.260   6.591   5.717
 1717SOL    HW2 6051   2.160   6.486   5.642
 1718SOL     OW 6052   2.032   1.842   1.037
 1718SOL    HW1 6053   2.063   1.937   1.041
 1718SOL    HW2 6054   2.111   1.781   1.039
 1719SOL     OW 6055   2.059   3.370   0.774
 1719SOL    HW1 6056   2.007   3.285   0.763
 1719SOL    HW2 6057   2.153   3.348   0.800
 1720SOL     OW 6058   0.162   2.501   6.680
 1720SOL    HW1 6059   0.213   2.586   6.695
 1720SOL    HW2 6060   0.226   2.425   6.672
 1721SOL     OW 6061   1.524   6.151   1.286
 1721SOL    HW1 6062   1.438   6.202   1.291
 1721SOL    HW2 6063   1.536   6.114   1.194
 1722SOL     OW 6064   3.973   1.912   4.085
 1722SOL    HW1 6065   3.878   1.928   4.110
 1722SOL    HW2 6066   4.005   1.827   4.127
 1723SOL     OW 6067   6.021   2.679   3.037
 1723SOL    HW1 6068   5.922   2.666   3.046
 1723SOL    HW2 6069   6.060   2.603   2.985
 1724SOL     OW 6070   6.777   3.020   1.017
 1724SOL    HW1 6071   6.788   2.921   1.007
 1724SOL    HW2 6072   6.680   3.041   1.030
 1725SOL     OW 6073   2.047   4.963   6.575
 1725SOL    HW1 6074   2.141   4.977   6.605
 1725SOL    HW2 6075   1.984   5.007   6.640
 1726SOL     OW 6076   5.565   4.501   5.189
 1726SOL    HW1 6077   5.495   4.532   5.253
 1726SOL    HW2 6078   5.583   4.404   5.204
 1727SOL     OW 6079   3.834   3.281   4.193
 1727SOL    HW1 6080   3.874   3.194   4.219
 1727SOL    HW2 6081   3.737   3.282   4.217
 1728SOL     OW 6082   4.893   4.786   5.436
 1728SOL    HW1 6083   4.870   4.763   5.531
 1728SOL    HW2 6084   4.946   4.871   5.435
 1729SOL     OW 6085   2.436   4.358   3.315
 1729SOL    HW1 6086   2.494   4.389   3.239
 1729SOL    HW2 6087   2.435   4.427   3.387
 1730SOL     OW 6088   0.974   6.759   5.829
 1730SOL    HW1 6089   0.887   6.801   5.852
 1730SOL    HW2 6090   1.035   6.828   5.789
 1731SOL     OW 6091   6.764   3.710   2.803
 1731SOL    HW1 6092   6.751   3.717   2.902
 1731SOL    HW2 6093   6.764   3.802   2.763
 1732SOL     OW 6094   2.573   5.029   5.803
 1732SOL    HW1 6095   2.623   4.967   5.742
 1732SOL    HW2 6096   2.476   5.007   5.801
 1733SOL     OW 6097   1.417   4.118   1.500
 1733SOL    HW1 6098   1.465   4.139   1.585
 1733SOL    HW2 6099   1.336   4.178   1.492
 1734SOL     OW 6100   4.473   2.947   1.397
 1734SOL    HW1 6101   4.426   2.928   1.483
 1734SOL    HW2 6102   4.541   3.019   1.410
 1735SOL     OW 6103   5.362   5.938   0.704
 1735SOL    HW1 6104   5.316   5.931   0.792
 1735SOL    HW2 6105   5.394   6.031   0.690
 1736SOL     OW 6106   3.362   3.328   0.507
 1736SOL    HW1 6107   3.303   3.253   0.537
 1736SOL    HW2 6108   3.457   3.301   0.516
 1737SOL     OW 6109   2.970   1.307   4.270
 1737SOL    HW1 6110   2.952   1.403   4.294
 1737SOL    HW2 6111   2.897   1.274   4.210
 1738SOL     OW 6112   2.106   2.296   3.749
 1738SOL    HW1 6113   2.164   2.330   3.675
 1738SOL    HW2 6114   2.039   2.366   3.774
 1739SOL     OW 6115   0.170   1.991   5.312
 1739SOL    HW1 6116   0.234   2.046   5.365
 1739SOL    HW2 6117   0.214   1.906   5.284
 1740SOL     OW 6118   6.850   1.900   5.817
 1740SOL    HW1 6119   6.913   1.828   5.790
 1740SOL    HW2 6120   6.847   1.907   5.917
 1741SOL     OW 6121   2.262   1.193   3.955
 1741SOL    HW1 6122   2.251   1.148   4.044
 1741SOL    HW2 6123   2.234   1.130   3.882
 1742SOL     OW 6124   5.381   0.762   5.875
 1742SOL    HW1 6125   5.415   0.853   5.853
 1742SOL    HW2 6126   5.432   0.694   5.823
 1743SOL     OW 6127   1.120   2.273   1.451
 1743SOL    HW1 6128   1.039   2.298   1.503
 1743SOL    HW2 6129   1.196   2.335   1.474
 1744SOL     OW 6130   0.109   1.800   2.426
 1744SOL    HW1 6131   0.054   1.870   2.472
 1744SOL    HW2 6132   0.204   1.805   2.459
 1745SOL     OW 6133   6.027   6.365   2.946
 1745SOL    HW1 6134   6.062   6.418   2.869
 1745SOL    HW2 6135   6.007   6.272   2.916
 1746SOL     OW 6136   1.912   5.101   4.642
 1746SOL    HW1 6137   2.012   5.095   4.636
 1746SOL    HW2 6138   1.886   5.190   4.678
 1747SOL     OW 6139   5.937   2.157   2.442
 1747SOL    HW1 6140   5.854   2.157   2.386
 1747SOL    HW2 6141   5.936   2.078   2.504
 1748SOL     OW 6142   0.722   0.611   4.662
 1748SOL    HW1 6143   0.700   0.532   4.604
 1748SOL    HW2 6144   0.752   0.579   4.752
 1749SOL     OW 6145   2.747   0.462   4.886
 1749SOL    HW1 6146   2.651   0.493   4.883
 1749SOL    HW2 6147   2.792   0.502   4.966
 1750SOL     OW 6148   5.487   6.838   3.965
 1750SOL    HW1 6149   5.483   6.899   4.045
 1750SOL    HW2 6150   5.566   6.777   3.974
 1751SOL     OW 6151   4.374   6.164   5.038
 1751SOL    HW1 6152   4.454   6.104   5.044
 1751SOL    HW2 6153   4.331   6.152   4.948
 1752SOL     OW 6154   0.101   2.221   1.509
 1752SOL    HW1 6155   0.176   2.281   1.485
 1752SOL    HW2 6156   0.022   2.276   1.536
 1753SOL     OW 6157   0.162   1.198   0.909
 1753SOL    HW1 6158   0.078   1.222   0.957
 1753SOL    HW2 6159   0.239   1.244   0.953
 1754SOL     OW 6160   2.094   4.159   0.631
 1754SOL    HW1 6161   2.146   4.099   0.691
 1754SOL    HW2 6162   2.141   4.246   0.620
 1755SOL     OW 6163   6.856   6.035   2.124
 1755SOL    HW1 6164   6.800   6.098   2.177
 1755SOL    HW2 6165   6.798   5.974   2.071
 1756SOL     OW 6166   4.382   5.784   5.847
 1756SOL    HW1 6167   4.384   5.842   5.766
 1756SOL    HW2 6168   4.408   5.691   5.823
 1757SOL     OW 6169   2.916   5.458   4.894
 1757SOL    HW1 6170   3.007   5.446   4.934
 1757SOL    HW2 6171   2.877   5.368   4.872
 1758SOL     OW 6172   1.757   0.261   4.106
 1758SOL    HW1 6173   1.800   0.336   4.058
 1758SOL    HW2 6174   1.716   0.295   4.191
 1759SOL     OW 6175   1.746   5.475   6.374
 1759SOL    HW1 6176   1.662   5.514   6.335
 1759SOL    HW2 6177   1.820   5.542   6.369
 1760SOL     OW 6178   5.579   1.855   3.019
 1760SOL    HW1 6179   5.558   1.951   3.002
 1760SOL    HW2 6180   5.543   1.828   3.108
 1761SOL     OW 6181   0.177   0.126   0.723
 1761SOL    HW1 6182   0.209   0.172   0.806
 1761SOL    HW2 6183   0.254   0.080   0.678
 1762SOL     OW 6184   0.105   1.297   5.318
 1762SOL    HW1 6185   0.149   1.210   5.298
 1762SOL    HW2 6186   0.021   1.281   5.370
 1763SOL     OW 6187   1.346   3.786   3.840
 1763SOL    HW1 6188   1.331   3.791   3.741
 1763SOL    HW2 6189   1.310   3.869   3.883
 1764SOL     OW 6190   2.154   3.829   2.646
 1764SOL    HW1 6191   2.159   3.799   2.741
 1764SOL    HW2 6192   2.112   3.757   2.591
 1765SOL     OW 6193   3.604   1.264   0.888
 1765SOL    HW1 6194   3.606   1.184   0.949
 1765SOL    HW2 6195   3.509   1.296   0.878
 1766SOL     OW 6196   4.636   4.260   2.984
 1766SOL    HW1 6197   4.593   4.244   2.895
 1766SOL    HW2 6198   4.702   4.187   3.002
 1767SOL     OW 6199   0.282   3.476   3.245
 1767SOL    HW1 6200   0.333   3.404   3.292
 1767SOL    HW2 6201   0.203   3.502   3.301
 1768SOL     OW 6202   4.419   1.485   5.700
 1768SOL    HW1 6203   4.319   1.480   5.701
 1768SOL    HW2 6204   4.453   1.497   5.794
 1769SOL     OW 6205   4.270   2.232   5.876
 1769SOL    HW1 6206   4.339   2.161   5.888
 1769SOL    HW2 6207   4.272   2.294   5.956
 1770SOL     OW 6208   6.427   4.397   4.545
 1770SOL    HW1 6209   6.451   4.434   4.635
 1770SOL    HW2 6210   6.496   4.330   4.518
 1771SOL     OW 6211   2.010   4.886   0.269
 1771SOL    HW1 6212   2.086   4.863   0.330
 1771SOL    HW2 6213   2.007   4.985   0.255
 1772SOL     OW 6214   3.459   0.170   3.311
 1772SOL    HW1 6215   3.444   0.071   3.309
 1772SOL    HW2 6216   3.370   0.217   3.312
 1773SOL     OW 6217   3.543   4.100   6.902
 1773SOL    HW1 6218   3.641   4.123   6.905
 1773SOL    HW2 6219   3.530   4.006   6.934
 1774SOL     OW 6220   4.578   0.390   1.797
 1774SOL    HW1 6221   4.623   0.471   1.833
 1774SOL    HW2 6222   4.557   0.327   1.871
 1775SOL     OW 6223   1.927   5.833   4.346
 1775SOL    HW1 6224   1.846   5.838   4.404
 1775SOL    HW2 6225   1.992   5.767   4.385
 1776SOL     OW 6226   3.980   0.777   5.621
 1776SOL    HW1 6227   3.899   0.810   5.671
 1776SOL    HW2 6228   4.058   0.835   5.644
 1777SOL     OW 6229   3.277   5.654   5.751
 1777SOL    HW1 6230   3.263   5.696   5.661
 1777SOL    HW2 6231   3.374   5.635   5.764
 1778SOL     OW 6232   4.184   2.166   4.694
 1778SOL    HW1 6233   4.197   2.118   4.607
 1778SOL    HW2 6234   4.265   2.220   4.715
 1779SOL     OW 6235   4.487   2.103   4.200
 1779SOL    HW1 6236   4.400   2.130   4.242
 1779SOL    HW2 6237   4.545   2.061   4.270
 1780SOL     OW 6238   2.345   4.368   5.802
 1780SOL    HW1 6239   2.404   4.412   5.733
 1780SOL    HW2 6240   2.402   4.339   5.879
 1781SOL     OW 6241   4.610   5.404   3.608
 1781SOL    HW1 6242   4.704   5.421   3.638
 1781SOL    HW2 6243   4.551   5.480   3.638
 1782SOL     OW 6244   2.849   1.689   3.174
 1782SOL    HW1 6245   2.818   1.656   3.263
 1782SOL    HW2 6246   2.940   1.652   3.154
 1783SOL     OW 6247   1.983   3.028   6.505
 1783SOL    HW1 6248   1.891   3.031   6.545
 1783SOL    HW2 6249   2.020   2.935   6.514
 1784SOL     OW 6250   2.953   0.792   3.163
 1784SOL    HW1 6251   2.908   0.724   3.221
 1784SOL    HW2 6252   3.026   0.837   3.215
 1785SOL     OW 6253   5.197   5.510   3.724
 1785SOL    HW1 6254   5.224   5.499   3.629
 1785SOL    HW2 6255   5.183   5.607   3.744
 1786SOL     OW 6256   1.506   2.791   0.512
 1786SOL    HW1 6257   1.595   2.838   0.520
 1786SOL    HW2 6258   1.473   2.766   0.603
 1787SOL     OW 6259   1.601   0.683   4.892
 1787SOL    HW1 6260   1.556   0.618   4.954
 1787SOL    HW2 6261   1.531   0.739   4.847
 1788SOL     OW 6262   3.164   3.974   0.033
 1788SOL    HW1 6263   3.096   3.913   0.073
 1788SOL    HW2 6264   3.168   4.059   0.085
 1789SOL     OW 6265   6.348   2.393   2.093
 1789SOL    HW1 6266   6.386   2.400   2.185
 1789SOL    HW2 6267   6.252   2.363   2.099
 1790SOL     OW 6268   4.054   6.189   4.670
 1790SOL    HW1 6269   4.128   6.164   4.733
 1790SOL    HW2 6270   4.083   6.267   4.615
 1791SOL     OW 6271   0.690   1.905   4.831
 1791SOL    HW1 6272   0.602   1.947   4.850
 1791SOL    HW2 6273   0.677   1.808   4.810
 1792SOL     OW 6274   0.278   1.552   4.373
 1792SOL    HW1 6275   0.231   1.629   4.331
 1792SOL    HW2 6276   0.326   1.584   4.455
 1793SOL     OW 6277   6.735   0.317   3.799
 1793SOL    HW1 6278   6.677   0.279   3.727
 1793SOL    HW2 6279   6.788   0.393   3.762
 1794SOL     OW 6280   5.218   6.320   6.492
 1794SOL    HW1 6281   5.205   6.316   6.591
 1794SOL    HW2 6282   5.198   6.230   6.452
 1795SOL     OW 6283   0.033   4.706   2.431
 1795SOL    HW1 6284   0.009   4.609   2.425
 1795SOL    HW2 6285   0.111   4.717   2.493
 1796SOL     OW 6286   1.459   1.453   4.430
 1796SOL    HW1 6287   1.385   1.518   4.411
 1796SOL    HW2 6288   1.543   1.504   4.452
 1797SOL     OW 6289   1.265   0.446   6.022
 1797SOL    HW1 6290   1.205   0.444   5.942
 1797SOL    HW2 6291   1.256   0.534   6.068
 1798SOL     OW 6292   4.887   2.721   5.115
 1798SOL    HW1 6293   4.900   2.785   5.190
 1798SOL    HW2 6294   4.816   2.755   5.053
 1799SOL     OW 6295   6.027   1.934   6.760
 1799SOL    HW1 6296   5.971   2.015   6.776
 1799SOL    HW2 6297   6.007   1.896   6.669
 1800SOL     OW 6298   4.931   4.703   4.066
 1800SOL    HW1 6299   4.903   4.640   4.138
 1800SOL    HW2 6300   4.863   4.704   3.993
 1801SOL     OW 6301   0.972   1.405   2.335
 1801SOL    HW1 6302   0.908   1.381   2.407
 1801SOL    HW2 6303   0.973   1.333   2.266
 1802SOL     OW 6304   5.262   5.203   2.742
 1802SOL    HW1 6305   5.318   5.185   2.661
 1802SOL    HW2 6306   5.277   5.298   2.772
 1803SOL     OW 6307   6.704   6.251   0.711
 1803SOL    HW1 6308   6.689   6.179   0.778
 1803SOL    HW2 6309   6.730   6.210   0.624
 1804SOL     OW 6310   3.134   3.303   5.739
 1804SOL    HW1 6311   3.123   3.403   5.736
 1804SOL    HW2 6312   3.056   3.260   5.694
 1805SOL     OW 6313   0.489   3.976   5.944
 1805SOL    HW1 6314   0.545   3.983   5.862
 1805SOL    HW2 6315   0.463   4.068   5.974
 1806SOL     OW 6316   1.589   1.484   1.860
 1806SOL    HW1 6317   1.676   1.448   1.827
 1806SOL    HW2 6318   1.601   1.578   1.892
 1807SOL     OW 6319   6.061   2.363   6.629
 1807SOL    HW1 6320   6.119   2.290   6.594
 1807SOL    HW2 6321   6.054   2.437   6.561
 1808SOL     OW 6322   6.460   4.163   4.821
 1808SOL    HW1 6323   6.406   4.089   4.861
 1808SOL    HW2 6324   6.400   4.241   4.801
 1809SOL     OW 6325   2.319   2.489   4.632
 1809SOL    HW1 6326   2.267   2.570   4.661
 1809SOL    HW2 6327   2.415   2.502   4.654
 1810SOL     OW 6328   2.285   0.443   5.339
 1810SOL    HW1 6329   2.263   0.352   5.374
 1810SOL    HW2 6330   2.216   0.470   5.271
 1811SOL     OW 6331   4.022   4.807   3.290
 1811SOL    HW1 6332   3.956   4.794   3.364
 1811SOL    HW2 6333   4.102   4.856   3.326
 1812SOL     OW 6334   4.459   0.198   5.833
 1812SOL    HW1 6335   4.467   0.286   5.879
 1812SOL    HW2 6336   4.521   0.132   5.876
 1813SOL     OW 6337   4.370   4.851   1.296
 1813SOL    HW1 6338   4.296   4.846   1.364
 1813SOL    HW2 6339   4.414   4.761   1.290
 1814SOL     OW 6340   6.662   0.768   0.346
 1814SOL    HW1 6341   6.761   0.769   0.362
 1814SOL    HW2 6342   6.642   0.706   0.270
 1815SOL     OW 6343   6.287   1.367   1.915
 1815SOL    HW1 6344   6.244   1.446   1.958
 1815SOL    HW2 6345   6.386   1.370   1.931
 1816SOL     OW 6346   1.632   4.326   0.759
 1816SOL    HW1 6347   1.557   4.336   0.824
 1816SOL    HW2 6348   1.695   4.256   0.792
 1817SOL     OW 6349   3.709   6.297   3.207
 1817SOL    HW1 6350   3.614   6.271   3.189
 1817SOL    HW2 6351   3.739   6.255   3.293
 1818SOL     OW 6352   2.555   5.909   1.538
 1818SOL    HW1 6353   2.541   5.985   1.474
 1818SOL    HW2 6354   2.509   5.827   1.503
 1819SOL     OW 6355   1.086   5.627   1.671
 1819SOL    HW1 6356   1.170   5.579   1.645
 1819SOL    HW2 6357   1.029   5.639   1.590
 1820SOL     OW 6358   2.855   0.162   2.205
 1820SOL    HW1 6359   2.913   0.092   2.247
 1820SOL    HW2 6360   2.768   0.121   2.178
 1821SOL     OW 6361   2.685   1.081   1.736
 1821SOL    HW1 6362   2.615   1.117   1.797
 1821SOL    HW2 6363   2.646   1.070   1.644
 1822SOL     OW 6364   1.212   3.151   0.950
 1822SOL    HW1 6365   1.181   3.245   0.930
 1822SOL    HW2 6366   1.218   3.100   0.864
 1823SOL     OW 6367   3.052   5.947   3.235
 1823SOL    HW1 6368   2.967   5.988   3.269
 1823SOL    HW2 6369   3.035   5.853   3.205
 1824SOL     OW 6370   3.529   3.585   0.486
 1824SOL    HW1 6371   3.492   3.526   0.558
 1824SOL    HW2 6372   3.491   3.677   0.495
 1825SOL     OW 6373   2.140   1.958   4.795
 1825SOL    HW1 6374   2.048   1.986   4.769
 1825SOL    HW2 6375   2.196   2.040   4.810
 1826SOL     OW 6376   3.748   1.626   1.176
 1826SOL    HW1 6377   3.802   1.709   1.168
 1826SOL    HW2 6378   3.751   1.593   1.270
 1827SOL     OW 6379   6.970   5.489   0.884
 1827SOL    HW1 6380   6.971   5.391   0.905
 1827SOL    HW2 6381   6.893   5.532   0.930
 1828SOL     OW 6382   1.685   2.249   0.436
 1828SOL    HW1 6383   1.662   2.298   0.352
 1828SOL    HW2 6384   1.674   2.311   0.514
 1829SOL     OW 6385   3.151   1.002   3.240
 1829SOL    HW1 6386   3.203   1.066   3.298
 1829SOL    HW2 6387   3.213   0.961   3.172
 1830SOL     OW 6388   5.915   5.899   3.996
 1830SOL    HW1 6389   5.971   5.939   4.068
 1830SOL    HW2 6390   5.834   5.955   3.981
 1831SOL     OW 6391   6.045   6.935   2.026
 1831SOL    HW1 6392   5.993   0.004   2.013
 1831SOL    HW2 6393   6.048   6.885   1.939
 1832SOL     OW 6394   4.607   1.767   1.562
 1832SOL    HW1 6395   4.508   1.753   1.559
 1832SOL    HW2 6396   4.635   1.791   1.655
 1833SOL     OW 6397   5.561   0.743   0.865
 1833SOL    HW1 6398   5.599   0.768   0.954
 1833SOL    HW2 6399   5.528   0.649   0.868
 1834SOL     OW 6400   2.423   3.495   0.510
 1834SOL    HW1 6401   2.473   3.559   0.451
 1834SOL    HW2 6402   2.341   3.539   0.545
 1835SOL     OW 6403   0.342   4.771   2.338
 1835SOL    HW1 6404   0.401   4.756   2.258
 1835SOL    HW2 6405   0.264   4.828   2.312
 1836SOL     OW 6406   5.468   1.866   1.485
 1836SOL    HW1 6407   5.550   1.915   1.514
 1836SOL    HW2 6408   5.471   1.853   1.386
 1837SOL     OW 6409   0.923   0.231   4.593
 1837SOL    HW1 6410   0.856   0.234   4.668
 1837SOL    HW2 6411   0.897   0.296   4.522
 1838SOL     OW 6412   6.455   1.484   5.957
 1838SOL    HW1 6413   6.528   1.457   5.895
 1838SOL    HW2 6414   6.493   1.503   6.047
 1839SOL     OW 6415   6.941   2.030   4.934
 1839SOL    HW1 6416   6.886   2.112   4.948
 1839SOL    HW2 6417   6.950   1.981   5.021
 1840SOL     OW 6418   3.818   0.310   1.331
 1840SOL    HW1 6419   3.902   0.270   1.368
 1840SOL    HW2 6420   3.745   0.241   1.332
 1841SOL     OW 6421   1.990   1.504   3.713
 1841SOL    HW1 6422   2.049   1.507   3.794
 1841SOL    HW2 6423   1.944   1.415   3.710
 1842SOL     OW 6424   1.229   5.716   0.105
 1842SOL    HW1 6425   1.314   5.672   0.134
 1842SOL    HW2 6426   1.244   5.814   0.096
 1843SOL     OW 6427   5.799   1.677   3.798
 1843SOL    HW1 6428   5.831   1.745   3.864
 1843SOL    HW2 6429   5.727   1.621   3.839
 1844SOL     OW 6430   3.268   6.444   5.302
 1844SOL    HW1 6431   3.286   6.435   5.401
 1844SOL    HW2 6432   3.261   6.353   5.262
 1845SOL     OW 6433   3.327   0.474   4.386
 1845SOL    HW1 6434   3.397   0.545   4.378
 1845SOL    HW2 6435   3.300   0.465   4.482
 1846SOL     OW 6436   3.260   1.313   1.856
 1846SOL    HW1 6437   3.291   1.408   1.858
 1846SOL    HW2 6438   3.200   1.300   1.777
 1847SOL     OW 6439   1.500   0.758   6.500
 1847SOL    HW1 6440   1.455   0.801   6.578
 1847SOL    HW2 6441   1.487   0.659   6.504
 1848SOL     OW 6442   1.912   6.264   3.725
 1848SOL    HW1 6443   1.836   6.296   3.782
 1848SOL    HW2 6444   1.992   6.322   3.742
 1849SOL     OW 6445   4.113   2.797   1.456
 1849SOL    HW1 6446   4.121   2.708   1.412
 1849SOL    HW2 6447   4.202   2.824   1.493
 1850SOL     OW 6448   0.397   2.870   2.379
 1850SOL    HW1 6449   0.441   2.782   2.395
 1850SOL    HW2 6450   0.437   2.939   2.440
 1851SOL     OW 6451   0.280   3.008   0.314
 1851SOL    HW1 6452   0.356   2.991   0.376
 1851SOL    HW2 6453   0.196   3.018   0.367
 1852SOL     OW 6454   6.471   4.175   2.411
 1852SOL    HW1 6455   6.482   4.092   2.465
 1852SOL    HW2 6456   6.558   4.197   2.365
 1853SOL     OW 6457   0.613   2.790   2.846
 1853SOL    HW1 6458   0.573   2.859   2.906
 1853SOL    HW2 6459   0.541   2.734   2.805
 1854SOL     OW 6460   2.721   5.519   3.361
 1854SOL    HW1 6461   2.820   5.522   3.369
 1854SOL    HW2 6462   2.681   5.485   3.446
 1855SOL     OW 6463   5.114   3.008   5.475
 1855SOL    HW1 6464   5.206   3.017   5.514
 1855SOL    HW2 6465   5.120   2.955   5.390
 1856SOL     OW 6466   5.545   4.059   5.982
 1856SOL    HW1 6467   5.448   4.068   5.963
 1856SOL    HW2 6468   5.560   3.983   6.046
 1857SOL     OW 6469   4.408   2.263   6.280
 1857SOL    HW1 6470   4.328   2.207   6.302
 1857SOL    HW2 6471   4.472   2.261   6.357
 1858SOL     OW 6472   5.487   4.127   3.006
 1858SOL    HW1 6473   5.398   4.083   3.020
 1858SOL    HW2 6474   5.548   4.063   2.958
 1859SOL     OW 6475   5.074   1.847   4.062
 1859SOL    HW1 6476   5.034   1.846   3.971
 1859SOL    HW2 6477   5.039   1.926   4.113
 1860SOL     OW 6478   0.387   1.011   5.539
 1860SOL    HW1 6479   0.483   1.040   5.539
 1860SOL    HW2 6480   0.369   0.956   5.458
 1861SOL     OW 6481   6.596   6.714   2.070
 1861SOL    HW1 6482   6.566   6.630   2.113
 1861SOL    HW2 6483   6.517   6.761   2.029
 1862SOL     OW 6484   3.270   6.947   6.697
 1862SOL    HW1 6485   3.354   6.893   6.700
 1862SOL    HW2 6486   3.293   0.028   6.695
 1863SOL     OW 6487   0.418   3.214   3.617
 1863SOL    HW1 6488   0.357   3.177   3.547
 1863SOL    HW2 6489   0.489   3.148   3.638
 1864SOL     OW 6490   1.427   6.605   5.274
 1864SOL    HW1 6491   1.390   6.550   5.349
 1864SOL    HW2 6492   1.353   6.655   5.230
 1865SOL     OW 6493   3.958   6.825   0.183
 1865SOL    HW1 6494   3.932   6.782   0.097
 1865SOL    HW2 6495   3.975   6.754   0.252
 1866SOL     OW 6496   5.653   4.745   3.469
 1866SOL    HW1 6497   5.579   4.685   3.502
 1866SOL    HW2 6498   5.735   4.690   3.453
 1867SOL     OW 6499   0.554   4.127   6.963
 1867SOL    HW1 6500   0.628   4.193   6.975
 1867SOL    HW2 6501   0.568   4.049   0.007
 1868SOL     OW 6502   4.685   3.428   6.497
 1868SOL    HW1 6503   4.705   3.431   6.399
 1868SOL    HW2 6504   4.594   3.388   6.511
 1869SOL     OW 6505   6.628   3.462   5.115
 1869SOL    HW1 6506   6.563   3.414   5.173
 1869SOL    HW2 6507   6.579   3.511   5.043
 1870SOL     OW 6508   1.858   2.633   4.879
 1870SOL    HW1 6509   1.916   2.568   4.829
 1870SOL    HW2 6510   1.892   2.726   4.864
 1871SOL     OW 6511   0.680   0.670   0.248
 1871SOL    HW1 6512   0.611   0.738   0.273
 1871SOL    HW2 6513   0.765   0.716   0.222
 1872SOL     OW 6514   4.322   1.690   6.985
 1872SOL    HW1 6515   4.307   1.789   6.980
 1872SOL    HW2 6516   4.395   1.665   6.921
 1873SOL     OW 6517   5.723   1.260   5.607
 1873SOL    HW1 6518   5.728   1.316   5.689
 1873SOL    HW2 6519   5.812   1.218   5.589
 1874SOL     OW 6520   2.369   1.143   0.190
 1874SOL    HW1 6521   2.415   1.207   0.251
 1874SOL    HW2 6522   2.283   1.113   0.232
 1875SOL     OW 6523   0.381   0.659   0.439
 1875SOL    HW1 6524   0.411   0.743   0.393
 1875SOL    HW2 6525   0.356   0.681   0.533
 1876SOL     OW 6526   3.048   6.234   5.903
 1876SOL    HW1 6527   3.114   6.187   5.845
 1876SOL    HW2 6528   3.087   6.320   5.936
 1877SOL     OW 6529   0.439   2.068   3.087
 1877SOL    HW1 6530   0.473   2.015   3.010
 1877SOL    HW2 6531   0.496   2.148   3.101
 1878SOL     OW 6532   6.451   3.136   4.368
 1878SOL    HW1 6533   6.425   3.136   4.272
 1878SOL    HW2 6534   6.500   3.221   4.389
 1879SOL     OW 6535   1.681   5.562   3.633
 1879SOL    HW1 6536   1.585   5.561   3.607
 1879SOL    HW2 6537   1.691   5.605   3.723
 1880SOL     OW 6538   6.697   1.626   4.151
 1880SOL    HW1 6539   6.604   1.589   4.157
 1880SOL    HW2 6540   6.734   1.610   4.060
 1881SOL     OW 6541   0.893   2.908   2.900
 1881SOL    HW1 6542   0.795   2.916   2.880
 1881SOL    HW2 6543   0.913   2.950   2.989
 1882SOL     OW 6544   1.156   4.138   6.869
 1882SOL    HW1 6545   1.089   4.070   6.837
 1882SOL    HW2 6546   1.118   4.187   6.949
 1883SOL     OW 6547   1.525   2.909   3.780
 1883SOL    HW1 6548   1.496   2.870   3.692
 1883SOL    HW2 6549   1.444   2.931   3.835
 1884SOL     OW 6550   5.882   2.624   6.842
 1884SOL    HW1 6551   5.834   2.587   6.762
 1884SOL    HW2 6552   5.973   2.583   6.848
 1885SOL     OW 6553   0.822   2.328   6.241
 1885SOL    HW1 6554   0.900   2.295   6.186
 1885SOL    HW2 6555   0.856   2.370   6.325
 1886SOL     OW 6556   2.157   0.963   1.645
 1886SOL    HW1 6557   2.135   0.973   1.549
 1886SOL    HW2 6558   2.195   0.871   1.661
 1887SOL     OW 6559   1.550   5.628   6.248
 1887SOL    HW1 6560   1.477   5.636   6.315
 1887SOL    HW2 6561   1.519   5.664   6.160
 1888SOL     OW 6562   3.074   2.452   6.810
 1888SOL    HW1 6563   3.014   2.456   6.891
 1888SOL    HW2 6564   3.151   2.514   6.824
 1889SOL     OW 6565   5.594   2.929   6.725
 1889SOL    HW1 6566   5.625   2.876   6.804
 1889SOL    HW2 6567   5.534   2.873   6.669
 1890SOL     OW 6568   1.242   5.743   4.987
 1890SOL    HW1 6569   1.299   5.712   4.910
 1890SOL    HW2 6570   1.224   5.666   5.048
 1891SOL     OW 6571   5.796   2.346   3.271
 1891SOL    HW1 6572   5.776   2.290   3.351
 1891SOL    HW2 6573   5.883   2.394   3.285
 1892SOL     OW 6574   3.423   0.679   0.760
 1892SOL    HW1 6575   3.345   0.734   0.731
 1892SOL    HW2 6576   3.505   0.709   0.711
 1893SOL     OW 6577   3.098   2.895   0.017
 1893SOL    HW1 6578   3.075   2.819   0.078
 1893SOL    HW2 6579   3.186   2.877   6.989
 1894SOL     OW 6580   3.778   3.669   3.168
 1894SOL    HW1 6581   3.875   3.664   3.143
 1894SOL    HW2 6582   3.768   3.726   3.249
 1895SOL     OW 6583   5.952   1.040   2.124
 1895SOL    HW1 6584   5.908   0.962   2.170
 1895SOL    HW2 6585   6.051   1.031   2.132
 1896SOL     OW 6586   0.403   0.689   2.053
 1896SOL    HW1 6587   0.307   0.665   2.038
 1896SOL    HW2 6588   0.461   0.610   2.033
 1897SOL     OW 6589   1.539   4.673   2.759
 1897SOL    HW1 6590   1.453   4.622   2.758
 1897SOL    HW2 6591   1.528   4.754   2.816
 1898SOL     OW 6592   3.315   4.892   2.706
 1898SOL    HW1 6593   3.296   4.800   2.740
 1898SOL    HW2 6594   3.228   4.940   2.692
 1899SOL     OW 6595   1.120   1.651   2.223
 1899SOL    HW1 6596   1.033   1.605   2.242
 1899SOL    HW2 6597   1.128   1.669   2.125
 1900SOL     OW 6598   1.131   0.381   6.271
 1900SOL    HW1 6599   1.113   0.291   6.310
 1900SOL    HW2 6600   1.168   0.370   6.178
 1901SOL     OW 6601   2.286   1.598   1.552
 1901SOL    HW1 6602   2.271   1.658   1.631
 1901SOL    HW2 6603   2.213   1.612   1.485
 1902SOL     OW 6604   2.585   2.147   4.948
 1902SOL    HW1 6605   2.672   2.141   4.899
 1902SOL    HW2 6606   2.592   2.099   5.035
 1903SOL     OW 6607   6.283   3.293   3.741
 1903SOL    HW1 6608   6.237   3.250   3.819
 1903SOL    HW2 6609   6.273   3.235   3.660
 1904SOL     OW 6610   5.648   6.648   4.835
 1904SOL    HW1 6611   5.553   6.647   4.806
 1904SOL    HW2 6612   5.707   6.674   4.758
 1905SOL     OW 6613   1.971   0.947   4.124
 1905SOL    HW1 6614   1.988   0.922   4.029
 1905SOL    HW2 6615   1.880   0.987   4.132
 1906SOL     OW 6616   2.324   6.915   5.156
 1906SOL    HW1 6617   2.304   6.829   5.109
 1906SOL    HW2 6618   2.420   6.939   5.140
 1907SOL     OW 6619   3.406   6.436   3.143
 1907SOL    HW1 6620   3.420   6.422   3.045
 1907SOL    HW2 6621   3.388   6.348   3.187
 1908SOL     OW 6622   3.940   0.161   5.323
 1908SOL    HW1 6623   3.940   0.159   5.223
 1908SOL    HW2 6624   4.024   0.205   5.355
 1909SOL     OW 6625   0.702   4.201   2.744
 1909SOL    HW1 6626   0.655   4.172   2.828
 1909SOL    HW2 6627   0.765   4.128   2.715
 1910SOL     OW 6628   6.838   2.904   6.251
 1910SOL    HW1 6629   6.750   2.945   6.274
 1910SOL    HW2 6630   6.909   2.975   6.249
 1911SOL     OW 6631   5.823   3.123   4.973
 1911SOL    HW1 6632   5.787   3.154   4.885
 1911SOL    HW2 6633   5.859   3.201   5.024
 1912SOL     OW 6634   2.906   6.882   1.145
 1912SOL    HW1 6635   2.914   6.787   1.112
 1912SOL    HW2 6636   2.981   6.936   1.108
 1913SOL     OW 6637   1.126   5.894   5.341
 1913SOL    HW1 6638   1.057   5.939   5.397
 1913SOL    HW2 6639   1.217   5.916   5.377
 1914SOL     OW 6640   3.784   3.104   6.711
 1914SOL    HW1 6641   3.706   3.120   6.772
 1914SOL    HW2 6642   3.799   3.185   6.654
 1915SOL     OW 6643   3.622   2.143   5.170
 1915SOL    HW1 6644   3.581   2.096   5.249
 1915SOL    HW2 6645   3.551   2.163   5.103
 1916SOL     OW 6646   3.447   5.628   1.317
 1916SOL    HW1 6647   3.481   5.536   1.296
 1916SOL    HW2 6648   3.349   5.623   1.337
 1917SOL     OW 6649   2.958   3.225   4.638
 1917SOL    HW1 6650   2.970   3.309   4.690
 1917SOL    HW2 6651   2.897   3.164   4.687
 1918SOL     OW 6652   0.732   1.076   5.894
 1918SOL    HW1 6653   0.723   1.059   5.993
 1918SOL    HW2 6654   0.694   1.165   5.872
 1919SOL     OW 6655   2.747   0.868   1.489
 1919SOL    HW1 6656   2.710   0.818   1.411
 1919SOL    HW2 6657   2.696   0.843   1.571
 1920SOL     OW 6658   1.805   4.587   2.701
 1920SOL    HW1 6659   1.816   4.499   2.746
 1920SOL    HW2 6660   1.715   4.625   2.722
 1921SOL     OW 6661   0.893   4.818   0.085
 1921SOL    HW1 6662   0.952   4.757   0.034
 1921SOL    HW2 6663   0.870   4.898   0.029
 1922SOL     OW 6664   2.317   4.292   0.913
 1922SOL    HW1 6665   2.280   4.312   1.004
 1922SOL    HW2 6666   2.415   4.312   0.912
 1923SOL     OW 6667   2.922   0.772   5.776
 1923SOL    HW1 6668   2.941   0.763   5.873
 1923SOL    HW2 6669   2.825   0.793   5.763
 1924SOL     OW 6670   4.310   5.449   1.433
 1924SOL    HW1 6671   4.363   5.529   1.404
 1924SOL    HW2 6672   4.360   5.401   1.506
 1925SOL     OW 6673   1.799   4.198   0.507
 1925SOL    HW1 6674   1.804   4.156   0.416
 1925SOL    HW2 6675   1.890   4.225   0.537
 1926SOL     OW 6676   2.271   6.750   3.293
 1926SOL    HW1 6677   2.298   6.769   3.387
 1926SOL    HW2 6678   2.274   6.835   3.240
 1927SOL     OW 6679   3.055   4.048   6.504
 1927SOL    HW1 6680   3.138   4.099   6.482
 1927SOL    HW2 6681   3.028   3.993   6.425
 1928SOL     OW 6682   6.305   4.335   5.821
 1928SOL    HW1 6683   6.382   4.393   5.795
 1928SOL    HW2 6684   6.338   4.244   5.847
 1929SOL     OW 6685   0.894   5.099   1.563
 1929SOL    HW1 6686   0.955   5.020   1.570
 1929SOL    HW2 6687   0.890   5.146   1.652
 1930SOL     OW 6688   3.557   3.529   6.665
 1930SOL    HW1 6689   3.504   3.451   6.631
 1930SOL    HW2 6690   3.499   3.611   6.666
 1931SOL     OW 6691   0.309   3.569   2.772
 1931SOL    HW1 6692   0.256   3.543   2.691
 1931SOL    HW2 6693   0.246   3.589   2.848
 1932SOL     OW 6694   4.869   3.276   3.337
 1932SOL    HW1 6695   4.859   3.252   3.433
 1932SOL    HW2 6696   4.925   3.359   3.328
 1933SOL     OW 6697   1.820   4.122   0.795
 1933SOL    HW1 6698   1.879   4.124   0.715
 1933SOL    HW2 6699   1.870   4.082   0.872
 1934SOL     OW 6700   0.613   6.820   5.091
 1934SOL    HW1 6701   0.661   6.742   5.132
 1934SOL    HW2 6702   0.576   6.878   5.164
 1935SOL     OW 6703   4.310   6.059   3.520
 1935SOL    HW1 6704   4.335   6.153   3.541
 1935SOL    HW2 6705   4.371   5.996   3.568
 1936SOL     OW 6706   5.619   3.821   4.050
 1936SOL    HW1 6707   5.700   3.875   4.027
 1936SOL    HW2 6708   5.608   3.747   3.984
 1937SOL     OW 6709   3.553   6.891   1.173
 1937SOL    HW1 6710   3.622   6.849   1.114
 1937SOL    HW2 6711   3.462   6.862   1.145
 1938SOL     OW 6712   2.071   2.103   1.334
 1938SOL    HW1 6713   1.996   2.039   1.352
 1938SOL    HW2 6714   2.112   2.131   1.421
 1939SOL     OW 6715   6.781   0.392   4.651
 1939SOL    HW1 6716   6.728   0.332   4.712
 1939SOL    HW2 6717   6.868   0.415   4.694
 1940SOL     OW 6718   5.203   4.864   0.735
 1940SOL    HW1 6719   5.155   4.887   0.650
 1940SOL    HW2 6720   5.237   4.770   0.729
 1941SOL     OW 6721   0.467   3.969   4.066
 1941SOL    HW1 6722   0.525   4.005   4.139
 1941SOL    HW2 6723   0.477   3.869   4.062
 1942SOL     OW 6724   5.527   1.333   1.311
 1942SOL    HW1 6725   5.547   1.418   1.359
 1942SOL    HW2 6726   5.543   1.255   1.372
 1943SOL     OW 6727   2.172   6.340   3.489
 1943SOL    HW1 6728   2.221   6.267   3.537
 1943SOL    HW2 6729   2.133   6.403   3.556
 1944SOL     OW 6730   6.625   2.674   0.272
 1944SOL    HW1 6731   6.541   2.667   0.219
 1944SOL    HW2 6732   6.606   2.647   0.367
 1945SOL     OW 6733   4.129   5.511   0.932
 1945SOL    HW1 6734   4.113   5.571   1.010
 1945SOL    HW2 6735   4.187   5.434   0.960
 1946SOL     OW 6736   6.583   6.867   0.802
 1946SOL    HW1 6737   6.662   6.907   0.756
 1946SOL    HW2 6738   6.506   6.861   0.738
 1947SOL     OW 6739   4.622   6.166   4.890
 1947SOL    HW1 6740   4.686   6.243   4.879
 1947SOL    HW2 6741   4.538   6.185   4.838
 1948SOL     OW 6742   5.593   5.340   3.795
 1948SOL    HW1 6743   5.544   5.284   3.728
 1948SOL    HW2 6744   5.572   5.437   3.779
 1949SOL     OW 6745   3.286   4.185   6.515
 1949SOL    HW1 6746   3.368   4.127   6.519
 1949SOL    HW2 6747   3.297   4.263   6.576
 1950SOL     OW 6748   3.882   3.910   0.303
 1950SOL    HW1 6749   3.861   3.867   0.215
 1950SOL    HW2 6750   3.813   3.884   0.370
 1951SOL     OW 6751   6.044   3.313   6.908
 1951SOL    HW1 6752   6.010   3.220   6.895
 1951SOL    HW2 6753   5.981   3.378   6.866
 1952SOL     OW 6754   4.857   3.318   0.999
 1952SOL    HW1 6755   4.873   3.221   1.016
 1952SOL    HW2 6756   4.912   3.373   1.063
 1953SOL     OW 6757   6.672   1.579   5.585
 1953SOL    HW1 6758   6.715   1.562   5.497
 1953SOL    HW2 6759   6.662   1.678   5.599
 1954SOL     OW 6760   6.356   0.523   2.721
 1954SOL    HW1 6761   6.295   0.452   2.755
 1954SOL    HW2 6762   6.378   0.586   2.795
 1955SOL     OW 6763   0.471   1.441   2.654
 1955SOL    HW1 6764   0.475   1.365   2.720
 1955SOL    HW2 6765   0.541   1.428   2.584
 1956SOL     OW 6766   4.770   0.037   2.834
 1956SOL    HW1 6767   4.781   6.957   2.859
 1956SOL    HW2 6768   4.830   0.058   2.757
 1957SOL     OW 6769   5.780   4.479   4.286
 1957SOL    HW1 6770   5.687   4.507   4.311
 1957SOL    HW2 6771   5.790   4.381   4.301
 1958SOL     OW 6772   4.882   1.907   2.037
 1958SOL    HW1 6773   4.923   1.996   2.019
 1958SOL    HW2 6774   4.883   1.852   1.953
 1959SOL     OW 6775   0.988   0.444   4.414
 1959SOL    HW1 6776   1.045   0.521   4.442
 1959SOL    HW2 6777   0.904   0.478   4.372
 1960SOL     OW 6778   6.619   4.540   2.319
 1960SOL    HW1 6779   6.662   4.465   2.269
 1960SOL    HW2 6780   6.674   4.623   2.309
 1961SOL     OW 6781   6.084   4.293   3.648
 1961SOL    HW1 6782   6.093   4.314   3.745
 1961SOL    HW2 6783   6.160   4.334   3.598
 1962SOL     OW 6784   1.428   6.736   3.402
 1962SOL    HW1 6785   1.478   6.699   3.324
 1962SOL    HW2 6786   1.403   6.661   3.463
 1963SOL     OW 6787   0.818   2.124   1.147
 1963SOL    HW1 6788   0.737   2.095   1.095
 1963SOL    HW2 6789   0.889   2.154   1.084
 1964SOL     OW 6790   4.854   4.813   0.743
 1964SOL    HW1 6791   4.822   4.905   0.767
 1964SOL    HW2 6792   4.868   4.760   0.826
 1965SOL     OW 6793   2.011   2.947   4.635
 1965SOL    HW1 6794   2.052   2.877   4.693
 1965SOL    HW2 6795   2.083   2.993   4.582
 1966SOL     OW 6796   0.269   6.362   0.947
 1966SOL    HW1 6797   0.312   6.439   0.901
 1966SOL    HW2 6798   0.213   6.395   1.023
 1967SOL     OW 6799   5.728   2.667   5.804
 1967SOL    HW1 6800   5.738   2.645   5.707
 1967SOL    HW2 6801   5.674   2.750   5.814
 1968SOL     OW 6802   1.639   6.523   5.782
 1968SOL    HW1 6803   1.548   6.493   5.753
 1968SOL    HW2 6804   1.631   6.599   5.846
 1969SOL     OW 6805   0.651   1.294   1.181
 1969SOL    HW1 6806   0.584   1.293   1.107
 1969SOL    HW2 6807   0.670   1.389   1.208
 1970SOL     OW 6808   2.557   6.508   6.007
 1970SOL    HW1 6809   2.599   6.598   5.994
 1970SOL    HW2 6810   2.588   6.470   6.094
 1971SOL     OW 6811   0.613   0.257   5.952
 1971SOL    HW1 6812   0.586   0.295   5.863
 1971SOL    HW2 6813   0.538   0.266   6.017
 1972SOL     OW 6814   5.593   2.217   1.918
 1972SOL    HW1 6815   5.555   2.250   2.005
 1972SOL    HW2 6816   5.625   2.123   1.930
 1973SOL     OW 6817   3.354   3.164   0.166
 1973SOL    HW1 6818   3.274   3.182   0.109
 1973SOL    HW2 6819   3.402   3.249   0.185
 1974SOL     OW 6820   6.065   6.616   5.039
 1974SOL    HW1 6821   6.093   6.521   5.024
 1974SOL    HW2 6822   6.011   6.621   5.124
 1975SOL     OW 6823   1.643   1.459   4.063
 1975SOL    HW1 6824   1.580   1.505   4.000
 1975SOL    HW2 6825   1.704   1.527   4.104
 1976SOL     OW 6826   0.312   6.990   0.311
 1976SOL    HW1 6827   0.397   6.961   0.267
 1976SOL    HW2 6828   0.241   6.923   0.293
 1977SOL     OW 6829   1.662   2.972   4.728
 1977SOL    HW1 6830   1.622   3.042   4.787
 1977SOL    HW2 6831   1.748   2.940   4.767
 1978SOL     OW 6832   1.765   6.070   2.914
 1978SOL    HW1 6833   1.766   5.997   2.982
 1978SOL    HW2 6834   1.788   6.157   2.958
 1979SOL     OW 6835   5.998   4.338   6.313
 1979SOL    HW1 6836   5.937   4.290   6.250
 1979SOL    HW2 6837   5.995   4.294   6.403
 1980SOL     OW 6838   3.869   0.501   4.470
 1980SOL    HW1 6839   3.827   0.424   4.517
 1980SOL    HW2 6840   3.963   0.479   4.447
 1981SOL     OW 6841   0.160   2.737   2.343
 1981SOL    HW1 6842   0.239   2.796   2.358
 1981SOL    HW2 6843   0.101   2.778   2.273
 1982SOL     OW 6844   0.428   4.536   3.981
 1982SOL    HW1 6845   0.364   4.589   4.036
 1982SOL    HW2 6846   0.378   4.488   3.909
 1983SOL     OW 6847   0.812   0.786   2.880
 1983SOL    HW1 6848   0.823   0.744   2.790
 1983SOL    HW2 6849   0.879   0.747   2.943
 1984SOL     OW 6850   4.920   1.810   5.036
 1984SOL    HW1 6851   4.970   1.895   5.056
 1984SOL    HW2 6852   4.824   1.831   5.019
 1985SOL     OW 6853   1.179   6.571   2.700
 1985SOL    HW1 6854   1.245   6.645   2.693
 1985SOL    HW2 6855   1.223   6.492   2.744
 1986SOL     OW 6856   2.293   1.191   6.941
 1986SOL    HW1 6857   2.333   1.160   0.011
 1986SOL    HW2 6858   2.246   1.278   6.955
 1987SOL     OW 6859   2.192   2.502   2.629
 1987SOL    HW1 6860   2.248   2.551   2.695
 1987SOL    HW2 6861   2.106   2.474   2.672
 1988SOL     OW 6862   6.383   3.584   0.934
 1988SOL    HW1 6863   6.366   3.550   0.842
 1988SOL    HW2 6864   6.427   3.513   0.989
 1989SOL     OW 6865   2.532   5.422   5.220
 1989SOL    HW1 6866   2.622   5.455   5.192
 1989SOL    HW2 6867   2.473   5.500   5.241
 1990SOL     OW 6868   3.570   6.052   0.694
 1990SOL    HW1 6869   3.543   6.102   0.612
 1990SOL    HW2 6870   3.499   6.059   0.763
 1991SOL     OW 6871   2.831   5.393   0.028
 1991SOL    HW1 6872   2.772   5.449   6.986
 1991SOL    HW2 6873   2.813   5.296   0.009
 1992SOL     OW 6874   0.684   1.116   0.425
 1992SOL    HW1 6875   0.645   1.063   0.500
 1992SOL    HW2 6876   0.778   1.086   0.409
 1993SOL     OW 6877   3.354   2.241   5.305
 1993SOL    HW1 6878   3.287   2.293   5.252
 1993SOL    HW2 6879   3.375   2.290   5.390
 1994SOL     OW 6880   0.809   1.694   0.331
 1994SOL    HW1 6881   0.808   1.634   0.411
 1994SOL    HW2 6882   0.776   1.785   0.358
 1995SOL     OW 6883   5.206   2.538   3.293
 1995SOL    HW1 6884   5.172   2.484   3.371
 1995SOL    HW2 6885   5.265   2.480   3.237
 1996SOL     OW 6886   1.802   2.687   0.167
 1996SOL    HW1 6887   1.764   2.779   0.176
 1996SOL    HW2 6888   1.763   2.642   0.086
 1997SOL     OW 6889   3.297   1.520   4.859
 1997SOL    HW1 6890   3.310   1.598   4.798
 1997SOL    HW2 6891   3.379   1.508   4.915
 1998SOL     OW 6892   3.008   4.460   6.800
 1998SOL    HW1 6893   3.095   4.435   6.756
 1998SOL    HW2 6894   2.992   4.400   6.879
 1999SOL     OW 6895   2.094   6.167   6.111
 1999SOL    HW1 6896   2.171   6.158   6.173
 1999SOL    HW2 6897   2.126   6.192   6.020
 2000SOL     OW 6898   4.307   2.638   5.336
 2000SOL    HW1 6899   4.233   2.621   5.271
 2000SOL    HW2 6900   4.279   2.707   5.402
 2001SOL     OW 6901   2.841   0.271   1.549
 2001SOL    HW1 6902   2.900   0.222   1.613
 2001SOL    HW2 6903   2.898   0.314   1.479
 2002SOL     OW 6904   0.328   4.636   0.355
 2002SOL    HW1 6905   0.351   4.663   0.448
 2002SOL    HW2 6906   0.412   4.609   0.307
 2003SOL     OW 6907   6.210   5.666   2.517
 2003SOL    HW1 6908   6.204   5.571   2.548
 2003SOL    HW2 6909   6.152   5.724   2.575
 2004SOL     OW 6910   4.739   1.547   4.946
 2004SOL    HW1 6911   4.734   1.641   4.982
 2004SOL    HW2 6912   4.819   1.501   4.985
 2005SOL     OW 6913   0.393   5.132   0.031
 2005SOL    HW1 6914   0.349   5.066   6.986
 2005SOL    HW2 6915   0.357   5.121   0.124
 2006SOL     OW 6916   5.835   0.206   3.346
 2006SOL    HW1 6917   5.880   0.187   3.259
 2006SOL    HW2 6918   5.799   0.299   3.346
 2007SOL     OW 6919   4.882   4.658   0.964
 2007SOL    HW1 6920   4.820   4.630   1.037
 2007SOL    HW2 6921   4.974   4.672   1.000
 2008SOL     OW 6922   2.125   4.540   3.758
 2008SOL    HW1 6923   2.147   4.630   3.795
 2008SOL    HW2 6924   2.164   4.469   3.816
 2009SOL     OW 6925   5.255   0.710   2.441
 2009SOL    HW1 6926   5.250   0.614   2.413
 2009SOL    HW2 6927   5.165   0.740   2.474
 2010SOL     OW 6928   2.104   1.774   2.004
 2010SOL    HW1 6929   2.089   1.869   2.031
 2010SOL    HW2 6930   2.025   1.718   2.031
 2011SOL     OW 6931   6.556   6.743   4.710
 2011SOL    HW1 6932   6.467   6.776   4.678
 2011SOL    HW2 6933   6.628   6.801   4.674
 2012SOL     OW 6934   1.237   4.228   2.317
 2012SOL    HW1 6935   1.225   4.169   2.398
 2012SOL    HW2 6936   1.320   4.200   2.268
 2013SOL     OW 6937   6.010   2.401   3.454
 2013SOL    HW1 6938   6.061   2.349   3.523
 2013SOL    HW2 6939   5.927   2.438   3.495
 2014SOL     OW 6940   2.563   6.271   3.650
 2014SOL    HW1 6941   2.486   6.211   3.631
 2014SOL    HW2 6942   2.586   6.322   3.567
 2015SOL     OW 6943   1.806   0.527   0.001
 2015SOL    HW1 6944   1.856   0.599   0.050
 2015SOL    HW2 6945   1.866   0.448   7.004
 2016SOL     OW 6946   2.193   5.755   6.195
 2016SOL    HW1 6947   2.099   5.790   6.197
 2016SOL    HW2 6948   2.195   5.661   6.230
 2017SOL     OW 6949   3.669   6.977   4.358
 2017SOL    HW1 6950   3.602   6.911   4.325
 2017SOL    HW2 6951   3.721   7.013   4.281
 2018SOL     OW 6952   4.937   1.641   5.280
 2018SOL    HW1 6953   4.921   1.702   5.203
 2018SOL    HW2 6954   4.850   1.601   5.310
 2019SOL     OW 6955   5.325   3.436   6.154
 2019SOL    HW1 6956   5.226   3.451   6.150
 2019SOL    HW2 6957   5.367   3.464   6.068
 2020SOL     OW 6958   1.638   0.046   5.376
 2020SOL    HW1 6959   1.669   0.109   5.448
 2020SOL    HW2 6960   1.608   6.976   5.418
 2021SOL     OW 6961   0.732   6.458   4.936
 2021SOL    HW1 6962   0.813   6.480   4.991
 2021SOL    HW2 6963   0.734   6.360   4.912
 2022SOL     OW 6964   1.578   4.479   3.376
 2022SOL    HW1 6965   1.658   4.434   3.337
 2022SOL    HW2 6966   1.532   4.533   3.306
 2023SOL     OW 6967   6.817   0.647   6.821
 2023SOL    HW1 6968   6.751   0.611   6.887
 2023SOL    HW2 6969   6.909   0.639   6.858
 2024SOL     OW 6970   0.160   6.447   3.249
 2024SOL    HW1 6971   0.110   6.410   3.171
 2024SOL    HW2 6972   0.203   6.372   3.300
 2025SOL     OW 6973   2.994   1.262   3.492
 2025SOL    HW1 6974   3.082   1.272   3.445
 2025SOL    HW2 6975   2.935   1.200   3.440
 2026SOL     OW 6976   6.447   2.815   5.457
 2026SOL    HW1 6977   6.514   2.870   5.507
 2026SOL    HW2 6978   6.483   2.791   5.367
 2027SOL     OW 6979   1.419   0.271   0.583
 2027SOL    HW1 6980   1.518   0.269   0.567
 2027SOL    HW2 6981   1.400   0.241   0.676
 2028SOL     OW 6982   2.871   6.676   4.825
 2028SOL    HW1 6983   2.777   6.679   4.793
 2028SOL    HW2 6984   2.876   6.715   4.918
 2029SOL     OW 6985   0.069   0.847   0.008
 2029SOL    HW1 6986   0.063   0.749   7.005
 2029SOL    HW2 6987   0.046   0.863   0.104
 2030SOL     OW 6988   2.756   1.034   3.443
 2030SOL    HW1 6989   2.717   1.069   3.528
 2030SOL    HW2 6990   2.779   0.937   3.453
 2031SOL     OW 6991   6.479   5.833   1.143
 2031SOL    HW1 6992   6.450   5.738   1.156
 2031SOL    HW2 6993   6.577   5.835   1.121
 2032SOL     OW 6994   4.694   0.301   2.256
 2032SOL    HW1 6995   4.625   0.295   2.329
 2032SOL    HW2 6996   4.765   0.233   2.272
 2033SOL     OW 6997   3.193   3.053   5.889
 2033SOL    HW1 6998   3.203   3.127   5.822
 2033SOL    HW2 6999   3.258   2.980   5.868
 2034SOL     OW 7000   2.353   5.516   5.606
 2034SOL    HW1 7001   2.374   5.590   5.542
 2034SOL    HW2 7002   2.269   5.537   5.655
 2035SOL     OW 7003   6.760   6.282   3.891
 2035SOL    HW1 7004   6.667   6.288   3.927
 2035SOL    HW2 7005   6.797   6.374   3.878
 2036SOL     OW 7006   1.343   4.805   3.129
 2036SOL    HW1 7007   1.366   4.857   3.046
 2036SOL    HW2 7008   1.340   4.868   3.207
 2037SOL     OW 7009   6.241   3.170   5.742
 2037SOL    HW1 7010   6.316   3.225   5.707
 2037SOL    HW2 7011   6.267   3.073   5.740
 2038SOL     OW 7012   1.921   2.238   0.217
 2038SOL    HW1 7013   1.831   2.279   0.234
 2038SOL    HW2 7014   1.970   2.228   0.304
 2039SOL     OW 7015   0.165   4.918   3.930
 2039SOL    HW1 7016   0.134   4.897   3.837
 2039SOL    HW2 7017   0.087   4.912   3.993
 2040SOL     OW 7018   2.910   3.209   5.606
 2040SOL    HW1 7019   2.940   3.157   5.526
 2040SOL    HW2 7020   2.828   3.166   5.645
 2041SOL     OW 7021   0.956   6.175   6.008
 2041SOL    HW1 7022   0.874   6.231   6.000
 2041SOL    HW2 7023   1.001   6.194   6.096
 2042SOL     OW 7024   4.578   6.090   6.859
 2042SOL    HW1 7025   4.635   6.156   6.906
 2042SOL    HW2 7026   4.489   6.130   6.839
 2043SOL     OW 7027   5.942   3.935   2.813
 2043SOL    HW1 7028   5.962   3.907   2.719
 2043SOL    HW2 7029   5.983   3.870   2.877
 2044SOL     OW 7030   6.798   0.565   2.046
 2044SOL    HW1 7031   6.720   0.570   1.984
 2044SOL    HW2 7032   6.801   0.647   2.104
 2045SOL     OW 7033   1.542   5.382   4.301
 2045SOL    HW1 7034   1.484   5.391   4.220
 2045SOL    HW2 7035   1.575   5.289   4.309
 2046SOL     OW 7036   6.889   2.148   4.496
 2046SOL    HW1 7037   6.871   2.230   4.443
 2046SOL    HW2 7038   6.882   2.168   4.593
 2047SOL     OW 7039   0.041   2.744   6.957
 2047SOL    HW1 7040   6.987   2.741   0.011
 2047SOL    HW2 7041   0.070   2.839   6.944
 2048SOL     OW 7042   1.591   6.651   6.053
 2048SOL    HW1 7043   1.594   6.750   6.037
 2048SOL    HW2 7044   1.680   6.621   6.087
 2049SOL     OW 7045   6.136   1.817   4.700
 2049SOL    HW1 7046   6.145   1.863   4.611
 2049SOL    HW2 7047   6.058   1.755   4.696
 2050SOL     OW 7048   6.062   2.579   4.135
 2050SOL    HW1 7049   6.028   2.504   4.192
 2050SOL    HW2 7050   6.002   2.592   4.057
 2051SOL     OW 7051   0.714   6.103   0.059
 2051SOL    HW1 7052   0.768   6.022   0.083
 2051SOL    HW2 7053   0.623   6.075   0.030
 2052SOL     OW 7054   1.450   3.039   1.399
 2052SOL    HW1 7055   1.522   3.106   1.414
 2052SOL    HW2 7056   1.400   3.061   1.315
 2053SOL     OW 7057   6.750   5.924   4.247
 2053SOL    HW1 7058   6.773   6.015   4.214
 2053SOL    HW2 7059   6.739   5.862   4.169
 2054SOL     OW 7060   3.453   4.165   3.219
 2054SOL    HW1 7061   3.440   4.104   3.296
 2054SOL    HW2 7062   3.393   4.245   3.229
 2055SOL     OW 7063   5.723   3.604   3.899
 2055SOL    HW1 7064   5.756   3.646   3.814
 2055SOL    HW2 7065   5.672   3.521   3.877
 2056SOL     OW 7066   4.082   5.675   2.017
 2056SOL    HW1 7067   4.106   5.691   1.921
 2056SOL    HW2 7068   4.075   5.762   2.065
 2057SOL     OW 7069   5.271   4.061   5.947
 2057SOL    HW1 7070   5.221   4.004   5.882
 2057SOL    HW2 7071   5.206   4.106   6.008
 2058SOL     OW 7072   0.297   0.819   3.504
 2058SOL    HW1 7073   0.347   0.905   3.514
 2058SOL    HW2 7074   0.200   0.839   3.488
 2059SOL     OW 7075   1.956   5.897   6.244
 2059SOL    HW1 7076   1.862   5.910   6.214
 2059SOL    HW2 7077   2.003   5.985   6.248
 2060SOL     OW 7078   0.663   4.260   1.478
 2060SOL    HW1 7079   0.663   4.175   1.530
 2060SOL    HW2 7080   0.704   4.245   1.388
 2061SOL     OW 7081   1.116   1.608   2.544
 2061SOL    HW1 7082   1.082   1.585   2.452
 2061SOL    HW2 7083   1.065   1.555   2.612
 2062SOL     OW 7084   6.868   5.478   4.858
 2062SOL    HW1 7085   6.880   5.430   4.772
 2062SOL    HW2 7086   6.838   5.414   4.929
 2063SOL     OW 7087   1.271   6.457   5.462
 2063SOL    HW1 7088   1.257   6.465   5.560
 2063SOL    HW2 7089   1.265   6.361   5.435
 2064SOL     OW 7090   0.526   2.485   5.162
 2064SOL    HW1 7091   0.468   2.444   5.091
 2064SOL    HW2 7092   0.602   2.534   5.119
 2065SOL     OW 7093   5.997   2.364   5.785
 2065SOL    HW1 7094   6.042   2.441   5.740
 2065SOL    HW2 7095   5.936   2.398   5.857
 2066SOL     OW 7096   0.381   4.472   4.337
 2066SOL    HW1 7097   0.356   4.547   4.275
 2066SOL    HW2 7098   0.392   4.508   4.430
 2067SOL     OW 7099   0.022   5.216   0.769
 2067SOL    HW1 7100   6.939   5.206   0.773
 2067SOL    HW2 7101   0.063   5.170   0.847
 2068SOL     OW 7102   1.916   0.264   4.485
 2068SOL    HW1 7103   1.918   0.350   4.435
 2068SOL    HW2 7104   1.869   0.278   4.573
 2069SOL     OW 7105   6.298   2.684   3.965
 2069SOL    HW1 7106   6.282   2.586   3.976
 2069SOL    HW2 7107   6.210   2.732   3.961
 2070SOL     OW 7108   1.088   0.917   1.218
 2070SOL    HW1 7109   1.174   0.869   1.202
 2070SOL    HW2 7110   1.083   0.997   1.159
 2071SOL     OW 7111   6.022   0.535   6.044
 2071SOL    HW1 7112   5.983   0.625   6.067
 2071SOL    HW2 7113   6.118   0.546   6.019
 2072SOL     OW 7114   4.311   5.098   4.263
 2072SOL    HW1 7115   4.389   5.040   4.284
 2072SOL    HW2 7116   4.342   5.177   4.210
 2073SOL     OW 7117   4.353   6.699   4.903
 2073SOL    HW1 7118   4.399   6.657   4.981
 2073SOL    HW2 7119   4.356   6.637   4.825
 2074SOL     OW 7120   2.174   2.117   6.133
 2074SOL    HW1 7121   2.139   2.028   6.104
 2074SOL    HW2 7122   2.273   2.121   6.118
 2075SOL     OW 7123   6.852   2.457   3.344
 2075SOL    HW1 7124   6.887   2.472   3.251
 2075SOL    HW2 7125   6.753   2.468   3.344
 2076SOL     OW 7126   5.371   6.702   6.267
 2076SOL    HW1 7127   5.340   6.641   6.194
 2076SOL    HW2 7128   5.330   6.674   6.353
 2077SOL     OW 7129   6.427   2.271   3.231
 2077SOL    HW1 7130   6.393   2.185   3.196
 2077SOL    HW2 7131   6.523   2.260   3.259
 2078SOL     OW 7132   1.629   5.233   6.361
 2078SOL    HW1 7133   1.698   5.305   6.365
 2078SOL    HW2 7134   1.652   5.161   6.427
 2079SOL     OW 7135   6.751   2.395   3.028
 2079SOL    HW1 7136   6.832   2.357   2.982
 2079SOL    HW2 7137   6.731   2.341   3.110
 2080SOL     OW 7138   1.598   0.407   5.010
 2080SOL    HW1 7139   1.683   0.417   4.959
 2080SOL    HW2 7140   1.619   0.379   5.104
 2081SOL     OW 7141   0.846   6.361   4.378
 2081SOL    HW1 7142   0.824   6.442   4.323
 2081SOL    HW2 7143   0.870   6.390   4.471
 2082SOL     OW 7144   0.664   6.870   3.558
 2082SOL    HW1 7145   0.712   6.951   3.589
 2082SOL    HW2 7146   0.595   6.844   3.625
 2083SOL     OW 7147   0.971   4.836   6.058
 2083SOL    HW1 7148   0.974   4.737   6.043
 2083SOL    HW2 7149   1.028   4.859   6.137
 2084SOL     OW 7150   0.487   4.279   3.154
 2084SOL    HW1 7151   0.391   4.294   3.178
 2084SOL    HW2 7152   0.544   4.351   3.193
 2085SOL     OW 7153   5.292   0.690   0.768
 2085SOL    HW1 7154   5.317   0.615   0.708
 2085SOL    HW2 7155   5.375   0.733   0.805
 2086SOL     OW 7156   3.978   6.673   6.423
 2086SOL    HW1 7157   3.956   6.752   6.365
 2086SOL    HW2 7158   3.901   6.655   6.484
 2087SOL     OW 7159   4.764   1.078   1.736
 2087SOL    HW1 7160   4.828   1.152   1.756
 2087SOL    HW2 7161   4.742   1.077   1.639
 2088SOL     OW 7162   1.114   6.050   6.805
 2088SOL    HW1 7163   1.136   5.987   6.730
 2088SOL    HW2 7164   1.019   6.036   6.833
 2089SOL     OW 7165   4.887   2.756   6.151
 2089SOL    HW1 7166   4.816   2.776   6.083
 2089SOL    HW2 7167   4.956   2.829   6.149
 2090SOL     OW 7168   4.341   3.449   6.038
 2090SOL    HW1 7169   4.358   3.366   6.090
 2090SOL    HW2 7170   4.287   3.513   6.094
 2091SOL     OW 7171   6.908   4.999   0.542
 2091SOL    HW1 7172   6.909   4.905   0.575
 2091SOL    HW2 7173   6.819   5.040   0.560
 2092SOL     OW 7174   5.258   3.534   0.211
 2092SOL    HW1 7175   5.196   3.478   0.266
 2092SOL    HW2 7176   5.234   3.526   0.114
 2093SOL     OW 7177   2.951   2.025   1.450
 2093SOL    HW1 7178   3.046   1.997   1.465
 2093SOL    HW2 7179   2.901   1.950   1.407
 2094SOL     OW 7180   6.014   1.444   2.127
 2094SOL    HW1 7181   5.954   1.514   2.088
 2094SOL    HW2 7182   5.959   1.372   2.169
 2095SOL     OW 7183   6.413   6.427   5.098
 2095SOL    HW1 7184   6.468   6.508   5.121
 2095SOL    HW2 7185   6.342   6.414   5.167
 2096SOL     OW 7186   4.949   4.759   3.271
 2096SOL    HW1 7187   4.960   4.660   3.286
 2096SOL    HW2 7188   4.853   4.783   3.281
 2097SOL     OW 7189   3.077   2.674   6.313
 2097SOL    HW1 7190   3.092   2.771   6.329
 2097SOL    HW2 7191   3.132   2.620   6.376
 2098SOL     OW 7192   4.647   6.034   1.751
 2098SOL    HW1 7193   4.734   5.986   1.738
 2098SOL    HW2 7194   4.580   6.000   1.686
 2099SOL     OW 7195   3.675   2.102   6.531
 2099SOL    HW1 7196   3.599   2.091   6.595
 2099SOL    HW2 7197   3.729   2.018   6.528
 2100SOL     OW 7198   5.432   1.744   0.431
 2100SOL    HW1 7199   5.410   1.681   0.506
 2100SOL    HW2 7200   5.379   1.720   0.350
 2101SOL     OW 7201   0.428   6.647   1.318
 2101SOL    HW1 7202   0.347   6.699   1.291
 2101SOL    HW2 7203   0.494   6.707   1.364
 2102SOL     OW 7204   5.020   4.283   2.559
 2102SOL    HW1 7205   5.033   4.374   2.521
 2102SOL    HW2 7206   5.064   4.277   2.648
 2103SOL     OW 7207   3.690   3.502   6.913
 2103SOL    HW1 7208   3.768   3.565   6.914
 2103SOL    HW2 7209   3.652   3.497   6.820
 2104SOL     OW 7210   1.679   4.274   2.500
 2104SOL    HW1 7211   1.707   4.330   2.422
 2104SOL    HW2 7212   1.593   4.308   2.537
 2105SOL     OW 7213   4.541   4.512   6.337
 2105SOL    HW1 7214   4.499   4.455   6.408
 2105SOL    HW2 7215   4.470   4.560   6.287
 2106SOL     OW 7216   5.603   3.330   1.075
 2106SOL    HW1 7217   5.560   3.245   1.046
 2106SOL    HW2 7218   5.666   3.361   1.003
 2107SOL     OW 7219   6.566   2.235   5.331
 2107SOL    HW1 7220   6.530   2.316   5.378
 2107SOL    HW2 7221   6.495   2.195   5.273
 2108SOL     OW 7222   5.888   5.543   5.002
 2108SOL    HW1 7223   5.835   5.462   5.030
 2108SOL    HW2 7224   5.982   5.516   4.981
 2109SOL     OW 7225   4.100   6.129   2.451
 2109SOL    HW1 7226   4.049   6.052   2.413
 2109SOL    HW2 7227   4.192   6.131   2.410
 2110SOL     OW 7228   3.088   0.659   0.419
 2110SOL    HW1 7229   3.119   0.583   0.476
 2110SOL    HW2 7230   3.145   0.664   0.337
 2111SOL     OW 7231   2.173   3.038   6.798
 2111SOL    HW1 7232   2.172   3.110   6.728
 2111SOL    HW2 7233   2.131   2.955   6.762
 2112SOL     OW 7234   5.656   2.155   0.611
 2112SOL    HW1 7235   5.591   2.080   0.630
 2112SOL    HW2 7236   5.749   2.120   0.616
 2113SOL     OW 7237   2.251   1.101   4.863
 2113SOL    HW1 7238   2.316   1.171   4.895
 2113SOL    HW2 7239   2.166   1.109   4.915
 2114SOL     OW 7240   2.276   1.742   6.819
 2114SOL    HW1 7241   2.289   1.708   6.912
 2114SOL    HW2 7242   2.233   1.672   6.763
 2115SOL     OW 7243   0.353   4.242   2.804
 2115SOL    HW1 7244   0.426   4.217   2.867
 2115SOL    HW2 7245   0.265   4.241   2.852
 2116SOL     OW 7246   0.860   3.971   2.702
 2116SOL    HW1 7247   0.834   3.896   2.763
 2116SOL    HW2 7248   0.811   3.962   2.616
 2117SOL     OW 7249   6.295   4.465   1.361
 2117SOL    HW1 7250   6.376   4.523   1.368
 2117SOL    HW2 7251   6.288   4.428   1.269
 2118SOL     OW 7252   5.790   3.565   3.431
 2118SOL    HW1 7253   5.817   3.471   3.408
 2118SOL    HW2 7254   5.859   3.606   3.490
 2119SOL     OW 7255   1.328   0.289   1.236
 2119SOL    HW1 7256   1.302   0.374   1.284
 2119SOL    HW2 7257   1.336   0.215   1.303
 2120SOL     OW 7258   0.706   4.109   3.265
 2120SOL    HW1 7259   0.646   4.168   3.212
 2120SOL    HW2 7260   0.658   4.023   3.286
 2121SOL     OW 7261   1.482   3.013   5.133
 2121SOL    HW1 7262   1.392   3.012   5.090
 2121SOL    HW2 7263   1.474   3.046   5.227
 2122SOL     OW 7264   6.335   5.470   6.722
 2122SOL    HW1 7265   6.313   5.495   6.628
 2122SOL    HW2 7266   6.414   5.409   6.723
 2123SOL     OW 7267   6.564   5.290   1.772
 2123SOL    HW1 7268   6.469   5.258   1.772
 2123SOL    HW2 7269   6.608   5.265   1.858
 2124SOL     OW 7270   3.192   1.692   0.719
 2124SOL    HW1 7271   3.153   1.774   0.676
 2124SOL    HW2 7272   3.155   1.610   0.674
 2125SOL     OW 7273   1.614   6.311   2.199
 2125SOL    HW1 7274   1.608   6.410   2.212
 2125SOL    HW2 7275   1.528   6.268   2.224
 2126SOL     OW 7276   3.964   2.684   6.810
 2126SOL    HW1 7277   4.005   2.630   6.737
 2126SOL    HW2 7278   3.955   2.779   6.782
 2127SOL     OW 7279   0.797   1.767   6.016
 2127SOL    HW1 7280   0.820   1.858   5.984
 2127SOL    HW2 7281   0.775   1.770   6.114
 2128SOL     OW 7282   6.375   2.930   2.969
 2128SOL    HW1 7283   6.275   2.924   2.978
 2128SOL    HW2 7284   6.417   2.915   3.058
 2129SOL     OW 7285   5.155   3.969   4.937
 2129SOL    HW1 7286   5.067   3.978   4.984
 2129SOL    HW2 7287   5.217   4.041   4.968
 2130SOL     OW 7288   3.070   6.723   2.362
 2130SOL    HW1 7289   3.013   6.667   2.423
 2130SOL    HW2 7290   3.053   6.696   2.267
 2131SOL     OW 7291   5.320   1.667   0.747
 2131SOL    HW1 7292   5.290   1.762   0.758
 2131SOL    HW2 7293   5.241   1.609   0.733
 2132SOL     OW 7294   3.110   1.193   0.215
 2132SOL    HW1 7295   3.031   1.205   0.156
 2132SOL    HW2 7296   3.166   1.276   0.213
 2133SOL     OW 7297   3.675   2.393   1.234
 2133SOL    HW1 7298   3.667   2.405   1.333
 2133SOL    HW2 7299   3.644   2.301   1.210
 2134SOL     OW 7300   0.840   0.953   4.313
 2134SOL    HW1 7301   0.918   0.891   4.318
 2134SOL    HW2 7302   0.761   0.913   4.360
 2135SOL     OW 7303   0.574   1.799   4.210
 2135SOL    HW1 7304   0.533   1.714   4.177
 2135SOL    HW2 7305   0.608   1.852   4.132
 2136SOL     OW 7306   1.042   4.193   4.458
 2136SOL    HW1 7307   1.056   4.147   4.546
 2136SOL    HW2 7308   0.966   4.258   4.466
 2137SOL     OW 7309   0.072   6.013   4.173
 2137SOL    HW1 7310   0.170   6.031   4.183
 2137SOL    HW2 7311   0.023   6.100   4.163
 2138SOL     OW 7312   6.844   1.223   1.335
 2138SOL    HW1 7313   6.886   1.186   1.418
 2138SOL    HW2 7314   6.778   1.157   1.299
 2139SOL     OW 7315   3.807   0.866   2.722
 2139SOL    HW1 7316   3.771   0.881   2.630
 2139SOL    HW2 7317   3.896   0.912   2.730
 2140SOL     OW 7318   3.261   5.679   3.053
 2140SOL    HW1 7319   3.262   5.650   2.957
 2140SOL    HW2 7320   3.168   5.706   3.078
 2141SOL     OW 7321   6.560   4.389   1.109
 2141SOL    HW1 7322   6.592   4.431   1.024
 2141SOL    HW2 7323   6.626   4.406   1.182
 2142SOL     OW 7324   1.082   1.994   2.903
 2142SOL    HW1 7325   1.141   2.057   2.954
 2142SOL    HW2 7326   1.139   1.930   2.851
 2143SOL     OW 7327   3.241   4.868   1.499
 2143SOL    HW1 7328   3.150   4.871   1.459
 2143SOL    HW2 7329   3.289   4.787   1.465
 2144SOL     OW 7330   1.366   5.958   3.079
 2144SOL    HW1 7331   1.399   6.010   3.001
 2144SOL    HW2 7332   1.439   5.948   3.146
 2145SOL     OW 7333   3.345   6.653   4.456
 2145SOL    HW1 7334   3.350   6.726   4.524
 2145SOL    HW2 7335   3.349   6.693   4.365
 2146SOL     OW 7336   2.604   3.456   1.721
 2146SOL    HW1 7337   2.623   3.364   1.685
 2146SOL    HW2 7338   2.513   3.457   1.762
 2147SOL     OW 7339   0.407   1.212   6.534
 2147SOL    HW1 7340   0.367   1.198   6.624
 2147SOL    HW2 7341   0.495   1.259   6.544
 2148SOL     OW 7342   5.037   2.842   4.236
 2148SOL    HW1 7343   4.983   2.920   4.205
 2148SOL    HW2 7344   4.999   2.757   4.199
 2149SOL     OW 7345   3.872   1.103   1.243
 2149SOL    HW1 7346   3.882   1.035   1.315
 2149SOL    HW2 7347   3.960   1.146   1.225
 2150SOL     OW 7348   2.132   2.610   2.282
 2150SOL    HW1 7349   2.174   2.693   2.318
 2150SOL    HW2 7350   2.179   2.582   2.199
 2151SOL     OW 7351   2.047   1.610   4.173
 2151SOL    HW1 7352   1.948   1.621   4.173
 2151SOL    HW2 7353   2.075   1.559   4.255
 2152SOL     OW 7354   3.693   6.388   1.255
 2152SOL    HW1 7355   3.751   6.312   1.287
 2152SOL    HW2 7356   3.689   6.387   1.156
 2153SOL     OW 7357   3.976   0.006   3.183
 2153SOL    HW1 7358   4.022   6.939   3.154
 2153SOL    HW2 7359   4.043   0.066   3.229
 2154SOL     OW 7360   5.051   0.512   4.425
 2154SOL    HW1 7361   4.989   0.577   4.469
 2154SOL    HW2 7362   5.044   0.522   4.325
 2155SOL     OW 7363   1.917   5.175   0.271
 2155SOL    HW1 7364   1.880   5.254   0.223
 2155SOL    HW2 7365   1.862   5.156   0.352
 2156SOL     OW 7366   2.547   0.639   2.799
 2156SOL    HW1 7367   2.596   0.627   2.885
 2156SOL    HW2 7368   2.457   0.597   2.806
 2157SOL     OW 7369   6.067   0.709   3.055
 2157SOL    HW1 7370   6.032   0.642   2.991
 2157SOL    HW2 7371   6.103   0.662   3.136
 2158SOL     OW 7372   3.873   6.505   0.969
 2158SOL    HW1 7373   3.866   6.424   0.910
 2158SOL    HW2 7374   3.962   6.548   0.956
 2159SOL     OW 7375   2.528   6.446   5.331
 2159SOL    HW1 7376   2.531   6.523   5.395
 2159SOL    HW2 7377   2.571   6.366   5.373
 2160SOL     OW 7378   4.662   3.569   1.055
 2160SOL    HW1 7379   4.626   3.482   1.020
 2160SOL    HW2 7380   4.745   3.593   1.004
 2161SOL     OW 7381   5.238   3.307   3.613
 2161SOL    HW1 7382   5.239   3.338   3.518
 2161SOL    HW2 7383   5.252   3.386   3.674
 2162SOL     OW 7384   2.921   0.521   0.048
 2162SOL    HW1 7385   2.903   0.572   6.980
 2162SOL    HW2 7386   3.018   0.527   0.071
 2163SOL     OW 7387   0.011   4.730   6.344
 2163SOL    HW1 7388   0.032   4.824   6.370
 2163SOL    HW2 7389   6.992   4.727   6.251
 2164SOL     OW 7390   1.671   2.424   0.224
 2164SOL    HW1 7391   1.581   2.467   0.229
 2164SOL    HW2 7392   1.742   2.495   0.222
 2165SOL     OW 7393   1.280   1.357   2.875
 2165SOL    HW1 7394   1.300   1.276   2.930
 2165SOL    HW2 7395   1.183   1.357   2.850
 2166SOL     OW 7396   1.855   1.588   5.237
 2166SOL    HW1 7397   1.759   1.564   5.225
 2166SOL    HW2 7398   1.870   1.683   5.209
 2167SOL     OW 7399   1.363   0.818   3.753
 2167SOL    HW1 7400   1.360   0.741   3.690
 2167SOL    HW2 7401   1.301   0.890   3.722
 2168SOL     OW 7402   0.567   1.934   3.773
 2168SOL    HW1 7403   0.560   1.870   3.696
 2168SOL    HW2 7404   0.478   1.975   3.791
 2169SOL     OW 7405   5.537   2.317   5.725
 2169SOL    HW1 7406   5.608   2.362   5.671
 2169SOL    HW2 7407   5.553   2.218   5.727
 2170SOL     OW 7408   5.716   5.083   5.897
 2170SOL    HW1 7409   5.686   4.990   5.874
 2170SOL    HW2 7410   5.719   5.138   5.814
 2171SOL     OW 7411   6.382   2.951   1.553
 2171SOL    HW1 7412   6.308   2.948   1.485
 2171SOL    HW2 7413   6.416   3.045   1.560
 2172SOL     OW 7414   3.105   1.706   0.420
 2172SOL    HW1 7415   3.083   1.767   0.496
 2172SOL    HW2 7416   3.165   1.754   0.356
 2173SOL     OW 7417   4.349   0.200   5.193
 2173SOL    HW1 7418   4.434   0.245   5.220
 2173SOL    HW2 7419   4.353   0.174   5.097
 2174SOL     OW 7420   5.780   5.245   5.672
 2174SOL    HW1 7421   5.710   5.246   5.600
 2174SOL    HW2 7422   5.863   5.288   5.638
 2175SOL     OW 7423   3.483   1.771   3.606
 2175SOL    HW1 7424   3.508   1.822   3.524
 2175SOL    HW2 7425   3.413   1.821   3.656
 2176SOL     OW 7426   0.754   3.304   6.925
 2176SOL    HW1 7427   0.820   3.282   6.853
 2176SOL    HW2 7428   0.803   3.314   7.012
 2177SOL     OW 7429   6.627   0.861   3.467
 2177SOL    HW1 7430   6.655   0.767   3.448
 2177SOL    HW2 7431   6.685   0.900   3.538
 2178SOL     OW 7432   1.573   4.125   0.161
 2178SOL    HW1 7433   1.549   4.079   0.246
 2178SOL    HW2 7434   1.563   4.061   0.085
 2179SOL     OW 7435   1.247   5.477   4.661
 2179SOL    HW1 7436   1.273   5.483   4.565
 2179SOL    HW2 7437   1.292   5.549   4.713
 2180SOL     OW 7438   2.797   3.573   1.884
 2180SOL    HW1 7439   2.777   3.557   1.980
 2180SOL    HW2 7440   2.723   3.535   1.828
 2181SOL     OW 7441   5.386   4.047   5.645
 2181SOL    HW1 7442   5.335   4.076   5.725
 2181SOL    HW2 7443   5.439   3.965   5.666
 2182SOL     OW 7444   6.467   2.822   4.940
 2182SOL    HW1 7445   6.527   2.757   4.893
 2182SOL    HW2 7446   6.372   2.795   4.928
 2183SOL     OW 7447   3.171   3.334   6.495
 2183SOL    HW1 7448   3.264   3.351   6.528
 2183SOL    HW2 7449   3.175   3.296   6.402
 2184SOL     OW 7450   3.965   1.483   5.201
 2184SOL    HW1 7451   4.023   1.557   5.236
 2184SOL    HW2 7452   3.903   1.519   5.131
 2185SOL     OW 7453   1.649   1.992   0.503
 2185SOL    HW1 7454   1.655   1.986   0.603
 2185SOL    HW2 7455   1.662   2.087   0.475
 2186SOL     OW 7456   6.829   4.659   2.101
 2186SOL    HW1 7457   6.902   4.591   2.105
 2186SOL    HW2 7458   6.804   4.687   2.194
 2187SOL     OW 7459   0.475   2.014   2.011
 2187SOL    HW1 7460   0.485   1.970   2.100
 2187SOL    HW2 7461   0.426   2.101   2.023
 2188SOL     OW 7462   5.468   6.056   4.131
 2188SOL    HW1 7463   5.528   6.068   4.052
 2188SOL    HW2 7464   5.375   6.087   4.108
 2189SOL     OW 7465   2.001   6.591   6.711
 2189SOL    HW1 7466   2.067   6.653   6.755
 2189SOL    HW2 7467   1.999   6.609   6.613
 2190SOL     OW 7468   0.350   3.208   2.275
 2190SOL    HW1 7469   0.298   3.210   2.361
 2190SOL    HW2 7470   0.430   3.149   2.286
 2191SOL     OW 7471   3.205   1.675   6.644
 2191SOL    HW1 7472   3.297   1.641   6.626
 2191SOL    HW2 7473   3.210   1.759   6.698
 2192SOL     OW 7474   3.657   6.936   3.515
 2192SOL    HW1 7475   3.608   6.925   3.601
 2192SOL    HW2 7476   3.615   6.878   3.445
 2193SOL     OW 7477   0.209   5.867   6.187
 2193SOL    HW1 7478   0.169   5.784   6.147
 2193SOL    HW2 7479   0.137   5.935   6.201
 2194SOL     OW 7480   2.463   4.592   6.976
 2194SOL    HW1 7481   2.536   4.627   6.916
 2194SOL    HW2 7482   2.502   4.528   0.025
 2195SOL     OW 7483   0.078   6.874   3.436
 2195SOL    HW1 7484   0.093   6.776   3.443
 2195SOL    HW2 7485   0.010   6.893   3.365
 2196SOL     OW 7486   3.481   7.009   5.719
 2196SOL    HW1 7487   3.385   0.020   5.723
 2196SOL    HW2 7488   3.520   0.021   5.631
 2197SOL     OW 7489   4.051   3.774   1.752
 2197SOL    HW1 7490   4.043   3.715   1.832
 2197SOL    HW2 7491   3.959   3.802   1.723
 2198SOL     OW 7492   6.301   1.435   7.009
 2198SOL    HW1 7493   6.226   1.439   6.943
 2198SOL    HW2 7494   6.387   1.425   6.960
 2199SOL     OW 7495   5.390   1.017   2.080
 2199SOL    HW1 7496   5.301   0.975   2.099
 2199SOL    HW2 7497   5.435   0.967   2.006
 2200SOL     OW 7498   3.787   0.229   4.590
 2200SOL    HW1 7499   3.825   0.213   4.499
 2200SOL    HW2 7500   3.739   0.148   4.621
 2201SOL     OW 7501   6.449   2.636   2.385
 2201SOL    HW1 7502   6.503   2.685   2.454
 2201SOL    HW2 7503   6.356   2.671   2.384
 2202SOL     OW 7504   3.604   4.881   3.534
 2202SOL    HW1 7505   3.524   4.875   3.593
 2202SOL    HW2 7506   3.686   4.890   3.590
 2203SOL     OW 7507   2.005   2.715   1.591
 2203SOL    HW1 7508   2.085   2.660   1.568
 2203SOL    HW2 7509   1.922   2.665   1.566
 2204SOL     OW 7510   3.733   1.731   6.984
 2204SOL    HW1 7511   3.771   1.672   6.913
 2204SOL    HW2 7512   3.803   1.749   0.037
 2205SOL     OW 7513   2.062   6.856   6.139
 2205SOL    HW1 7514   2.135   6.923   6.133
 2205SOL    HW2 7515   1.993   6.887   6.205
 2206SOL     OW 7516   2.686   4.148   5.601
 2206SOL    HW1 7517   2.644   4.153   5.511
 2206SOL    HW2 7518   2.652   4.067   5.649
 2207SOL     OW 7519   2.276   3.724   6.322
 2207SOL    HW1 7520   2.250   3.820   6.325
 2207SOL    HW2 7521   2.375   3.715   6.333
 2208SOL     OW 7522   1.880   5.188   2.964
 2208SOL    HW1 7523   1.904   5.119   2.895
 2208SOL    HW2 7524   1.837   5.144   3.042
 2209SOL     OW 7525   1.412   5.443   5.915
 2209SOL    HW1 7526   1.425   5.344   5.926
 2209SOL    HW2 7527   1.499   5.487   5.895
 2210SOL     OW 7528   6.936   4.569   3.644
 2210SOL    HW1 7529   6.837   4.572   3.636
 2210SOL    HW2 7530   6.977   4.603   3.559
 2211SOL     OW 7531   5.275   0.813   6.560
 2211SOL    HW1 7532   5.343   0.813   6.486
 2211SOL    HW2 7533   5.290   0.734   6.619
 2212SOL     OW 7534   1.768   5.979   0.233
 2212SOL    HW1 7535   1.709   6.041   0.285
 2212SOL    HW2 7536   1.787   5.897   0.288
 2213SOL     OW 7537   3.891   2.711   5.305
 2213SOL    HW1 7538   3.970   2.658   5.275
 2213SOL    HW2 7539   3.864   2.775   5.233
 2214SOL     OW 7540   4.768   2.405   5.560
 2214SOL    HW1 7541   4.817   2.464   5.624
 2214SOL    HW2 7542   4.834   2.354   5.504
 2215SOL     OW 7543   6.344   2.005   6.470
 2215SOL    HW1 7544   6.250   2.041   6.473
 2215SOL    HW2 7545   6.408   2.081   6.455
 2216SOL     OW 7546   1.858   0.895   6.422
 2216SOL    HW1 7547   1.871   0.971   6.486
 2216SOL    HW2 7548   1.763   0.865   6.425
 2217SOL     OW 7549   3.385   0.207   1.460
 2217SOL    HW1 7550   3.368   0.305   1.472
 2217SOL    HW2 7551   3.484   0.190   1.462
 2218SOL     OW 7552   0.784   6.975   0.957
 2218SOL    HW1 7553   0.808   6.915   0.880
 2218SOL    HW2 7554   0.762   6.920   1.037
 2219SOL     OW 7555   0.602   3.630   3.246
 2219SOL    HW1 7556   0.541   3.552   3.229
 2219SOL    HW2 7557   0.696   3.598   3.250
 2220SOL     OW 7558   0.191   0.982   4.422
 2220SOL    HW1 7559   0.191   0.985   4.522
 2220SOL    HW2 7560   0.283   0.998   4.388
 2221SOL     OW 7561   6.270   1.045   6.457
 2221SOL    HW1 7562   6.364   1.069   6.430
 2221SOL    HW2 7563   6.260   1.058   6.556
 2222SOL     OW 7564   3.809   0.734   0.990
 2222SOL    HW1 7565   3.825   0.656   1.051
 2222SOL    HW2 7566   3.831   0.709   0.896
 2223SOL     OW 7567   6.161   6.211   3.976
 2223SOL    HW1 7568   6.239   6.271   3.992
 2223SOL    HW2 7569   6.135   6.215   3.880
 2224SOL     OW 7570   2.078   4.534   2.353
 2224SOL    HW1 7571   2.131   4.545   2.269
 2224SOL    HW2 7572   2.000   4.597   2.352
 2225SOL     OW 7573   6.515   5.816   3.057
 2225SOL    HW1 7574   6.490   5.809   2.961
 2225SOL    HW2 7575   6.471   5.742   3.108
 2226SOL     OW 7576   4.189   4.125   0.602
 2226SOL    HW1 7577   4.153   4.066   0.530
 2226SOL    HW2 7578   4.195   4.074   0.688
 2227SOL     OW 7579   5.581   3.672   0.153
 2227SOL    HW1 7580   5.502   3.686   0.213
 2227SOL    HW2 7581   5.652   3.622   0.202
 2228SOL     OW 7582   2.727   5.510   1.228
 2228SOL    HW1 7583   2.811   5.486   1.179
 2228SOL    HW2 7584   2.745   5.507   1.327
 2229SOL     OW 7585   4.253   1.423   4.541
 2229SOL    HW1 7586   4.349   1.431   4.515
 2229SOL    HW2 7587   4.246   1.417   4.641
 2230SOL     OW 7588   0.320   5.743   5.494
 2230SOL    HW1 7589   0.331   5.680   5.571
 2230SOL    HW2 7590   0.362   5.831   5.516
 2231SOL     OW 7591   1.984   0.517   1.348
 2231SOL    HW1 7592   1.959   0.512   1.252
 2231SOL    HW2 7593   2.084   0.524   1.357
 2232SOL     OW 7594   1.273   1.995   3.672
 2232SOL    HW1 7595   1.214   1.930   3.719
 2232SOL    HW2 7596   1.271   1.976   3.573
 2233SOL     OW 7597   2.135   4.601   1.291
 2233SOL    HW1 7598   2.120   4.579   1.388
 2233SOL    HW2 7599   2.228   4.636   1.280
 2234SOL     OW 7600   4.899   2.204   1.702
 2234SOL    HW1 7601   4.927   2.157   1.786
 2234SOL    HW2 7602   4.925   2.149   1.623
 2235SOL     OW 7603   2.179   6.951   1.015
 2235SOL    HW1 7604   2.131   0.022   1.002
 2235SOL    HW2 7605   2.116   6.876   0.996
 2236SOL     OW 7606   0.614   4.438   0.047
 2236SOL    HW1 7607   0.582   4.415   0.139
 2236SOL    HW2 7608   0.698   4.388   0.027
 2237SOL     OW 7609   5.491   4.366   4.495
 2237SOL    HW1 7610   5.518   4.312   4.416
 2237SOL    HW2 7611   5.391   4.369   4.502
 2238SOL     OW 7612   5.926   5.593   1.827
 2238SOL    HW1 7613   5.947   5.584   1.925
 2238SOL    HW2 7614   5.846   5.536   1.805
 2239SOL     OW 7615   3.798   5.454   4.010
 2239SOL    HW1 7616   3.719   5.495   4.054
 2239SOL    HW2 7617   3.822   5.507   3.928
 2240SOL     OW 7618   5.637   5.942   3.920
 2240SOL    HW1 7619   5.651   5.941   3.821
 2240SOL    HW2 7620   5.571   5.871   3.945
 2241SOL     OW 7621   0.279   6.909   2.604
 2241SOL    HW1 7622   0.262   6.936   2.510
 2241SOL    HW2 7623   0.300   6.811   2.608
 2242SOL     OW 7624   5.328   2.595   2.670
 2242SOL    HW1 7625   5.229   2.583   2.664
 2242SOL    HW2 7626   5.361   2.551   2.754
 2243SOL     OW 7627   2.873   6.332   5.237
 2243SOL    HW1 7628   2.863   6.351   5.139
 2243SOL    HW2 7629   2.909   6.240   5.250
 2244SOL     OW 7630   3.621   0.528   3.103
 2244SOL    HW1 7631   3.614   0.470   3.023
 2244SOL    HW2 7632   3.605   0.474   3.186
 2245SOL     OW 7633   0.757   2.119   1.676
 2245SOL    HW1 7634   0.660   2.126   1.655
 2245SOL    HW2 7635   0.769   2.075   1.765
 2246SOL     OW 7636   1.115   1.378   4.664
 2246SOL    HW1 7637   1.043   1.409   4.725
 2246SOL    HW2 7638   1.092   1.405   4.570
 2247SOL     OW 7639   2.804   2.472   6.164
 2247SOL    HW1 7640   2.735   2.537   6.133
 2247SOL    HW2 7641   2.851   2.509   6.244
 2248SOL     OW 7642   4.154   3.971   6.459
 2248SOL    HW1 7643   4.190   3.904   6.394
 2248SOL    HW2 7644   4.102   4.041   6.409
 2249SOL     OW 7645   6.033   6.265   2.565
 2249SOL    HW1 7646   6.031   6.186   2.503
 2249SOL    HW2 7647   6.055   6.347   2.513
 2250SOL     OW 7648   5.287   3.900   0.849
 2250SOL    HW1 7649   5.259   3.825   0.789
 2250SOL    HW2 7650   5.268   3.877   0.944
 2251SOL     OW 7651   5.277   1.360   6.863
 2251SOL    HW1 7652   5.204   1.311   6.911
 2251SOL    HW2 7653   5.296   1.314   6.776
 2252SOL     OW 7654   0.003   2.376   3.907
 2252SOL    HW1 7655   6.988   2.379   3.812
 2252SOL    HW2 7656   6.942   2.354   3.966
 2253SOL     OW 7657   0.877   3.274   0.146
 2253SOL    HW1 7658   0.834   3.200   0.197
 2253SOL    HW2 7659   0.976   3.270   0.160
 2254SOL     OW 7660   2.367   2.784   5.754
 2254SOL    HW1 7661   2.314   2.866   5.732
 2254SOL    HW2 7662   2.415   2.753   5.672
 2255SOL     OW 7663   5.511   2.374   0.503
 2255SOL    HW1 7664   5.449   2.345   0.577
 2255SOL    HW2 7665   5.598   2.326   0.513
 2256SOL     OW 7666   3.766   6.302   1.577
 2256SOL    HW1 7667   3.684   6.357   1.561
 2256SOL    HW2 7668   3.819   6.342   1.652
 2257SOL     OW 7669   0.314   2.870   4.432
 2257SOL    HW1 7670   0.274   2.842   4.345
 2257SOL    HW2 7671   0.321   2.791   4.493
 2258SOL     OW 7672   0.837   5.302   5.411
 2258SOL    HW1 7673   0.851   5.275   5.506
 2258SOL    HW2 7674   0.828   5.221   5.354
 2259SOL     OW 7675   4.611   3.651   6.817
 2259SOL    HW1 7676   4.691   3.604   6.780
 2259SOL    HW2 7677   4.565   3.700   6.743
 2260SOL     OW 7678   5.359   4.525   3.041
 2260SOL    HW1 7679   5.408   4.469   2.974
 2260SOL    HW2 7680   5.421   4.550   3.115
 2261SOL     OW 7681   6.182   6.690   1.133
 2261SOL    HW1 7682   6.224   6.781   1.135
 2261SOL    HW2 7683   6.253   6.620   1.123
 2262SOL     OW 7684   5.781   2.723   2.483
 2262SOL    HW1 7685   5.696   2.768   2.507
 2262SOL    HW2 7686   5.767   2.623   2.484
 2263SOL     OW 7687   2.945   5.753   5.993
 2263SOL    HW1 7688   2.874   5.734   6.060
 2263SOL    HW2 7689   3.020   5.804   6.036
 2264SOL     OW 7690   3.268   3.523   1.657
 2264SOL    HW1 7691   3.291   3.610   1.700
 2264SOL    HW2 7692   3.256   3.453   1.728
 2265SOL     OW 7693   0.315   0.609   4.141
 2265SOL    HW1 7694   0.216   0.602   4.132
 2265SOL    HW2 7695   0.350   0.527   4.187
 2266SOL     OW 7696   6.170   1.462   1.270
 2266SOL    HW1 7697   6.180   1.375   1.317
 2266SOL    HW2 7698   6.184   1.537   1.335
 2267SOL     OW 7699   5.307   2.319   5.326
 2267SOL    HW1 7700   5.371   2.255   5.282
 2267SOL    HW2 7701   5.255   2.270   5.396
 2268SOL     OW 7702   6.630   4.144   6.260
 2268SOL    HW1 7703   6.707   4.084   6.284
 2268SOL    HW2 7704   6.574   4.159   6.342
 2269SOL     OW 7705   5.889   5.823   5.132
 2269SOL    HW1 7706   5.954   5.845   5.204
 2269SOL    HW2 7707   5.877   5.724   5.127
 2270SOL     OW 7708   3.567   3.198   6.867
 2270SOL    HW1 7709   3.566   3.269   6.938
 2270SOL    HW2 7710   3.475   3.158   6.858
 2271SOL     OW 7711   6.091   4.223   0.686
 2271SOL    HW1 7712   6.098   4.267   0.596
 2271SOL    HW2 7713   6.181   4.189   0.713
 2272SOL     OW 7714   5.947   1.880   5.262
 2272SOL    HW1 7715   5.866   1.827   5.238
 2272SOL    HW2 7716   6.026   1.819   5.268
 2273SOL     OW 7717   1.825   1.159   1.639
 2273SOL    HW1 7718   1.923   1.139   1.632
 2273SOL    HW2 7719   1.777   1.114   1.563
 2274SOL     OW 7720   1.238   2.653   5.947
 2274SOL    HW1 7721   1.150   2.684   5.982
 2274SOL    HW2 7722   1.311   2.706   5.989
 2275SOL     OW 7723   5.420   0.444   4.391
 2275SOL    HW1 7724   5.475   0.510   4.442
 2275SOL    HW2 7725   5.340   0.490   4.351
 2276SOL     OW 7726   2.981   4.963   1.390
 2276SOL    HW1 7727   2.923   4.884   1.368
 2276SOL    HW2 7728   2.961   5.037   1.327
 2277SOL     OW 7729   3.211   4.090   4.635
 2277SOL    HW1 7730   3.251   4.129   4.552
 2277SOL    HW2 7731   3.124   4.046   4.612
 2278SOL     OW 7732   5.392   6.645   4.741
 2278SOL    HW1 7733   5.368   6.565   4.687
 2278SOL    HW2 7734   5.322   6.716   4.729
 2279SOL     OW 7735   4.894   5.745   4.724
 2279SOL    HW1 7736   4.811   5.691   4.706
 2279SOL    HW2 7737   4.974   5.694   4.693
 2280SOL     OW 7738   6.975   6.438   4.733
 2280SOL    HW1 7739   6.963   6.503   4.658
 2280SOL    HW2 7740   6.894   6.379   4.740
 2281SOL     OW 7741   3.313   0.988   1.480
 2281SOL    HW1 7742   3.251   1.022   1.550
 2281SOL    HW2 7743   3.395   1.045   1.478
 2282SOL     OW 7744   5.152   0.423   4.671
 2282SOL    HW1 7745   5.128   0.435   4.574
 2282SOL    HW2 7746   5.230   0.361   4.678
 2283SOL     OW 7747   6.918   4.524   1.008
 2283SOL    HW1 7748   6.924   4.583   1.089
 2283SOL    HW2 7749   6.912   4.428   1.037
 2284SOL     OW 7750   2.120   1.553   0.212
 2284SOL    HW1 7751   2.083   1.643   0.234
 2284SOL    HW2 7752   2.181   1.523   0.285
 2285SOL     OW 7753   1.703   2.953   0.225
 2285SOL    HW1 7754   1.697   2.936   0.323
 2285SOL    HW2 7755   1.652   3.036   0.202
 2286SOL     OW 7756   6.966   6.858   4.478
 2286SOL    HW1 7757   6.959   6.892   4.385
 2286SOL    HW2 7758   6.989   6.760   4.476
 2287SOL     OW 7759   2.367   2.830   1.861
 2287SOL    HW1 7760   2.431   2.760   1.830
 2287SOL    HW2 7761   2.304   2.852   1.786
 2288SOL     OW 7762   6.812   4.777   4.619
 2288SOL    HW1 7763   6.726   4.744   4.659
 2288SOL    HW2 7764   6.793   4.858   4.562
 2289SOL     OW 7765   6.553   4.470   2.591
 2289SOL    HW1 7766   6.456   4.485   2.611
 2289SOL    HW2 7767   6.577   4.513   2.504
 2290SOL     OW 7768   2.122   3.716   2.162
 2290SOL    HW1 7769   2.179   3.657   2.105
 2290SOL    HW2 7770   2.088   3.664   2.241
 2291SOL     OW 7771   2.274   2.020   0.377
 2291SOL    HW1 7772   2.273   2.033   0.278
 2291SOL    HW2 7773   2.209   1.948   0.402
 2292SOL     OW 7774   5.379   2.312   3.134
 2292SOL    HW1 7775   5.434   2.267   3.205
 2292SOL    HW2 7776   5.341   2.243   3.073
 2293SOL     OW 7777   6.831   0.014   0.858
 2293SOL    HW1 7778   6.792   6.964   0.922
 2293SOL    HW2 7779   6.920   6.998   0.826
 2294SOL     OW 7780   3.265   1.555   6.211
 2294SOL    HW1 7781   3.327   1.481   6.236
 2294SOL    HW2 7782   3.306   1.643   6.236
 2295SOL     OW 7783   0.625   1.660   2.939
 2295SOL    HW1 7784   0.631   1.747   2.989
 2295SOL    HW2 7785   0.678   1.667   2.854
 2296SOL     OW 7786   3.250   5.311   2.923
 2296SOL    HW1 7787   3.162   5.269   2.946
 2296SOL    HW2 7788   3.236   5.394   2.870
 2297SOL     OW 7789   4.810   4.681   5.694
 2297SOL    HW1 7790   4.785   4.585   5.704
 2297SOL    HW2 7791   4.882   4.704   5.759
 2298SOL     OW 7792   3.965   3.424   2.785
 2298SOL    HW1 7793   4.035   3.430   2.714
 2298SOL    HW2 7794   3.877   3.454   2.748
 2299SOL     OW 7795   4.936   4.254   5.295
 2299SOL    HW1 7796   4.972   4.324   5.357
 2299SOL    HW2 7797   4.993   4.172   5.301
 2300SOL     OW 7798   2.759   6.565   3.586
 2300SOL    HW1 7799   2.702   6.542   3.665
 2300SOL    HW2 7800   2.757   6.489   3.521
 2301SOL     OW 7801   3.766   3.205   3.444
 2301SOL    HW1 7802   3.774   3.269   3.368
 2301SOL    HW2 7803   3.857   3.168   3.466
 2302SOL     OW 7804   3.764   0.514   1.172
 2302SOL    HW1 7805   3.789   0.441   1.235
 2302SOL    HW2 7806   3.717   0.587   1.222
 2303SOL     OW 7807   2.652   3.401   1.070
 2303SOL    HW1 7808   2.590   3.354   1.133
 2303SOL    HW2 7809   2.744   3.400   1.108
 2304SOL     OW 7810   5.844   6.178   4.349
 2304SOL    HW1 7811   5.748   6.205   4.336
 2304SOL    HW2 7812   5.872   6.200   4.442
 2305SOL     OW 7813   2.062   0.343   3.103
 2305SOL    HW1 7814   1.990   0.275   3.112
 2305SOL    HW2 7815   2.120   0.320   3.025
 2306SOL     OW 7816   1.644   4.985   1.433
 2306SOL    HW1 7817   1.653   5.041   1.351
 2306SOL    HW2 7818   1.604   5.040   1.506
 2307SOL     OW 7819   0.222   2.838   5.506
 2307SOL    HW1 7820   0.312   2.802   5.479
 2307SOL    HW2 7821   0.205   2.815   5.602
 2308SOL     OW 7822   2.796   4.583   1.238
 2308SOL    HW1 7823   2.699   4.576   1.215
 2308SOL    HW2 7824   2.834   4.492   1.251
 2309SOL     OW 7825   1.921   0.774   5.082
 2309SOL    HW1 7826   1.881   0.688   5.115
 2309SOL    HW2 7827   2.003   0.795   5.136
 2310SOL     OW 7828   5.897   6.012   1.972
 2310SOL    HW1 7829   5.939   6.058   1.894
 2310SOL    HW2 7830   5.810   5.971   1.944
 2311SOL     OW 7831   2.286   6.542   0.512
 2311SOL    HW1 7832   2.218   6.533   0.584
 2311SOL    HW2 7833   2.378   6.530   0.551
 2312SOL     OW 7834   4.976   5.483   3.350
 2312SOL    HW1 7835   4.912   5.412   3.320
 2312SOL    HW2 7836   4.965   5.565   3.293
 2313SOL     OW 7837   4.845   5.541   2.207
 2313SOL    HW1 7838   4.798   5.611   2.153
 2313SOL    HW2 7839   4.809   5.541   2.301
 2314SOL     OW 7840   4.541   6.298   2.648
 2314SOL    HW1 7841   4.522   6.231   2.576
 2314SOL    HW2 7842   4.616   6.357   2.619
 2315SOL     OW 7843   5.078   2.933   6.080
 2315SOL    HW1 7844   5.164   2.921   6.029
 2315SOL    HW2 7845   5.085   3.014   6.138
 2316SOL     OW 7846   4.452   1.836   3.984
 2316SOL    HW1 7847   4.489   1.898   4.054
 2316SOL    HW2 7848   4.523   1.770   3.957
 2317SOL     OW 7849   0.300   5.589   3.143
 2317SOL    HW1 7850   0.329   5.684   3.134
 2317SOL    HW2 7851   0.267   5.555   3.054
 2318SOL     OW 7852   0.650   3.019   3.615
 2318SOL    HW1 7853   0.621   2.979   3.528
 2318SOL    HW2 7854   0.651   2.949   3.686
 2319SOL     OW 7855   1.321   4.866   4.615
 2319SOL    HW1 7856   1.305   4.767   4.618
 2319SOL    HW2 7857   1.238   4.913   4.588
 2320SOL     OW 7858   0.982   2.365   3.908
 2320SOL    HW1 7859   1.048   2.291   3.923
 2320SOL    HW2 7860   0.901   2.350   3.965
 2321SOL     OW 7861   3.192   1.058   5.291
 2321SOL    HW1 7862   3.207   1.040   5.194
 2321SOL    HW2 7863   3.260   1.007   5.345
 2322SOL     OW 7864   2.590   1.726   5.169
 2322SOL    HW1 7865   2.631   1.777   5.093
 2322SOL    HW2 7866   2.497   1.759   5.185
 2323SOL     OW 7867   3.187   4.906   2.152
 2323SOL    HW1 7868   3.287   4.918   2.148
 2323SOL    HW2 7869   3.160   4.881   2.244
 2324SOL     OW 7870   0.043   6.355   3.029
 2324SOL    HW1 7871   6.959   6.361   3.024
 2324SOL    HW2 7872   0.080   6.327   2.941
 2325SOL     OW 7873   0.458   4.478   1.396
 2325SOL    HW1 7874   0.531   4.423   1.437
 2325SOL    HW2 7875   0.491   4.518   1.311
 2326SOL     OW 7876   3.350   4.166   6.152
 2326SOL    HW1 7877   3.422   4.103   6.181
 2326SOL    HW2 7878   3.370   4.198   6.059
 2327SOL     OW 7879   5.652   2.675   4.609
 2327SOL    HW1 7880   5.565   2.682   4.560
 2327SOL    HW2 7881   5.649   2.731   4.691
 2328SOL     OW 7882   4.657   1.646   3.265
 2328SOL    HW1 7883   4.673   1.738   3.228
 2328SOL    HW2 7884   4.603   1.653   3.349
 2329SOL     OW 7885   1.404   5.201   4.653
 2329SOL    HW1 7886   1.420   5.135   4.726
 2329SOL    HW2 7887   1.348   5.276   4.687
 2330SOL     OW 7888   6.895   4.209   2.415
 2330SOL    HW1 7889   6.846   4.217   2.502
 2330SOL    HW2 7890   6.944   4.294   2.396
 2331SOL     OW 7891   6.387   4.906   6.837
 2331SOL    HW1 7892   6.306   4.953   6.802
 2331SOL    HW2 7893   6.370   4.872   6.929
 2332SOL     OW 7894   4.360   1.821   5.559
 2332SOL    HW1 7895   4.333   1.917   5.551
 2332SOL    HW2 7896   4.444   1.814   5.614
 2333SOL     OW 7897   6.339   4.880   2.926
 2333SOL    HW1 7898   6.357   4.783   2.912
 2333SOL    HW2 7899   6.378   4.909   3.013
 2334SOL     OW 7900   2.847   0.282   0.583
 2334SOL    HW1 7901   2.775   0.348   0.604
 2334SOL    HW2 7902   2.809   0.208   0.527
 2335SOL     OW 7903   6.098   0.925   2.910
 2335SOL    HW1 7904   6.114   0.842   2.963
 2335SOL    HW2 7905   6.142   0.917   2.821
 2336SOL     OW 7906   4.671   1.984   5.591
 2336SOL    HW1 7907   4.673   1.907   5.527
 2336SOL    HW2 7908   4.678   1.949   5.685
 2337SOL     OW 7909   5.045   0.704   3.046
 2337SOL    HW1 7910   4.963   0.742   3.003
 2337SOL    HW2 7911   5.036   0.604   3.052
 2338SOL     OW 7912   0.645   0.097   6.830
 2338SOL    HW1 7913   0.630   0.188   6.791
 2338SOL    HW2 7914   0.692   0.105   6.918
 2339SOL     OW 7915   3.755   3.763   5.125
 2339SOL    HW1 7916   3.784   3.839   5.066
 2339SOL    HW2 7917   3.717   3.690   5.068
 2340SOL     OW 7918   4.662   6.678   5.669
 2340SOL    HW1 7919   4.756   6.710   5.652
 2340SOL    HW2 7920   4.634   6.620   5.593
 2341SOL     OW 7921   4.993   3.763   1.116
 2341SOL    HW1 7922   4.941   3.753   1.031
 2341SOL    HW2 7923   5.004   3.860   1.136
 2342SOL     OW 7924   0.878   5.805   5.762
 2342SOL    HW1 7925   0.965   5.755   5.766
 2342SOL    HW2 7926   0.842   5.801   5.669
 2343SOL     OW 7927   1.887   6.400   1.212
 2343SOL    HW1 7928   1.887   6.371   1.308
 2343SOL    HW2 7929   1.966   6.457   1.194
 2344SOL     OW 7930   1.908   0.802   1.193
 2344SOL    HW1 7931   1.837   0.843   1.135
 2344SOL    HW2 7932   1.864   0.745   1.262
 2345SOL     OW 7933   2.157   6.355   5.390
 2345SOL    HW1 7934   2.139   6.342   5.488
 2345SOL    HW2 7935   2.186   6.268   5.350
 2346SOL     OW 7936   4.872   3.252   5.001
 2346SOL    HW1 7937   4.928   3.260   5.083
 2346SOL    HW2 7938   4.805   3.179   5.013
 2347SOL     OW 7939   2.126   3.879   1.923
 2347SOL    HW1 7940   2.166   3.913   2.008
 2347SOL    HW2 7941   2.156   3.937   1.847
 2348SOL     OW 7942   2.330   6.141   3.597
 2348SOL    HW1 7943   2.288   6.121   3.686
 2348SOL    HW2 7944   2.314   6.064   3.535
 2349SOL     OW 7945   0.668   6.505   0.397
 2349SOL    HW1 7946   0.614   6.484   0.315
 2349SOL    HW2 7947   0.724   6.426   0.420
 2350SOL     OW 7948   4.424   6.958   5.708
 2350SOL    HW1 7949   4.371   6.922   5.785
 2350SOL    HW2 7950   4.434   0.040   5.718
 2351SOL     OW 7951   3.144   5.567   3.639
 2351SOL    HW1 7952   3.122   5.497   3.707
 2351SOL    HW2 7953   3.132   5.658   3.679
 2352SOL     OW 7954   0.247   4.486   2.798
 2352SOL    HW1 7955   0.311   4.556   2.827
 2352SOL    HW2 7956   0.288   4.396   2.810
 2353SOL     OW 7957   2.415   4.409   4.582
 2353SOL    HW1 7958   2.435   4.428   4.678
 2353SOL    HW2 7959   2.323   4.372   4.575
 2354SOL     OW 7960   3.828   2.587   6.536
 2354SOL    HW1 7961   3.793   2.681   6.530
 2354SOL    HW2 7962   3.752   2.523   6.541
 2355SOL     OW 7963   0.864   5.186   0.626
 2355SOL    HW1 7964   0.828   5.237   0.704
 2355SOL    HW2 7965   0.790   5.136   0.581
 2356SOL     OW 7966   1.836   4.077   1.201
 2356SOL    HW1 7967   1.796   4.123   1.280
 2356SOL    HW2 7968   1.851   3.981   1.223
 2357SOL     OW 7969   4.070   4.803   3.928
 2357SOL    HW1 7970   4.106   4.892   3.957
 2357SOL    HW2 7971   4.129   4.730   3.961
 2358SOL     OW 7972   3.309   6.382   4.442
 2358SOL    HW1 7973   3.304   6.480   4.459
 2358SOL    HW2 7974   3.233   6.336   4.488
 2359SOL     OW 7975   1.928   0.706   6.166
 2359SOL    HW1 7976   2.021   0.727   6.197
 2359SOL    HW2 7977   1.862   0.735   6.236
 2360SOL     OW 7978   4.786   5.397   5.977
 2360SOL    HW1 7979   4.732   5.447   5.910
 2360SOL    HW2 7980   4.838   5.461   6.033
 2361SOL     OW 7981   2.633   0.358   3.990
 2361SOL    HW1 7982   2.625   0.276   4.048
 2361SOL    HW2 7983   2.700   0.342   3.918
 2362SOL     OW 7984   4.650   6.882   4.850
 2362SOL    HW1 7985   4.659   6.979   4.829
 2362SOL    HW2 7986   4.630   6.870   4.947
 2363SOL     OW 7987   4.540   2.603   5.168
 2363SOL    HW1 7988   4.611   2.592   5.238
 2363SOL    HW2 7989   4.454   2.627   5.211
 2364SOL     OW 7990   5.996   1.760   1.852
 2364SOL    HW1 7991   6.085   1.756   1.806
 2364SOL    HW2 7992   6.006   1.806   1.940
 2365SOL     OW 7993   5.567   3.839   5.738
 2365SOL    HW1 7994   5.631   3.851   5.814
 2365SOL    HW2 7995   5.517   3.753   5.749
 2366SOL     OW 7996   0.816   4.275   5.398
 2366SOL    HW1 7997   0.905   4.305   5.431
 2366SOL    HW2 7998   0.825   4.189   5.348
 2367SOL     OW 7999   1.527   3.405   6.608
 2367SOL    HW1 8000   1.497   3.498   6.586
 2367SOL    HW2 8001   1.573   3.404   6.696
 2368SOL     OW 8002   4.929   1.090   4.928
 2368SOL    HW1 8003   4.903   1.059   4.837
 2368SOL    HW2 8004   4.895   1.184   4.943
 2369SOL     OW 8005   2.591   2.215   4.125
 2369SOL    HW1 8006   2.601   2.237   4.222
 2369SOL    HW2 8007   2.586   2.300   4.073
 2370SOL     OW 8008   4.304   3.732   0.040
 2370SOL    HW1 8009   4.391   3.729   7.007
 2370SOL    HW2 8010   4.320   3.718   0.137
 2371SOL     OW 8011   1.770   5.689   1.885
 2371SOL    HW1 8012   1.796   5.757   1.816
 2371SOL    HW2 8013   1.717   5.733   1.957
 2372SOL     OW 8014   0.838   1.757   0.066
 2372SOL    HW1 8015   0.923   1.705   0.066
 2372SOL    HW2 8016   0.812   1.779   0.161
 2373SOL     OW 8017   6.303   0.975   6.715
 2373SOL    HW1 8018   6.392   0.933   6.700
 2373SOL    HW2 8019   6.298   1.013   6.808
 2374SOL     OW 8020   6.412   5.783   3.573
 2374SOL    HW1 8021   6.470   5.740   3.643
 2374SOL    HW2 8022   6.414   5.882   3.586
 2375SOL     OW 8023   0.689   0.264   4.773
 2375SOL    HW1 8024   0.626   0.227   4.841
 2375SOL    HW2 8025   0.743   0.337   4.814
 2376SOL     OW 8026   6.067   2.827   3.457
 2376SOL    HW1 8027   6.003   2.887   3.409
 2376SOL    HW2 8028   6.114   2.769   3.391
 2377SOL     OW 8029   3.436   3.534   4.574
 2377SOL    HW1 8030   3.360   3.562   4.516
 2377SOL    HW2 8031   3.518   3.519   4.518
 2378SOL     OW 8032   5.658   1.834   0.274
 2378SOL    HW1 8033   5.681   1.917   0.324
 2378SOL    HW2 8034   5.584   1.786   0.322
 2379SOL     OW 8035   6.622   3.080   0.167
 2379SOL    HW1 8036   6.607   3.000   0.109
 2379SOL    HW2 8037   6.582   3.161   0.123
 2380SOL     OW 8038   6.688   0.749   5.516
 2380SOL    HW1 8039   6.670   0.833   5.465
 2380SOL    HW2 8040   6.601   0.704   5.537
 2381SOL     OW 8041   1.428   4.401   4.865
 2381SOL    HW1 8042   1.351   4.454   4.830
 2381SOL    HW2 8043   1.426   4.398   4.965
 2382SOL     OW 8044   2.101   5.400   2.765
 2382SOL    HW1 8045   2.136   5.324   2.710
 2382SOL    HW2 8046   2.090   5.371   2.860
 2383SOL     OW 8047   5.523   6.380   6.488
 2383SOL    HW1 8048   5.613   6.408   6.454
 2383SOL    HW2 8049   5.489   6.449   6.553
 2384SOL     OW 8050   1.017   1.552   1.643
 2384SOL    HW1 8051   1.050   1.621   1.578
 2384SOL    HW2 8052   1.094   1.496   1.673
 2385SOL     OW 8053   0.264   0.355   0.856
 2385SOL    HW1 8054   0.183   0.412   0.843
 2385SOL    HW2 8055   0.345   0.407   0.828
 2386SOL     OW 8056   3.198   5.565   4.406
 2386SOL    HW1 8057   3.290   5.589   4.376
 2386SOL    HW2 8058   3.143   5.648   4.414
 2387SOL     OW 8059   6.612   2.927   4.162
 2387SOL    HW1 8060   6.521   2.948   4.126
 2387SOL    HW2 8061   6.615   2.831   4.190
 2388SOL     OW 8062   1.113   1.520   5.265
 2388SOL    HW1 8063   1.159   1.602   5.300
 2388SOL    HW2 8064   1.014   1.531   5.274
 2389SOL     OW 8065   4.481   4.524   3.867
 2389SOL    HW1 8066   4.543   4.603   3.865
 2389SOL    HW2 8067   4.504   4.466   3.945
 2390SOL     OW 8068   3.740   3.631   4.884
 2390SOL    HW1 8069   3.671   3.666   4.821
 2390SOL    HW2 8070   3.814   3.698   4.894
 2391SOL     OW 8071   3.500   4.351   6.265
 2391SOL    HW1 8072   3.421   4.299   6.232
 2391SOL    HW2 8073   3.483   4.449   6.253
 2392SOL     OW 8074   3.234   4.793   6.625
 2392SOL    HW1 8075   3.283   4.797   6.538
 2392SOL    HW2 8076   3.135   4.799   6.608
 2393SOL     OW 8077   3.844   5.414   1.216
 2393SOL    HW1 8078   3.848   5.340   1.149
 2393SOL    HW2 8079   3.781   5.388   1.290
 2394SOL     OW 8080   0.851   3.658   4.705
 2394SOL    HW1 8081   0.848   3.591   4.779
 2394SOL    HW2 8082   0.939   3.652   4.658
 2395SOL     OW 8083   6.903   2.654   6.710
 2395SOL    HW1 8084   6.958   2.678   6.791
 2395SOL    HW2 8085   6.964   2.620   6.638
 2396SOL     OW 8086   5.952   6.385   0.526
 2396SOL    HW1 8087   5.873   6.391   0.464
 2396SOL    HW2 8088   5.968   6.473   0.569
 2397SOL     OW 8089   6.816   4.979   0.238
 2397SOL    HW1 8090   6.771   4.897   0.272
 2397SOL    HW2 8091   6.915   4.968   0.246
 2398SOL     OW 8092   2.628   4.651   4.898
 2398SOL    HW1 8093   2.573   4.734   4.910
 2398SOL    HW2 8094   2.706   4.654   4.961
 2399SOL     OW 8095   4.203   1.546   3.338
 2399SOL    HW1 8096   4.192   1.455   3.296
 2399SOL    HW2 8097   4.240   1.535   3.430
 2400SOL     OW 8098   2.657   3.621   0.891
 2400SOL    HW1 8099   2.666   3.544   0.954
 2400SOL    HW2 8100   2.661   3.588   0.797
 2401SOL     OW 8101   3.375   0.385   4.904
 2401SOL    HW1 8102   3.389   0.291   4.933
 2401SOL    HW2 8103   3.462   0.427   4.881
 2402SOL     OW 8104   0.046   1.930   3.747
 2402SOL    HW1 8105   0.051   1.865   3.670
 2402SOL    HW2 8106   0.053   1.880   3.833
 2403SOL     OW 8107   3.446   3.139   0.842
 2403SOL    HW1 8108   3.443   3.075   0.919
 2403SOL    HW2 8109   3.520   3.205   0.857
 2404SOL     OW 8110   5.490   1.644   1.671
 2404SOL    HW1 8111   5.478   1.686   1.581
 2404SOL    HW2 8112   5.550   1.701   1.727
 2405SOL     OW 8113   3.666   4.028   5.225
 2405SOL    HW1 8114   3.704   3.936   5.237
 2405SOL    HW2 8115   3.609   4.030   5.143
 2406SOL     OW 8116   2.343   0.758   3.347
 2406SOL    HW1 8117   2.367   0.831   3.284
 2406SOL    HW2 8118   2.391   0.674   3.322
 2407SOL     OW 8119   4.441   2.414   2.699
 2407SOL    HW1 8120   4.479   2.428   2.790
 2407SOL    HW2 8121   4.506   2.445   2.629
 2408SOL     OW 8122   3.354   4.939   3.330
 2408SOL    HW1 8123   3.392   4.935   3.423
 2408SOL    HW2 8124   3.425   4.968   3.266
 2409SOL     OW 8125   1.727   2.582   1.598
 2409SOL    HW1 8126   1.723   2.663   1.539
 2409SOL    HW2 8127   1.685   2.505   1.552
 2410SOL     OW 8128   6.676   3.341   5.480
 2410SOL    HW1 8129   6.755   3.290   5.448
 2410SOL    HW2 8130   6.705   3.415   5.541
 2411SOL     OW 8131   3.218   4.079   5.766
 2411SOL    HW1 8132   3.123   4.104   5.750
 2411SOL    HW2 8133   3.255   4.134   5.841
 2412SOL     OW 8134   2.930   3.419   0.525
 2412SOL    HW1 8135   2.830   3.425   0.528
 2412SOL    HW2 8136   2.957   3.348   0.459
 2413SOL     OW 8137   6.009   3.851   6.658
 2413SOL    HW1 8138   6.081   3.831   6.725
 2413SOL    HW2 8139   6.022   3.795   6.577
 2414SOL     OW 8140   5.635   3.770   2.666
 2414SOL    HW1 8141   5.723   3.724   2.657
 2414SOL    HW2 8142   5.569   3.708   2.709
 2415SOL     OW 8143   2.030   0.544   1.729
 2415SOL    HW1 8144   2.077   0.471   1.778
 2415SOL    HW2 8145   1.947   0.508   1.686
 2416SOL     OW 8146   1.387   1.568   4.744
 2416SOL    HW1 8147   1.322   1.496   4.767
 2416SOL    HW2 8148   1.392   1.577   4.644
 2417SOL     OW 8149   5.569   1.896   0.875
 2417SOL    HW1 8150   5.494   1.955   0.845
 2417SOL    HW2 8151   5.597   1.836   0.800
 2418SOL     OW 8152   3.409   3.776   5.134
 2418SOL    HW1 8153   3.350   3.828   5.196
 2418SOL    HW2 8154   3.456   3.704   5.185
 2419SOL     OW 8155   0.998   6.873   5.411
 2419SOL    HW1 8156   0.979   6.805   5.482
 2419SOL    HW2 8157   0.983   6.964   5.448
 2420SOL     OW 8158   3.814   6.975   2.271
 2420SOL    HW1 8159   3.899   7.000   2.318
 2420SOL    HW2 8160   3.739   0.015   2.306
 2421SOL     OW 8161   2.907   0.383   4.670
 2421SOL    HW1 8162   2.855   0.440   4.734
 2421SOL    HW2 8163   2.864   0.387   4.579
 2422SOL     OW 8164   4.837   0.742   0.723
 2422SOL    HW1 8165   4.778   0.662   0.731
 2422SOL    HW2 8166   4.917   0.731   0.781
 2423SOL     OW 8167   2.234   5.853   2.363
 2423SOL    HW1 8168   2.140   5.826   2.383
 2423SOL    HW2 8169   2.297   5.803   2.423
 2424SOL     OW 8170   5.492   6.092   6.627
 2424SOL    HW1 8171   5.512   6.136   6.715
 2424SOL    HW2 8172   5.428   6.148   6.575
 2425SOL     OW 8173   6.032   6.468   5.414
 2425SOL    HW1 8174   5.993   6.559   5.403
 2425SOL    HW2 8175   5.989   6.406   5.348
 2426SOL     OW 8176   0.965   6.016   4.680
 2426SOL    HW1 8177   0.900   6.008   4.604
 2426SOL    HW2 8178   0.937   5.956   4.755
 2427SOL     OW 8179   5.635   5.490   6.833
 2427SOL    HW1 8180   5.576   5.451   6.762
 2427SOL    HW2 8181   5.731   5.475   6.808
 2428SOL     OW 8182   0.329   0.590   3.345
 2428SOL    HW1 8183   0.399   0.534   3.390
 2428SOL    HW2 8184   0.308   0.669   3.403
 2429SOL     OW 8185   5.844   5.113   2.979
 2429SOL    HW1 8186   5.781   5.170   3.032
 2429SOL    HW2 8187   5.912   5.072   3.040
 2430SOL     OW 8188   5.294   2.682   0.714
 2430SOL    HW1 8189   5.218   2.629   0.750
 2430SOL    HW2 8190   5.267   2.778   0.708
 2431SOL     OW 8191   4.420   0.842   1.496
 2431SOL    HW1 8192   4.487   0.863   1.425
 2431SOL    HW2 8193   4.418   0.743   1.511
 2432SOL     OW 8194   3.559   6.707   2.369
 2432SOL    HW1 8195   3.597   6.775   2.432
 2432SOL    HW2 8196   3.581   6.615   2.402
 2433SOL     OW 8197   2.499   6.742   0.057
 2433SOL    HW1 8198   2.534   6.738   0.150
 2433SOL    HW2 8199   2.546   6.675   0.000
 2434SOL     OW 8200   5.243   1.673   3.515
 2434SOL    HW1 8201   5.316   1.718   3.568
 2434SOL    HW2 8202   5.284   1.622   3.439
 2435SOL     OW 8203   5.138   4.991   0.452
 2435SOL    HW1 8204   5.130   5.070   0.391
 2435SOL    HW2 8205   5.050   4.973   0.495
 2436SOL     OW 8206   1.862   6.875   1.438
 2436SOL    HW1 8207   1.865   6.806   1.366
 2436SOL    HW2 8208   1.774   6.923   1.435
 2437SOL     OW 8209   5.103   5.768   1.234
 2437SOL    HW1 8210   5.077   5.762   1.330
 2437SOL    HW2 8211   5.141   5.859   1.215
 2438SOL     OW 8212   4.284   0.796   4.511
 2438SOL    HW1 8213   4.313   0.701   4.522
 2438SOL    HW2 8214   4.359   0.857   4.538
 2439SOL     OW 8215   1.101   4.105   0.307
 2439SOL    HW1 8216   1.146   4.020   0.279
 2439SOL    HW2 8217   1.011   4.110   0.265
 2440SOL     OW 8218   4.203   6.594   5.413
 2440SOL    HW1 8219   4.240   6.517   5.361
 2440SOL    HW2 8220   4.276   6.658   5.436
 2441SOL     OW 8221   5.799   0.449   0.111
 2441SOL    HW1 8222   5.878   0.389   0.126
 2441SOL    HW2 8223   5.768   0.486   0.199
 2442SOL     OW 8224   5.812   5.410   2.828
 2442SOL    HW1 8225   5.902   5.379   2.799
 2442SOL    HW2 8226   5.803   5.508   2.812
 2443SOL     OW 8227   3.009   0.451   6.261
 2443SOL    HW1 8228   3.029   0.405   6.174
 2443SOL    HW2 8229   2.949   0.529   6.244
 2444SOL     OW 8230   3.452   3.952   0.185
 2444SOL    HW1 8231   3.371   3.939   0.127
 2444SOL    HW2 8232   3.507   3.868   0.185
 2445SOL     OW 8233   6.866   1.661   2.249
 2445SOL    HW1 8234   6.895   1.570   2.277
 2445SOL    HW2 8235   6.776   1.655   2.204
 2446SOL     OW 8236   0.844   2.728   4.553
 2446SOL    HW1 8237   0.848   2.823   4.584
 2446SOL    HW2 8238   0.818   2.726   4.457
 2447SOL     OW 8239   2.443   1.278   1.194
 2447SOL    HW1 8240   2.524   1.227   1.167
 2447SOL    HW2 8241   2.470   1.369   1.226
 2448SOL     OW 8242   6.570   1.447   4.381
 2448SOL    HW1 8243   6.589   1.358   4.339
 2448SOL    HW2 8244   6.657   1.490   4.405
 2449SOL     OW 8245   0.339   3.821   2.703
 2449SOL    HW1 8246   0.340   3.864   2.793
 2449SOL    HW2 8247   0.341   3.721   2.713
 2450SOL     OW 8248   3.322   5.228   6.122
 2450SOL    HW1 8249   3.236   5.189   6.155
 2450SOL    HW2 8250   3.386   5.237   6.199
 2451SOL     OW 8251   1.177   0.084   3.765
 2451SOL    HW1 8252   1.115   0.026   3.817
 2451SOL    HW2 8253   1.131   0.171   3.745
 2452SOL     OW 8254   3.316   1.739   3.984
 2452SOL    HW1 8255   3.410   1.749   3.951
 2452SOL    HW2 8256   3.291   1.643   3.987
 2453SOL     OW 8257   6.642   3.543   0.483
 2453SOL    HW1 8258   6.676   3.578   0.395
 2453SOL    HW2 8259   6.632   3.444   0.478
 2454SOL     OW 8260   3.342   0.787   6.370
 2454SOL    HW1 8261   3.342   0.832   6.459
 2454SOL    HW2 8262   3.379   0.850   6.301
 2455SOL     OW 8263   4.276   0.568   0.437
 2455SOL    HW1 8264   4.207   0.497   0.447
 2455SOL    HW2 8265   4.341   0.543   0.365
 2456SOL     OW 8266   6.281   2.443   0.104
 2456SOL    HW1 8267   6.211   2.427   0.173
 2456SOL    HW2 8268   6.348   2.369   0.106
 2457SOL     OW 8269   6.124   0.391   6.509
 2457SOL    HW1 8270   6.176   0.475   6.496
 2457SOL    HW2 8271   6.163   0.338   6.584
 2458SOL     OW 8272   1.881   6.334   4.225
 2458SOL    HW1 8273   1.946   6.302   4.295
 2458SOL    HW2 8274   1.862   6.431   4.240
 2459SOL     OW 8275   2.605   5.988   5.763
 2459SOL    HW1 8276   2.560   6.074   5.786
 2459SOL    HW2 8277   2.637   5.991   5.668
 2460SOL     OW 8278   1.398   1.257   1.302
 2460SOL    HW1 8279   1.448   1.336   1.339
 2460SOL    HW2 8280   1.407   1.180   1.365
 2461SOL     OW 8281   5.197   0.745   2.779
 2461SOL    HW1 8282   5.286   0.768   2.738
 2461SOL    HW2 8283   5.208   0.666   2.839
 2462SOL     OW 8284   1.902   5.485   6.840
 2462SOL    HW1 8285   1.803   5.479   6.853
 2462SOL    HW2 8286   1.928   5.581   6.828
 2463SOL     OW 8287   5.928   2.046   6.211
 2463SOL    HW1 8288   5.951   2.138   6.240
 2463SOL    HW2 8289   6.008   1.987   6.223
 2464SOL     OW 8290   2.181   4.116   2.644
 2464SOL    HW1 8291   2.248   4.141   2.715
 2464SOL    HW2 8292   2.164   4.018   2.647
 2465SOL     OW 8293   0.956   0.210   0.435
 2465SOL    HW1 8294   1.020   0.207   0.358
 2465SOL    HW2 8295   0.901   0.293   0.430
 2466SOL     OW 8296   2.744   1.884   3.002
 2466SOL    HW1 8297   2.787   1.878   2.912
 2466SOL    HW2 8298   2.784   1.816   3.063
 2467SOL     OW 8299   4.913   1.409   5.129
 2467SOL    HW1 8300   4.930   1.473   5.204
 2467SOL    HW2 8301   4.962   1.324   5.146
 2468SOL     OW 8302   4.557   6.270   1.322
 2468SOL    HW1 8303   4.613   6.334   1.267
 2468SOL    HW2 8304   4.463   6.272   1.290
 2469SOL     OW 8305   4.394   3.874   5.445
 2469SOL    HW1 8306   4.460   3.922   5.386
 2469SOL    HW2 8307   4.306   3.920   5.439
 2470SOL     OW 8308   4.569   4.278   6.059
 2470SOL    HW1 8309   4.497   4.322   6.005
 2470SOL    HW2 8310   4.534   4.256   6.150
 2471SOL     OW 8311   2.576   6.080   0.638
 2471SOL    HW1 8312   2.657   6.039   0.598
 2471SOL    HW2 8313   2.511   6.104   0.565
 2472SOL     OW 8314   4.439   2.506   3.958
 2472SOL    HW1 8315   4.380   2.433   3.990
 2472SOL    HW2 8316   4.506   2.469   3.893
 2473SOL     OW 8317   1.838   3.893   5.014
 2473SOL    HW1 8318   1.911   3.918   5.078
 2473SOL    HW2 8319   1.843   3.952   4.933
 2474SOL     OW 8320   0.273   5.401   1.245
 2474SOL    HW1 8321   0.342   5.329   1.237
 2474SOL    HW2 8322   0.276   5.440   1.337
 2475SOL     OW 8323   4.181   0.897   3.105
 2475SOL    HW1 8324   4.250   0.902   3.032
 2475SOL    HW2 8325   4.185   0.807   3.149
 2476SOL     OW 8326   0.036   1.495   2.958
 2476SOL    HW1 8327   0.065   1.545   2.877
 2476SOL    HW2 8328   0.088   1.526   3.038
 2477SOL     OW 8329   4.402   1.163   2.089
 2477SOL    HW1 8330   4.312   1.176   2.046
 2477SOL    HW2 8331   4.393   1.170   2.188
 2478SOL     OW 8332   6.267   1.089   1.907
 2478SOL    HW1 8333   6.326   1.169   1.914
 2478SOL    HW2 8334   6.179   1.116   1.866
 2479SOL     OW 8335   1.042   3.861   1.506
 2479SOL    HW1 8336   1.019   3.764   1.511
 2479SOL    HW2 8337   1.133   3.872   1.466
 2480SOL     OW 8338   4.791   4.162   0.644
 2480SOL    HW1 8339   4.807   4.248   0.597
 2480SOL    HW2 8340   4.750   4.180   0.733
 2481SOL     OW 8341   2.450   0.171   0.554
 2481SOL    HW1 8342   2.466   0.120   0.469
 2481SOL    HW2 8343   2.377   0.238   0.539
 2482SOL     OW 8344   5.071   3.289   6.131
 2482SOL    HW1 8345   5.058   3.251   6.222
 2482SOL    HW2 8346   4.981   3.312   6.092
 2483SOL     OW 8347   2.112   1.390   0.540
 2483SOL    HW1 8348   2.032   1.446   0.562
 2483SOL    HW2 8349   2.082   1.298   0.514
 2484SOL     OW 8350   3.708   0.814   0.094
 2484SOL    HW1 8351   3.639   0.830   0.165
 2484SOL    HW2 8352   3.681   0.736   0.038
 2485SOL     OW 8353   6.381   3.834   1.486
 2485SOL    HW1 8354   6.462   3.801   1.536
 2485SOL    HW2 8355   6.337   3.907   1.539
 2486SOL     OW 8356   1.787   4.887   4.723
 2486SOL    HW1 8357   1.707   4.872   4.665
 2486SOL    HW2 8358   1.850   4.951   4.679
 2487SOL     OW 8359   4.175   5.865   0.552
 2487SOL    HW1 8360   4.214   5.805   0.621
 2487SOL    HW2 8361   4.213   5.842   0.462
 2488SOL     OW 8362   2.063   4.682   2.695
 2488SOL    HW1 8363   2.125   4.615   2.736
 2488SOL    HW2 8364   1.969   4.646   2.698
 2489SOL     OW 8365   1.332   5.230   2.440
 2489SOL    HW1 8366   1.308   5.293   2.366
 2489SOL    HW2 8367   1.265   5.156   2.444
 2490SOL     OW 8368   6.560   4.857   1.551
 2490SOL    HW1 8369   6.551   4.884   1.647
 2490SOL    HW2 8370   6.517   4.767   1.538
 2491SOL     OW 8371   2.514   5.449   1.065
 2491SOL    HW1 8372   2.437   5.512   1.076
 2491SOL    HW2 8373   2.590   5.479   1.121
 2492SOL     OW 8374   4.442   2.185   1.430
 2492SOL    HW1 8375   4.504   2.202   1.507
 2492SOL    HW2 8376   4.465   2.097   1.388
 2493SOL     OW 8377   5.764   0.745   1.996
 2493SOL    HW1 8378   5.804   0.741   2.088
 2493SOL    HW2 8379   5.822   0.802   1.938
 2494SOL     OW 8380   6.005   3.493   2.112
 2494SOL    HW1 8381   5.975   3.571   2.167
 2494SOL    HW2 8382   5.955   3.411   2.140
 2495SOL     OW 8383   5.466   0.304   4.152
 2495SOL    HW1 8384   5.379   0.263   4.124
 2495SOL    HW2 8385   5.464   0.326   4.249
 2496SOL     OW 8386   6.630   3.441   5.873
 2496SOL    HW1 8387   6.646   3.395   5.961
 2496SOL    HW2 8388   6.711   3.493   5.848
 2497SOL     OW 8389   0.482   0.479   0.769
 2497SOL    HW1 8390   0.476   0.449   0.673
 2497SOL    HW2 8391   0.570   0.451   0.807
 2498SOL     OW 8392   3.140   1.138   4.371
 2498SOL    HW1 8393   3.202   1.162   4.446
 2498SOL    HW2 8394   3.087   1.219   4.344
 2499SOL     OW 8395   6.137   2.422   2.945
 2499SOL    HW1 8396   6.151   2.368   2.862
 2499SOL    HW2 8397   6.225   2.457   2.977
 2500SOL     OW 8398   4.708   3.197   0.152
 2500SOL    HW1 8399   4.620   3.237   0.178
 2500SOL    HW2 8400   4.744   3.144   0.229
 2501SOL     OW 8401   5.741   5.593   0.049
 2501SOL    HW1 8402   5.829   5.638   0.039
 2501SOL    HW2 8403   5.704   5.571   6.975
 2502SOL     OW 8404   1.401   5.564   3.564
 2502SOL    HW1 8405   1.368   5.531   3.653
 2502SOL    HW2 8406   1.380   5.661   3.555
 2503SOL     OW 8407   2.976   5.649   4.134
 2503SOL    HW1 8408   2.995   5.708   4.213
 2503SOL    HW2 8409   2.897   5.592   4.154
 2504SOL     OW 8410   3.919   5.211   4.812
 2504SOL    HW1 8411   3.925   5.112   4.807
 2504SOL    HW2 8412   3.899   5.248   4.721
 2505SOL     OW 8413   1.352   6.172   3.463
 2505SOL    HW1 8414   1.442   6.153   3.423
 2505SOL    HW2 8415   1.299   6.087   3.468
 2506SOL     OW 8416   6.831   3.946   5.281
 2506SOL    HW1 8417   6.765   3.925   5.353
 2506SOL    HW2 8418   6.923   3.948   5.320
 2507SOL     OW 8419   0.614   4.124   1.069
 2507SOL    HW1 8420   0.514   4.118   1.063
 2507SOL    HW2 8421   0.655   4.056   1.008
 2508SOL     OW 8422   2.017   1.456   2.307
 2508SOL    HW1 8423   1.943   1.391   2.326
 2508SOL    HW2 8424   2.002   1.498   2.217
 2509SOL     OW 8425   0.067   2.596   1.616
 2509SOL    HW1 8426   7.005   2.556   1.663
 2509SOL    HW2 8427   0.038   2.633   1.528
 2510SOL     OW 8428   3.145   4.603   1.256
 2510SOL    HW1 8429   3.059   4.604   1.306
 2510SOL    HW2 8430   3.129   4.572   1.162
 2511SOL     OW 8431   2.915   1.946   3.775
 2511SOL    HW1 8432   2.961   1.864   3.809
 2511SOL    HW2 8433   2.840   1.970   3.836
 2512SOL     OW 8434   5.386   4.456   4.895
 2512SOL    HW1 8435   5.475   4.485   4.930
 2512SOL    HW2 8436   5.315   4.480   4.961
 2513SOL     OW 8437   1.038   4.127   4.735
 2513SOL    HW1 8438   1.048   4.030   4.713
 2513SOL    HW2 8439   1.044   4.141   4.833
 2514SOL     OW 8440   6.424   3.617   4.514
 2514SOL    HW1 8441   6.471   3.669   4.585
 2514SOL    HW2 8442   6.397   3.678   4.439
 2515SOL     OW 8443   1.534   6.333   0.504
 2515SOL    HW1 8444   1.472   6.348   0.428
 2515SOL    HW2 8445   1.494   6.370   0.588
 2516SOL     OW 8446   6.419   1.060   3.231
 2516SOL    HW1 8447   6.402   1.081   3.135
 2516SOL    HW2 8448   6.488   1.123   3.267
 2517SOL     OW 8449   1.301   5.347   6.235
 2517SOL    HW1 8450   1.387   5.326   6.187
 2517SOL    HW2 8451   1.229   5.287   6.202
 2518SOL     OW 8452   1.320   4.268   0.127
 2518SOL    HW1 8453   1.285   4.255   0.221
 2518SOL    HW2 8454   1.420   4.266   0.128
 2519SOL     OW 8455   5.214   6.662   3.542
 2519SOL    HW1 8456   5.303   6.620   3.560
 2519SOL    HW2 8457   5.202   6.741   3.603
 2520SOL     OW 8458   2.231   1.991   6.717
 2520SOL    HW1 8459   2.261   1.905   6.759
 2520SOL    HW2 8460   2.151   1.974   6.660
 2521SOL     OW 8461   0.910   0.092   5.147
 2521SOL    HW1 8462   0.910   7.008   5.141
 2521SOL    HW2 8463   0.926   0.130   5.056
 2522SOL     OW 8464   0.886   3.154   5.485
 2522SOL    HW1 8465   0.787   3.136   5.481
 2522SOL    HW2 8466   0.906   3.207   5.568
 2523SOL     OW 8467   0.626   2.728   2.139
 2523SOL    HW1 8468   0.630   2.821   2.176
 2523SOL    HW2 8469   0.572   2.728   2.054
 2524SOL     OW 8470   1.109   6.022   5.643
 2524SOL    HW1 8471   1.072   5.948   5.700
 2524SOL    HW2 8472   1.102   6.109   5.693
 2525SOL     OW 8473   1.080   2.339   4.766
 2525SOL    HW1 8474   1.023   2.304   4.691
 2525SOL    HW2 8475   1.109   2.432   4.745
 2526SOL     OW 8476   1.493   3.931   5.847
 2526SOL    HW1 8477   1.525   3.884   5.930
 2526SOL    HW2 8478   1.524   4.026   5.849
 2527SOL     OW 8479   5.656   5.746   4.645
 2527SOL    HW1 8480   5.672   5.845   4.644
 2527SOL    HW2 8481   5.660   5.713   4.739
 2528SOL     OW 8482   5.339   5.126   1.119
 2528SOL    HW1 8483   5.321   5.082   1.031
 2528SOL    HW2 8484   5.388   5.212   1.104
 2529SOL     OW 8485   6.829   6.665   6.603
 2529SOL    HW1 8486   6.735   6.667   6.569
 2529SOL    HW2 8487   6.858   6.759   6.624
 2530SOL     OW 8488   2.154   0.371   4.660
 2530SOL    HW1 8489   2.222   0.298   4.654
 2530SOL    HW2 8490   2.064   0.334   4.639
 2531SOL     OW 8491   4.983   5.914   4.405
 2531SOL    HW1 8492   4.988   5.814   4.408
 2531SOL    HW2 8493   5.064   5.953   4.451
 2532SOL     OW 8494   1.100   6.647   0.977
 2532SOL    HW1 8495   1.190   6.668   1.016
 2532SOL    HW2 8496   1.094   6.687   0.885
 2533SOL     OW 8497   2.986   0.229   2.958
 2533SOL    HW1 8498   3.079   0.238   2.923
 2533SOL    HW2 8499   2.921   0.261   2.888
 2534SOL     OW 8500   3.202   1.154   2.987
 2534SOL    HW1 8501   3.254   1.068   2.986
 2534SOL    HW2 8502   3.104   1.133   2.988
 2535SOL     OW 8503   3.344   2.085   6.008
 2535SOL    HW1 8504   3.280   2.010   5.996
 2535SOL    HW2 8505   3.325   2.132   6.095
 2536SOL     OW 8506   0.323   2.064   4.677
 2536SOL    HW1 8507   0.224   2.058   4.682
 2536SOL    HW2 8508   0.351   2.097   4.587
 2537SOL     OW 8509   3.763   0.187   6.244
 2537SOL    HW1 8510   3.717   0.258   6.190
 2537SOL    HW2 8511   3.846   0.158   6.196
 2538SOL     OW 8512   1.197   4.923   5.221
 2538SOL    HW1 8513   1.178   4.973   5.136
 2538SOL    HW2 8514   1.242   4.837   5.199
 2539SOL     OW 8515   4.906   0.989   5.557
 2539SOL    HW1 8516   5.002   0.994   5.526
 2539SOL    HW2 8517   4.846   0.992   5.477
 2540SOL     OW 8518   4.190   1.039   2.336
 2540SOL    HW1 8519   4.186   1.124   2.388
 2540SOL    HW2 8520   4.124   1.042   2.261
 2541SOL     OW 8521   1.672   6.520   5.185
 2541SOL    HW1 8522   1.726   6.480   5.259
 2541SOL    HW2 8523   1.580   6.541   5.218
 2542SOL     OW 8524   4.744   0.809   5.763
 2542SOL    HW1 8525   4.805   0.780   5.836
 2542SOL    HW2 8526   4.787   0.881   5.709
 2543SOL     OW 8527   1.834   1.581   3.001
 2543SOL    HW1 8528   1.915   1.526   2.978
 2543SOL    HW2 8529   1.752   1.533   2.972
 2544SOL     OW 8530   0.282   5.771   1.179
 2544SOL    HW1 8531   0.257   5.689   1.126
 2544SOL    HW2 8532   0.219   5.845   1.156
 2545SOL     OW 8533   1.859   0.661   1.936
 2545SOL    HW1 8534   1.904   0.750   1.933
 2545SOL    HW2 8535   1.892   0.604   1.861
 2546SOL     OW 8536   0.477   2.053   1.435
 2546SOL    HW1 8537   0.575   2.037   1.445
 2546SOL    HW2 8538   0.434   2.050   1.525
 2547SOL     OW 8539   6.176   3.350   0.135
 2547SOL    HW1 8540   6.199   3.260   0.172
 2547SOL    HW2 8541   6.131   3.340   0.047
 2548SOL     OW 8542   2.486   6.602   5.553
 2548SOL    HW1 8543   2.391   6.577   5.538
 2548SOL    HW2 8544   2.491   6.673   5.623
 2549SOL     OW 8545   1.714   0.510   1.164
 2549SOL    HW1 8546   1.724   0.416   1.196
 2549SOL    HW2 8547   1.629   0.549   1.200
 2550SOL     OW 8548   6.600   0.585   5.987
 2550SOL    HW1 8549   6.606   0.563   5.889
 2550SOL    HW2 8550   6.646   0.672   6.004
 2551SOL     OW 8551   3.803   5.091   0.662
 2551SOL    HW1 8552   3.780   5.188   0.652
 2551SOL    HW2 8553   3.898   5.077   0.636
 2552SOL     OW 8554   1.972   5.634   6.431
 2552SOL    HW1 8555   2.034   5.602   6.503
 2552SOL    HW2 8556   1.976   5.734   6.426
 2553SOL     OW 8557   4.240   3.177   6.562
 2553SOL    HW1 8558   4.307   3.106   6.585
 2553SOL    HW2 8559   4.226   3.178   6.463
 2554SOL     OW 8560   2.007   6.390   6.964
 2554SOL    HW1 8561   1.995   6.453   6.887
 2554SOL    HW2 8562   2.022   6.298   6.929
 2555SOL     OW 8563   6.029   6.824   6.789
 2555SOL    HW1 8564   5.932   6.803   6.799
 2555SOL    HW2 8565   6.074   6.752   6.737
 2556SOL     OW 8566   4.567   5.319   0.021
 2556SOL    HW1 8567   4.577   5.233   6.987
 2556SOL    HW2 8568   4.512   5.303   0.103
 2557SOL     OW 8569   2.741   3.028   6.368
 2557SOL    HW1 8570   2.756   3.127   6.371
 2557SOL    HW2 8571   2.766   2.993   6.278
 2558SOL     OW 8572   4.516   3.119   5.884
 2558SOL    HW1 8573   4.514   3.062   5.966
 2558SOL    HW2 8574   4.557   3.208   5.907
 2559SOL     OW 8575   6.006   3.809   3.753
 2559SOL    HW1 8576   6.045   3.776   3.840
 2559SOL    HW2 8577   6.062   3.883   3.717
 2560SOL     OW 8578   5.595   3.383   3.838
 2560SOL    HW1 8579   5.571   3.409   3.745
 2560SOL    HW2 8580   5.655   3.303   3.836
 2561SOL     OW 8581   2.468   0.221   4.395
 2561SOL    HW1 8582   2.487   0.150   4.462
 2561SOL    HW2 8583   2.499   0.191   4.305
 2562SOL     OW 8584   1.328   5.534   2.441
 2562SOL    HW1 8585   1.418   5.566   2.410
 2562SOL    HW2 8586   1.290   5.600   2.505
 2563SOL     OW 8587   3.861   2.176   0.187
 2563SOL    HW1 8588   3.861   2.168   0.287
 2563SOL    HW2 8589   3.862   2.272   0.161
 2564SOL     OW 8590   1.797   6.365   6.304
 2564SOL    HW1 8591   1.776   6.296   6.235
 2564SOL    HW2 8592   1.895   6.363   6.325
 2565SOL     OW 8593   6.931   0.511   0.494
 2565SOL    HW1 8594   6.859   0.523   0.563
 2565SOL    HW2 8595   6.979   0.425   0.510
 2566SOL     OW 8596   1.618   7.003   1.452
 2566SOL    HW1 8597   1.595   0.079   1.481
 2566SOL    HW2 8598   1.546   6.940   1.482
 2567SOL     OW 8599   1.014   1.122   1.645
 2567SOL    HW1 8600   0.967   1.039   1.615
 2567SOL    HW2 8601   0.971   1.157   1.728
 2568SOL     OW 8602   3.192   6.644   6.897
 2568SOL    HW1 8603   3.196   6.656   6.798
 2568SOL    HW2 8604   3.242   6.719   6.942
 2569SOL     OW 8605   2.904   1.161   1.600
 2569SOL    HW1 8606   2.876   1.147   1.504
 2569SOL    HW2 8607   2.827   1.142   1.660
 2570SOL     OW 8608   5.852   0.425   6.854
 2570SOL    HW1 8609   5.814   0.417   6.946
 2570SOL    HW2 8610   5.944   0.464   6.859
 2571SOL     OW 8611   2.003   4.504   5.228
 2571SOL    HW1 8612   1.958   4.427   5.181
 2571SOL    HW2 8613   1.949   4.530   5.308
 2572SOL     OW 8614   2.190   5.180   0.196
 2572SOL    HW1 8615   2.108   5.204   0.248
 2572SOL    HW2 8616   2.176   5.203   0.099
 2573SOL     OW 8617   6.839   1.654   1.879
 2573SOL    HW1 8618   6.776   1.640   1.955
 2573SOL    HW2 8619   6.829   1.748   1.844
 2574SOL     OW 8620   6.231   3.625   0.093
 2574SOL    HW1 8621   6.224   3.651   7.013
 2574SOL    HW2 8622   6.229   3.526   0.102
 2575SOL     OW 8623   5.319   5.435   6.597
 2575SOL    HW1 8624   5.363   5.521   6.571
 2575SOL    HW2 8625   5.389   5.365   6.612
 2576SOL     OW 8626   3.546   0.280   4.295
 2576SOL    HW1 8627   3.528   0.220   4.373
 2576SOL    HW2 8628   3.484   0.358   4.299
 2577SOL     OW 8629   3.626   6.720   1.638
 2577SOL    HW1 8630   3.619   6.620   1.648
 2577SOL    HW2 8631   3.567   6.764   1.706
 2578SOL     OW 8632   5.049   2.230   3.249
 2578SOL    HW1 8633   4.968   2.193   3.294
 2578SOL    HW2 8634   5.116   2.257   3.318
 2579SOL     OW 8635   1.681   6.214   2.627
 2579SOL    HW1 8636   1.665   6.162   2.711
 2579SOL    HW2 8637   1.752   6.283   2.644
 2580SOL     OW 8638   2.509   3.187   6.856
 2580SOL    HW1 8639   2.419   3.217   6.890
 2580SOL    HW2 8640   2.512   3.196   6.757
 2581SOL     OW 8641   0.186   3.887   1.036
 2581SOL    HW1 8642   0.248   3.854   1.107
 2581SOL    HW2 8643   0.213   3.849   0.948
 2582SOL     OW 8644   0.993   4.644   2.358
 2582SOL    HW1 8645   0.895   4.647   2.343
 2582SOL    HW2 8646   1.034   4.577   2.296
 2583SOL     OW 8647   0.592   1.661   0.732
 2583SOL    HW1 8648   0.543   1.695   0.652
 2583SOL    HW2 8649   0.684   1.631   0.705
 2584SOL     OW 8650   4.323   5.682   0.310
 2584SOL    HW1 8651   4.230   5.652   0.288
 2584SOL    HW2 8652   4.371   5.608   0.358
 2585SOL     OW 8653   5.344   2.325   0.679
 2585SOL    HW1 8654   5.388   2.380   0.750
 2585SOL    HW2 8655   5.246   2.347   0.676
 2586SOL     OW 8656   3.574   1.336   3.175
 2586SOL    HW1 8657   3.506   1.346   3.103
 2586SOL    HW2 8658   3.604   1.240   3.179
 2587SOL     OW 8659   0.351   0.998   3.207
 2587SOL    HW1 8660   0.382   0.906   3.183
 2587SOL    HW2 8661   0.354   1.010   3.306
 2588SOL     OW 8662   4.129   0.622   6.005
 2588SOL    HW1 8663   4.225   0.649   6.005
 2588SOL    HW2 8664   4.102   0.590   6.096
 2589SOL     OW 8665   0.442   5.962   6.513
 2589SOL    HW1 8666   0.449   6.049   6.465
 2589SOL    HW2 8667   0.429   5.888   6.446
 2590SOL     OW 8668   3.319   6.007   0.873
 2590SOL    HW1 8669   3.347   5.971   0.962
 2590SOL    HW2 8670   3.227   6.044   0.880
 2591SOL     OW 8671   0.024   5.816   2.257
 2591SOL    HW1 8672   6.996   5.905   2.265
 2591SOL    HW2 8673   7.007   5.756   2.330
 2592SOL     OW 8674   3.495   6.028   1.099
 2592SOL    HW1 8675   3.575   5.971   1.078
 2592SOL    HW2 8676   3.459   6.002   1.189
 2593SOL     OW 8677   3.126   5.609   1.010
 2593SOL    HW1 8678   3.215   5.588   0.970
 2593SOL    HW2 8679   3.054   5.560   0.960
 2594SOL     OW 8680   1.178   5.026   6.263
 2594SOL    HW1 8681   1.233   4.950   6.229
 2594SOL    HW2 8682   1.145   5.080   6.185
 2595SOL     OW 8683   6.321   1.768   4.112
 2595SOL    HW1 8684   6.380   1.808   4.182
 2595SOL    HW2 8685   6.341   1.810   4.023
 2596SOL     OW 8686   3.461   1.867   1.616
 2596SOL    HW1 8687   3.365   1.869   1.589
 2596SOL    HW2 8688   3.467   1.851   1.715
 2597SOL     OW 8689   1.585   4.508   5.771
 2597SOL    HW1 8690   1.610   4.463   5.857
 2597SOL    HW2 8691   1.576   4.439   5.699
 2598SOL     OW 8692   5.945   1.222   3.340
 2598SOL    HW1 8693   6.018   1.167   3.381
 2598SOL    HW2 8694   5.863   1.166   3.328
 2599SOL     OW 8695   1.828   6.702   1.172
 2599SOL    HW1 8696   1.752   6.731   1.113
 2599SOL    HW2 8697   1.808   6.613   1.212
 2600SOL     OW 8698   5.594   3.227   4.799
 2600SOL    HW1 8699   5.495   3.237   4.785
 2600SOL    HW2 8700   5.633   3.177   4.722
 2601SOL     OW 8701   1.983   1.911   0.709
 2601SOL    HW1 8702   1.923   1.838   0.743
 2601SOL    HW2 8703   1.952   1.999   0.745
 2602SOL     OW 8704   0.693   4.188   4.029
 2602SOL    HW1 8705   0.705   4.286   4.048
 2602SOL    HW2 8706   0.602   4.173   3.990
 2603SOL     OW 8707   2.286   1.385   3.334
 2603SOL    HW1 8708   2.281   1.457   3.403
 2603SOL    HW2 8709   2.342   1.309   3.368
 2604SOL     OW 8710   4.934   1.972   2.721
 2604SOL    HW1 8711   4.944   1.909   2.644
 2604SOL    HW2 8712   4.963   1.927   2.805
 2605SOL     OW 8713   2.131   3.912   3.146
 2605SOL    HW1 8714   2.157   3.995   3.195
 2605SOL    HW2 8715   2.164   3.832   3.197
 2606SOL     OW 8716   5.822   4.571   2.107
 2606SOL    HW1 8717   5.919   4.546   2.096
 2606SOL    HW2 8718   5.765   4.491   2.094
 2607SOL     OW 8719   1.364   1.405   1.079
 2607SOL    HW1 8720   1.358   1.327   1.141
 2607SOL    HW2 8721   1.454   1.449   1.090
 2608SOL     OW 8722   4.836   4.739   1.618
 2608SOL    HW1 8723   4.850   4.735   1.519
 2608SOL    HW2 8724   4.879   4.660   1.661
 2609SOL     OW 8725   6.942   1.333   0.495
 2609SOL    HW1 8726   6.894   1.278   0.564
 2609SOL    HW2 8727   6.934   1.430   0.518
 2610SOL     OW 8728   0.891   4.726   4.497
 2610SOL    HW1 8729   0.901   4.672   4.414
 2610SOL    HW2 8730   0.892   4.823   4.475
 2611SOL     OW 8731   4.589   6.915   0.945
 2611SOL    HW1 8732   4.612   6.886   1.037
 2611SOL    HW2 8733   4.617   7.011   0.933
 2612SOL     OW 8734   6.743   0.117   5.841
 2612SOL    HW1 8735   6.818   0.119   5.774
 2612SOL    HW2 8736   6.656   0.128   5.794
 2613SOL     OW 8737   2.370   6.153   6.306
 2613SOL    HW1 8738   2.392   6.218   6.378
 2613SOL    HW2 8739   2.363   6.061   6.344
 2614SOL     OW 8740   7.000   0.545   5.592
 2614SOL    HW1 8741   0.023   0.535   5.683
 2614SOL    HW2 8742   0.029   0.620   5.543
 2615SOL     OW 8743   0.200   2.820   2.980
 2615SOL    HW1 8744   0.119   2.829   3.037
 2615SOL    HW2 8745   0.256   2.903   2.987
 2616SOL     OW 8746   3.369   3.555   5.353
 2616SOL    HW1 8747   3.365   3.482   5.285
 2616SOL    HW2 8748   3.432   3.530   5.426
 2617SOL     OW 8749   3.432   6.617   0.621
 2617SOL    HW1 8750   3.470   6.529   0.651
 2617SOL    HW2 8751   3.460   6.634   0.527
 2618SOL     OW 8752   6.804   0.648   4.268
 2618SOL    HW1 8753   6.773   0.729   4.219
 2618SOL    HW2 8754   6.738   0.623   4.339
 2619SOL     OW 8755   4.157   1.930   3.341
 2619SOL    HW1 8756   4.092   1.907   3.414
 2619SOL    HW2 8757   4.230   1.862   3.339
 2620SOL     OW 8758   6.644   0.020   3.410
 2620SOL    HW1 8759   6.571   0.076   3.449
 2620SOL    HW2 8760   6.620   6.939   3.420
 2621SOL     OW 8761   0.993   5.576   2.616
 2621SOL    HW1 8762   1.068   5.641   2.621
 2621SOL    HW2 8763   0.993   5.531   2.527
 2622SOL     OW 8764   1.960   3.374   5.304
 2622SOL    HW1 8765   2.039   3.401   5.249
 2622SOL    HW2 8766   1.991   3.316   5.380
 2623SOL     OW 8767   1.410   0.712   5.734
 2623SOL    HW1 8768   1.312   0.726   5.722
 2623SOL    HW2 8769   1.427   0.660   5.817
 2624SOL     OW 8770   6.668   1.234   5.587
 2624SOL    HW1 8771   6.574   1.251   5.555
 2624SOL    HW2 8772   6.682   1.281   5.674
 2625SOL     OW 8773   2.058   3.288   5.009
 2625SOL    HW1 8774   2.097   3.283   4.917
 2625SOL    HW2 8775   2.125   3.327   5.072
 2626SOL     OW 8776   0.229   0.425   6.246
 2626SOL    HW1 8777   0.259   0.507   6.198
 2626SOL    HW2 8778   0.172   0.450   6.324
 2627SOL     OW 8779   1.291   1.112   5.796
 2627SOL    HW1 8780   1.250   1.133   5.707
 2627SOL    HW2 8781   1.328   1.195   5.837
 2628SOL     OW 8782   1.993   4.683   5.700
 2628SOL    HW1 8783   2.061   4.639   5.759
 2628SOL    HW2 8784   2.022   4.777   5.681
 2629SOL     OW 8785   3.182   3.183   1.693
 2629SOL    HW1 8786   3.175   3.150   1.599
 2629SOL    HW2 8787   3.091   3.205   1.727
 2630SOL     OW 8788   3.395   2.140   2.794
 2630SOL    HW1 8789   3.478   2.129   2.740
 2630SOL    HW2 8790   3.412   2.205   2.868
 2631SOL     OW 8791   5.229   1.259   5.520
 2631SOL    HW1 8792   5.281   1.245   5.604
 2631SOL    HW2 8793   5.241   1.353   5.489
 2632SOL     OW 8794   4.768   3.069   6.303
 2632SOL    HW1 8795   4.862   3.102   6.299
 2632SOL    HW2 8796   4.733   3.079   6.397
 2633SOL     OW 8797   0.656   2.297   4.792
 2633SOL    HW1 8798   0.587   2.364   4.820
 2633SOL    HW2 8799   0.708   2.333   4.715
 2634SOL     OW 8800   0.579   4.533   3.289
 2634SOL    HW1 8801   0.603   4.625   3.259
 2634SOL    HW2 8802   0.571   4.531   3.389
 2635SOL     OW 8803   6.917   5.607   5.707
 2635SOL    HW1 8804   7.004   5.577   5.748
 2635SOL    HW2 8805   6.877   5.531   5.655
 2636SOL     OW 8806   3.786   0.809   4.955
 2636SOL    HW1 8807   3.870   0.759   4.935
 2636SOL    HW2 8808   3.772   0.813   5.053
 2637SOL     OW 8809   4.906   1.264   3.384
 2637SOL    HW1 8810   4.875   1.329   3.314
 2637SOL    HW2 8811   4.954   1.188   3.340
 2638SOL     OW 8812   6.561   0.273   3.994
 2638SOL    HW1 8813   6.577   0.319   4.081
 2638SOL    HW2 8814   6.644   0.277   3.939
 2639SOL     OW 8815   0.165   5.568   1.052
 2639SOL    HW1 8816   0.102   5.530   0.984
 2639SOL    HW2 8817   0.206   5.493   1.106
 2640SOL     OW 8818   0.608   6.216   5.506
 2640SOL    HW1 8819   0.653   6.166   5.580
 2640SOL    HW2 8820   0.676   6.244   5.438
 2641SOL     OW 8821   5.555   3.178   2.293
 2641SOL    HW1 8822   5.541   3.257   2.233
 2641SOL    HW2 8823   5.557   3.094   2.238
 2642SOL     OW 8824   4.949   6.446   3.797
 2642SOL    HW1 8825   4.936   6.366   3.739
 2642SOL    HW2 8826   4.935   6.420   3.893
 2643SOL     OW 8827   0.511   3.608   3.547
 2643SOL    HW1 8828   0.571   3.688   3.548
 2643SOL    HW2 8829   0.553   3.536   3.491
 2644SOL     OW 8830   5.622   6.580   5.571
 2644SOL    HW1 8831   5.686   6.578   5.647
 2644SOL    HW2 8832   5.650   6.513   5.502
 2645SOL     OW 8833   4.280   5.846   3.945
 2645SOL    HW1 8834   4.189   5.886   3.957
 2645SOL    HW2 8835   4.315   5.816   4.034
 2646SOL     OW 8836   5.771   0.755   6.409
 2646SOL    HW1 8837   5.797   0.659   6.397
 2646SOL    HW2 8838   5.826   0.813   6.350
 2647SOL     OW 8839   6.802   6.941   1.807
 2647SOL    HW1 8840   6.811   6.842   1.799
 2647SOL    HW2 8841   6.782   6.980   1.717
 2648SOL     OW 8842   0.401   0.176   4.079
 2648SOL    HW1 8843   0.344   0.150   4.157
 2648SOL    HW2 8844   0.346   0.172   3.996
 2649SOL     OW 8845   5.671   3.206   0.210
 2649SOL    HW1 8846   5.610   3.204   0.131
 2649SOL    HW2 8847   5.755   3.156   0.189
 2650SOL     OW 8848   1.371   4.729   3.716
 2650SOL    HW1 8849   1.432   4.715   3.794
 2650SOL    HW2 8850   1.283   4.687   3.736
 2651SOL     OW 8851   1.764   1.227   1.261
 2651SOL    HW1 8852   1.847   1.248   1.313
 2651SOL    HW2 8853   1.695   1.187   1.322
 2652SOL     OW 8854   3.989   3.539   4.597
 2652SOL    HW1 8855   4.046   3.557   4.516
 2652SOL    HW2 8856   3.965   3.442   4.600
 2653SOL     OW 8857   4.893   6.283   5.019
 2653SOL    HW1 8858   4.863   6.317   4.930
 2653SOL    HW2 8859   4.991   6.262   5.016
 2654SOL     OW 8860   4.659   6.733   2.248
 2654SOL    HW1 8861   4.738   6.680   2.219
 2654SOL    HW2 8862   4.575   6.682   2.228
 2655SOL     OW 8863   4.538   6.234   4.301
 2655SOL    HW1 8864   4.450   6.271   4.269
 2655SOL    HW2 8865   4.538   6.134   4.291
 2656SOL     OW 8866   3.898   4.952   4.786
 2656SOL    HW1 8867   3.869   4.943   4.690
 2656SOL    HW2 8868   3.981   4.898   4.801
 2657SOL     OW 8869   1.238   4.326   6.660
 2657SOL    HW1 8870   1.226   4.236   6.701
 2657SOL    HW2 8871   1.334   4.354   6.667
 2658SOL     OW 8872   5.086   4.455   0.846
 2658SOL    HW1 8873   5.075   4.356   0.834
 2658SOL    HW2 8874   4.997   4.500   0.840
 2659SOL     OW 8875   5.460   3.043   4.205
 2659SOL    HW1 8876   5.424   3.115   4.146
 2659SOL    HW2 8877   5.484   3.082   4.294
 2660SOL     OW 8878   1.904   0.195   1.948
 2660SOL    HW1 8879   1.914   0.111   1.894
 2660SOL    HW2 8880   1.976   0.259   1.925
 2661SOL     OW 8881   2.227   0.434   1.434
 2661SOL    HW1 8882   2.200   0.406   1.526
 2661SOL    HW2 8883   2.237   0.352   1.377
 2662SOL     OW 8884   4.707   6.619   4.865
 2662SOL    HW1 8885   4.696   6.712   4.831
 2662SOL    HW2 8886   4.727   6.621   4.963
 2663SOL     OW 8887   3.278   4.144   6.869
 2663SOL    HW1 8888   3.376   4.129   6.878
 2663SOL    HW2 8889   3.231   4.109   6.949
 2664SOL     OW 8890   4.276   3.628   5.437
 2664SOL    HW1 8891   4.307   3.572   5.360
 2664SOL    HW2 8892   4.321   3.717   5.434
 2665SOL     OW 8893   2.908   3.104   5.215
 2665SOL    HW1 8894   2.839   3.033   5.228
 2665SOL    HW2 8895   2.921   3.120   5.117
 2666SOL     OW 8896   6.016   4.938   1.533
 2666SOL    HW1 8897   6.070   4.869   1.582
 2666SOL    HW2 8898   5.925   4.901   1.513
 2667SOL     OW 8899   0.242   5.673   4.176
 2667SOL    HW1 8900   0.148   5.705   4.186
 2667SOL    HW2 8901   0.304   5.744   4.211
 2668SOL     OW 8902   6.997   2.841   5.086
 2668SOL    HW1 8903   6.964   2.932   5.110
 2668SOL    HW2 8904   6.963   2.816   4.996
 2669SOL     OW 8905   3.037   4.561   5.431
 2669SOL    HW1 8906   2.991   4.514   5.355
 2669SOL    HW2 8907   3.128   4.522   5.444
 2670SOL     OW 8908   5.360   3.259   5.641
 2670SOL    HW1 8909   5.450   3.297   5.617
 2670SOL    HW2 8910   5.360   3.230   5.736
 2671SOL     OW 8911   4.529   5.331   6.349
 2671SOL    HW1 8912   4.533   5.357   6.445
 2671SOL    HW2 8913   4.622   5.315   6.315
 2672SOL     OW 8914   1.795   4.942   0.566
 2672SOL    HW1 8915   1.754   5.032   0.552
 2672SOL    HW2 8916   1.727   4.880   0.605
 2673SOL     OW 8917   6.171   1.255   2.514
 2673SOL    HW1 8918   6.236   1.285   2.444
 2673SOL    HW2 8919   6.178   1.156   2.526
 2674SOL     OW 8920   1.121   4.577   3.759
 2674SOL    HW1 8921   1.175   4.499   3.729
 2674SOL    HW2 8922   1.051   4.598   3.690
 2675SOL     OW 8923   6.129   5.023   4.099
 2675SOL    HW1 8924   6.065   4.977   4.160
 2675SOL    HW2 8925   6.094   5.114   4.076
 2676SOL     OW 8926   3.777   2.559   1.033
 2676SOL    HW1 8927   3.758   2.500   1.112
 2676SOL    HW2 8928   3.699   2.557   0.971
 2677SOL     OW 8929   2.588   3.671   0.367
 2677SOL    HW1 8930   2.609   3.669   0.269
 2677SOL    HW2 8931   2.558   3.763   0.393
 2678SOL     OW 8932   0.451   2.824   1.564
 2678SOL    HW1 8933   0.489   2.908   1.602
 2678SOL    HW2 8934   0.510   2.746   1.586
 2679SOL     OW 8935   2.066   4.223   1.864
 2679SOL    HW1 8936   2.153   4.174   1.876
 2679SOL    HW2 8937   2.071   4.311   1.912
 2680SOL     OW 8938   1.119   1.690   0.701
 2680SOL    HW1 8939   1.172   1.694   0.786
 2680SOL    HW2 8940   1.179   1.665   0.625
 2681SOL     OW 8941   1.757   2.573   4.479
 2681SOL    HW1 8942   1.674   2.517   4.478
 2681SOL    HW2 8943   1.832   2.521   4.519
 2682SOL     OW 8944   4.913   4.461   3.217
 2682SOL    HW1 8945   4.934   4.467   3.119
 2682SOL    HW2 8946   4.819   4.430   3.229
 2683SOL     OW 8947   2.673   5.505   1.536
 2683SOL    HW1 8948   2.644   5.420   1.493
 2683SOL    HW2 8949   2.612   5.527   1.612
 2684SOL     OW 8950   4.855   5.562   1.677
 2684SOL    HW1 8951   4.820   5.482   1.628
 2684SOL    HW2 8952   4.782   5.629   1.687
 2685SOL     OW 8953   5.839   6.289   6.041
 2685SOL    HW1 8954   5.871   6.378   6.073
 2685SOL    HW2 8955   5.739   6.288   6.038
 2686SOL     OW 8956   1.894   1.654   5.546
 2686SOL    HW1 8957   1.865   1.631   5.453
 2686SOL    HW2 8958   1.870   1.580   5.609
 2687SOL     OW 8959   5.003   5.034   1.253
 2687SOL    HW1 8960   5.063   5.086   1.313
 2687SOL    HW2 8961   5.043   4.944   1.235
 2688SOL     OW 8962   3.535   4.176   0.345
 2688SOL    HW1 8963   3.527   4.105   0.275
 2688SOL    HW2 8964   3.632   4.197   0.360
 2689SOL     OW 8965   1.585   4.717   3.176
 2689SOL    HW1 8966   1.615   4.766   3.258
 2689SOL    HW2 8967   1.496   4.752   3.147
 2690SOL     OW 8968   3.646   2.971   4.470
 2690SOL    HW1 8969   3.711   2.994   4.543
 2690SOL    HW2 8970   3.554   2.965   4.508
 2691SOL     OW 8971   1.826   5.560   3.208
 2691SOL    HW1 8972   1.750   5.506   3.172
 2691SOL    HW2 8973   1.793   5.622   3.278
 2692SOL     OW 8974   3.127   5.961   2.569
 2692SOL    HW1 8975   3.134   6.001   2.478
 2692SOL    HW2 8976   3.170   6.023   2.636
 2693SOL     OW 8977   2.488   5.637   3.612
 2693SOL    HW1 8978   2.519   5.729   3.636
 2693SOL    HW2 8979   2.483   5.581   3.695
 2694SOL     OW 8980   3.402   5.858   2.834
 2694SOL    HW1 8981   3.348   5.776   2.815
 2694SOL    HW2 8982   3.499   5.836   2.828
 2695SOL     OW 8983   5.793   0.510   1.817
 2695SOL    HW1 8984   5.858   0.524   1.742
 2695SOL    HW2 8985   5.774   0.598   1.860
 2696SOL     OW 8986   3.795   3.357   5.848
 2696SOL    HW1 8987   3.879   3.408   5.834
 2696SOL    HW2 8988   3.717   3.419   5.840
 2697SOL     OW 8989   3.108   1.260   2.748
 2697SOL    HW1 8990   3.168   1.244   2.826
 2697SOL    HW2 8991   3.018   1.290   2.781
 2698SOL     OW 8992   1.772   5.765   0.427
 2698SOL    HW1 8993   1.774   5.837   0.497
 2698SOL    HW2 8994   1.775   5.676   0.471
 2699SOL     OW 8995   2.032   5.971   0.250
 2699SOL    HW1 8996   1.933   5.983   0.245
 2699SOL    HW2 8997   2.067   6.014   0.333
 2700SOL     OW 8998   2.587   3.409   0.209
 2700SOL    HW1 8999   2.487   3.413   0.207
 2700SOL    HW2 9000   2.619   3.348   0.136
 2701SOL     OW 9001   5.448   1.641   5.901
 2701SOL    HW1 9002   5.369   1.702   5.890
 2701SOL    HW2 9003   5.489   1.655   5.990
 2702SOL     OW 9004   0.931   3.039   3.136
 2702SOL    HW1 9005   1.023   3.023   3.171
 2702SOL    HW2 9006   0.867   3.045   3.214
 2703SOL     OW 9007   1.289   0.076   1.419
 2703SOL    HW1 9008   1.212   0.112   1.472
 2703SOL    HW2 9009   1.327   7.013   1.467
 2704SOL     OW 9010   6.855   5.443   1.563
 2704SOL    HW1 9011   6.765   5.487   1.562
 2704SOL    HW2 9012   6.895   5.446   1.472
 2705SOL     OW 9013   0.281   5.308   4.840
 2705SOL    HW1 9014   0.353   5.318   4.771
 2705SOL    HW2 9015   0.275   5.213   4.869
 2706SOL     OW 9016   6.498   5.283   2.097
 2706SOL    HW1 9017   6.484   5.194   2.141
 2706SOL    HW2 9018   6.483   5.356   2.164
 2707SOL     OW 9019   4.205   6.987   3.809
 2707SOL    HW1 9020   4.126   6.954   3.860
 2707SOL    HW2 9021   4.213   6.936   3.723
 2708SOL     OW 9022   0.482   2.952   0.470
 2708SOL    HW1 9023   0.550   3.017   0.436
 2708SOL    HW2 9024   0.513   2.859   0.452
 2709SOL     OW 9025   5.248   6.747   6.697
 2709SOL    HW1 9026   5.233   6.754   6.598
 2709SOL    HW2 9027   5.160   6.741   6.744
 2710SOL     OW 9028   0.530   3.716   4.045
 2710SOL    HW1 9029   0.577   3.697   4.131
 2710SOL    HW2 9030   0.595   3.713   3.970
 2711SOL     OW 9031   2.202   0.508   4.191
 2711SOL    HW1 9032   2.142   0.573   4.237
 2711SOL    HW2 9033   2.225   0.542   4.100
 2712SOL     OW 9034   2.936   4.469   1.463
 2712SOL    HW1 9035   2.847   4.443   1.499
 2712SOL    HW2 9036   2.994   4.388   1.456
 2713SOL     OW 9037   2.579   2.512   4.733
 2713SOL    HW1 9038   2.643   2.447   4.692
 2713SOL    HW2 9039   2.568   2.491   4.830
 2714SOL     OW 9040   3.678   2.648   0.576
 2714SOL    HW1 9041   3.728   2.708   0.513
 2714SOL    HW2 9042   3.581   2.648   0.551
 2715SOL     OW 9043   5.207   1.508   1.331
 2715SOL    HW1 9044   5.291   1.513   1.278
 2715SOL    HW2 9045   5.212   1.432   1.395
 2716SOL     OW 9046   5.169   3.923   2.241
 2716SOL    HW1 9047   5.184   4.003   2.182
 2716SOL    HW2 9048   5.152   3.842   2.184
 2717SOL     OW 9049   0.678   0.014   2.764
 2717SOL    HW1 9050   0.607   6.999   2.827
 2717SOL    HW2 9051   0.677   0.114   2.760
 2718SOL     OW 9052   1.420   1.795   4.856
 2718SOL    HW1 9053   1.376   1.794   4.946
 2718SOL    HW2 9054   1.411   1.704   4.814
 2719SOL     OW 9055   0.448   4.796   2.073
 2719SOL    HW1 9056   0.505   4.758   2.000
 2719SOL    HW2 9057   0.354   4.764   2.061
 2720SOL     OW 9058   2.045   5.688   2.002
 2720SOL    HW1 9059   1.948   5.698   1.981
 2720SOL    HW2 9060   2.081   5.608   1.954
 2721SOL     OW 9061   2.921   0.012   3.644
 2721SOL    HW1 9062   2.973   7.012   3.561
 2721SOL    HW2 9063   2.899   0.110   3.651
 2722SOL     OW 9064   0.192   5.001   0.596
 2722SOL    HW1 9065   0.230   5.085   0.636
 2722SOL    HW2 9066   0.094   5.013   0.582
 2723SOL     OW 9067   0.129   7.004   6.663
 2723SOL    HW1 9068   0.132   6.929   6.729
 2723SOL    HW2 9069   0.204   0.051   6.681
 2724SOL     OW 9070   2.178   6.597   0.060
 2724SOL    HW1 9071   2.265   6.589   0.109
 2724SOL    HW2 9072   2.127   6.512   0.071
 2725SOL     OW 9073   5.218   4.361   4.518
 2725SOL    HW1 9074   5.249   4.325   4.606
 2725SOL    HW2 9075   5.120   4.346   4.508
 2726SOL     OW 9076   0.426   2.194   0.801
 2726SOL    HW1 9077   0.340   2.148   0.777
 2726SOL    HW2 9078   0.468   2.147   0.879
 2727SOL     OW 9079   0.431   5.072   3.499
 2727SOL    HW1 9080   0.437   4.979   3.537
 2727SOL    HW2 9081   0.478   5.136   3.559
 2728SOL     OW 9082   4.483   6.546   5.829
 2728SOL    HW1 9083   4.563   6.587   5.784
 2728SOL    HW2 9084   4.456   6.604   5.906
 2729SOL     OW 9085   0.089   6.264   0.657
 2729SOL    HW1 9086   0.081   6.201   0.734
 2729SOL    HW2 9087   0.120   6.215   0.575
 2730SOL     OW 9088   1.804   5.925   1.694
 2730SOL    HW1 9089   1.822   5.959   1.787
 2730SOL    HW2 9090   1.749   5.992   1.644
 2731SOL     OW 9091   3.518   4.079   2.939
 2731SOL    HW1 9092   3.527   3.980   2.948
 2731SOL    HW2 9093   3.489   4.118   3.027
 2732SOL     OW 9094   5.273   3.010   1.680
 2732SOL    HW1 9095   5.264   3.084   1.746
 2732SOL    HW2 9096   5.235   2.926   1.719
 2733SOL     OW 9097   6.327   2.080   4.207
 2733SOL    HW1 9098   6.391   2.010   4.238
 2733SOL    HW2 9099   6.233   2.045   4.214
 2734SOL     OW 9100   2.995   5.814   1.074
 2734SOL    HW1 9101   3.056   5.743   1.040
 2734SOL    HW2 9102   3.040   5.865   1.148
 2735SOL     OW 9103   1.087   3.587   1.645
 2735SOL    HW1 9104   1.175   3.620   1.677
 2735SOL    HW2 9105   1.034   3.553   1.723
 2736SOL     OW 9106   6.023   6.355   4.936
 2736SOL    HW1 9107   6.056   6.278   4.882
 2736SOL    HW2 9108   5.938   6.389   4.896
 2737SOL     OW 9109   2.633   3.909   5.758
 2737SOL    HW1 9110   2.590   3.822   5.780
 2737SOL    HW2 9111   2.643   3.964   5.841
 2738SOL     OW 9112   4.866   6.533   1.714
 2738SOL    HW1 9113   4.786   6.538   1.774
 2738SOL    HW2 9114   4.843   6.479   1.633
 2739SOL     OW 9115   0.751   4.651   1.336
 2739SOL    HW1 9116   0.820   4.596   1.382
 2739SOL    HW2 9117   0.756   4.746   1.368
 2740SOL     OW 9118   0.024   3.731   2.670
 2740SOL    HW1 9119   0.078   3.808   2.636
 2740SOL    HW2 9120   6.947   3.763   2.690
 2741SOL     OW 9121   6.230   0.793   4.936
 2741SOL    HW1 9122   6.150   0.736   4.918
 2741SOL    HW2 9123   6.235   0.865   4.866
 2742SOL     OW 9124   2.070   4.926   0.592
 2742SOL    HW1 9125   2.099   4.859   0.524
 2742SOL    HW2 9126   1.976   4.954   0.573
 2743SOL     OW 9127   6.229   4.832   2.193
 2743SOL    HW1 9128   6.272   4.763   2.134
 2743SOL    HW2 9129   6.131   4.814   2.200
 2744SOL     OW 9130   4.671   2.308   0.137
 2744SOL    HW1 9131   4.721   2.260   0.065
 2744SOL    HW2 9132   4.590   2.352   0.098
 2745SOL     OW 9133   6.942   0.036   5.347
 2745SOL    HW1 9134   6.933   7.004   5.260
 2745SOL    HW2 9135   6.913   6.992   5.421
 2746SOL     OW 9136   2.082   1.445   4.430
 2746SOL    HW1 9137   2.148   1.520   4.427
 2746SOL    HW2 9138   2.016   1.461   4.503
 2747SOL     OW 9139   5.802   3.930   6.818
 2747SOL    HW1 9140   5.862   3.938   6.897
 2747SOL    HW2 9141   5.851   3.884   6.744
 2748SOL     OW 9142   4.978   1.293   1.800
 2748SOL    HW1 9143   5.056   1.242   1.765
 2748SOL    HW2 9144   4.958   1.370   1.740
 2749SOL     OW 9145   0.093   4.196   2.182
 2749SOL    HW1 9146   0.057   4.113   2.224
 2749SOL    HW2 9147   0.176   4.225   2.231
 2750SOL     OW 9148   0.917   4.669   1.115
 2750SOL    HW1 9149   0.833   4.668   1.170
 2750SOL    HW2 9150   0.909   4.739   1.044
 2751SOL     OW 9151   0.914   4.434   1.432
 2751SOL    HW1 9152   0.925   4.388   1.520
 2751SOL    HW2 9153   0.895   4.366   1.361
 2752SOL     OW 9154   4.083   5.263   5.701
 2752SOL    HW1 9155   4.125   5.296   5.785
 2752SOL    HW2 9156   4.004   5.320   5.679
 2753SOL     OW 9157   0.505   6.601   5.443
 2753SOL    HW1 9158   0.444   6.680   5.451
 2753SOL    HW2 9159   0.496   6.544   5.525
 2754SOL     OW 9160   0.562   0.439   1.832
 2754SOL    HW1 9161   0.505   0.358   1.846
 2754SOL    HW2 9162   0.532   0.487   1.749
 2755SOL     OW 9163   2.485   6.584   2.846
 2755SOL    HW1 9164   2.470   6.613   2.940
 2755SOL    HW2 9165   2.571   6.532   2.840
 2756SOL     OW 9166   5.684   5.256   6.385
 2756SOL    HW1 9167   5.767   5.203   6.403
 2756SOL    HW2 9168   5.619   5.199   6.335
 2757SOL     OW 9169   2.768   0.283   6.960
 2757SOL    HW1 9170   2.822   0.228   6.898
 2757SOL    HW2 9171   2.824   0.358   6.996
 2758SOL     OW 9172   3.810   6.536   3.862
 2758SOL    HW1 9173   3.881   6.581   3.808
 2758SOL    HW2 9174   3.721   6.555   3.821
 2759SOL     OW 9175   5.532   6.874   5.587
 2759SOL    HW1 9176   5.543   6.778   5.558
 2759SOL    HW2 9177   5.553   6.882   5.685
 2760SOL     OW 9178   0.680   6.030   2.008
 2760SOL    HW1 9179   0.721   6.077   1.930
 2760SOL    HW2 9180   0.592   5.991   1.981
 2761SOL     OW 9181   1.998   5.355   5.262
 2761SOL    HW1 9182   2.057   5.281   5.295
 2761SOL    HW2 9183   2.055   5.433   5.235
 2762SOL     OW 9184   1.192   0.909   4.993
 2762SOL    HW1 9185   1.242   0.959   4.922
 2762SOL    HW2 9186   1.131   0.843   4.951
 2763SOL     OW 9187   4.977   1.949   3.237
 2763SOL    HW1 9188   4.966   2.005   3.320
 2763SOL    HW2 9189   4.962   1.853   3.260
 2764SOL     OW 9190   6.022   0.526   1.630
 2764SOL    HW1 9191   6.065   0.558   1.545
 2764SOL    HW2 9192   6.025   0.426   1.633
 2765SOL     OW 9193   6.069   6.985   0.948
 2765SOL    HW1 9194   6.004   6.970   0.873
 2765SOL    HW2 9195   6.022   0.011   1.025
 2766SOL     OW 9196   4.906   2.900   0.766
 2766SOL    HW1 9197   4.838   2.860   0.827
 2766SOL    HW2 9198   4.987   2.927   0.818
 2767SOL     OW 9199   0.021   5.370   0.166
 2767SOL    HW1 9200   0.118   5.359   0.190
 2767SOL    HW2 9201   6.981   5.334   0.239
 2768SOL     OW 9202   4.164   0.658   1.170
 2768SOL    HW1 9203   4.104   0.723   1.217
 2768SOL    HW2 9204   4.112   0.575   1.149
 2769SOL     OW 9205   2.071   4.838   4.392
 2769SOL    HW1 9206   2.145   4.775   4.370
 2769SOL    HW2 9207   2.109   4.922   4.432
 2770SOL     OW 9208   4.163   6.208   6.337
 2770SOL    HW1 9209   4.202   6.124   6.297
 2770SOL    HW2 9210   4.128   6.266   6.264
 2771SOL     OW 9211   6.357   1.026   3.629
 2771SOL    HW1 9212   6.432   1.006   3.566
 2771SOL    HW2 9213   6.318   0.941   3.664
 2772SOL     OW 9214   3.917   1.922   0.762
 2772SOL    HW1 9215   3.961   2.004   0.725
 2772SOL    HW2 9216   3.984   1.848   0.768
 2773SOL     OW 9217   6.134   2.022   4.939
 2773SOL    HW1 9218   6.072   1.980   4.872
 2773SOL    HW2 9219   6.139   1.963   5.020
 2774SOL     OW 9220   5.781   3.082   2.498
 2774SOL    HW1 9221   5.816   3.009   2.439
 2774SOL    HW2 9222   5.717   3.139   2.446
 2775SOL     OW 9223   6.409   4.959   5.704
 2775SOL    HW1 9224   6.436   4.882   5.646
 2775SOL    HW2 9225   6.420   5.044   5.653
 2776SOL     OW 9226   4.396   4.604   5.757
 2776SOL    HW1 9227   4.319   4.563   5.709
 2776SOL    HW2 9228   4.436   4.677   5.701
 2777SOL     OW 9229   3.015   1.824   1.727
 2777SOL    HW1 9230   3.076   1.806   1.650
 2777SOL    HW2 9231   3.024   1.919   1.756
 2778SOL     OW 9232   1.750   0.249   5.560
 2778SOL    HW1 9233   1.756   0.241   5.659
 2778SOL    HW2 9234   1.831   0.297   5.525
 2779SOL     OW 9235   4.679   6.525   1.321
 2779SOL    HW1 9236   4.587   6.521   1.282
 2779SOL    HW2 9237   4.726   6.606   1.287
 2780SOL     OW 9238   6.425   6.769   6.976
 2780SOL    HW1 9239   6.421   6.796   6.880
 2780SOL    HW2 9240   6.435   6.669   6.982
 2781SOL     OW 9241   5.398   6.558   1.583
 2781SOL    HW1 9242   5.360   6.554   1.491
 2781SOL    HW2 9243   5.345   6.621   1.640
 2782SOL     OW 9244   4.589   2.226   6.054
 2782SOL    HW1 9245   4.543   2.249   6.140
 2782SOL    HW2 9246   4.533   2.161   6.002
 2783SOL     OW 9247   5.067   4.470   2.980
 2783SOL    HW1 9248   5.072   4.396   2.914
 2783SOL    HW2 9249   5.148   4.469   3.038
 2784SOL     OW 9250   3.281   1.695   2.325
 2784SOL    HW1 9251   3.265   1.596   2.319
 2784SOL    HW2 9252   3.199   1.739   2.361
 2785SOL     OW 9253   5.074   2.481   0.718
 2785SOL    HW1 9254   4.984   2.484   0.676
 2785SOL    HW2 9255   5.067   2.437   0.808
 2786SOL     OW 9256   5.368   0.140   3.021
 2786SOL    HW1 9257   5.377   0.135   2.921
 2786SOL    HW2 9258   5.277   0.109   3.047
 2787SOL     OW 9259   4.929   0.788   5.946
 2787SOL    HW1 9260   5.001   0.804   5.879
 2787SOL    HW2 9261   4.968   0.746   6.028
 2788SOL     OW 9262   2.171   4.907   5.954
 2788SOL    HW1 9263   2.189   4.962   5.872
 2788SOL    HW2 9264   2.182   4.963   6.036
 2789SOL     OW 9265   1.617   2.632   3.677
 2789SOL    HW1 9266   1.621   2.580   3.592
 2789SOL    HW2 9267   1.563   2.715   3.662
 2790SOL     OW 9268   3.451   5.906   2.406
 2790SOL    HW1 9269   3.474   5.850   2.486
 2790SOL    HW2 9270   3.384   5.857   2.350
 2791SOL     OW 9271   0.186   3.175   3.437
 2791SOL    HW1 9272   0.145   3.145   3.523
 2791SOL    HW2 9273   0.121   3.160   3.362
 2792SOL     OW 9274   1.646   6.814   4.188
 2792SOL    HW1 9275   1.707   6.890   4.210
 2792SOL    HW2 9276   1.589   6.838   4.109
 2793SOL     OW 9277   5.730   4.099   1.367
 2793SOL    HW1 9278   5.810   4.158   1.350
 2793SOL    HW2 9279   5.746   4.009   1.327
 2794SOL     OW 9280   0.006   2.572   6.446
 2794SOL    HW1 9281   0.095   2.549   6.486
 2794SOL    HW2 9282   0.018   2.645   6.378
 2795SOL     OW 9283   0.823   3.058   0.289
 2795SOL    HW1 9284   0.917   3.026   0.301
 2795SOL    HW2 9285   0.781   3.072   0.379
 2796SOL     OW 9286   0.104   6.417   3.743
 2796SOL    HW1 9287   0.006   6.430   3.763
 2796SOL    HW2 9288   0.135   6.332   3.786
 2797SOL     OW 9289   5.014   5.332   4.644
 2797SOL    HW1 9290   5.030   5.261   4.712
 2797SOL    HW2 9291   4.915   5.351   4.638
 2798SOL     OW 9292   0.513   5.659   1.927
 2798SOL    HW1 9293   0.506   5.628   2.021
 2798SOL    HW2 9294   0.447   5.610   1.870
 2799SOL     OW 9295   6.034   5.217   6.528
 2799SOL    HW1 9296   6.019   5.315   6.533
 2799SOL    HW2 9297   6.123   5.199   6.486
 2800SOL     OW 9298   4.526   6.292   0.238
 2800SOL    HW1 9299   4.448   6.305   0.176
 2800SOL    HW2 9300   4.506   6.332   0.327
 2801SOL     OW 9301   6.797   5.772   5.877
 2801SOL    HW1 9302   6.824   5.703   5.810
 2801SOL    HW2 9303   6.740   5.730   5.947
 2802SOL     OW 9304   5.055   0.756   5.069
 2802SOL    HW1 9305   5.029   0.849   5.041
 2802SOL    HW2 9306   5.044   0.693   4.992
 2803SOL     OW 9307   4.301   5.656   6.282
 2803SOL    HW1 9308   4.378   5.595   6.304
 2803SOL    HW2 9309   4.247   5.616   6.208
 2804SOL     OW 9310   0.419   4.607   5.283
 2804SOL    HW1 9311   0.379   4.659   5.208
 2804SOL    HW2 9312   0.470   4.529   5.245
 2805SOL     OW 9313   6.141   2.933   1.929
 2805SOL    HW1 9314   6.156   3.010   1.867
 2805SOL    HW2 9315   6.093   2.964   2.011
 2806SOL     OW 9316   0.384   3.807   6.392
 2806SOL    HW1 9317   0.367   3.903   6.415
 2806SOL    HW2 9318   0.350   3.788   6.300
 2807SOL     OW 9319   3.875   6.571   4.120
 2807SOL    HW1 9320   3.819   6.529   4.192
 2807SOL    HW2 9321   3.845   6.537   4.031
 2808SOL     OW 9322   6.294   4.634   1.900
 2808SOL    HW1 9323   6.308   4.592   1.811
 2808SOL    HW2 9324   6.286   4.562   1.970
 2809SOL     OW 9325   5.564   2.855   1.155
 2809SOL    HW1 9326   5.477   2.900   1.136
 2809SOL    HW2 9327   5.553   2.756   1.146
 2810SOL     OW 9328   3.361   5.249   3.773
 2810SOL    HW1 9329   3.433   5.310   3.804
 2810SOL    HW2 9330   3.272   5.284   3.802
 2811SOL     OW 9331   1.071   2.186   3.220
 2811SOL    HW1 9332   1.059   2.285   3.211
 2811SOL    HW2 9333   1.167   2.166   3.237
 2812SOL     OW 9334   5.476   3.179   6.703
 2812SOL    HW1 9335   5.545   3.247   6.675
 2812SOL    HW2 9336   5.523   3.096   6.732
 2813SOL     OW 9337   0.583   0.359   6.848
 2813SOL    HW1 9338   0.639   0.439   6.871
 2813SOL    HW2 9339   0.498   0.362   6.900
 2814SOL     OW 9340   3.853   3.595   5.341
 2814SOL    HW1 9341   3.856   3.663   5.268
 2814SOL    HW2 9342   3.760   3.587   5.376
 2815SOL     OW 9343   6.564   6.792   6.041
 2815SOL    HW1 9344   6.533   6.814   5.949
 2815SOL    HW2 9345   6.644   6.848   6.064
 2816SOL     OW 9346   6.132   5.152   3.343
 2816SOL    HW1 9347   6.221   5.167   3.385
 2816SOL    HW2 9348   6.075   5.097   3.404
 2817SOL     OW 9349   3.433   6.792   1.895
 2817SOL    HW1 9350   3.420   6.803   1.993
 2817SOL    HW2 9351   3.349   6.755   1.854
 2818SOL     OW 9352   0.332   0.472   1.526
 2818SOL    HW1 9353   0.348   0.401   1.457
 2818SOL    HW2 9354   0.412   0.532   1.532
 2819SOL     OW 9355   0.520   0.857   1.640
 2819SOL    HW1 9356   0.553   0.916   1.713
 2819SOL    HW2 9357   0.422   0.868   1.630
 2820SOL     OW 9358   0.766   2.617   2.964
 2820SOL    HW1 9359   0.717   2.685   2.909
 2820SOL    HW2 9360   0.708   2.536   2.976
 2821SOL     OW 9361   4.063   4.204   6.315
 2821SOL    HW1 9362   4.122   4.268   6.266
 2821SOL    HW2 9363   3.994   4.168   6.252
 2822SOL     OW 9364   4.003   2.147   0.648
 2822SOL    HW1 9365   4.025   2.233   0.695
 2822SOL    HW2 9366   4.076   2.123   0.585
 2823SOL     OW 9367   4.631   0.912   0.812
 2823SOL    HW1 9368   4.650   0.964   0.896
 2823SOL    HW2 9369   4.714   0.864   0.783
 2824SOL     OW 9370   1.912   1.941   3.484
 2824SOL    HW1 9371   1.866   1.853   3.490
 2824SOL    HW2 9372   1.920   1.981   3.575
 2825SOL     OW 9373   5.498   6.607   6.626
 2825SOL    HW1 9374   5.407   6.646   6.634
 2825SOL    HW2 9375   5.566   6.681   6.627
 2826SOL     OW 9376   4.783   0.896   0.013
 2826SOL    HW1 9377   4.842   0.824   6.995
 2826SOL    HW2 9378   4.798   0.908   0.111
 2827SOL     OW 9379   0.909   1.519   5.943
 2827SOL    HW1 9380   0.859   1.601   5.969
 2827SOL    HW2 9381   1.000   1.521   5.984
 2828SOL     OW 9382   2.404   1.636   0.352
 2828SOL    HW1 9383   2.355   1.715   0.390
 2828SOL    HW2 9384   2.502   1.646   0.371
 2829SOL     OW 9385   2.917   3.526   5.112
 2829SOL    HW1 9386   2.857   3.503   5.036
 2829SOL    HW2 9387   3.005   3.480   5.101
 2830SOL     OW 9388   1.998   3.191   5.852
 2830SOL    HW1 9389   1.936   3.247   5.907
 2830SOL    HW2 9390   1.990   3.218   5.756
 2831SOL     OW 9391   0.722   4.461   3.701
 2831SOL    HW1 9392   0.734   4.368   3.734
 2831SOL    HW2 9393   0.812   4.503   3.687
 2832SOL     OW 9394   0.842   3.345   2.190
 2832SOL    HW1 9395   0.822   3.349   2.288
 2832SOL    HW2 9396   0.764   3.308   2.140
 2833SOL     OW 9397   2.885   1.863   2.243
 2833SOL    HW1 9398   2.856   1.900   2.154
 2833SOL    HW2 9399   2.920   1.770   2.230
 2834SOL     OW 9400   4.106   5.824   5.909
 2834SOL    HW1 9401   4.108   5.747   5.972
 2834SOL    HW2 9402   4.196   5.833   5.865
 2835SOL     OW 9403   0.833   6.331   1.884
 2835SOL    HW1 9404   0.738   6.359   1.869
 2835SOL    HW2 9405   0.868   6.289   1.800
 2836SOL     OW 9406   0.183   6.939   2.355
 2836SOL    HW1 9407   0.133   6.853   2.339
 2836SOL    HW2 9408   0.139   7.013   2.303
 2837SOL     OW 9409   4.456   5.101   2.597
 2837SOL    HW1 9410   4.420   5.028   2.654
 2837SOL    HW2 9411   4.408   5.102   2.509
 2838SOL     OW 9412   3.436   3.933   1.007
 2838SOL    HW1 9413   3.445   3.838   1.036
 2838SOL    HW2 9414   3.450   3.940   0.908
 2839SOL     OW 9415   6.681   2.643   3.100
 2839SOL    HW1 9416   6.705   2.546   3.094
 2839SOL    HW2 9417   6.734   2.685   3.174
 2840SOL     OW 9418   1.265   0.353   3.236
 2840SOL    HW1 9419   1.275   0.266   3.284
 2840SOL    HW2 9420   1.297   0.427   3.296
 2841SOL     OW 9421   0.144   1.133   6.276
 2841SOL    HW1 9422   0.238   1.100   6.282
 2841SOL    HW2 9423   0.144   1.233   6.274
 2842SOL     OW 9424   0.442   3.907   3.772
 2842SOL    HW1 9425   0.538   3.880   3.761
 2842SOL    HW2 9426   0.417   3.901   3.869
 2843SOL     OW 9427   2.449   2.579   2.541
 2843SOL    HW1 9428   2.355   2.547   2.545
 2843SOL    HW2 9429   2.455   2.656   2.478
 2844SOL     OW 9430   6.930   5.311   6.916
 2844SOL    HW1 9431   6.896   5.385   6.859
 2844SOL    HW2 9432   6.973   5.349   6.998
 2845SOL     OW 9433   5.765   3.434   1.699
 2845SOL    HW1 9434   5.785   3.349   1.651
 2845SOL    HW2 9435   5.848   3.467   1.745
 2846SOL     OW 9436   4.210   1.095   0.314
 2846SOL    HW1 9437   4.118   1.056   0.318
 2846SOL    HW2 9438   4.209   1.189   0.346
 2847SOL     OW 9439   5.211   3.843   3.188
 2847SOL    HW1 9440   5.176   3.791   3.111
 2847SOL    HW2 9441   5.206   3.941   3.167
 2848SOL     OW 9442   2.034   2.590   5.225
 2848SOL    HW1 9443   2.107   2.555   5.284
 2848SOL    HW2 9444   2.062   2.679   5.188
 2849SOL     OW 9445   4.226   0.038   0.716
 2849SOL    HW1 9446   4.133   0.006   0.699
 2849SOL    HW2 9447   4.286   0.003   0.644
 2850SOL     OW 9448   1.756   0.289   2.731
 2850SOL    HW1 9449   1.816   0.366   2.708
 2850SOL    HW2 9450   1.802   0.203   2.709
 2851SOL     OW 9451   5.846   1.773   5.908
 2851SOL    HW1 9452   5.915   1.705   5.931
 2851SOL    HW2 9453   5.772   1.769   5.975
 2852SOL     OW 9454   6.185   3.702   6.823
 2852SOL    HW1 9455   6.111   3.710   6.890
 2852SOL    HW2 9456   6.164   3.629   6.759
 2853SOL     OW 9457   1.750   1.121   6.953
 2853SOL    HW1 9458   1.804   1.176   6.889
 2853SOL    HW2 9459   1.654   1.149   6.948
 2854SOL     OW 9460   4.724   0.650   5.274
 2854SOL    HW1 9461   4.697   0.694   5.360
 2854SOL    HW2 9462   4.644   0.641   5.215
 2855SOL     OW 9463   2.135   1.851   6.080
 2855SOL    HW1 9464   2.175   1.811   6.162
 2855SOL    HW2 9465   2.178   1.811   5.999
 2856SOL     OW 9466   0.303   3.325   5.701
 2856SOL    HW1 9467   0.373   3.359   5.639
 2856SOL    HW2 9468   0.319   3.362   5.793
 2857SOL     OW 9469   1.986   3.121   2.097
 2857SOL    HW1 9470   1.959   3.060   2.171
 2857SOL    HW2 9471   2.062   3.080   2.046
 2858SOL     OW 9472   4.822   4.181   2.077
 2858SOL    HW1 9473   4.732   4.202   2.037
 2858SOL    HW2 9474   4.846   4.253   2.143
 2859SOL     OW 9475   5.619   0.516   6.704
 2859SOL    HW1 9476   5.709   0.490   6.739
 2859SOL    HW2 9477   5.550   0.451   6.735
 2860SOL     OW 9478   2.276   2.184   1.895
 2860SOL    HW1 9479   2.333   2.147   1.822
 2860SOL    HW2 9480   2.329   2.190   1.979
 2861SOL     OW 9481   3.731   4.927   5.870
 2861SOL    HW1 9482   3.692   4.841   5.902
 2861SOL    HW2 9483   3.663   4.999   5.876
 2862SOL     OW 9484   5.140   1.874   2.230
 2862SOL    HW1 9485   5.074   1.923   2.173
 2862SOL    HW2 9486   5.124   1.776   2.223
 2863SOL     OW 9487   4.467   1.396   6.874
 2863SOL    HW1 9488   4.442   1.452   6.794
 2863SOL    HW2 9489   4.552   1.347   6.854
 2864SOL     OW 9490   4.004   1.564   1.997
 2864SOL    HW1 9491   3.924   1.560   1.937
 2864SOL    HW2 9492   3.980   1.526   2.087
 2865SOL     OW 9493   3.782   6.099   6.159
 2865SOL    HW1 9494   3.802   6.075   6.254
 2865SOL    HW2 9495   3.684   6.090   6.142
 2866SOL     OW 9496   6.837   5.509   6.784
 2866SOL    HW1 9497   6.763   5.541   6.844
 2866SOL    HW2 9498   6.897   5.585   6.762
 2867SOL     OW 9499   0.017   5.986   3.526
 2867SOL    HW1 9500   0.007   5.889   3.504
 2867SOL    HW2 9501   0.109   6.017   3.501
 2868SOL     OW 9502   1.509   1.008   5.403
 2868SOL    HW1 9503   1.434   0.949   5.430
 2868SOL    HW2 9504   1.474   1.084   5.347
 2869SOL     OW 9505   6.743   1.624   3.443
 2869SOL    HW1 9506   6.785   1.646   3.532
 2869SOL    HW2 9507   6.660   1.679   3.431
 2870SOL     OW 9508   0.540   1.386   5.008
 2870SOL    HW1 9509   0.508   1.342   5.092
 2870SOL    HW2 9510   0.622   1.339   4.975
 2871SOL     OW 9511   0.196   1.425   6.290
 2871SOL    HW1 9512   0.294   1.431   6.309
 2871SOL    HW2 9513   0.164   1.509   6.247
 2872SOL     OW 9514   2.342   2.469   1.901
 2872SOL    HW1 9515   2.340   2.374   1.930
 2872SOL    HW2 9516   2.350   2.528   1.981
 2873SOL     OW 9517   6.605   5.592   2.653
 2873SOL    HW1 9518   6.634   5.684   2.627
 2873SOL    HW2 9519   6.677   5.548   2.706
 2874SOL     OW 9520   4.981   6.933   3.406
 2874SOL    HW1 9521   4.923   6.879   3.467
 2874SOL    HW2 9522   4.984   0.012   3.438
 2875SOL     OW 9523   5.327   0.674   1.081
 2875SOL    HW1 9524   5.241   0.723   1.092
 2875SOL    HW2 9525   5.331   0.598   1.146
 2876SOL     OW 9526   1.864   0.085   2.589
 2876SOL    HW1 9527   1.835   0.156   2.525
 2876SOL    HW2 9528   1.935   0.029   2.546
 2877SOL     OW 9529   2.565   1.812   5.883
 2877SOL    HW1 9530   2.547   1.788   5.978
 2877SOL    HW2 9531   2.623   1.894   5.880
 2878SOL     OW 9532   3.686   4.439   5.426
 2878SOL    HW1 9533   3.697   4.382   5.344
 2878SOL    HW2 9534   3.600   4.491   5.420
 2879SOL     OW 9535   5.389   5.263   0.049
 2879SOL    HW1 9536   5.472   5.237   0.000
 2879SOL    HW2 9537   5.331   5.183   0.061
 2880SOL     OW 9538   6.939   0.842   1.944
 2880SOL    HW1 9539   6.912   0.819   1.851
 2880SOL    HW2 9540   6.858   0.859   2.000
 2881SOL     OW 9541   4.912   5.809   6.254
 2881SOL    HW1 9542   4.818   5.784   6.230
 2881SOL    HW2 9543   4.911   5.892   6.310
 2882SOL     OW 9544   6.864   5.631   2.414
 2882SOL    HW1 9545   6.792   5.577   2.371
 2882SOL    HW2 9546   6.933   5.569   2.454
 2883SOL     OW 9547   6.024   0.204   3.134
 2883SOL    HW1 9548   6.113   0.159   3.146
 2883SOL    HW2 9549   5.977   0.163   3.056
 2884SOL     OW 9550   1.153   0.073   2.563
 2884SOL    HW1 9551   1.113   0.155   2.521
 2884SOL    HW2 9552   1.135   0.075   2.662
 2885SOL     OW 9553   1.368   3.828   3.565
 2885SOL    HW1 9554   1.303   3.884   3.512
 2885SOL    HW2 9555   1.453   3.878   3.578
 2886SOL     OW 9556   1.158   3.992   6.002
 2886SOL    HW1 9557   1.119   3.962   6.089
 2886SOL    HW2 9558   1.256   3.972   6.001
 2887SOL     OW 9559   0.623   0.833   5.787
 2887SOL    HW1 9560   0.676   0.916   5.805
 2887SOL    HW2 9561   0.525   0.856   5.786
 2888SOL     OW 9562   0.111   4.387   6.578
 2888SOL    HW1 9563   0.160   4.428   6.501
 2888SOL    HW2 9564   0.014   4.411   6.573
 2889SOL     OW 9565   2.843   6.113   2.589
 2889SOL    HW1 9566   2.771   6.083   2.526
 2889SOL    HW2 9567   2.920   6.049   2.584
 2890SOL     OW 9568   1.479   6.191   0.204
 2890SOL    HW1 9569   1.563   6.240   0.226
 2890SOL    HW2 9570   1.400   6.248   0.228
 2891SOL     OW 9571   0.886   4.926   3.592
 2891SOL    HW1 9572   0.973   4.933   3.542
 2891SOL    HW2 9573   0.819   4.989   3.553
 2892SOL     OW 9574   5.618   3.508   0.549
 2892SOL    HW1 9575   5.663   3.448   0.615
 2892SOL    HW2 9576   5.659   3.599   0.552
 2893SOL     OW 9577   6.865   5.273   4.661
 2893SOL    HW1 9578   6.791   5.283   4.594
 2893SOL    HW2 9579   6.936   5.213   4.624
 2894SOL     OW 9580   1.096   3.824   2.418
 2894SOL    HW1 9581   1.103   3.901   2.481
 2894SOL    HW2 9582   1.175   3.765   2.428
 2895SOL     OW 9583   5.064   2.711   5.525
 2895SOL    HW1 9584   5.135   2.641   5.515
 2895SOL    HW2 9585   5.105   2.802   5.519
 2896SOL     OW 9586   4.779   5.527   5.476
 2896SOL    HW1 9587   4.753   5.478   5.559
 2896SOL    HW2 9588   4.876   5.510   5.457
 2897SOL     OW 9589   3.962   5.063   3.540
 2897SOL    HW1 9590   3.987   5.092   3.633
 2897SOL    HW2 9591   3.973   4.964   3.533
 2898SOL     OW 9592   4.477   4.630   4.521
 2898SOL    HW1 9593   4.515   4.721   4.504
 2898SOL    HW2 9594   4.424   4.632   4.606
 2899SOL     OW 9595   1.084   1.658   0.089
 2899SOL    HW1 9596   1.138   1.669   0.005
 2899SOL    HW2 9597   1.089   1.563   0.119
 2900SOL     OW 9598   1.671   3.300   5.949
 2900SOL    HW1 9599   1.633   3.337   5.864
 2900SOL    HW2 9600   1.760   3.341   5.967
 2901SOL     OW 9601   3.339   5.423   3.169
 2901SOL    HW1 9602   3.309   5.517   3.152
 2901SOL    HW2 9603   3.310   5.364   3.094
 2902SOL     OW 9604   5.500   6.016   3.074
 2902SOL    HW1 9605   5.584   6.066   3.094
 2902SOL    HW2 9606   5.474   6.031   2.979
 2903SOL     OW 9607   3.068   0.386   0.731
 2903SOL    HW1 9608   3.021   0.470   0.759
 2903SOL    HW2 9609   3.001   0.319   0.700
 2904SOL     OW 9610   2.385   4.429   4.287
 2904SOL    HW1 9611   2.433   4.400   4.370
 2904SOL    HW2 9612   2.330   4.353   4.251
 2905SOL     OW 9613   1.399   2.224   4.771
 2905SOL    HW1 9614   1.311   2.246   4.812
 2905SOL    HW2 9615   1.472   2.235   4.839
 2906SOL     OW 9616   4.210   5.438   2.069
 2906SOL    HW1 9617   4.227   5.382   1.988
 2906SOL    HW2 9618   4.170   5.526   2.040
 2907SOL     OW 9619   0.837   0.970   3.147
 2907SOL    HW1 9620   0.783   1.021   3.079
 2907SOL    HW2 9621   0.844   1.023   3.231
 2908SOL     OW 9622   5.287   6.491   3.227
 2908SOL    HW1 9623   5.240   6.579   3.229
 2908SOL    HW2 9624   5.337   6.477   3.313
 2909SOL     OW 9625   1.745   5.656   3.887
 2909SOL    HW1 9626   1.688   5.665   3.969
 2909SOL    HW2 9627   1.837   5.690   3.907
 2910SOL     OW 9628   4.861   0.700   4.470
 2910SOL    HW1 9629   4.878   0.757   4.390
 2910SOL    HW2 9630   4.777   0.647   4.456
 2911SOL     OW 9631   1.073   5.731   3.438
 2911SOL    HW1 9632   1.104   5.637   3.425
 2911SOL    HW2 9633   0.974   5.736   3.424
 2912SOL     OW 9634   5.281   0.100   6.360
 2912SOL    HW1 9635   5.264   0.197   6.341
 2912SOL    HW2 9636   5.306   0.053   6.276
 2913SOL     OW 9637   3.088   5.017   2.636
 2913SOL    HW1 9638   3.022   4.943   2.652
 2913SOL    HW2 9639   3.057   5.071   2.557
 2914SOL     OW 9640   6.455   6.085   6.505
 2914SOL    HW1 9641   6.474   6.125   6.416
 2914SOL    HW2 9642   6.540   6.046   6.543
 2915SOL     OW 9643   4.623   1.728   3.771
 2915SOL    HW1 9644   4.612   1.639   3.815
 2915SOL    HW2 9645   4.615   1.717   3.672
 2916SOL     OW 9646   0.859   6.571   0.845
 2916SOL    HW1 9647   0.800   6.495   0.872
 2916SOL    HW2 9648   0.922   6.592   0.921
 2917SOL     OW 9649   2.686   0.361   3.376
 2917SOL    HW1 9650   2.600   0.321   3.343
 2917SOL    HW2 9651   2.747   0.377   3.299
 2918SOL     OW 9652   6.118   4.747   5.032
 2918SOL    HW1 9653   6.065   4.705   5.105
 2918SOL    HW2 9654   6.170   4.825   5.069
 2919SOL     OW 9655   6.140   0.960   2.551
 2919SOL    HW1 9656   6.225   0.938   2.598
 2919SOL    HW2 9657   6.098   0.876   2.517
 2920SOL     OW 9658   2.954   1.592   1.329
 2920SOL    HW1 9659   3.035   1.592   1.388
 2920SOL    HW2 9660   2.885   1.531   1.367
 2921SOL     OW 9661   0.606   0.353   4.547
 2921SOL    HW1 9662   0.629   0.294   4.624
 2921SOL    HW2 9663   0.511   0.338   4.520
 2922SOL     OW 9664   4.643   1.027   1.057
 2922SOL    HW1 9665   4.723   1.086   1.065
 2922SOL    HW2 9666   4.561   1.083   1.049
 2923SOL     OW 9667   6.221   5.122   2.364
 2923SOL    HW1 9668   6.318   5.144   2.370
 2923SOL    HW2 9669   6.190   5.086   2.452
 2924SOL     OW 9670   6.784   2.194   5.834
 2924SOL    HW1 9671   6.813   2.098   5.826
 2924SOL    HW2 9672   6.865   2.252   5.840
 2925SOL     OW 9673   4.946   0.722   2.285
 2925SOL    HW1 9674   5.015   0.792   2.268
 2925SOL    HW2 9675   4.882   0.717   2.208
 2926SOL     OW 9676   0.156   1.972   4.113
 2926SOL    HW1 9677   0.229   2.009   4.171
 2926SOL    HW2 9678   0.192   1.895   4.060
 2927SOL     OW 9679   1.294   3.667   0.939
 2927SOL    HW1 9680   1.358   3.726   0.889
 2927SOL    HW2 9681   1.341   3.583   0.967
 2928SOL     OW 9682   6.973   1.467   6.446
 2928SOL    HW1 9683   0.057   1.459   6.451
 2928SOL    HW2 9684   6.944   1.450   6.352
 2929SOL     OW 9685   0.328   2.378   0.083
 2929SOL    HW1 9686   0.301   2.459   0.031
 2929SOL    HW2 9687   0.255   2.354   0.147
 2930SOL     OW 9688   4.785   0.447   4.789
 2930SOL    HW1 9689   4.767   0.369   4.849
 2930SOL    HW2 9690   4.863   0.500   4.825
 2931SOL     OW 9691   5.450   4.942   6.851
 2931SOL    HW1 9692   5.534   4.927   6.903
 2931SOL    HW2 9693   5.372   4.945   6.914
 2932SOL     OW 9694   0.789   5.433   1.875
 2932SOL    HW1 9695   0.867   5.479   1.917
 2932SOL    HW2 9696   0.746   5.493   1.808
 2933SOL     OW 9697   0.072   5.395   3.383
 2933SOL    HW1 9698   0.055   5.436   3.473
 2933SOL    HW2 9699   0.152   5.335   3.389
 2934SOL     OW 9700   4.491   1.522   0.347
 2934SOL    HW1 9701   4.401   1.546   0.312
 2934SOL    HW2 9702   4.536   1.459   0.284
 2935SOL     OW 9703   6.298   3.345   6.781
 2935SOL    HW1 9704   6.219   3.332   6.840
 2935SOL    HW2 9705   6.269   3.384   6.694
 2936SOL     OW 9706   3.891   6.718   0.687
 2936SOL    HW1 9707   3.794   6.716   0.714
 2936SOL    HW2 9708   3.930   6.627   0.697
 2937SOL     OW 9709   5.257   4.613   0.642
 2937SOL    HW1 9710   5.243   4.590   0.545
 2937SOL    HW2 9711   5.204   4.550   0.699
 2938SOL     OW 9712   4.713   4.749   6.272
 2938SOL    HW1 9713   4.698   4.845   6.246
 2938SOL    HW2 9714   4.809   4.725   6.258
 2939SOL     OW 9715   1.749   0.989   2.904
 2939SOL    HW1 9716   1.712   0.903   2.938
 2939SOL    HW2 9717   1.749   0.989   2.804
 2940SOL     OW 9718   5.314   5.111   5.802
 2940SOL    HW1 9719   5.249   5.037   5.822
 2940SOL    HW2 9720   5.296   5.188   5.862
 2941SOL     OW 9721   1.976   1.792   4.426
 2941SOL    HW1 9722   2.043   1.780   4.500
 2941SOL    HW2 9723   1.999   1.872   4.372
 2942SOL     OW 9724   2.705   2.210   0.363
 2942SOL    HW1 9725   2.676   2.286   0.421
 2942SOL    HW2 9726   2.664   2.125   0.397
 2943SOL     OW 9727   4.703   4.374   3.496
 2943SOL    HW1 9728   4.688   4.335   3.406
 2943SOL    HW2 9729   4.620   4.422   3.526
 2944SOL     OW 9730   3.020   6.049   4.565
 2944SOL    HW1 9731   3.114   6.017   4.557
 2944SOL    HW2 9732   3.020   6.143   4.598
 2945SOL     OW 9733   3.067   4.017   3.598
 2945SOL    HW1 9734   3.156   4.062   3.606
 2945SOL    HW2 9735   2.997   4.075   3.638
 2946SOL     OW 9736   0.954   4.537   6.107
 2946SOL    HW1 9737   1.032   4.487   6.147
 2946SOL    HW2 9738   0.893   4.568   6.180
 2947SOL     OW 9739   0.075   3.473   0.973
 2947SOL    HW1 9740   0.104   3.468   1.068
 2947SOL    HW2 9741   0.001   3.409   0.956
 2948SOL     OW 9742   0.563   4.320   5.486
 2948SOL    HW1 9743   0.662   4.312   5.472
 2948SOL    HW2 9744   0.542   4.303   5.583
 2949SOL     OW 9745   2.548   5.327   0.755
 2949SOL    HW1 9746   2.505   5.325   0.846
 2949SOL    HW2 9747   2.481   5.356   0.687
 2950SOL     OW 9748   5.276   4.652   4.468
 2950SOL    HW1 9749   5.272   4.590   4.546
 2950SOL    HW2 9750   5.187   4.696   4.455
 2951SOL     OW 9751   6.180   0.648   0.548
 2951SOL    HW1 9752   6.265   0.642   0.495
 2951SOL    HW2 9753   6.200   0.637   0.645
 2952SOL     OW 9754   6.780   4.522   5.468
 2952SOL    HW1 9755   6.778   4.557   5.561
 2952SOL    HW2 9756   6.783   4.598   5.403
 2953SOL     OW 9757   4.964   3.180   2.110
 2953SOL    HW1 9758   4.894   3.136   2.054
 2953SOL    HW2 9759   4.939   3.276   2.126
 2954SOL     OW 9760   0.881   5.769   1.898
 2954SOL    HW1 9761   0.811   5.840   1.891
 2954SOL    HW2 9762   0.870   5.704   1.822
 2955SOL     OW 9763   0.772   4.023   2.157
 2955SOL    HW1 9764   0.777   3.950   2.089
 2955SOL    HW2 9765   0.787   4.111   2.112
 2956SOL     OW 9766   5.318   6.009   3.276
 2956SOL    HW1 9767   5.324   5.916   3.312
 2956SOL    HW2 9768   5.398   6.027   3.218
 2957SOL     OW 9769   6.010   3.521   1.823
 2957SOL    HW1 9770   6.005   3.509   1.922
 2957SOL    HW2 9771   6.094   3.479   1.789
 2958SOL     OW 9772   2.752   4.727   4.098
 2958SOL    HW1 9773   2.734   4.763   4.190
 2958SOL    HW2 9774   2.675   4.670   4.070
 2959SOL     OW 9775   4.716   4.216   0.310
 2959SOL    HW1 9776   4.724   4.285   0.381
 2959SOL    HW2 9777   4.633   4.161   0.325
 2960SOL     OW 9778   3.316   0.903   6.616
 2960SOL    HW1 9779   3.294   0.968   6.689
 2960SOL    HW2 9780   3.391   0.843   6.646
 2961SOL     OW 9781   5.181   3.609   2.516
 2961SOL    HW1 9782   5.086   3.630   2.494
 2961SOL    HW2 9783   5.184   3.534   2.583
 2962SOL     OW 9784   5.105   6.848   2.868
 2962SOL    HW1 9785   5.055   6.910   2.929
 2962SOL    HW2 9786   5.066   6.756   2.874
 2963SOL     OW 9787   2.258   0.724   5.975
 2963SOL    HW1 9788   2.166   0.752   6.001
 2963SOL    HW2 9789   2.292   0.657   6.041
 2964SOL     OW 9790   0.431   0.209   3.346
 2964SOL    HW1 9791   0.460   0.258   3.428
 2964SOL    HW2 9792   0.480   0.122   3.340
 2965SOL     OW 9793   0.079   1.460   4.024
 2965SOL    HW1 9794   7.009   1.499   3.992
 2965SOL    HW2 9795   0.067   1.422   4.116
 2966SOL     OW 9796   5.218   5.800   3.727
 2966SOL    HW1 9797   5.203   5.797   3.628
 2966SOL    HW2 9798   5.218   5.895   3.758
 2967SOL     OW 9799   6.632   0.582   5.000
 2967SOL    HW1 9800   6.639   0.634   4.915
 2967SOL    HW2 9801   6.701   0.614   5.065
 2968SOL     OW 9802   1.156   2.821   6.473
 2968SOL    HW1 9803   1.176   2.817   6.571
 2968SOL    HW2 9804   1.194   2.741   6.427
 2969SOL     OW 9805   4.843   1.430   3.874
 2969SOL    HW1 9806   4.914   1.400   3.938
 2969SOL    HW2 9807   4.880   1.428   3.781
 2970SOL     OW 9808   1.879   4.037   6.252
 2970SOL    HW1 9809   1.909   4.041   6.347
 2970SOL    HW2 9810   1.913   4.117   6.203
 2971SOL     OW 9811   5.125   4.301   7.006
 2971SOL    HW1 9812   5.054   4.366   6.979
 2971SOL    HW2 9813   5.199   4.350   0.035
 2972SOL     OW 9814   6.177   4.549   6.415
 2972SOL    HW1 9815   6.106   4.488   6.380
 2972SOL    HW2 9816   6.149   4.585   6.504
 2973SOL     OW 9817   5.760   6.437   2.737
 2973SOL    HW1 9818   5.728   6.348   2.704
 2973SOL    HW2 9819   5.733   6.508   2.672
 2974SOL     OW 9820   1.114   4.661   3.059
 2974SOL    HW1 9821   1.047   4.709   3.115
 2974SOL    HW2 9822   1.202   4.709   3.064
 2975SOL     OW 9823   5.426   3.279   4.078
 2975SOL    HW1 9824   5.437   3.329   4.164
 2975SOL    HW2 9825   5.441   3.341   4.001
 2976SOL     OW 9826   4.560   2.007   2.913
 2976SOL    HW1 9827   4.515   2.059   2.840
 2976SOL    HW2 9828   4.614   1.934   2.873
 2977SOL     OW 9829   2.737   6.905   2.508
 2977SOL    HW1 9830   2.679   6.862   2.439
 2977SOL    HW2 9831   2.770   6.836   2.572
 2978SOL     OW 9832   5.376   4.363   0.134
 2978SOL    HW1 9833   5.391   4.317   0.222
 2978SOL    HW2 9834   5.414   4.306   0.060
 2979SOL     OW 9835   3.747   0.757   4.013
 2979SOL    HW1 9836   3.784   0.834   4.065
 2979SOL    HW2 9837   3.739   0.677   4.072
 2980SOL     OW 9838   1.018   5.851   5.081
 2980SOL    HW1 9839   1.097   5.812   5.034
 2980SOL    HW2 9840   1.044   5.876   5.175
 2981SOL     OW 9841   2.327   1.379   5.809
 2981SOL    HW1 9842   2.395   1.415   5.745
 2981SOL    HW2 9843   2.238   1.418   5.788
 2982SOL     OW 9844   3.583   4.939   2.783
 2982SOL    HW1 9845   3.500   4.927   2.728
 2982SOL    HW2 9846   3.577   5.024   2.835
 2983SOL     OW 9847   0.500   1.717   2.700
 2983SOL    HW1 9848   0.502   1.618   2.708
 2983SOL    HW2 9849   0.571   1.747   2.636
 2984SOL     OW 9850   5.214   5.211   1.356
 2984SOL    HW1 9851   5.165   5.293   1.327
 2984SOL    HW2 9852   5.265   5.174   1.279
 2985SOL     OW 9853   2.025   2.863   5.551
 2985SOL    HW1 9854   2.042   2.768   5.580
 2985SOL    HW2 9855   1.930   2.887   5.572
 2986SOL     OW 9856   3.382   4.157   3.948
 2986SOL    HW1 9857   3.378   4.061   3.975
 2986SOL    HW2 9858   3.457   4.202   3.997
 2987SOL     OW 9859   6.416   1.652   4.509
 2987SOL    HW1 9860   6.435   1.647   4.607
 2987SOL    HW2 9861   6.456   1.573   4.463
 2988SOL     OW 9862   1.480   5.900   2.635
 2988SOL    HW1 9863   1.466   5.975   2.700
 2988SOL    HW2 9864   1.526   5.935   2.553
 2989SOL     OW 9865   6.340   5.888   6.136
 2989SOL    HW1 9866   6.381   5.797   6.134
 2989SOL    HW2 9867   6.263   5.888   6.200
 2990SOL     OW 9868   3.839   1.852   4.832
 2990SOL    HW1 9869   3.760   1.851   4.893
 2990SOL    HW2 9870   3.869   1.947   4.819
 2991SOL     OW 9871   6.746   4.239   5.209
 2991SOL    HW1 9872   6.777   4.333   5.202
 2991SOL    HW2 9873   6.817   4.184   5.253
 2992SOL     OW 9874   2.581   6.253   5.106
 2992SOL    HW1 9875   2.541   6.326   5.161
 2992SOL    HW2 9876   2.629   6.188   5.166
 2993SOL     OW 9877   0.603   4.898   1.707
 2993SOL    HW1 9878   0.702   4.903   1.693
 2993SOL    HW2 9879   0.581   4.823   1.769
 2994SOL     OW 9880   4.259   6.039   0.111
 2994SOL    HW1 9881   4.209   6.045   0.025
 2994SOL    HW2 9882   4.341   5.982   0.098
 2995SOL     OW 9883   3.084   1.949   5.944
 2995SOL    HW1 9884   3.018   1.955   6.018
 2995SOL    HW2 9885   3.041   1.908   5.864
 2996SOL     OW 9886   1.228   1.457   3.312
 2996SOL    HW1 9887   1.285   1.500   3.242
 2996SOL    HW2 9888   1.278   1.452   3.398
 2997SOL     OW 9889   6.056   0.268   2.596
 2997SOL    HW1 9890   6.138   0.320   2.621
 2997SOL    HW2 9891   5.975   0.311   2.636
 2998SOL     OW 9892   4.615   6.918   3.924
 2998SOL    HW1 9893   4.689   6.967   3.971
 2998SOL    HW2 9894   4.532   6.972   3.927
 2999SOL     OW 9895   2.646   5.196   5.071
 2999SOL    HW1 9896   2.680   5.140   5.147
 2999SOL    HW2 9897   2.606   5.280   5.107
 3000SOL     OW 9898   2.810   3.729   6.613
 3000SOL    HW1 9899   2.872   3.728   6.535
 3000SOL    HW2 9900   2.862   3.722   6.698
 3001SOL     OW 9901   5.338   6.946   6.159
 3001SOL    HW1 9902   5.364   6.959   6.063
 3001SOL    HW2 9903   5.369   6.855   6.190
 3002SOL     OW 9904   3.331   1.387   6.865
 3002SOL    HW1 9905   3.405   1.455   6.856
 3002SOL    HW2 9906   3.346   1.332   6.947
 3003SOL     OW 9907   1.709   6.907   0.383
 3003SOL    HW1 9908   1.620   6.920   0.340
 3003SOL    HW2 9909   1.782   6.922   0.316
 3004SOL     OW 9910   1.317   4.522   2.742
 3004SOL    HW1 9911   1.284   4.581   2.668
 3004SOL    HW2 9912   1.241   4.501   2.804
 3005SOL     OW 9913   2.597   1.935   0.734
 3005SOL    HW1 9914   2.624   1.839   0.720
 3005SOL    HW2 9915   2.616   1.987   0.651
 3006SOL     OW 9916   5.493   1.686   5.206
 3006SOL    HW1 9917   5.506   1.599   5.158
 3006SOL    HW2 9918   5.419   1.737   5.163
 3007SOL     OW 9919   5.443   4.752   1.073
 3007SOL    HW1 9920   5.441   4.830   1.011
 3007SOL    HW2 9921   5.461   4.783   1.166
 3008SOL     OW 9922   3.706   2.238   6.095
 3008SOL    HW1 9923   3.687   2.333   6.121
 3008SOL    HW2 9924   3.666   2.176   6.161
 3009SOL     OW 9925   0.314   1.903   2.592
 3009SOL    HW1 9926   0.370   1.830   2.632
 3009SOL    HW2 9927   0.373   1.963   2.538
 3010SOL     OW 9928   3.567   5.881   3.714
 3010SOL    HW1 9929   3.551   5.899   3.617
 3010SOL    HW2 9930   3.533   5.790   3.737
 3011SOL     OW 9931   6.227   1.322   2.224
 3011SOL    HW1 9932   6.205   1.235   2.179
 3011SOL    HW2 9933   6.159   1.391   2.199
 3012SOL     OW 9934   1.917   3.402   6.021
 3012SOL    HW1 9935   1.940   3.499   6.022
 3012SOL    HW2 9936   1.994   3.349   6.057
 3013SOL     OW 9937   5.846   5.925   4.422
 3013SOL    HW1 9938   5.857   6.014   4.378
 3013SOL    HW2 9939   5.867   5.852   4.357
 3014SOL     OW 9940   4.419   2.313   4.713
 3014SOL    HW1 9941   4.467   2.354   4.636
 3014SOL    HW2 9942   4.416   2.379   4.789
 3015SOL     OW 9943   3.477   1.791   0.586
 3015SOL    HW1 9944   3.423   1.719   0.543
 3015SOL    HW2 9945   3.417   1.863   0.621
 3016SOL     OW 9946   2.696   6.217   4.218
 3016SOL    HW1 9947   2.765   6.217   4.290
 3016SOL    HW2 9948   2.605   6.224   4.259
 3017SOL     OW 9949   6.470   5.018   2.241
 3017SOL    HW1 9950   6.525   4.974   2.312
 3017SOL    HW2 9951   6.386   4.966   2.227
 3018SOL     OW 9952   3.063   6.790   6.130
 3018SOL    HW1 9953   3.026   6.883   6.133
 3018SOL    HW2 9954   3.144   6.788   6.072
 3019SOL     OW 9955   0.972   0.406   6.924
 3019SOL    HW1 9956   0.898   0.435   6.985
 3019SOL    HW2 9957   1.028   0.337   6.970
 3020SOL     OW 9958   3.878   2.793   1.764
 3020SOL    HW1 9959   3.946   2.725   1.737
 3020SOL    HW2 9960   3.872   2.864   1.695
 3021SOL     OW 9961   3.099   6.985   6.508
 3021SOL    HW1 9962   3.139   7.015   6.594
 3021SOL    HW2 9963   3.062   0.048   6.459
 3022SOL     OW 9964   3.578   5.900   4.413
 3022SOL    HW1 9965   3.494   5.871   4.368
 3022SOL    HW2 9966   3.562   5.985   4.464
 3023SOL     OW 9967   3.472   0.122   3.022
 3023SOL    HW1 9968   3.499   0.033   3.057
 3023SOL    HW2 9969   3.552   0.180   3.012
 3024SOL     OW 9970   4.686   0.119   4.743
 3024SOL    HW1 9971   4.628   0.195   4.772
 3024SOL    HW2 9972   4.742   0.147   4.666
 3025SOL     OW 9973   3.037   0.272   0.310
 3025SOL    HW1 9974   3.005   0.310   0.223
 3025SOL    HW2 9975   2.959   0.233   0.359
 3026SOL     OW 9976   1.620   0.452   6.807
 3026SOL    HW1 9977   1.598   0.357   6.830
 3026SOL    HW2 9978   1.685   0.489   6.874
 3027SOL     OW 9979   3.805   0.833   3.034
 3027SOL    HW1 9980   3.828   0.738   3.015
 3027SOL    HW2 9981   3.711   0.839   3.066
 3028SOL     OW 9982   1.130   3.956   5.718
 3028SOL    HW1 9983   1.164   3.869   5.683
 3028SOL    HW2 9984   1.153   3.965   5.814
 3029SOL     OW 9985   6.891   2.506   5.279
 3029SOL    HW1 9986   6.885   2.406   5.288
 3029SOL    HW2 9987   6.987   2.534   5.283
 3030SOL     OW 9988   0.180   3.252   6.899
 3030SOL    HW1 9989   0.153   3.348   6.897
 3030SOL    HW2 9990   0.279   3.245   6.882
 3031SOL     OW 9991   0.552   3.970   0.173
 3031SOL    HW1 9992   0.581   3.876   0.191
 3031SOL    HW2 9993   0.604   4.033   0.230
 3032SOL     OW 9994   2.925   0.111   0.809
 3032SOL    HW1 9995   2.871   0.105   0.893
 3032SOL    HW2 9996   2.876   0.165   0.741
 3033SOL     OW 9997   6.245   2.132   1.518
 3033SOL    HW1 9998   6.280   2.040   1.534
 3033SOL    HW2 9999   6.268   2.161   1.425
 3034SOL     OW10000   1.867   5.697   2.954
 3034SOL    HW110001   1.871   5.655   3.044
 3034SOL    HW210002   1.779   5.676   2.912
 3035SOL     OW10003   0.178   2.969   6.887
 3035SOL    HW110004   0.169   3.065   6.915
 3035SOL    HW210005   0.241   2.963   6.810
 3036SOL     OW10006   2.006   1.222   6.357
 3036SOL    HW110007   1.916   1.231   6.400
 3036SOL    HW210008   2.072   1.187   6.424
 3037SOL     OW10009   6.182   6.137   5.390
 3037SOL    HW110010   6.187   6.173   5.483
 3037SOL    HW210011   6.269   6.093   5.367
 3038SOL     OW10012   5.394   6.073   5.900
 3038SOL    HW110013   5.404   6.154   5.958
 3038SOL    HW210014   5.448   5.998   5.938
 3039SOL     OW10015   6.500   3.354   0.277
 3039SOL    HW110016   6.416   3.370   0.329
 3039SOL    HW210017   6.567   3.308   0.335
 3040SOL     OW10018   3.730   4.204   6.179
 3040SOL    HW110019   3.637   4.224   6.208
 3040SOL    HW210020   3.761   4.274   6.114
 3041SOL     OW10021   2.236   2.863   4.476
 3041SOL    HW110022   2.323   2.821   4.500
 3041SOL    HW210023   2.194   2.812   4.401
 3042SOL     OW10024   4.921   5.823   1.978
 3042SOL    HW110025   4.838   5.768   1.985
 3042SOL    HW210026   4.902   5.917   2.007
 3043SOL     OW10027   2.508   4.535   1.725
 3043SOL    HW110028   2.419   4.575   1.703
 3043SOL    HW210029   2.514   4.520   1.823
 3044SOL     OW10030   3.612   4.166   5.718
 3044SOL    HW110031   3.622   4.263   5.698
 3044SOL    HW210032   3.604   4.114   5.633
 3045SOL     OW10033   4.331   0.480   3.060
 3045SOL    HW110034   4.303   0.463   2.965
 3045SOL    HW210035   4.387   0.404   3.092
 3046SOL     OW10036   2.537   0.753   6.177
 3046SOL    HW110037   2.503   0.703   6.257
 3046SOL    HW210038   2.487   0.839   6.168
 3047SOL     OW10039   6.454   0.338   1.975
 3047SOL    HW110040   6.497   0.422   1.944
 3047SOL    HW210041   6.397   0.357   2.055
 3048SOL     OW10042   3.922   2.303   1.768
 3048SOL    HW110043   3.829   2.335   1.783
 3048SOL    HW210044   3.928   2.258   1.678
 3049SOL     OW10045   1.785   6.607   2.450
 3049SOL    HW110046   1.711   6.667   2.479
 3049SOL    HW210047   1.767   6.577   2.356
 3050SOL     OW10048   3.140   1.304   1.602
 3050SOL    HW110049   3.051   1.267   1.576
 3050SOL    HW210050   3.213   1.252   1.556
 3051SOL     OW10051   2.226   4.422   6.952
 3051SOL    HW110052   2.294   4.496   6.950
 3051SOL    HW210053   2.135   4.461   6.966
 3052SOL     OW10054   4.898   5.923   1.715
 3052SOL    HW110055   4.948   5.855   1.663
 3052SOL    HW210056   4.891   5.894   1.811
 3053SOL     OW10057   6.890   2.020   6.945
 3053SOL    HW110058   6.847   2.077   6.875
 3053SOL    HW210059   6.916   1.932   6.904
 3054SOL     OW10060   6.824   1.841   0.509
 3054SOL    HW110061   6.726   1.843   0.491
 3054SOL    HW210062   6.874   1.852   0.424
 3055SOL     OW10063   5.061   0.516   4.157
 3055SOL    HW110064   5.004   0.596   4.137
 3055SOL    HW210065   5.157   0.541   4.149
 3056SOL     OW10066   6.453   0.180   4.621
 3056SOL    HW110067   6.517   0.177   4.698
 3056SOL    HW210068   6.377   0.118   4.640
 3057SOL     OW10069   4.408   6.184   2.363
 3057SOL    HW110070   4.452   6.112   2.416
 3057SOL    HW210071   4.476   6.231   2.307
 3058SOL     OW10072   0.100   4.492   1.867
 3058SOL    HW110073   0.112   4.436   1.785
 3058SOL    HW210074   0.071   4.434   1.943
 3059SOL     OW10075   3.032   2.212   4.263
 3059SOL    HW110076   3.010   2.146   4.335
 3059SOL    HW210077   3.040   2.164   4.175
 3060SOL     OW10078   1.061   5.512   0.199
 3060SOL    HW110079   1.104   5.526   0.288
 3060SOL    HW210080   1.077   5.593   0.142
 3061SOL     OW10081   0.170   6.803   4.872
 3061SOL    HW110082   0.191   6.797   4.774
 3061SOL    HW210083   0.073   6.824   4.884
 3062SOL     OW10084   1.897   0.234   0.905
 3062SOL    HW110085   1.871   0.139   0.925
 3062SOL    HW210086   1.931   0.240   0.811
 3063SOL     OW10087   2.534   4.814   1.914
 3063SOL    HW110088   2.617   4.842   1.866
 3063SOL    HW210089   2.535   4.715   1.927
 3064SOL     OW10090   5.613   4.336   2.354
 3064SOL    HW110091   5.624   4.309   2.450
 3064SOL    HW210092   5.673   4.280   2.297
 3065SOL     OW10093   2.165   0.867   0.629
 3065SOL    HW110094   2.125   0.823   0.710
 3065SOL    HW210095   2.227   0.940   0.658
 3066SOL     OW10096   4.659   5.536   1.140
 3066SOL    HW110097   4.672   5.607   1.209
 3066SOL    HW210098   4.633   5.579   1.053
 3067SOL     OW10099   3.155   2.042   5.455
 3067SOL    HW110100   3.205   1.964   5.493
 3067SOL    HW210101   3.145   2.031   5.356
 3068SOL     OW10102   6.668   0.185   0.652
 3068SOL    HW110103   6.675   0.099   0.601
 3068SOL    HW210104   6.669   0.165   0.750
 3069SOL     OW10105   6.843   6.109   1.824
 3069SOL    HW110106   6.820   6.041   1.893
 3069SOL    HW210107   6.770   6.178   1.818
 3070SOL     OW10108   2.652   1.626   0.042
 3070SOL    HW110109   2.630   1.531   0.063
 3070SOL    HW210110   2.750   1.635   0.025
 3071SOL     OW10111   6.177   5.977   3.276
 3071SOL    HW110112   6.225   6.018   3.199
 3071SOL    HW210113   6.148   5.884   3.252
 3072SOL     OW10114   2.009   5.902   6.614
 3072SOL    HW110115   1.984   5.956   6.694
 3072SOL    HW210116   2.108   5.885   6.615
 3073SOL     OW10117   5.727   3.041   4.164
 3073SOL    HW110118   5.746   3.133   4.130
 3073SOL    HW210119   5.629   3.030   4.178
 3074SOL     OW10120   5.709   4.310   0.658
 3074SOL    HW110121   5.750   4.342   0.572
 3074SOL    HW210122   5.638   4.243   0.638
 3075SOL     OW10123   2.727   6.353   1.636
 3075SOL    HW110124   2.637   6.374   1.599
 3075SOL    HW210125   2.733   6.384   1.731
 3076SOL     OW10126   6.622   0.542   4.479
 3076SOL    HW110127   6.526   0.529   4.506
 3076SOL    HW210128   6.681   0.488   4.539
 3077SOL     OW10129   5.369   5.575   1.569
 3077SOL    HW110130   5.282   5.596   1.613
 3077SOL    HW210131   5.366   5.480   1.535
 3078SOL     OW10132   6.845   2.929   2.755
 3078SOL    HW110133   6.874   2.856   2.693
 3078SOL    HW210134   6.782   2.892   2.823
 3079SOL     OW10135   2.443   2.583   3.022
 3079SOL    HW110136   2.401   2.622   2.940
 3079SOL    HW210137   2.412   2.489   3.034
 3080SOL     OW10138   4.804   4.519   2.733
 3080SOL    HW110139   4.794   4.423   2.708
 3080SOL    HW210140   4.715   4.556   2.761
 3081SOL     OW10141   0.948   2.736   4.881
 3081SOL    HW110142   0.916   2.755   4.788
 3081SOL    HW210143   1.036   2.780   4.895
 3082SOL     OW10144   3.094   6.526   4.121
 3082SOL    HW110145   3.066   6.594   4.053
 3082SOL    HW210146   3.018   6.508   4.183
 3083SOL     OW10147   3.246   5.938   4.446
 3083SOL    HW110148   3.290   6.008   4.389
 3083SOL    HW210149   3.302   5.923   4.528
 3084SOL     OW10150   6.691   4.007   4.888
 3084SOL    HW110151   6.614   4.071   4.878
 3084SOL    HW210152   6.757   4.045   4.952
 3085SOL     OW10153   6.250   4.703   0.733
 3085SOL    HW110154   6.190   4.644   0.680
 3085SOL    HW210155   6.229   4.799   0.715
 3086SOL     OW10156   4.889   1.488   1.169
 3086SOL    HW110157   4.854   1.582   1.164
 3086SOL    HW210158   4.988   1.489   1.155
 3087SOL     OW10159   0.788   5.386   3.927
 3087SOL    HW110160   0.789   5.486   3.920
 3087SOL    HW210161   0.746   5.347   3.845
 3088SOL     OW10162   2.098   5.028   5.049
 3088SOL    HW110163   2.101   4.946   4.992
 3088SOL    HW210164   2.145   5.103   5.002
 3089SOL     OW10165   1.588   3.158   6.426
 3089SOL    HW110166   1.559   3.228   6.492
 3089SOL    HW210167   1.594   3.070   6.472
 3090SOL     OW10168   2.404   2.202   1.447
 3090SOL    HW110169   2.493   2.243   1.470
 3090SOL    HW210170   2.415   2.104   1.435
 3091SOL     OW10171   1.277   0.378   1.610
 3091SOL    HW110172   1.209   0.413   1.545
 3091SOL    HW210173   1.260   0.416   1.700
 3092SOL     OW10174   4.902   1.273   0.499
 3092SOL    HW110175   4.968   1.348   0.491
 3092SOL    HW210176   4.908   1.233   0.591
 3093SOL     OW10177   5.568   6.340   6.027
 3093SOL    HW110178   5.539   6.371   5.936
 3093SOL    HW210179   5.518   6.391   6.097
 3094SOL     OW10180   1.827   6.880   4.678
 3094SOL    HW110181   1.908   6.870   4.735
 3094SOL    HW210182   1.848   6.940   4.600
 3095SOL     OW10183   2.448   5.170   5.355
 3095SOL    HW110184   2.506   5.090   5.341
 3095SOL    HW210185   2.478   5.244   5.294
 3096SOL     OW10186   1.649   5.783   5.318
 3096SOL    HW110187   1.605   5.726   5.249
 3096SOL    HW210188   1.581   5.843   5.360
 3097SOL     OW10189   6.079   2.334   0.261
 3097SOL    HW110190   6.143   2.258   0.276
 3097SOL    HW210191   6.009   2.332   0.333
 3098SOL     OW10192   2.259   2.888   1.586
 3098SOL    HW110193   2.233   2.793   1.604
 3098SOL    HW210194   2.209   2.922   1.506
 3099SOL     OW10195   0.809   0.039   3.721
 3099SOL    HW110196   0.753   0.052   3.802
 3099SOL    HW210197   0.902   0.013   3.747
 3100SOL     OW10198   6.716   5.720   4.014
 3100SOL    HW110199   6.662   5.783   3.959
 3100SOL    HW210200   6.661   5.640   4.037
 3101SOL     OW10201   5.627   6.849   6.623
 3101SOL    HW110202   5.716   6.830   6.663
 3101SOL    HW210203   5.588   6.931   6.664
 3102SOL     OW10204   6.636   4.983   2.012
 3102SOL    HW110205   6.577   4.950   2.085
 3102SOL    HW210206   6.693   5.058   2.046
 3103SOL     OW10207   4.416   0.599   2.438
 3103SOL    HW110208   4.403   0.685   2.389
 3103SOL    HW210209   4.402   0.614   2.536
 3104SOL     OW10210   5.026   0.590   4.846
 3104SOL    HW110211   5.008   0.670   4.789
 3104SOL    HW210212   5.085   0.526   4.796
 3105SOL     OW10213   6.252   4.652   1.117
 3105SOL    HW110214   6.174   4.620   1.063
 3105SOL    HW210215   6.250   4.609   1.208
 3106SOL     OW10216   5.812   0.917   3.368
 3106SOL    HW110217   5.841   0.824   3.390
 3106SOL    HW210218   5.782   0.964   3.451
 3107SOL     OW10219   4.497   1.370   4.976
 3107SOL    HW110220   4.555   1.431   4.921
 3107SOL    HW210221   4.470   1.417   5.060
 3108SOL     OW10222   1.404   6.273   3.944
 3108SOL    HW110223   1.452   6.187   3.956
 3108SOL    HW210224   1.330   6.261   3.878
 3109SOL     OW10225   5.749   6.108   3.111
 3109SOL    HW110226   5.820   6.167   3.152
 3109SOL    HW210227   5.790   6.023   3.081
 3110SOL     OW10228   1.081   2.468   2.204
 3110SOL    HW110229   1.106   2.493   2.111
 3110SOL    HW210230   0.981   2.468   2.214
 3111SOL     OW10231   6.624   5.540   3.756
 3111SOL    HW110232   6.649   5.536   3.659
 3111SOL    HW210233   6.579   5.627   3.775
 3112SOL     OW10234   4.356   2.797   7.007
 3112SOL    HW110235   4.358   2.897   7.002
 3112SOL    HW210236   4.359   2.759   6.915
 3113SOL     OW10237   2.721   5.653   3.820
 3113SOL    HW110238   2.787   5.729   3.827
 3113SOL    HW210239   2.655   5.660   3.894
 3114SOL     OW10240   4.513   1.821   1.047
 3114SOL    HW110241   4.488   1.847   1.140
 3114SOL    HW210242   4.438   1.843   0.985
 3115SOL     OW10243   3.774   3.750   6.759
 3115SOL    HW110244   3.704   3.695   6.713
 3115SOL    HW210245   3.862   3.737   6.713
 3116SOL     OW10246   0.361   2.698   6.691
 3116SOL    HW110247   0.460   2.689   6.680
 3116SOL    HW210248   0.334   2.793   6.675
 3117SOL     OW10249   4.385   3.452   5.253
 3117SOL    HW110250   4.392   3.354   5.269
 3117SOL    HW210251   4.476   3.492   5.248
 3118SOL     OW10252   0.883   5.240   2.201
 3118SOL    HW110253   0.796   5.237   2.151
 3118SOL    HW210254   0.873   5.191   2.288
 3119SOL     OW10255   2.227   3.379   6.054
 3119SOL    HW110256   2.210   3.288   6.017
 3119SOL    HW210257   2.316   3.381   6.100
 3120SOL     OW10258   3.611   0.371   4.749
 3120SOL    HW110259   3.687   0.328   4.700
 3120SOL    HW210260   3.557   0.426   4.685
 3121SOL     OW10261   0.176   0.600   3.616
 3121SOL    HW110262   0.224   0.675   3.570
 3121SOL    HW210263   0.123   0.636   3.693
 3122SOL     OW10264   4.225   6.441   6.445
 3122SOL    HW110265   4.201   6.349   6.416
 3122SOL    HW210266   4.162   6.507   6.403
 3123SOL     OW10267   2.842   1.835   3.516
 3123SOL    HW110268   2.881   1.869   3.602
 3123SOL    HW210269   2.904   1.858   3.441
 3124SOL     OW10270   4.180   0.058   4.522
 3124SOL    HW110271   4.227   0.081   4.608
 3124SOL    HW210272   4.143   6.982   4.528
 3125SOL     OW10273   0.187   2.245   5.195
 3125SOL    HW110274   0.129   2.172   5.229
 3125SOL    HW210275   0.266   2.206   5.148
 3126SOL     OW10276   5.865   4.344   5.308
 3126SOL    HW110277   5.837   4.324   5.402
 3126SOL    HW210278   5.794   4.311   5.245
 3127SOL     OW10279   1.455   3.444   5.142
 3127SOL    HW110280   1.551   3.415   5.152
 3127SOL    HW210281   1.441   3.529   5.193
 3128SOL     OW10282   2.534   0.529   5.998
 3128SOL    HW110283   2.540   0.598   6.070
 3128SOL    HW210284   2.595   0.453   6.021
 3129SOL     OW10285   5.914   3.888   6.189
 3129SOL    HW110286   5.886   3.970   6.238
 3129SOL    HW210287   5.966   3.915   6.107
 3130SOL     OW10288   1.476   3.887   1.147
 3130SOL    HW110289   1.531   3.832   1.084
 3130SOL    HW210290   1.533   3.960   1.186
 3131SOL     OW10291   0.669   2.670   1.489
 3131SOL    HW110292   0.621   2.585   1.466
 3131SOL    HW210293   0.679   2.726   1.407
 3132SOL     OW10294   3.682   5.686   6.240
 3132SOL    HW110295   3.619   5.731   6.303
 3132SOL    HW210296   3.775   5.689   6.278
 3133SOL     OW10297   3.822   1.551   3.614
 3133SOL    HW110298   3.799   1.501   3.697
 3133SOL    HW210299   3.909   1.599   3.627
 3134SOL     OW10300   4.644   4.096   1.688
 3134SOL    HW110301   4.584   4.151   1.747
 3134SOL    HW210302   4.610   4.002   1.684
 3135SOL     OW10303   4.425   1.006   5.427
 3135SOL    HW110304   4.364   1.012   5.348
 3135SOL    HW210305   4.471   0.918   5.427
 3136SOL     OW10306   5.239   0.991   1.306
 3136SOL    HW110307   5.325   0.969   1.352
 3136SOL    HW210308   5.257   1.053   1.229
 3137SOL     OW10309   6.602   0.255   2.347
 3137SOL    HW110310   6.662   0.236   2.426
 3137SOL    HW210311   6.655   0.247   2.263
 3138SOL     OW10312   5.818   4.276   3.632
 3138SOL    HW110313   5.780   4.322   3.552
 3138SOL    HW210314   5.914   4.253   3.616
 3139SOL     OW10315   5.325   6.353   0.614
 3139SOL    HW110316   5.337   6.258   0.640
 3139SOL    HW210317   5.288   6.358   0.521
 3140SOL     OW10318   6.793   0.060   0.194
 3140SOL    HW110319   6.701   0.021   0.197
 3140SOL    HW210320   6.849   0.005   0.132
 3141SOL     OW10321   0.365   6.073   6.130
 3141SOL    HW110322   0.376   6.106   6.224
 3141SOL    HW210323   0.335   5.978   6.130
 3142SOL     OW10324   3.968   6.330   2.186
 3142SOL    HW110325   3.967   6.394   2.109
 3142SOL    HW210326   4.042   6.353   2.248
 3143SOL     OW10327   6.426   1.977   6.709
 3143SOL    HW110328   6.524   1.999   6.705
 3143SOL    HW210329   6.387   1.980   6.617
 3144SOL     OW10330   3.993   4.100   1.704
 3144SOL    HW110331   4.089   4.112   1.680
 3144SOL    HW210332   3.945   4.187   1.693
 3145SOL     OW10333   1.989   5.933   0.722
 3145SOL    HW110334   1.936   5.852   0.697
 3145SOL    HW210335   2.015   5.927   0.818
 3146SOL     OW10336   1.636   0.421   3.778
 3146SOL    HW110337   1.675   0.445   3.867
 3146SOL    HW210338   1.579   0.339   3.788
 3147SOL     OW10339   3.170   5.633   1.351
 3147SOL    HW110340   3.159   5.721   1.304
 3147SOL    HW210341   3.099   5.625   1.422
 3148SOL     OW10342   5.928   5.938   4.830
 3148SOL    HW110343   5.985   6.020   4.820
 3148SOL    HW210344   5.922   5.914   4.927
 3149SOL     OW10345   2.342   1.154   5.207
 3149SOL    HW110346   2.429   1.121   5.172
 3149SOL    HW210347   2.267   1.100   5.167
 3150SOL     OW10348   6.046   5.267   4.033
 3150SOL    HW110349   5.949   5.243   4.022
 3150SOL    HW210350   6.068   5.344   3.973
 3151SOL     OW10351   5.789   1.587   5.321
 3151SOL    HW110352   5.690   1.586   5.326
 3151SOL    HW210353   5.825   1.494   5.331
 3152SOL     OW10354   1.538   5.515   0.585
 3152SOL    HW110355   1.501   5.579   0.652
 3152SOL    HW210356   1.524   5.421   0.616
 3153SOL     OW10357   5.808   4.762   1.180
 3153SOL    HW110358   5.797   4.828   1.254
 3153SOL    HW210359   5.774   4.672   1.209
 3154SOL     OW10360   5.818   1.131   6.292
 3154SOL    HW110361   5.837   1.222   6.327
 3154SOL    HW210362   5.726   1.103   6.319
 3155SOL     OW10363   6.275   4.929   0.354
 3155SOL    HW110364   6.184   4.889   0.343
 3155SOL    HW210365   6.266   5.029   0.361
 3156SOL     OW10366   3.038   3.279   3.396
 3156SOL    HW110367   2.957   3.329   3.428
 3156SOL    HW210368   3.103   3.270   3.471
 3157SOL     OW10369   2.604   1.924   4.685
 3157SOL    HW110370   2.665   1.970   4.749
 3157SOL    HW210371   2.655   1.894   4.605
 3158SOL     OW10372   4.504   0.891   3.402
 3158SOL    HW110373   4.476   0.985   3.383
 3158SOL    HW210374   4.599   0.890   3.433
 3159SOL     OW10375   5.522   1.473   6.852
 3159SOL    HW110376   5.435   1.425   6.864
 3159SOL    HW210377   5.557   1.501   6.942
 3160SOL     OW10378   0.275   6.264   5.695
 3160SOL    HW110379   0.268   6.204   5.775
 3160SOL    HW210380   0.207   6.238   5.627
 3161SOL     OW10381   1.837   2.336   3.179
 3161SOL    HW110382   1.819   2.295   3.269
 3161SOL    HW210383   1.925   2.382   3.180
 3162SOL     OW10384   1.357   6.781   2.312
 3162SOL    HW110385   1.291   6.753   2.382
 3162SOL    HW210386   1.428   6.837   2.354
 3163SOL     OW10387   4.397   2.645   5.903
 3163SOL    HW110388   4.421   2.613   5.995
 3163SOL    HW210389   4.328   2.717   5.909
 3164SOL     OW10390   4.530   4.896   0.866
 3164SOL    HW110391   4.521   4.936   0.775
 3164SOL    HW210392   4.473   4.946   0.931
 3165SOL     OW10393   0.449   6.138   1.125
 3165SOL    HW110394   0.412   6.144   1.032
 3165SOL    HW210395   0.375   6.148   1.191
 3166SOL     OW10396   4.497   1.765   4.332
 3166SOL    HW110397   4.579   1.822   4.328
 3166SOL    HW210398   4.492   1.721   4.422
 3167SOL     OW10399   6.436   4.226   0.675
 3167SOL    HW110400   6.411   4.145   0.728
 3167SOL    HW210401   6.427   4.307   0.732
 3168SOL     OW10402   4.421   2.396   6.582
 3168SOL    HW110403   4.349   2.433   6.523
 3168SOL    HW210404   4.437   2.300   6.558
 3169SOL     OW10405   2.168   3.955   4.430
 3169SOL    HW110406   2.106   3.901   4.486
 3169SOL    HW210407   2.239   3.896   4.392
 3170SOL     OW10408   4.017   0.147   1.447
 3170SOL    HW110409   4.088   0.184   1.388
 3170SOL    HW210410   3.997   0.052   1.420
 3171SOL     OW10411   0.160   0.259   1.372
 3171SOL    HW110412   0.203   0.182   1.419
 3171SOL    HW210413   0.210   0.279   1.288
 3172SOL     OW10414   0.064   4.928   0.220
 3172SOL    HW110415   0.032   4.951   0.129
 3172SOL    HW210416   0.164   4.918   0.219
 3173SOL     OW10417   2.855   2.273   0.166
 3173SOL    HW110418   2.791   2.324   0.109
 3173SOL    HW210419   2.810   2.246   0.251
 3174SOL     OW10420   3.309   2.780   6.858
 3174SOL    HW110421   3.319   2.840   6.779
 3174SOL    HW210422   3.315   2.685   6.828
 3175SOL     OW10423   0.002   0.731   0.844
 3175SOL    HW110424   7.008   0.636   0.815
 3175SOL    HW210425   0.066   0.735   0.921
 3176SOL     OW10426   1.401   4.950   4.864
 3176SOL    HW110427   1.409   4.906   4.774
 3176SOL    HW210428   1.440   4.891   4.934
 3177SOL     OW10429   4.837   3.978   4.126
 3177SOL    HW110430   4.931   3.988   4.159
 3177SOL    HW210431   4.831   3.901   4.064
 3178SOL     OW10432   6.209   2.259   0.595
 3178SOL    HW110433   6.117   2.282   0.564
 3178SOL    HW210434   6.204   2.224   0.688
 3179SOL     OW10435   1.056   3.315   2.048
 3179SOL    HW110436   0.969   3.318   2.097
 3179SOL    HW210437   1.090   3.221   2.047
 3180SOL     OW10438   4.367   1.044   0.090
 3180SOL    HW110439   4.313   1.062   0.172
 3180SOL    HW210440   4.455   1.091   0.097
 3181SOL     OW10441   6.806   1.557   3.069
 3181SOL    HW110442   6.865   1.546   2.989
 3181SOL    HW210443   6.856   1.531   3.151
 3182SOL     OW10444   2.998   1.137   5.460
 3182SOL    HW110445   3.020   1.092   5.546
 3182SOL    HW210446   3.072   1.122   5.394
 3183SOL     OW10447   4.361   4.469   1.813
 3183SOL    HW110448   4.414   4.384   1.816
 3183SOL    HW210449   4.394   4.532   1.884
 3184SOL     OW10450   0.807   2.551   2.183
 3184SOL    HW110451   0.789   2.528   2.279
 3184SOL    HW210452   0.744   2.623   2.154
 3185SOL     OW10453   6.216   5.726   6.980
 3185SOL    HW110454   6.138   5.685   6.932
 3185SOL    HW210455   6.295   5.727   6.919
 3186SOL     OW10456   3.778   1.536   1.850
 3186SOL    HW110457   3.721   1.600   1.901
 3186SOL    HW210458   3.740   1.444   1.856
 3187SOL     OW10459   4.412   4.123   0.314
 3187SOL    HW110460   4.327   4.087   0.275
 3187SOL    HW210461   4.414   4.104   0.412
 3188SOL     OW10462   2.513   0.542   4.643
 3188SOL    HW110463   2.475   0.531   4.735
 3188SOL    HW210464   2.443   0.518   4.576
 3189SOL     OW10465   1.194   1.644   1.919
 3189SOL    HW110466   1.260   1.605   1.855
 3189SOL    HW210467   1.178   1.740   1.896
 3190SOL     OW10468   0.049   6.542   0.659
 3190SOL    HW110469   0.074   6.446   0.650
 3190SOL    HW210470   0.127   6.600   0.634
 3191SOL     OW10471   4.871   0.219   0.877
 3191SOL    HW110472   4.784   0.197   0.834
 3191SOL    HW210473   4.941   0.232   0.806
 3192SOL     OW10474   0.397   2.657   1.141
 3192SOL    HW110475   0.438   2.598   1.210
 3192SOL    HW210476   0.370   2.744   1.183
 3193SOL     OW10477   3.950   1.530   6.699
 3193SOL    HW110478   3.991   1.501   6.613
 3193SOL    HW210479   3.886   1.606   6.682
 3194SOL     OW10480   1.669   2.878   6.050
 3194SOL    HW110481   1.757   2.837   6.074
 3194SOL    HW210482   1.664   2.971   6.088
 3195SOL     OW10483   2.610   2.476   3.226
 3195SOL    HW110484   2.694   2.438   3.188
 3195SOL    HW210485   2.577   2.550   3.167
 3196SOL     OW10486   0.707   1.399   5.609
 3196SOL    HW110487   0.629   1.424   5.552
 3196SOL    HW210488   0.679   1.396   5.705
 3197SOL     OW10489   1.797   6.272   3.449
 3197SOL    HW110490   1.822   6.300   3.542
 3197SOL    HW210491   1.799   6.352   3.389
 3198SOL     OW10492   5.707   2.305   5.459
 3198SOL    HW110493   5.779   2.374   5.471
 3198SOL    HW210494   5.673   2.307   5.365
 3199SOL     OW10495   4.736   2.814   2.276
 3199SOL    HW110496   4.717   2.716   2.284
 3199SOL    HW210497   4.736   2.840   2.179
 3200SOL     OW10498   0.155   2.948   1.855
 3200SOL    HW110499   0.089   2.962   1.782
 3200SOL    HW210500   0.212   3.029   1.866
 3201SOL     OW10501   5.178   4.779   4.140
 3201SOL    HW110502   5.174   4.852   4.207
 3201SOL    HW210503   5.085   4.752   4.113
 3202SOL     OW10504   0.900   4.627   1.789
 3202SOL    HW110505   0.920   4.543   1.840
 3202SOL    HW210506   0.985   4.678   1.774
 3203SOL     OW10507   6.329   2.455   6.410
 3203SOL    HW110508   6.380   2.456   6.323
 3203SOL    HW210509   6.322   2.549   6.445
 3204SOL     OW10510   4.692   6.018   1.344
 3204SOL    HW110511   4.678   6.117   1.336
 3204SOL    HW210512   4.618   5.970   1.299
 3205SOL     OW10513   0.044   3.163   6.658
 3205SOL    HW110514   0.014   3.241   6.604
 3205SOL    HW210515   0.090   3.194   6.741
 3206SOL     OW10516   0.377   6.649   6.015
 3206SOL    HW110517   0.289   6.639   6.062
 3206SOL    HW210518   0.396   6.566   5.963
 3207SOL     OW10519   1.161   0.763   5.659
 3207SOL    HW110520   1.077   0.724   5.621
 3207SOL    HW210521   1.215   0.804   5.586
 3208SOL     OW10522   4.758   6.737   5.330
 3208SOL    HW110523   4.725   6.831   5.331
 3208SOL    HW210524   4.830   6.726   5.399
 3209SOL     OW10525   4.165   5.175   3.065
 3209SOL    HW110526   4.114   5.246   3.113
 3209SOL    HW210527   4.110   5.140   2.989
 3210SOL     OW10528   0.807   4.234   1.246
 3210SOL    HW110529   0.867   4.156   1.265
 3210SOL    HW210530   0.736   4.206   1.182
 3211SOL     OW10531   1.710   3.415   1.305
 3211SOL    HW110532   1.679   3.509   1.319
 3211SOL    HW210533   1.765   3.410   1.221
 3212SOL     OW10534   2.801   0.658   0.459
 3212SOL    HW110535   2.901   0.646   0.456
 3212SOL    HW210536   2.772   0.670   0.554
 3213SOL     OW10537   0.078   6.170   2.179
 3213SOL    HW110538   7.011   6.129   2.140
 3213SOL    HW210539   0.054   6.256   2.224
 3214SOL     OW10540   5.118   5.629   0.730
 3214SOL    HW110541   5.083   5.614   0.637
 3214SOL    HW210542   5.132   5.541   0.775
 3215SOL     OW10543   0.688   2.939   0.844
 3215SOL    HW110544   0.725   3.002   0.912
 3215SOL    HW210545   0.599   2.905   0.873
 3216SOL     OW10546   5.736   5.173   1.287
 3216SOL    HW110547   5.649   5.211   1.319
 3216SOL    HW210548   5.761   5.217   1.200
 3217SOL     OW10549   0.012   5.700   2.774
 3217SOL    HW110550   6.948   5.639   2.771
 3217SOL    HW210551   6.998   5.795   2.765
 3218SOL     OW10552   4.423   0.316   4.042
 3218SOL    HW110553   4.432   0.224   4.004
 3218SOL    HW210554   4.326   0.342   4.044
 3219SOL     OW10555   0.133   2.214   3.144
 3219SOL    HW110556   0.229   2.243   3.150
 3219SOL    HW210557   0.111   2.157   3.224
 3220SOL     OW10558   6.686   5.805   5.592
 3220SOL    HW110559   6.642   5.745   5.659
 3220SOL    HW210560   6.785   5.791   5.594
 3221SOL     OW10561   3.336   6.933   1.622
 3221SOL    HW110562   3.338   0.010   1.586
 3221SOL    HW210563   3.371   6.870   1.553
 3222SOL     OW10564   4.276   1.546   2.644
 3222SOL    HW110565   4.242   1.531   2.551
 3222SOL    HW210566   4.209   1.600   2.695
 3223SOL     OW10567   2.187   5.585   6.604
 3223SOL    HW110568   2.220   5.495   6.577
 3223SOL    HW210569   2.192   5.594   6.703
 3224SOL     OW10570   4.544   3.464   0.045
 3224SOL    HW110571   4.607   3.497   0.115
 3224SOL    HW210572   4.541   3.530   6.986
 3225SOL     OW10573   4.660   3.397   6.217
 3225SOL    HW110574   4.640   3.474   6.155
 3225SOL    HW210575   4.577   3.343   6.230
 3226SOL     OW10576   1.671   1.632   4.446
 3226SOL    HW110577   1.680   1.646   4.544
 3226SOL    HW210578   1.760   1.643   4.402
 3227SOL     OW10579   3.572   1.469   0.172
 3227SOL    HW110580   3.525   1.539   0.120
 3227SOL    HW210581   3.665   1.456   0.136
 3228SOL     OW10582   5.635   4.493   2.758
 3228SOL    HW110583   5.714   4.522   2.812
 3228SOL    HW210584   5.611   4.564   2.692
 3229SOL     OW10585   3.517   1.456   5.601
 3229SOL    HW110586   3.599   1.507   5.624
 3229SOL    HW210587   3.458   1.510   5.541
 3230SOL     OW10588   1.855   3.573   4.026
 3230SOL    HW110589   1.952   3.556   4.010
 3230SOL    HW210590   1.800   3.510   3.971
 3231SOL     OW10591   2.750   0.828   1.848
 3231SOL    HW110592   2.680   0.762   1.819
 3231SOL    HW210593   2.729   0.917   1.807
 3232SOL     OW10594   4.156   4.917   5.089
 3232SOL    HW110595   4.161   5.017   5.090
 3232SOL    HW210596   4.062   4.887   5.104
 3233SOL     OW10597   0.859   2.597   1.671
 3233SOL    HW110598   0.952   2.621   1.643
 3233SOL    HW210599   0.794   2.651   1.620
 3234SOL     OW10600   0.094   1.793   6.949
 3234SOL    HW110601   0.142   1.854   7.013
 3234SOL    HW210602   0.046   1.722   7.001
 3235SOL     OW10603   4.883   0.910   1.374
 3235SOL    HW110604   4.929   0.963   1.445
 3235SOL    HW210605   4.784   0.912   1.389
 3236SOL     OW10606   1.412   3.194   0.537
 3236SOL    HW110607   1.455   3.139   0.609
 3236SOL    HW210608   1.468   3.274   0.518
 3237SOL     OW10609   5.222   1.529   3.890
 3237SOL    HW110610   5.211   1.561   3.984
 3237SOL    HW210611   5.182   1.438   3.881
 3238SOL     OW10612   0.007   4.818   0.968
 3238SOL    HW110613   7.010   4.782   0.876
 3238SOL    HW210614   0.050   4.749   1.025
 3239SOL     OW10615   6.629   1.633   1.266
 3239SOL    HW110616   6.620   1.538   1.294
 3239SOL    HW210617   6.708   1.643   1.204
 3240SOL     OW10618   1.346   6.527   5.973
 3240SOL    HW110619   1.423   6.591   5.966
 3240SOL    HW210620   1.359   6.467   6.052
 3241SOL     OW10621   4.429   1.498   5.194
 3241SOL    HW110622   4.449   1.595   5.207
 3241SOL    HW210623   4.406   1.457   5.283
 3242SOL     OW10624   3.228   4.582   0.970
 3242SOL    HW110625   3.226   4.663   0.912
 3242SOL    HW210626   3.323   4.550   0.980
 3243SOL     OW10627   5.518   4.577   0.711
 3243SOL    HW110628   5.528   4.479   0.695
 3243SOL    HW210629   5.436   4.610   0.664
 3244SOL     OW10630   4.953   6.281   0.552
 3244SOL    HW110631   4.990   6.246   0.638
 3244SOL    HW210632   4.914   6.205   0.499
 3245SOL     OW10633   4.864   2.945   4.959
 3245SOL    HW110634   4.830   2.981   5.045
 3245SOL    HW210635   4.959   2.916   4.970
 3246SOL     OW10636   5.460   0.956   2.864
 3246SOL    HW110637   5.498   0.900   2.938
 3246SOL    HW210638   5.468   0.908   2.777
 3247SOL     OW10639   5.813   4.816   2.872
 3247SOL    HW110640   5.831   4.884   2.943
 3247SOL    HW210641   5.803   4.726   2.914
 3248SOL     OW10642   6.649   3.286   1.845
 3248SOL    HW110643   6.646   3.376   1.888
 3248SOL    HW210644   6.737   3.243   1.864
 3249SOL     OW10645   3.477   4.003   4.661
 3249SOL    HW110646   3.379   3.998   4.647
 3249SOL    HW210647   3.501   4.088   4.707
 3250SOL     OW10648   5.705   6.928   2.023
 3250SOL    HW110649   5.626   6.869   2.006
 3250SOL    HW210650   5.789   6.882   1.994
 3251SOL     OW10651   3.646   0.849   2.005
 3251SOL    HW110652   3.596   0.832   1.920
 3251SOL    HW210653   3.677   0.761   2.043
 3252SOL     OW10654   2.515   2.381   2.349
 3252SOL    HW110655   2.498   2.469   2.395
 3252SOL    HW210656   2.472   2.308   2.402
 3253SOL     OW10657   5.864   3.259   2.202
 3253SOL    HW110658   5.925   3.245   2.280
 3253SOL    HW210659   5.777   3.297   2.234
 3254SOL     OW10660   5.361   5.439   5.738
 3254SOL    HW110661   5.316   5.418   5.824
 3254SOL    HW210662   5.406   5.357   5.702
 3255SOL     OW10663   5.212   6.057   1.586
 3255SOL    HW110664   5.266   6.139   1.570
 3255SOL    HW210665   5.196   6.046   1.684
 3256SOL     OW10666   4.602   0.681   0.023
 3256SOL    HW110667   4.609   0.624   6.957
 3256SOL    HW210668   4.651   0.767   0.008
 3257SOL     OW10669   1.409   1.861   1.629
 3257SOL    HW110670   1.395   1.943   1.575
 3257SOL    HW210671   1.425   1.783   1.568
 3258SOL     OW10672   4.027   4.889   1.914
 3258SOL    HW110673   4.068   4.798   1.920
 3258SOL    HW210674   3.956   4.898   1.984
 3259SOL     OW10675   4.673   5.267   3.962
 3259SOL    HW110676   4.697   5.215   3.880
 3259SOL    HW210677   4.677   5.208   4.042
 3260SOL     OW10678   1.221   1.771   0.981
 3260SOL    HW110679   1.200   1.869   0.979
 3260SOL    HW210680   1.139   1.720   1.007
 3261SOL     OW10681   4.733   6.443   0.638
 3261SOL    HW110682   4.736   6.452   0.738
 3261SOL    HW210683   4.817   6.399   0.607
 3262SOL     OW10684   3.761   2.104   2.594
 3262SOL    HW110685   3.683   2.144   2.547
 3262SOL    HW210686   3.845   2.127   2.545
 3263SOL     OW10687   3.597   1.450   3.418
 3263SOL    HW110688   3.591   1.426   3.321
 3263SOL    HW210689   3.691   1.476   3.441
 3264SOL     OW10690   1.307   4.280   1.154
 3264SOL    HW110691   1.398   4.313   1.127
 3264SOL    HW210692   1.238   4.347   1.129
 3265SOL     OW10693   4.677   1.553   5.539
 3265SOL    HW110694   4.578   1.545   5.524
 3265SOL    HW210695   4.706   1.486   5.607
 3266SOL     OW10696   0.549   2.519   6.906
 3266SOL    HW110697   0.502   2.537   6.993
 3266SOL    HW210698   0.598   2.602   6.877
 3267SOL     OW10699   3.674   1.271   6.924
 3267SOL    HW110700   3.606   1.284   6.997
 3267SOL    HW210701   3.739   1.347   6.925
 3268SOL     OW10702   1.196   4.695   0.122
 3268SOL    HW110703   1.218   4.791   0.139
 3268SOL    HW210704   1.221   4.640   0.201
 3269SOL     OW10705   4.432   4.639   2.001
 3269SOL    HW110706   4.382   4.690   2.071
 3269SOL    HW210707   4.528   4.631   2.027
 3270SOL     OW10708   0.878   4.406   4.502
 3270SOL    HW110709   0.909   4.480   4.561
 3270SOL    HW210710   0.805   4.440   4.442
 3271SOL     OW10711   5.533   4.016   2.574
 3271SOL    HW110712   5.581   3.939   2.615
 3271SOL    HW210713   5.440   3.989   2.550
 3272SOL     OW10714   3.601   3.807   6.956
 3272SOL    HW110715   3.649   3.781   6.873
 3272SOL    HW210716   3.510   3.765   6.957
 3273SOL     OW10717   0.717   6.700   1.956
 3273SOL    HW110718   0.812   6.730   1.960
 3273SOL    HW210719   0.661   6.771   1.912
 3274SOL     OW10720   4.416   1.124   1.724
 3274SOL    HW110721   4.321   1.113   1.692
 3274SOL    HW210722   4.425   1.211   1.772
 3275SOL     OW10723   0.207   0.610   6.665
 3275SOL    HW110724   0.158   0.527   6.640
 3275SOL    HW210725   0.226   0.609   6.763
 3276SOL     OW10726   3.470   6.125   0.449
 3276SOL    HW110727   3.445   6.028   0.444
 3276SOL    HW210728   3.520   6.151   0.366
 3277SOL     OW10729   5.308   0.129   0.385
 3277SOL    HW110730   5.358   0.053   0.426
 3277SOL    HW210731   5.230   0.093   0.333
 3278SOL     OW10732   0.099   1.175   5.930
 3278SOL    HW110733   0.032   1.106   5.960
 3278SOL    HW210734   0.178   1.173   5.991
 3279SOL     OW10735   6.656   1.485   0.708
 3279SOL    HW110736   6.564   1.491   0.669
 3279SOL    HW210737   6.690   1.576   0.728
 3280SOL     OW10738   3.492   5.064   4.870
 3280SOL    HW110739   3.496   5.106   4.779
 3280SOL    HW210740   3.500   5.136   4.940
 3281SOL     OW10741   2.313   5.084   1.011
 3281SOL    HW110742   2.399   5.131   1.029
 3281SOL    HW210743   2.255   5.141   0.952
 3282SOL     OW10744   0.954   5.624   4.715
 3282SOL    HW110745   0.940   5.706   4.771
 3282SOL    HW210746   1.044   5.585   4.734
 3283SOL     OW10747   4.078   1.293   0.962
 3283SOL    HW110748   4.080   1.263   1.057
 3283SOL    HW210749   4.013   1.368   0.952
 3284SOL     OW10750   6.097   5.946   6.807
 3284SOL    HW110751   6.077   6.026   6.864
 3284SOL    HW210752   6.124   5.869   6.864
 3285SOL     OW10753   5.083   2.723   3.868
 3285SOL    HW110754   5.048   2.743   3.776
 3285SOL    HW210755   5.183   2.715   3.863
 3286SOL     OW10756   4.069   3.332   2.518
 3286SOL    HW110757   4.123   3.261   2.564
 3286SOL    HW210758   3.974   3.300   2.509
 3287SOL     OW10759   1.506   6.450   6.695
 3287SOL    HW110760   1.431   6.516   6.694
 3287SOL    HW210761   1.506   6.398   6.610
 3288SOL     OW10762   0.639   5.537   6.913
 3288SOL    HW110763   0.631   5.469   6.986
 3288SOL    HW210764   0.735   5.558   6.897
 3289SOL     OW10765   2.593   6.957   5.229
 3289SOL    HW110766   2.588   6.858   5.227
 3289SOL    HW210767   2.689   6.986   5.230
 3290SOL     OW10768   0.443   0.223   1.936
 3290SOL    HW110769   0.355   0.239   1.980
 3290SOL    HW210770   0.514   0.213   2.005
 3291SOL     OW10771   1.036   6.608   0.218
 3291SOL    HW110772   1.130   6.639   0.215
 3291SOL    HW210773   0.980   6.674   0.268
 3292SOL     OW10774   0.647   0.981   0.646
 3292SOL    HW110775   0.607   1.042   0.715
 3292SOL    HW210776   0.635   0.886   0.675
 3293SOL     OW10777   0.075   3.508   3.402
 3293SOL    HW110778   0.112   3.518   3.494
 3293SOL    HW210779   0.004   3.438   3.401
 3294SOL     OW10780   0.628   1.058   6.156
 3294SOL    HW110781   0.676   0.976   6.186
 3294SOL    HW210782   0.666   1.138   6.202
 3295SOL     OW10783   1.417   2.977   1.711
 3295SOL    HW110784   1.401   3.042   1.637
 3295SOL    HW210785   1.329   2.951   1.752
 3296SOL     OW10786   2.053   6.321   2.216
 3296SOL    HW110787   1.979   6.259   2.192
 3296SOL    HW210788   2.140   6.284   2.181
 3297SOL     OW10789   3.048   0.480   4.310
 3297SOL    HW110790   3.049   0.482   4.210
 3297SOL    HW210791   3.138   0.451   4.344
 3298SOL     OW10792   5.341   1.875   4.098
 3298SOL    HW110793   5.244   1.891   4.081
 3298SOL    HW210794   5.381   1.827   4.020
 3299SOL     OW10795   2.140   6.105   4.184
 3299SOL    HW110796   2.178   6.079   4.273
 3299SOL    HW210797   2.158   6.202   4.167
 3300SOL     OW10798   0.328   0.903   5.794
 3300SOL    HW110799   0.311   0.807   5.816
 3300SOL    HW210800   0.331   0.915   5.694
 3301SOL     OW10801   1.955   3.205   2.850
 3301SOL    HW110802   1.872   3.196   2.795
 3301SOL    HW210803   1.952   3.139   2.925
 3302SOL     OW10804   1.383   5.759   5.788
 3302SOL    HW110805   1.431   5.687   5.736
 3302SOL    HW210806   1.368   5.727   5.882
 3303SOL     OW10807   3.745   2.981   1.962
 3303SOL    HW110808   3.770   2.922   1.885
 3303SOL    HW210809   3.803   2.961   2.041
 3304SOL     OW10810   1.632   5.731   4.466
 3304SOL    HW110811   1.582   5.762   4.386
 3304SOL    HW210812   1.574   5.739   4.547
 3305SOL     OW10813   1.954   1.305   3.204
 3305SOL    HW110814   2.051   1.293   3.225
 3305SOL    HW210815   1.910   1.215   3.203
 3306SOL     OW10816   2.108   5.470   4.205
 3306SOL    HW110817   2.199   5.505   4.228
 3306SOL    HW210818   2.067   5.429   4.287
 3307SOL     OW10819   6.914   6.001   6.765
 3307SOL    HW110820   6.971   6.032   6.689
 3307SOL    HW210821   6.896   6.078   6.826
 3308SOL     OW10822   4.183   5.762   0.090
 3308SOL    HW110823   4.263   5.788   0.146
 3308SOL    HW210824   4.192   5.803   7.016
 3309SOL     OW10825   0.238   5.205   2.543
 3309SOL    HW110826   0.147   5.170   2.565
 3309SOL    HW210827   0.265   5.274   2.610
 3310SOL     OW10828   6.937   3.978   5.047
 3310SOL    HW110829   6.894   3.952   5.133
 3310SOL    HW210830   6.996   4.058   5.061
 3311SOL     OW10831   2.407   3.874   1.762
 3311SOL    HW110832   2.500   3.862   1.727
 3311SOL    HW210833   2.346   3.806   1.720
 3312SOL     OW10834   3.453   4.960   5.686
 3312SOL    HW110835   3.440   5.008   5.773
 3312SOL    HW210836   3.363   4.938   5.646
 3313SOL     OW10837   6.789   5.501   2.808
 3313SOL    HW110838   6.801   5.402   2.803
 3313SOL    HW210839   6.743   5.525   2.894
 3314SOL     OW10840   2.381   1.928   4.053
 3314SOL    HW110841   2.304   1.876   4.017
 3314SOL    HW210842   2.348   2.011   4.098
 3315SOL     OW10843   6.024   3.304   4.322
 3315SOL    HW110844   6.095   3.374   4.309
 3315SOL    HW210845   6.067   3.214   4.327
 3316SOL     OW10846   4.229   1.884   6.314
 3316SOL    HW110847   4.167   1.806   6.319
 3316SOL    HW210848   4.177   1.969   6.326
 3317SOL     OW10849   4.691   3.505   1.639
 3317SOL    HW110850   4.695   3.500   1.539
 3317SOL    HW210851   4.730   3.592   1.669
 3318SOL     OW10852   3.525   0.713   0.354
 3318SOL    HW110853   3.575   0.778   0.412
 3318SOL    HW210854   3.580   0.631   0.341
 3319SOL     OW10855   6.036   0.552   4.356
 3319SOL    HW110856   6.025   0.462   4.314
 3319SOL    HW210857   5.992   0.552   4.446
 3320SOL     OW10858   5.506   0.627   5.582
 3320SOL    HW110859   5.559   0.686   5.642
 3320SOL    HW210860   5.546   0.535   5.581
 3321SOL     OW10861   4.130   2.063   1.083
 3321SOL    HW110862   4.030   2.057   1.089
 3321SOL    HW210863   4.166   2.103   1.168
 3322SOL     OW10864   5.067   3.633   1.337
 3322SOL    HW110865   5.027   3.660   1.250
 3322SOL    HW210866   5.030   3.689   1.411
 3323SOL     OW10867   2.590   3.735   6.352
 3323SOL    HW110868   2.618   3.829   6.373
 3323SOL    HW210869   2.613   3.675   6.428
 3324SOL     OW10870   1.058   3.419   6.331
 3324SOL    HW110871   1.146   3.426   6.285
 3324SOL    HW210872   0.991   3.476   6.283
 3325SOL     OW10873   2.065   2.402   6.058
 3325SOL    HW110874   1.992   2.377   6.122
 3325SOL    HW210875   2.121   2.321   6.040
 3326SOL     OW10876   5.798   1.653   2.135
 3326SOL    HW110877   5.813   1.752   2.136
 3326SOL    HW210878   5.801   1.618   2.229
 3327SOL     OW10879   3.328   6.177   1.428
 3327SOL    HW110880   3.361   6.083   1.414
 3327SOL    HW210881   3.305   6.189   1.524
 3328SOL     OW10882   4.543   1.591   1.908
 3328SOL    HW110883   4.489   1.670   1.877
 3328SOL    HW210884   4.518   1.569   2.003
 3329SOL     OW10885   5.312   0.629   4.210
 3329SOL    HW110886   5.375   0.636   4.133
 3329SOL    HW210887   5.265   0.716   4.224
 3330SOL     OW10888   5.921   5.950   1.248
 3330SOL    HW110889   6.011   5.913   1.224
 3330SOL    HW210890   5.922   5.979   1.344
 3331SOL     OW10891   0.732   3.597   2.164
 3331SOL    HW110892   0.633   3.608   2.149
 3331SOL    HW210893   0.762   3.510   2.127
 3332SOL     OW10894   6.390   4.525   0.425
 3332SOL    HW110895   6.329   4.457   0.464
 3332SOL    HW210896   6.446   4.566   0.497
 3333SOL     OW10897   3.112   3.942   6.738
 3333SOL    HW110898   3.175   4.011   6.771
 3333SOL    HW210899   3.069   3.973   6.653
 3334SOL     OW10900   2.181   4.034   2.148
 3334SOL    HW110901   2.204   4.130   2.136
 3334SOL    HW210902   2.223   3.999   2.232
 3335SOL     OW10903   4.567   6.834   6.238
 3335SOL    HW110904   4.571   6.845   6.338
 3335SOL    HW210905   4.624   6.757   6.211
 3336SOL     OW10906   1.694   6.661   4.745
 3336SOL    HW110907   1.751   6.738   4.715
 3336SOL    HW210908   1.615   6.696   4.796
 3337SOL     OW10909   2.813   4.075   1.197
 3337SOL    HW110910   2.891   4.014   1.184
 3337SOL    HW210911   2.761   4.044   1.277
 3338SOL     OW10912   0.415   2.771   0.826
 3338SOL    HW110913   0.408   2.849   0.888
 3338SOL    HW210914   0.327   2.726   0.818
 3339SOL     OW10915   1.058   6.760   6.603
 3339SOL    HW110916   1.036   6.689   6.670
 3339SOL    HW210917   0.975   6.814   6.584
 3340SOL     OW10918   3.395   1.351   2.983
 3340SOL    HW110919   3.393   1.451   2.981
 3340SOL    HW210920   3.305   1.316   3.012
 3341SOL     OW10921   1.517   4.525   4.006
 3341SOL    HW110922   1.612   4.558   4.008
 3341SOL    HW210923   1.456   4.599   4.035
 3342SOL     OW10924   1.495   6.902   3.980
 3342SOL    HW110925   1.404   6.903   4.021
 3342SOL    HW210926   1.504   6.821   3.921
 3343SOL     OW10927   5.444   4.452   6.732
 3343SOL    HW110928   5.375   4.523   6.745
 3343SOL    HW210929   5.494   4.469   6.647
 3344SOL     OW10930   5.588   3.479   3.602
 3344SOL    HW110931   5.638   3.510   3.521
 3344SOL    HW210932   5.542   3.557   3.644
 3345SOL     OW10933   1.612   3.914   6.438
 3345SOL    HW110934   1.624   3.957   6.349
 3345SOL    HW210935   1.641   3.819   6.434
 3346SOL     OW10936   0.949   0.705   0.166
 3346SOL    HW110937   1.000   0.637   0.217
 3346SOL    HW210938   1.010   0.780   0.140
 3347SOL     OW10939   1.288   2.458   5.241
 3347SOL    HW110940   1.220   2.525   5.210
 3347SOL    HW210941   1.379   2.498   5.234
 3348SOL     OW10942   4.160   3.425   4.407
 3348SOL    HW110943   4.117   3.335   4.404
 3348SOL    HW210944   4.257   3.415   4.428
 3349SOL     OW10945   2.104   5.376   3.460
 3349SOL    HW110946   2.027   5.384   3.524
 3349SOL    HW210947   2.145   5.466   3.447
 3350SOL     OW10948   0.218   2.200   5.737
 3350SOL    HW110949   0.257   2.114   5.704
 3350SOL    HW210950   0.166   2.244   5.664
 3351SOL     OW10951   4.787   0.675   2.652
 3351SOL    HW110952   4.834   0.601   2.605
 3351SOL    HW210953   4.751   0.740   2.585
 3352SOL     OW10954   6.556   3.061   1.210
 3352SOL    HW110955   6.496   2.984   1.186
 3352SOL    HW210956   6.501   3.144   1.220
 3353SOL     OW10957   3.088   5.935   1.308
 3353SOL    HW110958   3.119   5.931   1.402
 3353SOL    HW210959   3.028   6.015   1.296
 3354SOL     OW10960   3.809   2.310   5.302
 3354SOL    HW110961   3.784   2.262   5.386
 3354SOL    HW210962   3.768   2.264   5.223
 3355SOL     OW10963   1.819   1.618   6.111
 3355SOL    HW110964   1.803   1.621   6.013
 3355SOL    HW210965   1.909   1.577   6.129
 3356SOL     OW10966   0.882   5.599   6.256
 3356SOL    HW110967   0.866   5.541   6.336
 3356SOL    HW210968   0.834   5.560   6.177
 3357SOL     OW10969   2.381   3.634   1.579
 3357SOL    HW110970   2.349   3.595   1.665
 3357SOL    HW210971   2.474   3.603   1.561
 3358SOL     OW10972   4.472   1.542   2.197
 3358SOL    HW110973   4.402   1.487   2.151
 3358SOL    HW210974   4.431   1.625   2.234
 3359SOL     OW10975   0.631   6.226   3.034
 3359SOL    HW110976   0.539   6.263   3.021
 3359SOL    HW210977   0.654   6.169   2.955
 3360SOL     OW10978   1.479   1.204   6.899
 3360SOL    HW110979   1.480   1.253   6.812
 3360SOL    HW210980   1.403   1.238   6.955
 3361SOL     OW10981   6.736   4.973   4.435
 3361SOL    HW110982   6.681   4.923   4.368
 3361SOL    HW210983   6.696   5.064   4.450
 3362SOL     OW10984   3.539   1.201   2.822
 3362SOL    HW110985   3.473   1.261   2.867
 3362SOL    HW210986   3.630   1.219   2.860
 3363SOL     OW10987   6.845   2.305   1.575
 3363SOL    HW110988   6.769   2.369   1.586
 3363SOL    HW210989   6.900   2.304   1.659
 3364SOL     OW10990   2.035   4.435   4.265
 3364SOL    HW110991   2.124   4.392   4.249
 3364SOL    HW210992   2.046   4.511   4.329
 3365SOL     OW10993   0.410   2.390   4.905
 3365SOL    HW110994   0.357   2.473   4.921
 3365SOL    HW210995   0.350   2.318   4.871
 3366SOL     OW10996   5.397   4.965   4.429
 3366SOL    HW110997   5.496   4.957   4.438
 3366SOL    HW210998   5.353   4.939   4.515
 3367SOL     OW10999   3.972   3.094   2.663
 3367SOL    HW111000   3.901   3.151   2.704
 3367SOL    HW211001   4.014   3.037   2.735
 3368SOL     OW11002   0.555   5.452   6.499
 3368SOL    HW111003   0.638   5.435   6.445
 3368SOL    HW211004   0.511   5.536   6.466
 3369SOL     OW11005   3.751   1.845   0.549
 3369SOL    HW111006   3.675   1.787   0.580
 3369SOL    HW211007   3.807   1.872   0.628
 3370SOL     OW11008   6.664   6.281   1.492
 3370SOL    HW111009   6.756   6.253   1.520
 3370SOL    HW211010   6.614   6.202   1.457
 3371SOL     OW11011   2.199   3.000   1.347
 3371SOL    HW111012   2.135   3.013   1.271
 3371SOL    HW211013   2.287   2.970   1.312
 3372SOL     OW11014   6.679   2.100   6.635
 3372SOL    HW111015   6.642   2.161   6.566
 3372SOL    HW211016   6.734   2.152   6.700
 3373SOL     OW11017   0.393   2.116   4.175
 3373SOL    HW111018   0.397   2.168   4.260
 3373SOL    HW211019   0.475   2.133   4.121
 3374SOL     OW11020   0.998   6.828   3.581
 3374SOL    HW111021   1.084   6.820   3.630
 3374SOL    HW211022   0.922   6.810   3.644
 3375SOL     OW11023   6.956   4.525   0.109
 3375SOL    HW111024   6.955   4.545   0.011
 3375SOL    HW211025   6.949   4.611   0.160
 3376SOL     OW11026   3.569   2.823   4.753
 3376SOL    HW111027   3.484   2.840   4.703
 3376SOL    HW211028   3.588   2.724   4.753
 3377SOL     OW11029   6.612   5.175   5.799
 3377SOL    HW111030   6.527   5.167   5.852
 3377SOL    HW211031   6.591   5.201   5.705
 3378SOL     OW11032   1.441   6.889   0.577
 3378SOL    HW111033   1.370   6.949   0.615
 3378SOL    HW211034   1.483   6.935   0.499
 3379SOL     OW11035   1.035   1.752   4.967
 3379SOL    HW111036   0.986   1.838   4.961
 3379SOL    HW211037   1.133   1.770   4.976
 3380SOL     OW11038   5.046   6.854   4.827
 3380SOL    HW111039   4.950   6.840   4.804
 3380SOL    HW211040   5.063   6.831   4.922
 3381SOL     OW11041   0.600   3.133   1.310
 3381SOL    HW111042   0.663   3.123   1.388
 3381SOL    HW211043   0.511   3.162   1.343
 3382SOL     OW11044   0.786   2.645   6.329
 3382SOL    HW111045   0.780   2.585   6.409
 3382SOL    HW211046   0.798   2.739   6.360
 3383SOL     OW11047   3.846   5.737   1.292
 3383SOL    HW111048   3.793   5.684   1.226
 3383SOL    HW211049   3.826   5.705   1.385
 3384SOL     OW11050   2.162   3.099   0.694
 3384SOL    HW111051   2.196   3.109   0.788
 3384SOL    HW211052   2.213   3.028   0.647
 3385SOL     OW11053   6.851   3.572   4.890
 3385SOL    HW111054   6.879   3.613   4.802
 3385SOL    HW211055   6.816   3.644   4.950
 3386SOL     OW11056   5.607   4.599   0.419
 3386SOL    HW111057   5.568   4.518   0.461
 3386SOL    HW211058   5.559   4.619   0.333
 3387SOL     OW11059   4.088   0.294   3.226
 3387SOL    HW111060   4.132   0.302   3.137
 3387SOL    HW211061   4.018   0.366   3.235
 3388SOL     OW11062   5.467   3.070   2.535
 3388SOL    HW111063   5.468   3.115   2.446
 3388SOL    HW211064   5.439   2.975   2.525
 3389SOL     OW11065   6.609   5.607   5.972
 3389SOL    HW111066   6.658   5.531   6.015
 3389SOL    HW211067   6.607   5.593   5.873
 3390SOL     OW11068   5.012   6.818   6.111
 3390SOL    HW111069   4.997   6.917   6.100
 3390SOL    HW211070   4.977   6.770   6.030
 3391SOL     OW11071   4.697   2.723   4.331
 3391SOL    HW111072   4.704   2.702   4.233
 3391SOL    HW211073   4.601   2.720   4.358
 3392SOL     OW11074   3.335   6.584   4.038
 3392SOL    HW111075   3.252   6.549   4.081
 3392SOL    HW211076   3.405   6.512   4.038
 3393SOL     OW11077   6.397   6.155   0.594
 3393SOL    HW111078   6.440   6.077   0.551
 3393SOL    HW211079   6.347   6.208   0.526
 3394SOL     OW11080   5.352   3.574   0.986
 3394SOL    HW111081   5.351   3.574   1.086
 3394SOL    HW211082   5.446   3.560   0.954
 3395SOL     OW11083   5.021   2.811   3.621
 3395SOL    HW111084   5.034   2.741   3.551
 3395SOL    HW211085   5.090   2.883   3.610
 3396SOL     OW11086   5.424   1.269   3.535
 3396SOL    HW111087   5.508   1.310   3.499
 3396SOL    HW211088   5.373   1.226   3.461
 3397SOL     OW11089   3.184   5.573   6.765
 3397SOL    HW111090   3.129   5.644   6.720
 3397SOL    HW211091   3.142   5.548   6.852
 3398SOL     OW11092   0.730   0.540   4.326
 3398SOL    HW111093   0.696   0.562   4.235
 3398SOL    HW211094   0.664   0.480   4.372
 3399SOL     OW11095   5.423   5.015   3.330
 3399SOL    HW111096   5.367   5.036   3.410
 3399SOL    HW211097   5.390   4.932   3.287
 3400SOL     OW11098   5.683   3.327   6.620
 3400SOL    HW111099   5.715   3.236   6.594
 3400SOL    HW211100   5.667   3.381   6.537
 3401SOL     OW11101   6.694   3.483   6.244
 3401SOL    HW111102   6.626   3.440   6.303
 3401SOL    HW211103   6.747   3.550   6.298
 3402SOL     OW11104   5.163   5.367   6.388
 3402SOL    HW111105   5.224   5.376   6.466
 3402SOL    HW211106   5.097   5.442   6.388
 3403SOL     OW11107   4.066   5.395   6.332
 3403SOL    HW111108   4.127   5.323   6.299
 3403SOL    HW211109   3.981   5.395   6.279
 3404SOL     OW11110   5.534   2.616   0.639
 3404SOL    HW111111   5.537   2.539   0.576
 3404SOL    HW211112   5.439   2.634   0.665
 3405SOL     OW11113   6.094   4.253   6.556
 3405SOL    HW111114   6.040   4.181   6.599
 3405SOL    HW211115   6.190   4.243   6.583
 3406SOL     OW11116   1.271   3.407   2.224
 3406SOL    HW111117   1.340   3.427   2.155
 3406SOL    HW211118   1.185   3.381   2.178
 3407SOL     OW11119   1.529   4.301   6.758
 3407SOL    HW111120   1.529   4.263   6.850
 3407SOL    HW211121   1.523   4.228   6.691
 3408SOL     OW11122   5.170   2.922   4.482
 3408SOL    HW111123   5.128   2.890   4.397
 3408SOL    HW211124   5.174   3.022   4.481
 3409SOL     OW11125   3.776   5.925   0.352
 3409SOL    HW111126   3.791   6.020   0.323
 3409SOL    HW211127   3.821   5.863   0.288
 3410SOL     OW11128   0.043   6.480   1.542
 3410SOL    HW111129   0.028   6.506   1.637
 3410SOL    HW211130   7.013   6.394   1.523
 3411SOL     OW11131   0.349   2.493   0.426
 3411SOL    HW111132   0.416   2.485   0.500
 3411SOL    HW211133   0.258   2.468   0.461
 3412SOL     OW11134   4.885   3.239   1.325
 3412SOL    HW111135   4.937   3.197   1.400
 3412SOL    HW211136   4.875   3.173   1.250
 3413SOL     OW11137   6.316   1.345   0.790
 3413SOL    HW111138   6.398   1.300   0.827
 3413SOL    HW211139   6.332   1.372   0.696
 3414SOL     OW11140   3.623   2.034   5.890
 3414SOL    HW111141   3.529   2.046   5.921
 3414SOL    HW211142   3.685   2.085   5.949
 3415SOL     OW11143   2.284   2.914   4.060
 3415SOL    HW111144   2.293   2.969   3.977
 3415SOL    HW211145   2.227   2.962   4.126
 3416SOL     OW11146   5.728   6.131   0.624
 3416SOL    HW111147   5.670   6.143   0.544
 3416SOL    HW211148   5.677   6.159   0.706
 3417SOL     OW11149   0.655   6.094   4.087
 3417SOL    HW111150   0.712   6.017   4.116
 3417SOL    HW211151   0.707   6.153   4.025
 3418SOL     OW11152   3.860   5.605   3.756
 3418SOL    HW111153   3.919   5.682   3.732
 3418SOL    HW211154   3.780   5.604   3.695
 3419SOL     OW11155   2.923   5.378   6.137
 3419SOL    HW111156   2.918   5.427   6.050
 3419SOL    HW211157   3.019   5.359   6.159
 3420SOL     OW11158   5.800   3.300   3.394
 3420SOL    HW111159   5.710   3.295   3.350
 3420SOL    HW211160   5.804   3.235   3.470
 3421SOL     OW11161   5.005   1.822   3.791
 3421SOL    HW111162   4.923   1.876   3.775
 3421SOL    HW211163   5.010   1.748   3.724
 3422SOL     OW11164   3.225   0.304   6.986
 3422SOL    HW111165   3.246   0.401   6.995
 3422SOL    HW211166   3.143   0.293   6.931
 3423SOL     OW11167   6.975   4.626   5.959
 3423SOL    HW111168   6.928   4.549   5.915
 3423SOL    HW211169   6.911   4.702   5.971
 3424SOL     OW11170   2.135   6.536   1.194
 3424SOL    HW111171   2.196   6.461   1.170
 3424SOL    HW211172   2.187   6.621   1.199
 3425SOL     OW11173   4.533   5.027   2.240
 3425SOL    HW111174   4.439   5.021   2.273
 3425SOL    HW211175   4.589   4.957   2.285
 3426SOL     OW11176   4.341   2.436   1.433
 3426SOL    HW111177   4.398   2.354   1.426
 3426SOL    HW211178   4.390   2.513   1.391
 3427SOL     OW11179   0.969   1.642   1.024
 3427SOL    HW111180   0.873   1.629   0.998
 3427SOL    HW211181   0.976   1.644   1.124
 3428SOL     OW11182   3.487   5.203   0.425
 3428SOL    HW111183   3.506   5.132   0.493
 3428SOL    HW211184   3.474   5.290   0.471
 3429SOL     OW11185   0.503   2.230   1.235
 3429SOL    HW111186   0.473   2.164   1.304
 3429SOL    HW211187   0.539   2.181   1.155
 3430SOL     OW11188   2.117   5.637   5.731
 3430SOL    HW111189   2.017   5.634   5.735
 3430SOL    HW211190   2.151   5.697   5.804
 3431SOL     OW11191   1.458   5.742   1.793
 3431SOL    HW111192   1.372   5.745   1.844
 3431SOL    HW211193   1.523   5.682   1.839
 3432SOL     OW11194   2.225   4.378   5.371
 3432SOL    HW111195   2.144   4.373   5.313
 3432SOL    HW211196   2.237   4.291   5.420
 3433SOL     OW11197   1.048   0.328   4.960
 3433SOL    HW111198   1.115   0.292   4.894
 3433SOL    HW211199   1.096   0.371   5.036
 3434SOL     OW11200   3.964   1.066   2.156
 3434SOL    HW111201   3.913   0.980   2.165
 3434SOL    HW211202   3.900   1.143   2.160
 3435SOL     OW11203   2.016   1.312   1.349
 3435SOL    HW111204   2.081   1.328   1.275
 3435SOL    HW211205   2.037   1.374   1.425
 3436SOL     OW11206   3.785   6.207   0.328
 3436SOL    HW111207   3.839   6.287   0.304
 3436SOL    HW211208   3.695   6.212   0.285
 3437SOL     OW11209   2.753   6.752   5.525
 3437SOL    HW111210   2.806   6.824   5.482
 3437SOL    HW211211   2.682   6.792   5.583
 3438SOL     OW11212   0.815   3.526   0.667
 3438SOL    HW111213   0.796   3.460   0.739
 3438SOL    HW211214   0.873   3.599   0.704
 3439SOL     OW11215   3.538   6.131   4.546
 3439SOL    HW111216   3.463   6.149   4.611
 3439SOL    HW211217   3.564   6.216   4.501
 3440SOL     OW11218   3.319   3.063   1.895
 3440SOL    HW111219   3.269   3.096   1.815
 3440SOL    HW211220   3.270   2.986   1.935
 3441SOL     OW11221   6.772   6.027   6.212
 3441SOL    HW111222   6.722   6.075   6.140
 3441SOL    HW211223   6.725   6.041   6.300
 3442SOL     OW11224   1.763   4.054   1.755
 3442SOL    HW111225   1.723   4.145   1.760
 3442SOL    HW211226   1.812   4.033   1.840
 3443SOL     OW11227   4.240   6.272   2.126
 3443SOL    HW111228   4.295   6.208   2.180
 3443SOL    HW211229   4.143   6.249   2.135
 3444SOL     OW11230   4.472   5.380   6.778
 3444SOL    HW111231   4.513   5.383   6.869
 3444SOL    HW211232   4.417   5.297   6.769
 3445SOL     OW11233   5.357   5.179   2.443
 3445SOL    HW111234   5.413   5.099   2.466
 3445SOL    HW211235   5.278   5.149   2.388
 3446SOL     OW11236   6.275   0.670   1.353
 3446SOL    HW111237   6.254   0.573   1.349
 3446SOL    HW211238   6.299   0.702   1.261
 3447SOL     OW11239   4.805   6.527   0.896
 3447SOL    HW111240   4.823   6.556   0.989
 3447SOL    HW211241   4.823   6.602   0.833
 3448SOL     OW11242   3.817   7.014   6.425
 3448SOL    HW111243   3.794   0.066   6.355
 3448SOL    HW211244   3.734   6.988   6.474
 3449SOL     OW11245   5.962   5.100   4.786
 3449SOL    HW111246   5.959   5.025   4.719
 3449SOL    HW211247   5.931   5.185   4.742
 3450SOL     OW11248   0.908   1.496   6.570
 3450SOL    HW111249   0.832   1.543   6.525
 3450SOL    HW211250   0.872   1.442   6.647
 3451SOL     OW11251   2.675   6.563   6.893
 3451SOL    HW111252   2.773   6.543   6.894
 3451SOL    HW211253   2.624   6.478   6.910
 3452SOL     OW11254   5.426   0.551   6.499
 3452SOL    HW111255   5.517   0.516   6.517
 3452SOL    HW211256   5.386   0.585   6.584
 3453SOL     OW11257   6.493   5.392   6.403
 3453SOL    HW111258   6.561   5.416   6.473
 3453SOL    HW211259   6.457   5.475   6.362
 3454SOL     OW11260   1.063   3.861   5.214
 3454SOL    HW111261   1.048   3.796   5.139
 3454SOL    HW211262   1.087   3.812   5.297
 3455SOL     OW11263   2.632   1.672   4.286
 3455SOL    HW111264   2.645   1.664   4.187
 3455SOL    HW211265   2.536   1.689   4.306
 3456SOL     OW11266   5.597   4.573   1.495
 3456SOL    HW111267   5.528   4.509   1.530
 3456SOL    HW211268   5.646   4.615   1.572
 3457SOL     OW11269   3.991   5.307   4.122
 3457SOL    HW111270   3.920   5.376   4.113
 3457SOL    HW211271   4.072   5.346   4.165
 3458SOL     OW11272   4.422   0.850   2.346
 3458SOL    HW111273   4.469   0.842   2.258
 3458SOL    HW211274   4.343   0.910   2.337
 3459SOL     OW11275   5.053   2.387   2.404
 3459SOL    HW111276   5.001   2.361   2.485
 3459SOL    HW211277   5.011   2.467   2.361
 3460SOL     OW11278   3.294   1.801   0.248
 3460SOL    HW111279   3.343   1.763   0.170
 3460SOL    HW211280   3.346   1.877   0.287
 3461SOL     OW11281   4.638   3.820   0.004
 3461SOL    HW111282   4.710   3.888   7.010
 3461SOL    HW211283   4.638   3.758   6.942
 3462SOL     OW11284   0.821   3.981   5.279
 3462SOL    HW111285   0.756   3.972   5.204
 3462SOL    HW211286   0.908   3.937   5.254
 3463SOL     OW11287   0.697   4.235   1.954
 3463SOL    HW111288   0.685   4.292   1.872
 3463SOL    HW211289   0.623   4.168   1.960
 3464SOL     OW11290   0.146   4.670   5.769
 3464SOL    HW111291   0.080   4.647   5.840
 3464SOL    HW211292   0.115   4.633   5.682
 3465SOL     OW11293   1.547   2.402   2.096
 3465SOL    HW111294   1.643   2.421   2.117
 3465SOL    HW211295   1.530   2.421   1.999
 3466SOL     OW11296   6.683   5.348   6.066
 3466SOL    HW111297   6.683   5.305   5.976
 3466SOL    HW211298   6.638   5.288   6.132
 3467SOL     OW11299   1.826   2.721   6.508
 3467SOL    HW111300   1.912   2.729   6.456
 3467SOL    HW211301   1.823   2.631   6.552
 3468SOL     OW11302   4.567   6.400   2.273
 3468SOL    HW111303   4.640   6.339   2.245
 3468SOL    HW211304   4.516   6.431   2.193
 3469SOL     OW11305   5.826   0.442   3.160
 3469SOL    HW111306   5.755   0.378   3.132
 3469SOL    HW211307   5.889   0.458   3.084
 3470SOL     OW11308   6.506   3.840   0.721
 3470SOL    HW111309   6.487   3.753   0.767
 3470SOL    HW211310   6.582   3.886   0.767
 3471SOL     OW11311   3.834   4.920   4.359
 3471SOL    HW111312   3.813   4.836   4.308
 3471SOL    HW211313   3.763   4.936   4.427
 3472SOL     OW11314   2.106   0.754   2.606
 3472SOL    HW111315   2.018   0.769   2.650
 3472SOL    HW211316   2.113   0.660   2.575
 3473SOL     OW11317   6.745   1.802   6.707
 3473SOL    HW111318   6.727   1.733   6.636
 3473SOL    HW211319   6.702   1.888   6.680
 3474SOL     OW11320   2.733   5.214   1.706
 3474SOL    HW111321   2.723   5.224   1.607
 3474SOL    HW211322   2.645   5.235   1.750
 3475SOL     OW11323   0.873   5.847   4.861
 3475SOL    HW111324   0.932   5.873   4.938
 3475SOL    HW211325   0.793   5.798   4.896
 3476SOL     OW11326   3.641   1.831   3.001
 3476SOL    HW111327   3.626   1.929   3.011
 3476SOL    HW211328   3.695   1.797   3.078
 3477SOL     OW11329   2.893   5.177   1.227
 3477SOL    HW111330   2.961   5.249   1.237
 3477SOL    HW211331   2.900   5.138   1.135
 3478SOL     OW11332   2.420   5.498   4.952
 3478SOL    HW111333   2.430   5.419   4.893
 3478SOL    HW211334   2.510   5.527   4.985
 3479SOL     OW11335   1.134   1.042   2.854
 3479SOL    HW111336   1.037   1.049   2.875
 3479SOL    HW211337   1.187   1.088   2.925
 3480SOL     OW11338   6.924   6.891   4.890
 3480SOL    HW111339   6.859   6.889   4.815
 3480SOL    HW211340   6.936   6.985   4.922
 3481SOL     OW11341   4.804   6.881   0.352
 3481SOL    HW111342   4.806   6.781   0.361
 3481SOL    HW211343   4.863   6.922   0.421
 3482SOL     OW11344   5.853   1.608   0.878
 3482SOL    HW111345   5.894   1.567   0.796
 3482SOL    HW211346   5.753   1.602   0.872
 3483SOL     OW11347   4.153   1.226   1.229
 3483SOL    HW111348   4.170   1.146   1.287
 3483SOL    HW211349   4.165   1.309   1.283
 3484SOL     OW11350   3.014   3.790   1.663
 3484SOL    HW111351   3.011   3.715   1.597
 3484SOL    HW211352   3.041   3.755   1.753
 3485SOL     OW11353   1.195   0.054   4.122
 3485SOL    HW111354   1.233   0.143   4.097
 3485SOL    HW211355   1.232   0.026   4.211
 3486SOL     OW11356   3.005   1.603   2.735
 3486SOL    HW111357   2.940   1.676   2.755
 3486SOL    HW211358   2.965   1.515   2.760
 3487SOL     OW11359   5.602   2.059   5.748
 3487SOL    HW111360   5.634   2.044   5.842
 3487SOL    HW211361   5.652   2.000   5.686
 3488SOL     OW11362   5.215   2.450   4.180
 3488SOL    HW111363   5.132   2.503   4.160
 3488SOL    HW211364   5.290   2.483   4.123
 3489SOL     OW11365   2.654   6.712   0.372
 3489SOL    HW111366   2.610   6.670   0.451
 3489SOL    HW211367   2.753   6.712   0.386
 3490SOL     OW11368   4.758   4.651   6.529
 3490SOL    HW111369   4.749   4.679   6.433
 3490SOL    HW211370   4.720   4.559   6.541
 3491SOL     OW11371   5.448   2.645   4.414
 3491SOL    HW111372   5.383   2.695   4.356
 3491SOL    HW211373   5.415   2.552   4.428
 3492SOL     OW11374   0.751   5.490   1.281
 3492SOL    HW111375   0.704   5.572   1.315
 3492SOL    HW211376   0.836   5.478   1.332
 3493SOL     OW11377   6.626   5.030   6.789
 3493SOL    HW111378   6.665   5.058   6.877
 3493SOL    HW211379   6.530   5.006   6.801
 3494SOL     OW11380   3.799   0.524   1.528
 3494SOL    HW111381   3.825   0.436   1.490
 3494SOL    HW211382   3.882   0.577   1.548
 3495SOL     OW11383   4.280   5.000   2.008
 3495SOL    HW111384   4.187   4.976   1.980
 3495SOL    HW211385   4.310   4.940   2.082
 3496SOL     OW11386   0.166   3.973   0.734
 3496SOL    HW111387   0.228   4.037   0.689
 3496SOL    HW211388   0.203   3.880   0.728
 3497SOL     OW11389   4.337   6.586   3.327
 3497SOL    HW111390   4.330   6.592   3.228
 3497SOL    HW211391   4.286   6.660   3.370
 3498SOL     OW11392   1.922   2.633   0.522
 3498SOL    HW111393   1.997   2.621   0.587
 3498SOL    HW211394   1.959   2.635   0.429
 3499SOL     OW11395   4.783   2.969   4.456
 3499SOL    HW111396   4.765   2.945   4.552
 3499SOL    HW211397   4.778   2.887   4.400
 3500SOL     OW11398   0.733   3.930   4.990
 3500SOL    HW111399   0.671   4.005   5.014
 3500SOL    HW211400   0.777   3.949   4.903
 3501SOL     OW11401   1.318   5.432   3.801
 3501SOL    HW111402   1.326   5.461   3.896
 3501SOL    HW211403   1.225   5.401   3.783
 3502SOL     OW11404   6.559   2.359   1.893
 3502SOL    HW111405   6.486   2.361   1.961
 3502SOL    HW211406   6.578   2.453   1.861
 3503SOL     OW11407   5.892   6.081   5.537
 3503SOL    HW111408   5.830   6.142   5.487
 3503SOL    HW211409   5.933   6.130   5.614
 3504SOL     OW11410   2.129   2.114   1.040
 3504SOL    HW111411   2.169   2.175   0.972
 3504SOL    HW211412   2.188   2.112   1.121
 3505SOL     OW11413   5.393   4.807   5.110
 3505SOL    HW111414   5.425   4.755   5.189
 3505SOL    HW211415   5.382   4.746   5.032
 3506SOL     OW11416   4.805   6.339   5.316
 3506SOL    HW111417   4.814   6.239   5.320
 3506SOL    HW211418   4.882   6.381   5.365
 3507SOL     OW11419   2.573   0.508   0.371
 3507SOL    HW111420   2.554   0.461   0.285
 3507SOL    HW211421   2.657   0.561   0.363
 3508SOL     OW11422   3.820   2.542   6.210
 3508SOL    HW111423   3.806   2.504   6.301
 3508SOL    HW211424   3.918   2.543   6.188
 3509SOL     OW11425   4.954   6.635   6.322
 3509SOL    HW111426   4.872   6.596   6.280
 3509SOL    HW211427   4.991   6.706   6.263
 3510SOL     OW11428   2.168   1.896   1.550
 3510SOL    HW111429   2.239   1.948   1.504
 3510SOL    HW211430   2.201   1.868   1.641
 3511SOL     OW11431   1.714   5.014   6.951
 3511SOL    HW111432   1.727   4.916   6.935
 3511SOL    HW211433   1.690   5.030   0.030
 3512SOL     OW11434   6.689   3.931   0.943
 3512SOL    HW111435   6.692   3.847   0.999
 3512SOL    HW211436   6.781   3.956   0.916
 3513SOL     OW11437   5.872   4.039   0.671
 3513SOL    HW111438   5.944   4.107   0.687
 3513SOL    HW211439   5.897   3.981   0.593
 3514SOL     OW11440   6.868   1.040   2.178
 3514SOL    HW111441   6.874   1.122   2.121
 3514SOL    HW211442   6.960   1.006   2.197
 3515SOL     OW11443   4.517   6.601   2.456
 3515SOL    HW111444   4.528   6.509   2.417
 3515SOL    HW211445   4.585   6.663   2.415
 3516SOL     OW11446   4.725   0.605   1.209
 3516SOL    HW111447   4.634   0.566   1.224
 3516SOL    HW211448   4.770   0.556   1.135
 3517SOL     OW11449   0.699   2.286   6.850
 3517SOL    HW111450   0.653   2.372   6.870
 3517SOL    HW211451   0.690   2.224   6.929
 3518SOL     OW11452   5.567   4.045   4.841
 3518SOL    HW111453   5.634   4.096   4.788
 3518SOL    HW211454   5.559   3.952   4.804
 3519SOL     OW11455   2.431   0.613   6.408
 3519SOL    HW111456   2.496   0.541   6.384
 3519SOL    HW211457   2.421   0.617   6.508
 3520SOL     OW11458   2.880   5.109   0.941
 3520SOL    HW111459   2.963   5.063   0.911
 3520SOL    HW211460   2.805   5.087   0.878
 3521SOL     OW11461   5.804   3.597   1.358
 3521SOL    HW111462   5.869   3.524   1.338
 3521SOL    HW211463   5.712   3.567   1.334
 3522SOL     OW11464   4.446   5.289   2.181
 3522SOL    HW111465   4.504   5.264   2.103
 3522SOL    HW211466   4.366   5.230   2.183
 3523SOL     OW11467   2.814   4.367   5.704
 3523SOL    HW111468   2.739   4.303   5.688
 3523SOL    HW211469   2.793   4.453   5.658
 3524SOL     OW11470   2.637   1.103   1.113
 3524SOL    HW111471   2.586   1.017   1.113
 3524SOL    HW211472   2.699   1.105   1.191
 3525SOL     OW11473   0.703   3.990   2.466
 3525SOL    HW111474   0.690   3.977   2.367
 3525SOL    HW211475   0.621   4.032   2.504
 3526SOL     OW11476   1.874   6.097   4.033
 3526SOL    HW111477   1.905   6.113   3.940
 3526SOL    HW211478   1.941   6.131   4.098
 3527SOL     OW11479   6.094   3.444   5.890
 3527SOL    HW111480   6.034   3.415   5.815
 3527SOL    HW211481   6.185   3.465   5.854
 3528SOL     OW11482   1.065   5.364   3.880
 3528SOL    HW111483   1.071   5.264   3.884
 3528SOL    HW211484   0.971   5.392   3.897
 3529SOL     OW11485   4.603   6.976   5.424
 3529SOL    HW111486   4.513   6.947   5.456
 3529SOL    HW211487   4.643   0.024   5.490
 3530SOL     OW11488   3.086   4.870   3.378
 3530SOL    HW111489   3.181   4.854   3.352
 3530SOL    HW211490   3.079   4.956   3.428
 3531SOL     OW11491   4.762   4.650   1.233
 3531SOL    HW111492   4.826   4.597   1.290
 3531SOL    HW211493   4.668   4.621   1.254
 3532SOL     OW11494   2.658   0.001   0.605
 3532SOL    HW111495   2.579   0.060   0.587
 3532SOL    HW211496   2.719   0.000   0.526
 3533SOL     OW11497   1.063   2.611   3.024
 3533SOL    HW111498   0.971   2.639   2.998
 3533SOL    HW211499   1.074   2.513   3.006
 3534SOL     OW11500   6.306   1.162   5.034
 3534SOL    HW111501   6.360   1.090   5.079
 3534SOL    HW211502   6.299   1.143   4.937
 3535SOL     OW11503   6.402   5.633   0.472
 3535SOL    HW111504   6.357   5.569   0.534
 3535SOL    HW211505   6.464   5.583   0.411
 3536SOL     OW11506   2.271   2.917   3.690
 3536SOL    HW111507   2.217   2.854   3.635
 3536SOL    HW211508   2.340   2.865   3.741
 3537SOL     OW11509   2.593   4.968   0.367
 3537SOL    HW111510   2.527   5.042   0.372
 3537SOL    HW211511   2.586   4.911   0.449
 3538SOL     OW11512   2.868   0.848   4.004
 3538SOL    HW111513   2.793   0.785   4.023
 3538SOL    HW211514   2.906   0.882   4.090
 3539SOL     OW11515   5.630   3.681   6.462
 3539SOL    HW111516   5.653   3.648   6.371
 3539SOL    HW211517   5.576   3.765   6.455
 3540SOL     OW11518   2.330   1.428   5.374
 3540SOL    HW111519   2.340   1.478   5.460
 3540SOL    HW211520   2.272   1.480   5.311
 3541SOL     OW11521   2.593   2.739   6.643
 3541SOL    HW111522   2.535   2.772   6.718
 3541SOL    HW211523   2.560   2.775   6.556
 3542SOL     OW11524   6.920   3.248   0.939
 3542SOL    HW111525   6.870   3.168   0.975
 3542SOL    HW211526   6.857   3.305   0.887
 3543SOL     OW11527   1.879   3.341   4.545
 3543SOL    HW111528   1.793   3.316   4.502
 3543SOL    HW211529   1.926   3.258   4.577
 3544SOL     OW11530   2.010   4.415   6.381
 3544SOL    HW111531   1.975   4.477   6.311
 3544SOL    HW211532   2.109   4.404   6.369
 3545SOL     OW11533   3.533   5.054   6.583
 3545SOL    HW111534   3.502   5.031   6.675
 3545SOL    HW211535   3.628   5.086   6.587
 3546SOL     OW11536   6.545   4.742   3.122
 3546SOL    HW111537   6.592   4.694   3.048
 3546SOL    HW211538   6.599   4.822   3.149
 3547SOL     OW11539   0.087   4.193   5.117
 3547SOL    HW111540   0.078   4.231   5.025
 3547SOL    HW211541   0.035   4.249   5.181
 3548SOL     OW11542   5.668   0.470   5.908
 3548SOL    HW111543   5.732   0.417   5.853
 3548SOL    HW211544   5.584   0.485   5.856
 3549SOL     OW11545   1.985   4.385   5.896
 3549SOL    HW111546   2.019   4.479   5.902
 3549SOL    HW211547   1.977   4.359   5.799
 3550SOL     OW11548   5.853   2.453   4.521
 3550SOL    HW111549   5.895   2.471   4.611
 3550SOL    HW211550   5.872   2.530   4.460
 3551SOL     OW11551   3.908   1.607   4.023
 3551SOL    HW111552   4.007   1.597   4.020
 3551SOL    HW211553   3.881   1.652   4.108
 3552SOL     OW11554   6.427   6.153   1.695
 3552SOL    HW111555   6.516   6.175   1.656
 3552SOL    HW211556   6.433   6.068   1.747
 3553SOL     OW11557   3.472   5.421   6.945
 3553SOL    HW111558   3.427   5.363   6.877
 3553SOL    HW211559   3.517   5.364   7.013
 3554SOL     OW11560   4.563   2.804   0.858
 3554SOL    HW111561   4.636   2.757   0.909
 3554SOL    HW211562   4.513   2.738   0.802
 3555SOL     OW11563   1.547   3.122   4.042
 3555SOL    HW111564   1.473   3.087   3.985
 3555SOL    HW211565   1.569   3.055   4.113
 3556SOL     OW11566   4.017   0.967   3.796
 3556SOL    HW111567   4.076   0.990   3.873
 3556SOL    HW211568   3.971   1.050   3.763
 3557SOL     OW11569   1.225   6.793   3.739
 3557SOL    HW111570   1.319   6.827   3.741
 3557SOL    HW211571   1.193   6.779   3.833
 3558SOL     OW11572   2.303   4.671   1.653
 3558SOL    HW111573   2.285   4.742   1.721
 3558SOL    HW211574   2.219   4.621   1.633
 3559SOL     OW11575   0.724   6.196   4.828
 3559SOL    HW111576   0.665   6.119   4.806
 3559SOL    HW211577   0.798   6.203   4.761
 3560SOL     OW11578   2.293   4.745   3.076
 3560SOL    HW111579   2.355   4.794   3.015
 3560SOL    HW211580   2.199   4.778   3.062
 3561SOL     OW11581   5.078   3.865   5.830
 3561SOL    HW111582   5.035   3.909   5.909
 3561SOL    HW211583   5.091   3.768   5.849
 3562SOL     OW11584   3.209   1.794   3.745
 3562SOL    HW111585   3.137   1.726   3.740
 3562SOL    HW211586   3.246   1.797   3.839
 3563SOL     OW11587   6.369   1.558   6.487
 3563SOL    HW111588   6.416   1.475   6.518
 3563SOL    HW211589   6.328   1.603   6.566
 3564SOL     OW11590   0.444   4.656   2.858
 3564SOL    HW111591   0.418   4.745   2.897
 3564SOL    HW211592   0.542   4.654   2.843
 3565SOL     OW11593   3.784   5.868   3.916
 3565SOL    HW111594   3.720   5.842   3.843
 3565SOL    HW211595   3.740   5.857   4.005
 3566SOL     OW11596   6.000   1.822   6.519
 3566SOL    HW111597   5.907   1.783   6.512
 3566SOL    HW211598   6.067   1.750   6.498
 3567SOL     OW11599   0.436   2.518   6.463
 3567SOL    HW111600   0.359   2.544   6.521
 3567SOL    HW211601   0.518   2.567   6.493
 3568SOL     OW11602   5.293   4.266   5.176
 3568SOL    HW111603   5.308   4.211   5.094
 3568SOL    HW211604   5.270   4.207   5.253
 3569SOL     OW11605   2.942   2.433   6.433
 3569SOL    HW111606   2.903   2.369   6.500
 3569SOL    HW211607   2.906   2.524   6.450
 3570SOL     OW11608   4.918   0.062   6.148
 3570SOL    HW111609   4.923   0.044   6.246
 3570SOL    HW211610   4.823   0.078   6.122
 3571SOL     OW11611   0.841   4.975   0.296
 3571SOL    HW111612   0.929   5.009   0.330
 3571SOL    HW211613   0.853   4.937   0.205
 3572SOL     OW11614   5.204   4.100   3.071
 3572SOL    HW111615   5.205   4.179   3.132
 3572SOL    HW211616   5.177   4.128   2.979
 3573SOL     OW11617   0.471   4.505   3.590
 3573SOL    HW111618   0.401   4.465   3.649
 3573SOL    HW211619   0.562   4.485   3.628
 3574SOL     OW11620   0.420   4.334   0.418
 3574SOL    HW111621   0.372   4.393   0.483
 3574SOL    HW211622   0.494   4.386   0.375
 3575SOL     OW11623   5.223   4.814   2.536
 3575SOL    HW111624   5.249   4.835   2.630
 3575SOL    HW211625   5.297   4.764   2.490
 3576SOL     OW11626   2.122   1.551   5.191
 3576SOL    HW111627   2.033   1.564   5.235
 3576SOL    HW211628   2.125   1.605   5.107
 3577SOL     OW11629   1.231   2.453   6.125
 3577SOL    HW111630   1.228   2.528   6.059
 3577SOL    HW211631   1.305   2.390   6.101
 3578SOL     OW11632   3.183   2.335   0.810
 3578SOL    HW111633   3.201   2.307   0.904
 3578SOL    HW211634   3.085   2.341   0.795
 3579SOL     OW11635   6.309   3.941   4.647
 3579SOL    HW111636   6.398   3.898   4.661
 3579SOL    HW211637   6.313   4.000   4.566
 3580SOL     OW11638   6.288   2.421   1.151
 3580SOL    HW111639   6.298   2.389   1.057
 3580SOL    HW211640   6.349   2.498   1.167
 3581SOL     OW11641   0.314   6.167   3.674
 3581SOL    HW111642   0.278   6.197   3.762
 3581SOL    HW211643   0.385   6.098   3.688
 3582SOL     OW11644   1.097   1.962   5.716
 3582SOL    HW111645   1.190   2.001   5.716
 3582SOL    HW211646   1.067   1.949   5.621
 3583SOL     OW11647   1.322   3.508   6.237
 3583SOL    HW111648   1.419   3.528   6.251
 3583SOL    HW211649   1.281   3.580   6.180
 3584SOL     OW11650   6.145   5.295   6.797
 3584SOL    HW111651   6.217   5.353   6.758
 3584SOL    HW211652   6.172   5.264   6.888
 3585SOL     OW11653   4.797   6.049   5.300
 3585SOL    HW111654   4.776   5.953   5.321
 3585SOL    HW211655   4.799   6.061   5.201
 3586SOL     OW11656   0.606   2.341   5.367
 3586SOL    HW111657   0.568   2.374   5.454
 3586SOL    HW211658   0.576   2.401   5.293
 3587SOL     OW11659   3.091   5.112   6.197
 3587SOL    HW111660   3.051   5.109   6.105
 3587SOL    HW211661   3.099   5.019   6.233
 3588SOL     OW11662   1.114   3.007   4.807
 3588SOL    HW111663   1.205   2.994   4.770
 3588SOL    HW211664   1.114   2.986   4.905
 3589SOL     OW11665   4.057   2.190   4.954
 3589SOL    HW111666   4.091   2.170   4.862
 3589SOL    HW211667   4.126   2.243   5.004
 3590SOL     OW11668   1.303   2.636   6.359
 3590SOL    HW111669   1.300   2.605   6.264
 3590SOL    HW211670   1.383   2.598   6.405
 3591SOL     OW11671   4.829   3.496   6.726
 3591SOL    HW111672   4.848   3.423   6.792
 3591SOL    HW211673   4.769   3.461   6.654
 3592SOL     OW11674   6.475   4.214   1.993
 3592SOL    HW111675   6.492   4.255   1.903
 3592SOL    HW211676   6.505   4.277   2.065
 3593SOL     OW11677   1.867   5.692   4.747
 3593SOL    HW111678   1.892   5.782   4.783
 3593SOL    HW211679   1.906   5.621   4.805
 3594SOL     OW11680   4.566   0.628   3.031
 3594SOL    HW111681   4.610   0.580   2.955
 3594SOL    HW211682   4.468   0.606   3.031
 3595SOL     OW11683   2.215   5.605   6.889
 3595SOL    HW111684   2.279   5.681   6.896
 3595SOL    HW211685   2.209   5.558   6.977
 3596SOL     OW11686   6.727   2.213   3.220
 3596SOL    HW111687   6.662   2.139   3.242
 3596SOL    HW211688   6.819   2.187   3.249
 3597SOL     OW11689   2.409   1.309   4.946
 3597SOL    HW111690   2.453   1.376   4.887
 3597SOL    HW211691   2.418   1.337   5.042
 3598SOL     OW11692   1.254   5.876   6.624
 3598SOL    HW111693   1.254   5.876   6.524
 3598SOL    HW211694   1.242   5.783   6.658
 3599SOL     OW11695   0.614   1.997   5.575
 3599SOL    HW111696   0.595   2.022   5.480
 3599SOL    HW211697   0.531   1.958   5.616
 3600SOL     OW11698   1.161   3.608   0.284
 3600SOL    HW111699   1.142   3.535   0.350
 3600SOL    HW211700   1.098   3.601   0.207
 3601SOL     OW11701   5.732   5.081   6.708
 3601SOL    HW111702   5.782   5.035   6.634
 3601SOL    HW211703   5.715   5.016   6.782
 3602SOL     OW11704   1.401   2.470   0.608
 3602SOL    HW111705   1.499   2.474   0.584
 3602SOL    HW211706   1.391   2.453   0.706
 3603SOL     OW11707   3.256   0.184   3.616
 3603SOL    HW111708   3.315   0.116   3.659
 3603SOL    HW211709   3.204   0.141   3.542
 3604SOL     OW11710   0.265   5.170   3.130
 3604SOL    HW111711   0.240   5.146   3.223
 3604SOL    HW211712   0.187   5.212   3.083
 3605SOL     OW11713   5.772   3.851   5.027
 3605SOL    HW111714   5.774   3.777   4.960
 3605SOL    HW211715   5.696   3.837   5.090
 3606SOL     OW11716   0.113   6.146   5.494
 3606SOL    HW111717   0.113   6.180   5.400
 3606SOL    HW211718   0.018   6.140   5.527
 3607SOL     OW11719   5.176   6.010   1.112
 3607SOL    HW111720   5.198   5.943   1.041
 3607SOL    HW211721   5.092   6.058   1.088
 3608SOL     OW11722   6.273   2.029   3.380
 3608SOL    HW111723   6.235   2.045   3.289
 3608SOL    HW211724   6.232   1.948   3.421
 3609SOL     OW11725   0.661   0.599   4.073
 3609SOL    HW111726   0.591   0.598   4.003
 3609SOL    HW211727   0.743   0.553   4.040
 3610SOL     OW11728   1.135   0.069   6.190
 3610SOL    HW111729   1.058   0.005   6.192
 3610SOL    HW211730   1.215   0.025   6.231
 3611SOL     OW11731   4.794   5.954   5.961
 3611SOL    HW111732   4.805   5.925   5.866
 3611SOL    HW211733   4.884   5.977   5.999
 3612SOL     OW11734   6.081   6.908   6.376
 3612SOL    HW111735   6.043   6.974   6.440
 3612SOL    HW211736   6.077   6.946   6.283
 3613SOL     OW11737   4.800   5.351   2.003
 3613SOL    HW111738   4.878   5.360   1.940
 3613SOL    HW211739   4.813   5.412   2.081
 3614SOL     OW11740   3.988   3.540   2.195
 3614SOL    HW111741   3.923   3.511   2.266
 3614SOL    HW211742   4.017   3.634   2.214
 3615SOL     OW11743   5.511   5.813   6.979
 3615SOL    HW111744   5.491   5.722   7.015
 3615SOL    HW211745   5.610   5.827   6.978
 3616SOL     OW11746   0.607   3.243   6.047
 3616SOL    HW111747   0.670   3.316   6.020
 3616SOL    HW211748   0.614   3.167   5.983
 3617SOL     OW11749   4.058   1.475   6.466
 3617SOL    HW111750   4.150   1.486   6.427
 3617SOL    HW211751   4.000   1.425   6.401
 3618SOL     OW11752   2.544   1.921   5.416
 3618SOL    HW111753   2.612   1.848   5.424
 3618SOL    HW211754   2.470   1.905   5.481
 3619SOL     OW11755   5.335   2.799   3.808
 3619SOL    HW111756   5.351   2.886   3.761
 3619SOL    HW211757   5.416   2.774   3.859
 3620SOL     OW11758   6.307   6.126   6.008
 3620SOL    HW111759   6.365   6.152   5.931
 3620SOL    HW211760   6.342   6.041   6.049
 3621SOL     OW11761   3.770   2.972   5.643
 3621SOL    HW111762   3.803   2.982   5.737
 3621SOL    HW211763   3.721   2.886   5.634
 3622SOL     OW11764   1.697   1.719   4.688
 3622SOL    HW111765   1.669   1.814   4.702
 3622SOL    HW211766   1.721   1.677   4.775
 3623SOL     OW11767   6.481   5.629   4.442
 3623SOL    HW111768   6.490   5.719   4.485
 3623SOL    HW211769   6.518   5.633   4.350
 3624SOL     OW11770   2.141   6.320   1.921
 3624SOL    HW111771   2.116   6.417   1.929
 3624SOL    HW211772   2.120   6.288   1.829
 3625SOL     OW11773   5.736   3.368   6.902
 3625SOL    HW111774   5.682   3.292   6.938
 3625SOL    HW211775   5.733   3.366   6.802
 3626SOL     OW11776   1.326   3.307   6.033
 3626SOL    HW111777   1.366   3.217   6.048
 3626SOL    HW211778   1.336   3.362   6.117
 3627SOL     OW11779   3.615   2.859   3.418
 3627SOL    HW111780   3.603   2.766   3.455
 3627SOL    HW211781   3.672   2.912   3.481
 3628SOL     OW11782   1.389   1.137   1.893
 3628SOL    HW111783   1.452   1.061   1.909
 3628SOL    HW211784   1.379   1.152   1.795
 3629SOL     OW11785   6.528   2.340   4.984
 3629SOL    HW111786   6.460   2.271   5.012
 3629SOL    HW211787   6.618   2.297   4.979
 3630SOL     OW11788   4.764   2.890   3.843
 3630SOL    HW111789   4.747   2.977   3.796
 3630SOL    HW211790   4.861   2.866   3.833
 3631SOL     OW11791   1.920   6.875   3.808
 3631SOL    HW111792   1.840   6.919   3.766
 3631SOL    HW211793   1.989   6.944   3.829
 3632SOL     OW11794   4.818   6.370   1.518
 3632SOL    HW111795   4.776   6.417   1.440
 3632SOL    HW211796   4.851   6.280   1.489
 3633SOL     OW11797   3.693   1.774   5.429
 3633SOL    HW111798   3.626   1.739   5.363
 3633SOL    HW211799   3.660   1.861   5.467
 3634SOL     OW11800   0.711   4.962   4.846
 3634SOL    HW111801   0.714   4.904   4.765
 3634SOL    HW211802   0.621   4.957   4.888
 3635SOL     OW11803   2.827   6.979   6.014
 3635SOL    HW111804   2.763   6.909   5.984
 3635SOL    HW211805   2.855   0.019   5.936
 3636SOL     OW11806   0.555   5.567   0.265
 3636SOL    HW111807   0.519   5.523   0.347
 3636SOL    HW211808   0.621   5.637   0.291
 3637SOL     OW11809   6.781   1.896   1.753
 3637SOL    HW111810   6.785   1.923   1.657
 3637SOL    HW211811   6.766   1.976   1.811
 3638SOL     OW11812   0.652   4.467   4.327
 3638SOL    HW111813   0.667   4.470   4.228
 3638SOL    HW211814   0.559   4.435   4.345
 3639SOL     OW11815   3.625   4.130   1.099
 3639SOL    HW111816   3.574   4.076   1.033
 3639SOL    HW211817   3.566   4.203   1.135
 3640SOL     OW11818   3.662   0.747   0.683
 3640SOL    HW111819   3.733   0.681   0.709
 3640SOL    HW211820   3.697   0.839   0.697
 3641SOL     OW11821   5.456   3.242   3.145
 3641SOL    HW111822   5.416   3.151   3.138
 3641SOL    HW211823   5.538   3.239   3.202
 3642SOL     OW11824   5.203   0.747   0.248
 3642SOL    HW111825   5.143   0.814   0.291
 3642SOL    HW211826   5.147   0.674   0.207
 3643SOL     OW11827   2.598   5.961   5.224
 3643SOL    HW111828   2.683   5.944   5.173
 3643SOL    HW211829   2.520   5.930   5.169
 3644SOL     OW11830   7.016   1.231   1.947
 3644SOL    HW111831   0.081   1.222   1.889
 3644SOL    HW211832   6.935   1.206   1.893
 3645SOL     OW11833   7.011   2.910   3.442
 3645SOL    HW111834   6.950   2.926   3.519
 3645SOL    HW211835   7.008   2.988   3.380
 3646SOL     OW11836   6.928   4.427   6.276
 3646SOL    HW111837   7.010   4.415   6.221
 3646SOL    HW211838   6.853   4.459   6.217
 3647SOL     OW11839   2.668   3.995   6.402
 3647SOL    HW111840   2.657   4.087   6.365
 3647SOL    HW211841   2.626   3.990   6.493
 3648SOL     OW11842   3.547   5.230   2.463
 3648SOL    HW111843   3.590   5.218   2.373
 3648SOL    HW211844   3.451   5.201   2.457
 3649SOL     OW11845   4.650   2.694   1.762
 3649SOL    HW111846   4.624   2.790   1.775
 3649SOL    HW211847   4.568   2.639   1.745
 3650SOL     OW11848   0.367   5.025   1.131
 3650SOL    HW111849   0.433   4.975   1.188
 3650SOL    HW211850   0.409   5.107   1.094
 3651SOL     OW11851   0.254   0.074   4.307
 3651SOL    HW111852   0.201   0.007   4.256
 3651SOL    HW211853   0.264   0.045   4.402
 3652SOL     OW11854   5.865   6.260   3.543
 3652SOL    HW111855   5.805   6.183   3.564
 3652SOL    HW211856   5.870   6.272   3.444
 3653SOL     OW11857   0.049   1.391   4.294
 3653SOL    HW111858   6.994   1.431   4.353
 3653SOL    HW211859   0.139   1.423   4.324
 3654SOL     OW11860   2.644   4.820   0.961
 3654SOL    HW111861   2.591   4.742   0.994
 3654SOL    HW211862   2.584   4.882   0.911
 3655SOL     OW11863   1.631   6.707   3.830
 3655SOL    HW111864   1.621   6.618   3.873
 3655SOL    HW211865   1.587   6.706   3.740
 3656SOL     OW11866   1.000   3.704   2.176
 3656SOL    HW111867   0.914   3.654   2.188
 3656SOL    HW211868   1.031   3.739   2.264
 3657SOL     OW11869   4.987   5.190   6.033
 3657SOL    HW111870   4.919   5.258   6.004
 3657SOL    HW211871   4.944   5.101   6.040
 3658SOL     OW11872   1.810   5.497   5.511
 3658SOL    HW111873   1.865   5.435   5.455
 3658SOL    HW211874   1.766   5.445   5.584
 3659SOL     OW11875   1.200   3.457   4.708
 3659SOL    HW111876   1.213   3.455   4.608
 3659SOL    HW211877   1.108   3.425   4.730
 3660SOL     OW11878   5.677   0.003   3.453
 3660SOL    HW111879   5.727   0.087   3.434
 3660SOL    HW211880   5.702   6.950   3.386
 3661SOL     OW11881   5.293   2.010   5.382
 3661SOL    HW111882   5.270   1.917   5.408
 3661SOL    HW211883   5.385   2.012   5.342
 3662SOL     OW11884   4.250   6.599   3.781
 3662SOL    HW111885   4.333   6.578   3.728
 3662SOL    HW211886   4.277   6.635   3.870
 3663SOL     OW11887   1.566   2.016   0.807
 3663SOL    HW111888   1.592   2.002   0.902
 3663SOL    HW211889   1.487   2.078   0.802
 3664SOL     OW11890   5.195   2.277   1.812
 3664SOL    HW111891   5.192   2.247   1.717
 3664SOL    HW211892   5.283   2.321   1.830
 3665SOL     OW11893   2.174   6.105   5.266
 3665SOL    HW111894   2.234   6.082   5.343
 3665SOL    HW211895   2.087   6.056   5.277
 3666SOL     OW11896   1.149   4.486   3.280
 3666SOL    HW111897   1.107   4.542   3.210
 3666SOL    HW211898   1.234   4.446   3.244
 3667SOL     OW11899   0.546   0.949   2.652
 3667SOL    HW111900   0.520   0.949   2.555
 3667SOL    HW211901   0.583   0.859   2.676
 3668SOL     OW11902   1.779   0.980   1.974
 3668SOL    HW111903   1.769   1.077   1.997
 3668SOL    HW211904   1.864   0.966   1.923
 3669SOL     OW11905   4.958   0.705   3.494
 3669SOL    HW111906   5.049   0.697   3.452
 3669SOL    HW211907   4.966   0.693   3.593
 3670SOL     OW11908   2.859   5.110   0.303
 3670SOL    HW111909   2.790   5.048   0.341
 3670SOL    HW211910   2.947   5.062   0.298
 3671SOL     OW11911   5.983   1.134   3.932
 3671SOL    HW111912   6.033   1.221   3.932
 3671SOL    HW211913   6.044   1.061   3.963
 3672SOL     OW11914   5.946   1.602   1.161
 3672SOL    HW111915   5.948   1.593   1.062
 3672SOL    HW211916   6.032   1.568   1.200
 3673SOL     OW11917   4.053   6.192   6.623
 3673SOL    HW111918   4.013   6.181   6.532
 3673SOL    HW211919   4.153   6.190   6.615
 3674SOL     OW11920   0.914   6.843   5.145
 3674SOL    HW111921   0.937   6.857   5.241
 3674SOL    HW211922   0.913   6.744   5.126
 3675SOL     OW11923   2.044   3.546   4.495
 3675SOL    HW111924   1.971   3.482   4.520
 3675SOL    HW211925   2.030   3.633   4.542
 3676SOL     OW11926   5.151   4.326   3.270
 3676SOL    HW111927   5.202   4.410   3.291
 3676SOL    HW211928   5.062   4.351   3.232
 3677SOL     OW11929   2.081   5.692   3.457
 3677SOL    HW111930   1.988   5.725   3.441
 3677SOL    HW211931   2.134   5.701   3.372
 3678SOL     OW11932   0.869   2.280   5.337
 3678SOL    HW111933   0.770   2.285   5.353
 3678SOL    HW211934   0.890   2.318   5.247
 3679SOL     OW11935   0.801   0.265   3.537
 3679SOL    HW111936   0.856   0.248   3.455
 3679SOL    HW211937   0.836   0.211   3.613
 3680SOL     OW11938   5.611   2.718   3.635
 3680SOL    HW111939   5.537   2.700   3.569
 3680SOL    HW211940   5.681   2.646   3.626
 3681SOL     OW11941   0.357   0.193   6.670
 3681SOL    HW111942   0.380   0.257   6.596
 3681SOL    HW211943   0.419   0.207   6.747
 3682SOL     OW11944   5.947   2.370   0.004
 3682SOL    HW111945   5.991   2.355   0.093
 3682SOL    HW211946   5.902   2.459   0.004
 3683SOL     OW11947   6.792   0.220   2.838
 3683SOL    HW111948   6.875   0.264   2.804
 3683SOL    HW211949   6.767   0.260   2.927
 3684SOL     OW11950   2.064   4.813   0.011
 3684SOL    HW111951   2.148   4.773   0.049
 3684SOL    HW211952   2.012   4.857   0.085
 3685SOL     OW11953   6.699   6.387   6.535
 3685SOL    HW111954   6.702   6.396   6.435
 3685SOL    HW211955   6.792   6.395   6.572
 3686SOL     OW11956   5.897   5.636   3.956
 3686SOL    HW111957   5.904   5.732   3.984
 3686SOL    HW211958   5.826   5.627   3.886
 3687SOL     OW11959   3.403   5.752   5.288
 3687SOL    HW111960   3.367   5.682   5.350
 3687SOL    HW211961   3.326   5.796   5.240
 3688SOL     OW11962   6.443   3.576   6.139
 3688SOL    HW111963   6.539   3.584   6.111
 3688SOL    HW211964   6.399   3.503   6.086
 3689SOL     OW11965   2.352   0.279   6.096
 3689SOL    HW111966   2.447   0.279   6.127
 3689SOL    HW211967   2.349   0.300   5.998
 3690SOL     OW11968   5.050   5.432   0.045
 3690SOL    HW111969   5.093   5.414   6.972
 3690SOL    HW211970   4.957   5.465   0.031
 3691SOL     OW11971   2.897   2.599   6.996
 3691SOL    HW111972   2.813   2.554   0.011
 3691SOL    HW211973   2.876   2.660   6.920
 3692SOL     OW11974   0.341   5.443   5.542
 3692SOL    HW111975   0.262   5.454   5.482
 3692SOL    HW211976   0.417   5.404   5.491
 3693SOL     OW11977   2.136   3.684   2.920
 3693SOL    HW111978   2.055   3.732   2.953
 3693SOL    HW211979   2.108   3.599   2.875
 3694SOL     OW11980   1.420   6.285   2.619
 3694SOL    HW111981   1.412   6.336   2.705
 3694SOL    HW211982   1.513   6.250   2.610
 3695SOL     OW11983   6.791   2.961   1.362
 3695SOL    HW111984   6.728   2.984   1.288
 3695SOL    HW211985   6.739   2.941   1.445
 3696SOL     OW11986   3.805   5.710   5.547
 3696SOL    HW111987   3.801   5.770   5.467
 3696SOL    HW211988   3.822   5.765   5.629
 3697SOL     OW11989   0.061   6.640   2.986
 3697SOL    HW111990   0.101   6.549   2.972
 3697SOL    HW211991   6.996   6.633   3.043
 3698SOL     OW11992   2.205   1.078   4.198
 3698SOL    HW111993   2.189   1.128   4.284
 3698SOL    HW211994   2.121   1.030   4.172
 3699SOL     OW11995   0.893   2.007   3.653
 3699SOL    HW111996   0.872   2.104   3.670
 3699SOL    HW211997   0.962   1.976   3.719
 3700SOL     OW11998   0.673   6.704   4.847
 3700SOL    HW111999   0.678   6.607   4.871
 3700SOL    HW212000   0.651   6.758   4.928
 3701SOL     OW12001   1.311   0.284   4.047
 3701SOL    HW112002   1.389   0.236   4.009
 3701SOL    HW212003   1.342   0.353   4.112
 3702SOL     OW12004   5.991   0.087   2.891
 3702SOL    HW112005   6.072   0.063   2.838
 3702SOL    HW212006   5.915   0.027   2.864
 3703SOL     OW12007   6.012   0.934   5.364
 3703SOL    HW112008   5.921   0.932   5.407
 3703SOL    HW212009   6.004   0.903   5.270
 3704SOL     OW12010   3.503   1.946   1.902
 3704SOL    HW112011   3.452   1.900   1.975
 3704SOL    HW212012   3.579   1.998   1.941
 3705SOL     OW12013   4.217   5.408   3.586
 3705SOL    HW112014   4.201   5.439   3.492
 3705SOL    HW212015   4.242   5.311   3.585
 3706SOL     OW12016   1.781   3.287   6.735
 3706SOL    HW112017   1.867   3.263   6.780
 3706SOL    HW212018   1.729   3.204   6.715
 3707SOL     OW12019   5.559   4.616   4.609
 3707SOL    HW112020   5.549   4.524   4.571
 3707SOL    HW212021   5.546   4.683   4.536
 3708SOL     OW12022   0.257   0.760   6.426
 3708SOL    HW112023   0.357   0.764   6.420
 3708SOL    HW212024   0.230   0.714   6.510
 3709SOL     OW12025   2.973   0.667   0.803
 3709SOL    HW112026   2.880   0.647   0.773
 3709SOL    HW212027   2.971   0.701   0.897
 3710SOL     OW12028   6.606   5.160   6.247
 3710SOL    HW112029   6.623   5.069   6.285
 3710SOL    HW212030   6.574   5.221   6.320
 3711SOL     OW12031   0.417   0.393   4.260
 3711SOL    HW112032   0.446   0.322   4.196
 3711SOL    HW212033   0.386   0.351   4.345
 3712SOL     OW12034   0.268   5.704   6.916
 3712SOL    HW112035   0.252   5.609   6.944
 3712SOL    HW212036   0.365   5.726   6.928
 3713SOL     OW12037   0.890   6.185   5.065
 3713SOL    HW112038   0.985   6.156   5.071
 3713SOL    HW212039   0.858   6.174   4.971
 3714SOL     OW12040   5.056   6.029   5.387
 3714SOL    HW112041   4.967   6.031   5.343
 3714SOL    HW212042   5.126   6.059   5.322
 3715SOL     OW12043   0.033   4.077   2.794
 3715SOL    HW112044   0.106   4.012   2.816
 3715SOL    HW212045   0.049   4.114   2.702
 3716SOL     OW12046   6.524   0.152   5.133
 3716SOL    HW112047   6.451   0.155   5.065
 3716SOL    HW212048   6.485   0.138   5.224
 3717SOL     OW12049   6.194   6.609   6.674
 3717SOL    HW112050   6.289   6.592   6.648
 3717SOL    HW212051   6.138   6.617   6.591
 3718SOL     OW12052   1.568   0.734   0.117
 3718SOL    HW112053   1.630   0.688   0.053
 3718SOL    HW212054   1.521   0.809   0.070
 3719SOL     OW12055   5.508   4.481   1.083
 3719SOL    HW112056   5.477   4.575   1.067
 3719SOL    HW212057   5.598   4.483   1.126
 3720SOL     OW12058   5.715   2.524   6.635
 3720SOL    HW112059   5.641   2.550   6.573
 3720SOL    HW212060   5.682   2.455   6.700
 3721SOL     OW12061   6.038   4.453   1.463
 3721SOL    HW112062   6.132   4.450   1.428
 3721SOL    HW212063   6.005   4.547   1.460
 3722SOL     OW12064   6.559   5.688   0.803
 3722SOL    HW112065   6.559   5.595   0.766
 3722SOL    HW212066   6.596   5.751   0.736
 3723SOL     OW12067   6.067   5.446   1.625
 3723SOL    HW112068   6.161   5.456   1.593
 3723SOL    HW212069   6.039   5.529   1.672
 3724SOL     OW12070   1.857   4.010   4.741
 3724SOL    HW112071   1.860   4.110   4.741
 3724SOL    HW212072   1.775   3.979   4.692
 3725SOL     OW12073   5.852   5.444   0.748
 3725SOL    HW112074   5.926   5.468   0.686
 3725SOL    HW212075   5.843   5.345   0.752
 3726SOL     OW12076   5.615   3.855   0.392
 3726SOL    HW112077   5.586   3.916   0.317
 3726SOL    HW212078   5.557   3.773   0.392
 3727SOL     OW12079   6.810   2.281   5.000
 3727SOL    HW112080   6.869   2.358   4.975
 3727SOL    HW212081   6.830   2.253   5.094
 3728SOL     OW12082   1.892   3.444   6.533
 3728SOL    HW112083   1.984   3.474   6.556
 3728SOL    HW212084   1.853   3.392   6.609
 3729SOL     OW12085   1.087   2.612   3.838
 3729SOL    HW112086   1.183   2.585   3.824
 3729SOL    HW212087   1.034   2.532   3.867
 3730SOL     OW12088   2.584   4.997   6.089
 3730SOL    HW112089   2.542   5.036   6.170
 3730SOL    HW212090   2.532   5.025   6.008
 3731SOL     OW12091   7.000   1.305   0.218
 3731SOL    HW112092   0.053   1.233   0.229
 3731SOL    HW212093   6.959   1.326   0.307
 3732SOL     OW12094   2.910   1.279   0.027
 3732SOL    HW112095   2.844   1.354   0.022
 3732SOL    HW212096   2.861   1.192   0.016
 3733SOL     OW12097   1.667   3.780   2.372
 3733SOL    HW112098   1.748   3.723   2.360
 3733SOL    HW212099   1.648   3.790   2.470
 3734SOL     OW12100   5.383   1.481   2.065
 3734SOL    HW112101   5.296   1.516   2.030
 3734SOL    HW212102   5.365   1.417   2.140
 3735SOL     OW12103   1.843   0.965   3.710
 3735SOL    HW112104   1.931   0.925   3.684
 3735SOL    HW212105   1.769   0.914   3.666
 3736SOL     OW12106   0.484   2.439   0.683
 3736SOL    HW112107   0.548   2.501   0.727
 3736SOL    HW212108   0.457   2.367   0.747
 3737SOL     OW12109   5.098   0.272   3.366
 3737SOL    HW112110   5.141   0.215   3.436
 3737SOL    HW212111   5.001   0.250   3.361
 3738SOL     OW12112   6.889   6.431   1.986
 3738SOL    HW112113   6.826   6.479   1.926
 3738SOL    HW212114   6.844   6.411   2.073
 3739SOL     OW12115   2.717   4.366   1.682
 3739SOL    HW112116   2.640   4.430   1.675
 3739SOL    HW212117   2.789   4.407   1.738
 3740SOL     OW12118   5.694   0.249   0.479
 3740SOL    HW112119   5.688   0.164   0.427
 3740SOL    HW212120   5.757   0.236   0.556
 3741SOL     OW12121   5.063   3.124   0.535
 3741SOL    HW112122   5.057   3.205   0.593
 3741SOL    HW212123   4.977   3.073   0.539
 3742SOL     OW12124   3.144   1.580   6.898
 3742SOL    HW112125   3.184   1.488   6.900
 3742SOL    HW212126   3.154   1.619   6.806
 3743SOL     OW12127   5.260   3.101   0.959
 3743SOL    HW112128   5.234   3.145   1.045
 3743SOL    HW212129   5.358   3.085   0.958
 3744SOL     OW12130   1.275   5.732   2.626
 3744SOL    HW112131   1.204   5.794   2.662
 3744SOL    HW212132   1.361   5.781   2.619
 3745SOL     OW12133   3.896   4.896   1.580
 3745SOL    HW112134   3.892   4.959   1.502
 3745SOL    HW212135   3.810   4.845   1.586
 3746SOL     OW12136   5.346   1.223   3.054
 3746SOL    HW112137   5.326   1.321   3.054
 3746SOL    HW212138   5.303   1.180   2.975
 3747SOL     OW12139   2.880   6.728   5.072
 3747SOL    HW112140   2.921   6.804   5.123
 3747SOL    HW212141   2.806   6.687   5.125
 3748SOL     OW12142   6.083   1.226   0.845
 3748SOL    HW112143   6.003   1.286   0.853
 3748SOL    HW212144   6.164   1.282   0.827
 3749SOL     OW12145   1.474   5.831   3.544
 3749SOL    HW112146   1.548   5.878   3.592
 3749SOL    HW212147   1.388   5.877   3.561
 3750SOL     OW12148   1.334   4.014   0.712
 3750SOL    HW112149   1.341   4.070   0.630
 3750SOL    HW212150   1.409   3.949   0.716
 3751SOL     OW12151   0.508   3.620   1.802
 3751SOL    HW112152   0.536   3.543   1.745
 3751SOL    HW212153   0.475   3.587   1.890
 3752SOL     OW12154   5.285   0.598   6.734
 3752SOL    HW112155   5.203   0.541   6.729
 3752SOL    HW212156   5.347   0.561   6.803
 3753SOL     OW12157   6.293   6.530   4.586
 3753SOL    HW112158   6.376   6.564   4.542
 3753SOL    HW212159   6.318   6.468   4.661
 3754SOL     OW12160   2.475   0.870   1.129
 3754SOL    HW112161   2.474   0.773   1.154
 3754SOL    HW212162   2.412   0.920   1.189
 3755SOL     OW12163   4.937   4.328   4.435
 3755SOL    HW112164   4.964   4.304   4.342
 3755SOL    HW212165   4.847   4.288   4.455
 3756SOL     OW12166   2.824   5.130   6.051
 3756SOL    HW112167   2.855   5.213   6.097
 3756SOL    HW212168   2.738   5.099   6.091
 3757SOL     OW12169   6.066   5.658   0.775
 3757SOL    HW112170   6.103   5.721   0.707
 3757SOL    HW212171   5.982   5.696   0.813
 3758SOL     OW12172   2.876   1.663   4.671
 3758SOL    HW112173   2.908   1.659   4.766
 3758SOL    HW212174   2.825   1.579   4.650
 3759SOL     OW12175   4.218   6.833   6.494
 3759SOL    HW112176   4.160   6.751   6.500
 3759SOL    HW212177   4.167   6.912   6.528
 3760SOL     OW12178   0.985   1.485   4.405
 3760SOL    HW112179   0.890   1.515   4.395
 3760SOL    HW212180   1.003   1.413   4.338
 3761SOL     OW12181   0.291   1.071   5.224
 3761SOL    HW112182   0.355   1.144   5.206
 3761SOL    HW212183   0.339   0.992   5.264
 3762SOL     OW12184   1.571   4.618   0.991
 3762SOL    HW112185   1.537   4.694   1.046
 3762SOL    HW212186   1.664   4.638   0.961
 3763SOL     OW12187   6.930   3.372   0.283
 3763SOL    HW112188   0.009   3.344   0.270
 3763SOL    HW212189   6.894   3.408   0.196
 3764SOL     OW12190   1.465   0.338   2.738
 3764SOL    HW112191   1.565   0.332   2.737
 3764SOL    HW212192   1.438   0.434   2.732
 3765SOL     OW12193   5.409   1.317   0.906
 3765SOL    HW112194   5.487   1.301   0.845
 3765SOL    HW212195   5.428   1.394   0.966
 3766SOL     OW12196   1.775   1.692   4.148
 3766SOL    HW112197   1.778   1.755   4.071
 3766SOL    HW212198   1.718   1.730   4.220
 3767SOL     OW12199   2.336   4.362   0.518
 3767SOL    HW112200   2.396   4.416   0.460
 3767SOL    HW212201   2.390   4.298   0.572
 3768SOL     OW12202   0.388   6.552   4.345
 3768SOL    HW112203   0.373   6.568   4.442
 3768SOL    HW212204   0.305   6.577   4.294
 3769SOL     OW12205   6.010   5.792   4.615
 3769SOL    HW112206   5.998   5.825   4.708
 3769SOL    HW212207   5.927   5.810   4.562
 3770SOL     OW12208   1.082   0.585   6.447
 3770SOL    HW112209   1.100   0.508   6.385
 3770SOL    HW212210   1.139   0.663   6.421
 3771SOL     OW12211   5.197   3.204   0.099
 3771SOL    HW112212   5.195   3.150   0.183
 3771SOL    HW212213   5.133   3.280   0.107
 3772SOL     OW12214   0.505   0.882   0.308
 3772SOL    HW112215   0.563   0.959   0.335
 3772SOL    HW212216   0.439   0.913   0.240
 3773SOL     OW12217   5.859   3.487   5.393
 3773SOL    HW112218   5.906   3.574   5.402
 3773SOL    HW212219   5.924   3.416   5.364
 3774SOL     OW12220   6.077   5.583   1.203
 3774SOL    HW112221   6.003   5.611   1.264
 3774SOL    HW212222   6.115   5.663   1.157
 3775SOL     OW12223   4.393   5.283   2.894
 3775SOL    HW112224   4.319   5.227   2.932
 3775SOL    HW212225   4.463   5.297   2.964
 3776SOL     OW12226   4.174   1.688   6.688
 3776SOL    HW112227   4.132   1.778   6.687
 3776SOL    HW212228   4.103   1.617   6.687
 3777SOL     OW12229   3.615   5.317   3.333
 3777SOL    HW112230   3.653   5.225   3.332
 3777SOL    HW212231   3.536   5.321   3.271
 3778SOL     OW12232   3.017   5.194   2.406
 3778SOL    HW112233   2.955   5.272   2.415
 3778SOL    HW212234   3.016   5.162   2.311
 3779SOL     OW12235   0.633   4.772   0.332
 3779SOL    HW112236   0.727   4.803   0.347
 3779SOL    HW212237   0.570   4.847   0.353
 3780SOL     OW12238   5.792   4.826   4.860
 3780SOL    HW112239   5.793   4.741   4.912
 3780SOL    HW212240   5.721   4.887   4.896
 3781SOL     OW12241   0.550   6.778   4.261
 3781SOL    HW112242   0.575   6.821   4.348
 3781SOL    HW212243   0.489   6.701   4.278
 3782SOL     OW12244   2.278   0.289   2.924
 3782SOL    HW112245   2.258   0.239   2.839
 3782SOL    HW212246   2.312   0.225   2.993
 3783SOL     OW12247   5.803   5.189   3.954
 3783SOL    HW112248   5.716   5.225   3.921
 3783SOL    HW212249   5.787   5.106   4.007
 3784SOL     OW12250   5.200   3.057   2.761
 3784SOL    HW112251   5.245   3.145   2.746
 3784SOL    HW212252   5.258   2.999   2.819
 3785SOL     OW12253   1.440   3.483   5.556
 3785SOL    HW112254   1.505   3.521   5.491
 3785SOL    HW212255   1.475   3.396   5.591
 3786SOL     OW12256   2.391   4.797   3.414
 3786SOL    HW112257   2.315   4.828   3.357
 3786SOL    HW212258   2.472   4.852   3.394
 3787SOL     OW12259   6.583   1.619   2.900
 3787SOL    HW112260   6.633   1.694   2.857
 3787SOL    HW212261   6.647   1.562   2.952
 3788SOL     OW12262   0.180   4.671   4.841
 3788SOL    HW112263   0.116   4.743   4.814
 3788SOL    HW212264   0.172   4.594   4.777
 3789SOL     OW12265   0.413   3.705   4.427
 3789SOL    HW112266   0.321   3.709   4.465
 3789SOL    HW212267   0.460   3.624   4.463
 3790SOL     OW12268   1.283   4.424   5.685
 3790SOL    HW112269   1.192   4.383   5.682
 3790SOL    HW212270   1.338   4.378   5.756
 3791SOL     OW12271   4.980   1.167   6.123
 3791SOL    HW112272   4.883   1.181   6.105
 3791SOL    HW212273   4.992   1.123   6.212
 3792SOL     OW12274   1.055   2.474   3.272
 3792SOL    HW112275   0.986   2.497   3.203
 3792SOL    HW212276   1.108   2.555   3.294
 3793SOL     OW12277   4.636   6.578   1.885
 3793SOL    HW112278   4.600   6.665   1.852
 3793SOL    HW212279   4.563   6.509   1.887
 3794SOL     OW12280   1.800   2.386   1.242
 3794SOL    HW112281   1.763   2.315   1.182
 3794SOL    HW212282   1.734   2.406   1.315
 3795SOL     OW12283   4.825   5.791   1.045
 3795SOL    HW112284   4.799   5.803   1.141
 3795SOL    HW212285   4.746   5.811   0.987
 3796SOL     OW12286   3.487   2.122   2.508
 3796SOL    HW112287   3.408   2.183   2.508
 3796SOL    HW212288   3.460   2.032   2.543
 3797SOL     OW12289   0.939   3.646   2.655
 3797SOL    HW112290   0.896   3.648   2.565
 3797SOL    HW212291   0.868   3.643   2.725
 3798SOL     OW12292   2.612   5.308   3.952
 3798SOL    HW112293   2.655   5.307   3.862
 3798SOL    HW212294   2.513   5.323   3.941
 3799SOL     OW12295   6.301   2.406   3.961
 3799SOL    HW112296   6.217   2.351   3.960
 3799SOL    HW212297   6.341   2.406   3.869
 3800SOL     OW12298   5.356   2.506   3.791
 3800SOL    HW112299   5.339   2.579   3.726
 3800SOL    HW212300   5.398   2.544   3.874
 3801SOL     OW12301   5.948   6.451   1.385
 3801SOL    HW112302   5.979   6.432   1.479
 3801SOL    HW212303   5.968   6.546   1.362
 3802SOL     OW12304   1.342   2.261   1.693
 3802SOL    HW112305   1.351   2.193   1.622
 3802SOL    HW212306   1.430   2.276   1.738
 3803SOL     OW12307   4.095   3.262   2.223
 3803SOL    HW112308   4.039   3.340   2.195
 3803SOL    HW212309   4.139   3.282   2.311
 3804SOL     OW12310   4.916   1.124   3.661
 3804SOL    HW112311   4.880   1.209   3.700
 3804SOL    HW212312   4.885   1.115   3.566
 3805SOL     OW12313   1.608   2.601   1.297
 3805SOL    HW112314   1.685   2.583   1.236
 3805SOL    HW212315   1.525   2.561   1.257
 3806SOL     OW12316   3.906   3.749   5.854
 3806SOL    HW112317   3.952   3.777   5.770
 3806SOL    HW212318   3.840   3.820   5.881
 3807SOL     OW12319   1.579   5.697   2.849
 3807SOL    HW112320   1.529   5.761   2.790
 3807SOL    HW212321   1.527   5.681   2.933
 3808SOL     OW12322   4.334   0.909   0.478
 3808SOL    HW112323   4.345   0.815   0.445
 3808SOL    HW212324   4.304   0.968   0.403
 3809SOL     OW12325   5.580   2.267   1.506
 3809SOL    HW112326   5.639   2.316   1.442
 3809SOL    HW212327   5.569   2.321   1.590
 3810SOL     OW12328   4.641   2.680   3.682
 3810SOL    HW112329   4.544   2.692   3.705
 3810SOL    HW212330   4.694   2.756   3.720
 3811SOL     OW12331   0.265   5.570   4.767
 3811SOL    HW112332   0.233   5.475   4.768
 3811SOL    HW212333   0.259   5.608   4.859
 3812SOL     OW12334   4.766   4.981   5.277
 3812SOL    HW112335   4.742   5.021   5.365
 3812SOL    HW212336   4.787   4.884   5.289
 3813SOL     OW12337   4.102   3.197   0.514
 3813SOL    HW112338   4.139   3.286   0.538
 3813SOL    HW212339   4.054   3.158   0.592
 3814SOL     OW12340   6.052   0.020   6.133
 3814SOL    HW112341   6.131   7.005   6.081
 3814SOL    HW212342   6.075   0.106   6.179
 3815SOL     OW12343   3.329   2.015   0.779
 3815SOL    HW112344   3.412   2.035   0.831
 3815SOL    HW212345   3.305   2.095   0.723
 3816SOL     OW12346   1.053   5.664   6.462
 3816SOL    HW112347   1.020   5.746   6.509
 3816SOL    HW212348   0.983   5.631   6.399
 3817SOL     OW12349   4.926   3.695   2.438
 3817SOL    HW112350   4.869   3.766   2.479
 3817SOL    HW212351   4.917   3.699   2.338
 3818SOL     OW12352   6.542   0.828   6.680
 3818SOL    HW112353   6.582   0.737   6.673
 3818SOL    HW212354   6.571   0.883   6.601
 3819SOL     OW12355   5.367   5.277   2.125
 3819SOL    HW112356   5.398   5.367   2.097
 3819SOL    HW212357   5.303   5.286   2.202
 3820SOL     OW12358   5.239   0.126   3.555
 3820SOL    HW112359   5.277   0.036   3.575
 3820SOL    HW212360   5.286   0.194   3.611
 3821SOL     OW12361   2.280   1.795   1.788
 3821SOL    HW112362   2.215   1.762   1.857
 3821SOL    HW212363   2.346   1.857   1.830
 3822SOL     OW12364   2.163   0.326   0.985
 3822SOL    HW112365   2.067   0.303   0.972
 3822SOL    HW212366   2.186   0.324   1.083
 3823SOL     OW12367   2.924   3.476   6.516
 3823SOL    HW112368   3.007   3.423   6.499
 3823SOL    HW212369   2.932   3.565   6.470
 3824SOL     OW12370   0.373   3.283   0.370
 3824SOL    HW112371   0.367   3.214   0.442
 3824SOL    HW212372   0.311   3.258   0.295
 3825SOL     OW12373   0.385   5.341   0.435
 3825SOL    HW112374   0.310   5.345   0.501
 3825SOL    HW212375   0.469   5.371   0.479
 3826SOL     OW12376   1.241   3.862   6.926
 3826SOL    HW112377   1.207   3.940   6.874
 3826SOL    HW212378   1.205   3.777   6.888
 3827SOL     OW12379   1.848   1.402   1.815
 3827SOL    HW112380   1.916   1.474   1.803
 3827SOL    HW212381   1.860   1.333   1.743
 3828SOL     OW12382   3.598   3.495   3.038
 3828SOL    HW112383   3.666   3.561   3.071
 3828SOL    HW212384   3.645   3.416   3.000
 3829SOL     OW12385   1.690   5.073   2.557
 3829SOL    HW112386   1.596   5.059   2.587
 3829SOL    HW212387   1.698   5.046   2.460
 3830SOL     OW12388   0.417   0.837   5.336
 3830SOL    HW112389   0.470   0.832   5.251
 3830SOL    HW212390   0.386   0.745   5.361
 3831SOL     OW12391   4.859   2.363   2.637
 3831SOL    HW112392   4.836   2.274   2.598
 3831SOL    HW212393   4.785   2.428   2.620
 3832SOL     OW12394   6.319   0.947   2.732
 3832SOL    HW112395   6.365   0.869   2.775
 3832SOL    HW212396   6.360   1.032   2.765
 3833SOL     OW12397   0.385   6.332   6.694
 3833SOL    HW112398   0.447   6.391   6.642
 3833SOL    HW212399   0.352   6.258   6.635
 3834SOL     OW12400   4.079   4.595   1.407
 3834SOL    HW112401   3.983   4.610   1.383
 3834SOL    HW212402   4.131   4.679   1.393
 3835SOL     OW12403   3.919   5.651   4.831
 3835SOL    HW112404   3.989   5.588   4.866
 3835SOL    HW212405   3.915   5.645   4.731
 3836SOL     OW12406   1.242   4.171   6.334
 3836SOL    HW112407   1.316   4.120   6.290
 3836SOL    HW212408   1.222   4.130   6.423
 3837SOL     OW12409   4.654   4.551   6.091
 3837SOL    HW112410   4.672   4.453   6.086
 3837SOL    HW212411   4.618   4.574   6.182
 3838SOL     OW12412   1.019   3.681   4.475
 3838SOL    HW112413   0.957   3.604   4.462
 3838SOL    HW212414   1.073   3.695   4.393
 3839SOL     OW12415   5.360   1.143   3.310
 3839SOL    HW112416   5.360   1.184   3.219
 3839SOL    HW212417   5.395   1.049   3.304
 3840SOL     OW12418   2.714   0.892   6.503
 3840SOL    HW112419   2.627   0.929   6.537
 3840SOL    HW212420   2.789   0.929   6.558
 3841SOL     OW12421   6.909   3.375   4.290
 3841SOL    HW112422   7.004   3.402   4.304
 3841SOL    HW212423   6.865   3.360   4.378
 3842SOL     OW12424   2.225   2.606   1.530
 3842SOL    HW112425   2.303   2.578   1.586
 3842SOL    HW212426   2.200   2.531   1.468
 3843SOL     OW12427   5.780   5.055   2.053
 3843SOL    HW112428   5.811   4.976   1.999
 3843SOL    HW212429   5.858   5.097   2.099
 3844SOL     OW12430   0.920   3.190   5.796
 3844SOL    HW112431   0.937   3.097   5.764
 3844SOL    HW212432   0.968   3.255   5.737
 3845SOL     OW12433   2.922   3.833   5.771
 3845SOL    HW112434   2.950   3.857   5.678
 3845SOL    HW212435   2.822   3.839   5.779
 3846SOL     OW12436   7.014   5.419   3.656
 3846SOL    HW112437   6.956   5.489   3.698
 3846SOL    HW212438   6.975   5.329   3.672
 3847SOL     OW12439   5.122   1.601   4.169
 3847SOL    HW112440   5.140   1.596   4.267
 3847SOL    HW212441   5.114   1.697   4.141
 3848SOL     OW12442   4.459   5.559   2.807
 3848SOL    HW112443   4.506   5.526   2.724
 3848SOL    HW212444   4.394   5.490   2.838
 3849SOL     OW12445   1.497   1.020   6.161
 3849SOL    HW112446   1.491   1.084   6.237
 3849SOL    HW212447   1.591   1.016   6.127
 3850SOL     OW12448   2.240   3.472   1.359
 3850SOL    HW112449   2.277   3.459   1.451
 3850SOL    HW212450   2.141   3.454   1.361
 3851SOL     OW12451   1.219   4.674   2.534
 3851SOL    HW112452   1.138   4.656   2.479
 3851SOL    HW212453   1.301   4.673   2.476
 3852SOL     OW12454   4.264   6.316   3.603
 3852SOL    HW112455   4.188   6.368   3.565
 3852SOL    HW212456   4.322   6.376   3.658
 3853SOL     OW12457   1.350   4.431   3.101
 3853SOL    HW112458   1.296   4.356   3.063
 3853SOL    HW212459   1.433   4.444   3.048
 3854SOL     OW12460   1.539   3.041   2.772
 3854SOL    HW112461   1.607   3.100   2.727
 3854SOL    HW212462   1.586   2.967   2.819
 3855SOL     OW12463   5.403   6.239   6.252
 3855SOL    HW112464   5.353   6.153   6.266
 3855SOL    HW212465   5.420   6.282   6.341
 3856SOL     OW12466   0.183   0.495   5.835
 3856SOL    HW112467   0.206   0.398   5.839
 3856SOL    HW212468   0.149   0.526   5.924
 3857SOL     OW12469   0.064   6.358   0.051
 3857SOL    HW112470   0.023   6.297   0.119
 3857SOL    HW212471   0.140   6.310   0.006
 3858SOL     OW12472   1.841   0.959   5.501
 3858SOL    HW112473   1.758   0.999   5.541
 3858SOL    HW212474   1.906   0.939   5.574
 3859SOL     OW12475   6.108   1.358   2.748
 3859SOL    HW112476   6.066   1.298   2.815
 3859SOL    HW212477   6.125   1.307   2.663
 3860SOL     OW12478   2.981   0.506   5.400
 3860SOL    HW112479   3.056   0.567   5.376
 3860SOL    HW212480   2.986   0.424   5.343
 3861SOL     OW12481   4.285   4.707   3.515
 3861SOL    HW112482   4.276   4.787   3.455
 3861SOL    HW212483   4.273   4.736   3.610
 3862SOL     OW12484   0.780   0.532   5.136
 3862SOL    HW112485   0.817   0.494   5.220
 3862SOL    HW212486   0.820   0.623   5.121
 3863SOL     OW12487   5.169   2.699   0.064
 3863SOL    HW112488   5.139   2.620   0.012
 3863SOL    HW212489   5.269   2.697   0.073
 3864SOL     OW12490   2.506   0.453   5.136
 3864SOL    HW112491   2.438   0.455   5.210
 3864SOL    HW212492   2.596   0.473   5.174
 3865SOL     OW12493   3.390   0.072   0.006
 3865SOL    HW112494   3.448   0.075   0.087
 3865SOL    HW212495   3.316   0.138   0.015
 3866SOL     OW12496   3.691   0.985   1.053
 3866SOL    HW112497   3.756   1.030   1.115
 3866SOL    HW212498   3.732   0.901   1.017
 3867SOL     OW12499   0.908   4.648   3.591
 3867SOL    HW112500   0.902   4.627   3.493
 3867SOL    HW212501   0.858   4.732   3.611
 3868SOL     OW12502   3.191   6.822   0.443
 3868SOL    HW112503   3.262   6.830   0.372
 3868SOL    HW212504   3.232   6.786   0.527
 3869SOL     OW12505   5.888   4.068   4.674
 3869SOL    HW112506   5.953   4.076   4.750
 3869SOL    HW212507   5.819   4.141   4.681
 3870SOL     OW12508   5.096   6.023   6.570
 3870SOL    HW112509   5.090   5.960   6.647
 3870SOL    HW212510   5.005   6.035   6.530
 3871SOL     OW12511   3.641   0.325   2.851
 3871SOL    HW112512   3.638   0.425   2.846
 3871SOL    HW212513   3.733   0.295   2.874
 3872SOL     OW12514   3.787   2.943   3.605
 3872SOL    HW112515   3.876   2.922   3.564
 3872SOL    HW212516   3.795   2.940   3.704
 3873SOL     OW12517   5.903   2.929   1.687
 3873SOL    HW112518   5.937   2.887   1.771
 3873SOL    HW212519   5.934   2.875   1.609
 3874SOL     OW12520   3.920   5.774   0.151
 3874SOL    HW112521   3.897   5.677   0.161
 3874SOL    HW212522   4.018   5.783   0.129
 3875SOL     OW12523   1.546   3.123   2.041
 3875SOL    HW112524   1.576   3.031   2.017
 3875SOL    HW212525   1.593   3.153   2.124
 3876SOL     OW12526   4.662   5.213   0.462
 3876SOL    HW112527   4.658   5.127   0.410
 3876SOL    HW212528   4.606   5.204   0.544
 3877SOL     OW12529   6.633   2.977   0.590
 3877SOL    HW112530   6.654   2.896   0.644
 3877SOL    HW212531   6.717   3.021   0.561
 3878SOL     OW12532   3.516   0.129   4.528
 3878SOL    HW112533   3.560   0.051   4.483
 3878SOL    HW212534   3.417   0.117   4.525
 3879SOL     OW12535   4.820   6.140   1.990
 3879SOL    HW112536   4.778   6.166   1.903
 3879SOL    HW212537   4.877   6.215   2.023
 3880SOL     OW12538   6.071   4.652   3.636
 3880SOL    HW112539   6.058   4.576   3.699
 3880SOL    HW212540   6.018   4.636   3.553
 3881SOL     OW12541   0.988   4.031   1.287
 3881SOL    HW112542   0.975   3.958   1.355
 3881SOL    HW212543   1.073   4.016   1.238
 3882SOL     OW12544   0.826   1.757   5.723
 3882SOL    HW112545   0.856   1.769   5.818
 3882SOL    HW212546   0.728   1.737   5.722
 3883SOL     OW12547   4.390   0.853   3.784
 3883SOL    HW112548   4.452   0.904   3.724
 3883SOL    HW212549   4.362   0.911   3.861
 3884SOL     OW12550   0.486   5.355   3.571
 3884SOL    HW112551   0.471   5.425   3.502
 3884SOL    HW212552   0.399   5.333   3.615
 3885SOL     OW12553   6.297   0.550   2.422
 3885SOL    HW112554   6.254   0.632   2.384
 3885SOL    HW212555   6.335   0.571   2.512
 3886SOL     OW12556   6.133   6.141   4.800
 3886SOL    HW112557   6.214   6.186   4.838
 3886SOL    HW212558   6.163   6.069   4.737
 3887SOL     OW12559   0.409   0.479   6.495
 3887SOL    HW112560   0.343   0.530   6.550
 3887SOL    HW212561   0.386   0.489   6.398
 3888SOL     OW12562   0.166   6.852   5.590
 3888SOL    HW112563   0.252   6.838   5.639
 3888SOL    HW212564   0.119   6.764   5.580
 3889SOL     OW12565   6.516   3.178   6.059
 3889SOL    HW112566   6.436   3.237   6.073
 3889SOL    HW212567   6.491   3.104   5.996
 3890SOL     OW12568   5.837   5.699   2.822
 3890SOL    HW112569   5.776   5.778   2.814
 3890SOL    HW212570   5.894   5.709   2.904
 3891SOL     OW12571   5.873   4.556   4.610
 3891SOL    HW112572   5.832   4.645   4.591
 3891SOL    HW212573   5.804   4.484   4.599
 3892SOL     OW12574   0.230   2.281   1.010
 3892SOL    HW112575   0.320   2.286   0.967
 3892SOL    HW212576   0.210   2.187   1.036
 3893SOL     OW12577   3.722   4.909   0.901
 3893SOL    HW112578   3.738   4.876   0.994
 3893SOL    HW212579   3.758   5.002   0.892
 3894SOL     OW12580   2.501   2.136   1.127
 3894SOL    HW112581   2.490   2.050   1.176
 3894SOL    HW212582   2.597   2.165   1.130
 3895SOL     OW12583   1.676   0.303   5.259
 3895SOL    HW112584   1.650   0.232   5.324
 3895SOL    HW212585   1.687   0.390   5.307
 3896SOL     OW12586   0.289   1.663   6.010
 3896SOL    HW112587   0.294   1.749   6.061
 3896SOL    HW212588   0.194   1.629   6.012
 3897SOL     OW12589   3.606   6.048   2.220
 3897SOL    HW112590   3.542   6.046   2.144
 3897SOL    HW212591   3.567   6.000   2.298
 3898SOL     OW12592   3.603   3.540   4.117
 3898SOL    HW112593   3.673   3.606   4.147
 3898SOL    HW212594   3.635   3.494   4.035
 3899SOL     OW12595   5.388   0.456   3.928
 3899SOL    HW112596   5.398   0.373   3.873
 3899SOL    HW212597   5.412   0.436   4.023
 3900SOL     OW12598   5.133   3.059   3.896
 3900SOL    HW112599   5.140   2.963   3.922
 3900SOL    HW212600   5.205   3.082   3.830
 3901SOL     OW12601   3.178   6.566   5.048
 3901SOL    HW112602   3.084   6.575   5.080
 3901SOL    HW212603   3.229   6.508   5.112
 3902SOL     OW12604   6.503   3.825   1.809
 3902SOL    HW112605   6.434   3.895   1.830
 3902SOL    HW212606   6.573   3.825   1.880
 3903SOL     OW12607   4.685   4.971   0.327
 3903SOL    HW112608   4.776   4.955   0.288
 3903SOL    HW212609   4.616   4.938   0.262
 3904SOL     OW12610   1.610   6.800   5.405
 3904SOL    HW112611   1.661   6.716   5.421
 3904SOL    HW212612   1.565   6.796   5.316
 3905SOL     OW12613   5.975   6.987   5.784
 3905SOL    HW112614   5.993   0.069   5.791
 3905SOL    HW212615   5.967   6.962   5.687
 3906SOL     OW12616   3.291   5.349   5.257
 3906SOL    HW112617   3.286   5.255   5.291
 3906SOL    HW212618   3.280   5.412   5.333
 3907SOL     OW12619   6.669   6.686   5.431
 3907SOL    HW112620   6.627   6.698   5.341
 3907SOL    HW212621   6.653   6.593   5.464
 3908SOL     OW12622   1.869   0.934   0.124
 3908SOL    HW112623   1.826   0.972   0.042
 3908SOL    HW212624   1.947   0.990   0.150
 3909SOL     OW12625   0.330   5.228   5.968
 3909SOL    HW112626   0.332   5.247   5.870
 3909SOL    HW212627   0.291   5.136   5.984
 3910SOL     OW12628   3.592   4.300   1.786
 3910SOL    HW112629   3.588   4.400   1.778
 3910SOL    HW212630   3.686   4.270   1.768
 3911SOL     OW12631   4.264   1.480   0.117
 3911SOL    HW112632   4.300   1.561   0.070
 3911SOL    HW212633   4.239   1.411   0.050
 3912SOL     OW12634   3.692   1.026   6.584
 3912SOL    HW112635   3.689   1.116   6.628
 3912SOL    HW212636   3.787   0.997   6.574
 3913SOL     OW12637   2.768   5.908   6.445
 3913SOL    HW112638   2.713   5.892   6.363
 3913SOL    HW212639   2.804   5.821   6.479
 3914SOL     OW12640   4.396   1.146   1.061
 3914SOL    HW112641   4.312   1.196   1.078
 3914SOL    HW212642   4.380   1.048   1.074
 3915SOL     OW12643   4.257   5.965   1.372
 3915SOL    HW112644   4.259   6.050   1.424
 3915SOL    HW212645   4.341   5.957   1.317
 3916SOL     OW12646   1.853   6.436   2.651
 3916SOL    HW112647   1.833   6.511   2.588
 3916SOL    HW212648   1.892   6.473   2.736
 3917SOL     OW12649   1.094   5.127   0.296
 3917SOL    HW112650   1.043   5.212   0.285
 3917SOL    HW212651   1.121   5.092   0.206
 3918SOL     OW12652   4.412   6.218   1.877
 3918SOL    HW112653   4.415   6.294   1.942
 3918SOL    HW212654   4.476   6.237   1.802
 3919SOL     OW12655   3.350   6.532   6.489
 3919SOL    HW112656   3.318   6.468   6.559
 3919SOL    HW212657   3.290   6.612   6.487
 3920SOL     OW12658   2.922   2.070   6.434
 3920SOL    HW112659   2.927   2.110   6.526
 3920SOL    HW212660   2.879   2.136   6.372
 3921SOL     OW12661   0.636   2.940   0.105
 3921SOL    HW112662   0.684   2.981   0.183
 3921SOL    HW212663   0.539   2.963   0.109
 3922SOL     OW12664   5.376   4.989   0.202
 3922SOL    HW112665   5.338   4.930   0.130
 3922SOL    HW212666   5.364   4.946   0.291
 3923SOL     OW12667   6.142   2.028   6.988
 3923SOL    HW112668   6.186   2.112   6.956
 3923SOL    HW212669   6.126   1.968   6.910
 3924SOL     OW12670   0.639   5.072   3.265
 3924SOL    HW112671   0.556   5.088   3.320
 3924SOL    HW212672   0.625   5.106   3.172
 3925SOL     OW12673   4.398   4.571   0.694
 3925SOL    HW112674   4.425   4.480   0.661
 3925SOL    HW212675   4.310   4.564   0.740
 3926SOL     OW12676   0.138   6.584   3.512
 3926SOL    HW112677   0.119   6.502   3.566
 3926SOL    HW212678   0.188   6.558   3.430
 3927SOL     OW12679   0.139   3.494   4.374
 3927SOL    HW112680   0.227   3.464   4.412
 3927SOL    HW212681   0.082   3.530   4.448
 3928SOL     OW12682   3.654   5.575   4.969
 3928SOL    HW112683   3.590   5.611   4.901
 3928SOL    HW212684   3.748   5.580   4.933
 3929SOL     OW12685   0.129   1.924   6.717
 3929SOL    HW112686   0.196   1.866   6.669
 3929SOL    HW212687   0.087   1.871   6.791
 3930SOL     OW12688   1.312   2.058   3.251
 3930SOL    HW112689   1.247   1.983   3.266
 3930SOL    HW212690   1.405   2.021   3.249
 3931SOL     OW12691   2.156   2.006   2.600
 3931SOL    HW112692   2.190   1.930   2.544
 3931SOL    HW212693   2.110   2.072   2.542
 3932SOL     OW12694   1.665   4.413   3.653
 3932SOL    HW112695   1.723   4.486   3.688
 3932SOL    HW212696   1.636   4.435   3.560
 3933SOL     OW12697   2.191   6.746   6.852
 3933SOL    HW112698   2.180   6.835   6.896
 3933SOL    HW212699   2.180   6.674   6.920
 3934SOL     OW12700   0.305   1.414   1.522
 3934SOL    HW112701   0.291   1.338   1.585
 3934SOL    HW212702   0.220   1.464   1.511
 3935SOL     OW12703   1.590   0.816   5.221
 3935SOL    HW112704   1.679   0.849   5.191
 3935SOL    HW212705   1.544   0.887   5.275
 3936SOL     OW12706   0.025   5.853   5.054
 3936SOL    HW112707   6.961   5.813   5.010
 3936SOL    HW212708   7.016   5.890   5.144
 3937SOL     OW12709   0.378   6.652   2.557
 3937SOL    HW112710   0.473   6.683   2.559
 3937SOL    HW212711   0.366   6.584   2.484
 3938SOL     OW12712   5.984   2.985   3.806
 3938SOL    HW112713   6.038   2.917   3.757
 3938SOL    HW212714   5.899   2.942   3.839
 3939SOL     OW12715   3.271   1.804   3.384
 3939SOL    HW112716   3.197   1.854   3.338
 3939SOL    HW212717   3.279   1.835   3.479
 3940SOL     OW12718   3.796   4.865   2.184
 3940SOL    HW112719   3.738   4.817   2.117
 3940SOL    HW212720   3.744   4.877   2.269
 3941SOL     OW12721   6.411   0.777   5.139
 3941SOL    HW112722   6.491   0.725   5.109
 3941SOL    HW212723   6.351   0.793   5.060
 3942SOL     OW12724   0.910   6.348   5.582
 3942SOL    HW112725   0.962   6.375   5.502
 3942SOL    HW212726   0.965   6.286   5.639
 3943SOL     OW12727   0.881   3.244   2.748
 3943SOL    HW112728   0.901   3.267   2.843
 3943SOL    HW212729   0.965   3.213   2.703
 3944SOL     OW12730   5.726   3.794   5.512
 3944SOL    HW112731   5.656   3.785   5.441
 3944SOL    HW212732   5.683   3.819   5.599
 3945SOL     OW12733   0.973   2.145   2.720
 3945SOL    HW112734   0.985   2.243   2.729
 3945SOL    HW212735   1.031   2.098   2.787
 3946SOL     OW12736   6.226   4.157   6.133
 3946SOL    HW112737   6.156   4.165   6.204
 3946SOL    HW212738   6.282   4.240   6.132
 3947SOL     OW12739   5.962   5.366   1.378
 3947SOL    HW112740   5.990   5.410   1.463
 3947SOL    HW212741   5.864   5.347   1.380
 3948SOL     OW12742   0.452   4.674   0.619
 3948SOL    HW112743   0.470   4.752   0.560
 3948SOL    HW212744   0.538   4.628   0.641
 3949SOL     OW12745   5.981   6.811   3.096
 3949SOL    HW112746   5.962   6.793   3.000
 3949SOL    HW212747   6.024   6.731   3.137
 3950SOL     OW12748   3.077   4.233   1.418
 3950SOL    HW112749   3.174   4.238   1.442
 3950SOL    HW212750   3.065   4.259   1.322
 3951SOL     OW12751   0.364   0.467   7.001
 3951SOL    HW112752   0.393   0.471   0.081
 3951SOL    HW212753   0.367   0.558   6.961
 3952SOL     OW12754   5.946   3.268   4.768
 3952SOL    HW112755   6.002   3.325   4.828
 3952SOL    HW212756   5.923   3.319   4.685
 3953SOL     OW12757   3.347   4.429   0.481
 3953SOL    HW112758   3.400   4.499   0.433
 3953SOL    HW212759   3.406   4.380   0.544
 3954SOL     OW12760   5.994   5.098   5.273
 3954SOL    HW112761   6.048   5.173   5.312
 3954SOL    HW212762   6.010   5.093   5.174
 3955SOL     OW12763   4.587   6.608   0.081
 3955SOL    HW112764   4.605   6.594   0.178
 3955SOL    HW212765   4.560   6.703   0.065
 3956SOL     OW12766   1.429   1.892   3.913
 3956SOL    HW112767   1.388   1.936   3.833
 3956SOL    HW212768   1.358   1.876   3.982
 3957SOL     OW12769   4.427   6.997   3.138
 3957SOL    HW112770   4.425   7.010   3.238
 3957SOL    HW212771   4.334   6.981   3.105
 3958SOL     OW12772   5.439   0.236   6.115
 3958SOL    HW112773   5.478   0.216   6.205
 3958SOL    HW212774   5.401   0.329   6.116
 3959SOL     OW12775   3.628   6.769   0.731
 3959SOL    HW112776   3.547   6.724   0.693
 3959SOL    HW212777   3.644   6.855   0.682
 3960SOL     OW12778   5.633   1.707   6.116
 3960SOL    HW112779   5.580   1.718   6.200
 3960SOL    HW212780   5.636   1.610   6.092
 3961SOL     OW12781   5.570   2.970   2.090
 3961SOL    HW112782   5.506   2.902   2.053
 3961SOL    HW212783   5.645   2.982   2.026
 3962SOL     OW12784   1.754   5.799   6.548
 3962SOL    HW112785   1.847   5.799   6.585
 3962SOL    HW212786   1.739   5.716   6.496
 3963SOL     OW12787   4.663   4.655   3.693
 3963SOL    HW112788   4.756   4.633   3.664
 3963SOL    HW212789   4.598   4.608   3.633
 3964SOL     OW12790   4.428   4.806   5.079
 3964SOL    HW112791   4.444   4.903   5.097
 3964SOL    HW212792   4.353   4.797   5.014
 3965SOL     OW12793   4.019   3.806   6.636
 3965SOL    HW112794   4.061   3.881   6.585
 3965SOL    HW212795   4.070   3.722   6.619
 3966SOL     OW12796   6.869   4.787   7.008
 3966SOL    HW112797   6.904   4.724   6.938
 3966SOL    HW212798   6.906   4.878   6.991
 3967SOL     OW12799   1.652   4.936   2.886
 3967SOL    HW112800   1.732   4.936   2.826
 3967SOL    HW212801   1.682   4.919   2.980
 3968SOL     OW12802   6.722   0.481   0.997
 3968SOL    HW112803   6.697   0.471   0.901
 3968SOL    HW212804   6.707   0.394   1.045
 3969SOL     OW12805   0.853   3.764   3.035
 3969SOL    HW112806   0.838   3.700   3.110
 3969SOL    HW212807   0.948   3.758   3.004
 3970SOL     OW12808   4.942   4.817   3.740
 3970SOL    HW112809   4.864   4.872   3.710
 3970SOL    HW212810   4.966   4.751   3.669
 3971SOL     OW12811   2.541   4.958   2.569
 3971SOL    HW112812   2.563   4.863   2.548
 3971SOL    HW212813   2.567   4.977   2.664
 3972SOL     OW12814   1.480   5.116   1.612
 3972SOL    HW112815   1.515   5.203   1.646
 3972SOL    HW212816   1.437   5.065   1.687
 3973SOL     OW12817   2.243   4.088   5.855
 3973SOL    HW112818   2.184   4.164   5.882
 3973SOL    HW212819   2.289   4.110   5.768
 3974SOL     OW12820   1.835   0.698   5.731
 3974SOL    HW112821   1.918   0.752   5.735
 3974SOL    HW212822   1.834   0.633   5.807
 3975SOL     OW12823   5.541   0.323   6.381
 3975SOL    HW112824   5.593   0.371   6.310
 3975SOL    HW212825   5.466   0.382   6.412
 3976SOL     OW12826   1.620   4.568   1.350
 3976SOL    HW112827   1.556   4.508   1.303
 3976SOL    HW212828   1.702   4.580   1.295
 3977SOL     OW12829   3.269   4.237   5.401
 3977SOL    HW112830   3.289   4.163   5.464
 3977SOL    HW212831   3.185   4.217   5.351
 3978SOL     OW12832   5.724   0.768   4.519
 3978SOL    HW112833   5.668   0.824   4.458
 3978SOL    HW212834   5.666   0.722   4.585
 3979SOL     OW12835   2.240   6.114   1.434
 3979SOL    HW112836   2.283   6.129   1.523
 3979SOL    HW212837   2.157   6.059   1.446
 3980SOL     OW12838   6.883   4.043   6.296
 3980SOL    HW112839   6.869   4.136   6.260
 3980SOL    HW212840   6.882   3.978   6.220
 3981SOL     OW12841   1.636   1.799   6.517
 3981SOL    HW112842   1.673   1.879   6.470
 3981SOL    HW212843   1.662   1.716   6.469
 3982SOL     OW12844   2.043   0.703   4.312
 3982SOL    HW112845   2.021   0.781   4.253
 3982SOL    HW212846   2.123   0.725   4.368
 3983SOL     OW12847   3.996   6.055   4.198
 3983SOL    HW112848   4.035   6.027   4.111
 3983SOL    HW212849   3.905   6.014   4.209
 3984SOL     OW12850   1.854   0.549   2.932
 3984SOL    HW112851   1.933   0.518   2.986
 3984SOL    HW212852   1.872   0.533   2.835
 3985SOL     OW12853   2.830   4.663   6.958
 3985SOL    HW112854   2.897   4.604   6.912
 3985SOL    HW212855   2.842   4.656   0.040
 3986SOL     OW12856   6.975   2.214   2.950
 3986SOL    HW112857   0.011   2.261   2.879
 3986SOL    HW212858   0.015   2.207   3.033
 3987SOL     OW12859   2.474   6.328   4.461
 3987SOL    HW112860   2.448   6.253   4.399
 3987SOL    HW212861   2.465   6.297   4.555
 3988SOL     OW12862   3.728   2.883   5.923
 3988SOL    HW112863   3.691   2.902   6.014
 3988SOL    HW212864   3.752   2.787   5.916
 3989SOL     OW12865   6.250   1.911   0.178
 3989SOL    HW112866   6.290   1.969   0.249
 3989SOL    HW212867   6.214   1.968   0.104
 3990SOL     OW12868   5.669   1.450   3.920
 3990SOL    HW112869   5.594   1.432   3.856
 3990SOL    HW212870   5.671   1.378   3.989
 3991SOL     OW12871   5.711   1.726   1.831
 3991SOL    HW112872   5.695   1.679   1.917
 3991SOL    HW212873   5.809   1.740   1.818
 3992SOL     OW12874   4.129   2.242   6.488
 3992SOL    HW112875   4.096   2.240   6.583
 3992SOL    HW212876   4.104   2.329   6.446
 3993SOL     OW12877   0.866   2.475   3.501
 3993SOL    HW112878   0.956   2.520   3.499
 3993SOL    HW212879   0.819   2.491   3.414
 3994SOL     OW12880   0.962   2.920   5.690
 3994SOL    HW112881   0.892   2.866   5.736
 3994SOL    HW212882   1.046   2.866   5.682
 3995SOL     OW12883   2.097   3.669   4.256
 3995SOL    HW112884   2.081   3.631   4.347
 3995SOL    HW212885   2.069   3.765   4.254
 3996SOL     OW12886   1.183   0.657   4.461
 3996SOL    HW112887   1.279   0.684   4.451
 3996SOL    HW212888   1.126   0.720   4.408
 3997SOL     OW12889   4.860   3.059   2.636
 3997SOL    HW112890   4.904   3.085   2.722
 3997SOL    HW212891   4.881   3.127   2.566
 3998SOL     OW12892   4.721   1.369   2.640
 3998SOL    HW112893   4.755   1.457   2.606
 3998SOL    HW212894   4.624   1.378   2.665
 3999SOL     OW12895   5.292   3.431   3.343
 3999SOL    HW112896   5.366   3.365   3.331
 3999SOL    HW212897   5.221   3.414   3.274
 4000SOL     OW12898   3.250   5.594   2.789
 4000SOL    HW112899   3.305   5.543   2.723
 4000SOL    HW212900   3.172   5.637   2.743
 4001SOL     OW12901   1.547   2.224   4.008
 4001SOL    HW112902   1.568   2.208   3.911
 4001SOL    HW212903   1.624   2.270   4.051
 4002SOL     OW12904   2.818   3.030   0.278
 4002SOL    HW112905   2.836   2.934   0.296
 4002SOL    HW212906   2.796   3.077   0.363
 4003SOL     OW12907   2.927   6.945   5.404
 4003SOL    HW112908   2.936   0.028   5.399
 4003SOL    HW212909   2.984   6.903   5.333
 4004SOL     OW12910   6.577   2.402   3.983
 4004SOL    HW112911   6.525   2.334   3.932
 4004SOL    HW212912   6.515   2.455   4.041
 4005SOL     OW12913   4.931   5.310   0.987
 4005SOL    HW112914   5.010   5.320   0.926
 4005SOL    HW212915   4.905   5.400   1.022
 4006SOL     OW12916   4.392   4.811   1.776
 4006SOL    HW112917   4.485   4.848   1.782
 4006SOL    HW212918   4.379   4.744   1.848
 4007SOL     OW12919   0.781   3.228   1.856
 4007SOL    HW112920   0.689   3.219   1.896
 4007SOL    HW212921   0.836   3.150   1.883
 4008SOL     OW12922   3.594   1.723   4.541
 4008SOL    HW112923   3.606   1.811   4.495
 4008SOL    HW212924   3.683   1.688   4.570
 4009SOL     OW12925   4.826   2.823   0.520
 4009SOL    HW112926   4.857   2.836   0.615
 4009SOL    HW212927   4.877   2.749   0.478
 4010SOL     OW12928   1.997   4.043   0.990
 4010SOL    HW112929   2.091   4.048   1.025
 4010SOL    HW212930   1.935   4.085   1.056
 4011SOL     OW12931   1.124   0.532   1.382
 4011SOL    HW112932   1.051   0.467   1.363
 4011SOL    HW212933   1.095   0.594   1.455
 4012SOL     OW12934   4.629   4.496   1.558
 4012SOL    HW112935   4.568   4.576   1.551
 4012SOL    HW212936   4.639   4.471   1.654
 4013SOL     OW12937   2.770   0.144   1.137
 4013SOL    HW112938   2.842   0.087   1.176
 4013SOL    HW212939   2.689   0.088   1.120
 4014SOL     OW12940   4.449   5.622   3.711
 4014SOL    HW112941   4.359   5.626   3.754
 4014SOL    HW212942   4.481   5.714   3.690
 4015SOL     OW12943   4.442   5.436   6.096
 4015SOL    HW112944   4.478   5.399   6.182
 4015SOL    HW212945   4.513   5.491   6.052
 4016SOL     OW12946   1.130   5.629   6.725
 4016SOL    HW112947   1.111   5.580   6.640
 4016SOL    HW212948   1.187   5.572   6.785
 4017SOL     OW12949   6.948   6.888   0.087
 4017SOL    HW112950   6.875   6.844   0.034
 4017SOL    HW212951   6.983   6.822   0.155
 4018SOL     OW12952   5.972   6.439   1.897
 4018SOL    HW112953   5.932   6.361   1.944
 4018SOL    HW212954   5.903   6.510   1.885
 4019SOL     OW12955   5.899   3.681   2.282
 4019SOL    HW112956   5.844   3.615   2.332
 4019SOL    HW212957   5.868   3.774   2.306
 4020SOL     OW12958   6.093   2.264   6.051
 4020SOL    HW112959   6.097   2.178   6.000
 4020SOL    HW212960   6.078   2.340   5.987
 4021SOL     OW12961   3.119   3.788   5.967
 4021SOL    HW112962   3.123   3.886   5.987
 4021SOL    HW212963   3.058   3.772   5.889
 4022SOL     OW12964   4.085   0.202   0.009
 4022SOL    HW112965   4.074   0.128   0.075
 4022SOL    HW212966   4.170   0.251   0.028
 4023SOL     OW12967   6.463   0.785   4.023
 4023SOL    HW112968   6.503   0.761   3.934
 4023SOL    HW212969   6.387   0.724   4.042
 4024SOL     OW12970   2.599   5.025   4.703
 4024SOL    HW112971   2.543   4.985   4.631
 4024SOL    HW212972   2.569   4.991   4.792
 4025SOL     OW12973   0.728   5.948   5.118
 4025SOL    HW112974   0.807   6.009   5.105
 4025SOL    HW212975   0.645   6.002   5.125
 4026SOL     OW12976   6.576   6.785   3.646
 4026SOL    HW112977   6.514   6.728   3.701
 4026SOL    HW212978   6.649   6.820   3.703
 4027SOL     OW12979   3.167   3.463   1.421
 4027SOL    HW112980   3.162   3.365   1.401
 4027SOL    HW212981   3.198   3.476   1.515
 4028SOL     OW12982   2.282   2.702   3.211
 4028SOL    HW112983   2.354   2.666   3.151
 4028SOL    HW212984   2.200   2.722   3.158
 4029SOL     OW12985   2.898   4.302   6.549
 4029SOL    HW112986   2.970   4.236   6.527
 4029SOL    HW212987   2.892   4.312   6.649
 4030SOL     OW12988   1.040   1.882   0.250
 4030SOL    HW112989   1.036   1.799   0.193
 4030SOL    HW212990   1.062   1.856   0.344
 4031SOL     OW12991   4.905   6.459   3.291
 4031SOL    HW112992   4.985   6.424   3.243
 4031SOL    HW212993   4.926   6.471   3.388
 4032SOL     OW12994   6.537   0.306   2.673
 4032SOL    HW112995   6.476   0.383   2.690
 4032SOL    HW212996   6.603   0.299   2.748
 4033SOL     OW12997   2.914   3.300   2.334
 4033SOL    HW112998   2.918   3.267   2.240
 4033SOL    HW212999   2.989   3.364   2.350
 4034SOL     OW13000   6.951   1.909   5.169
 4034SOL    HW113001   6.956   1.818   5.128
 4034SOL    HW213002   0.026   1.936   5.202
 4035SOL     OW13003   6.992   2.754   0.553
 4035SOL    HW113004   6.987   2.833   0.492
 4035SOL    HW213005   0.065   2.750   0.597
 4036SOL     OW13006   4.776   6.759   2.543
 4036SOL    HW113007   4.756   6.711   2.628
 4036SOL    HW213008   4.743   6.854   2.550
 4037SOL     OW13009   2.328   1.485   0.665
 4037SOL    HW113010   2.293   1.573   0.698
 4037SOL    HW213011   2.256   1.436   0.615
 4038SOL     OW13012   4.721   4.372   1.812
 4038SOL    HW113013   4.762   4.326   1.734
 4038SOL    HW213014   4.659   4.309   1.860
 4039SOL     OW13015   5.039   4.477   1.411
 4039SOL    HW113016   5.098   4.423   1.472
 4039SOL    HW213017   5.042   4.439   1.319
 4040SOL     OW13018   3.216   0.048   5.775
 4040SOL    HW113019   3.199   0.141   5.808
 4040SOL    HW213020   3.174   0.037   5.685
 4041SOL     OW13021   2.340   5.507   1.377
 4041SOL    HW113022   2.405   5.581   1.358
 4041SOL    HW213023   2.289   5.485   1.294
 4042SOL     OW13024   6.112   5.394   2.283
 4042SOL    HW113025   6.193   5.452   2.285
 4042SOL    HW213026   6.136   5.302   2.316
 4043SOL     OW13027   4.760   2.328   4.197
 4043SOL    HW113028   4.816   2.277   4.262
 4043SOL    HW213029   4.732   2.268   4.123
 4044SOL     OW13030   4.829   0.356   3.790
 4044SOL    HW113031   4.753   0.405   3.834
 4044SOL    HW213032   4.820   0.363   3.691
 4045SOL     OW13033   2.673   4.726   6.454
 4045SOL    HW113034   2.696   4.725   6.357
 4045SOL    HW213035   2.726   4.656   6.502
 4046SOL     OW13036   0.511   1.392   3.974
 4046SOL    HW113037   0.435   1.443   3.934
 4046SOL    HW213038   0.514   1.408   4.072
 4047SOL     OW13039   2.465   2.661   0.946
 4047SOL    HW113040   2.473   2.591   0.874
 4047SOL    HW213041   2.555   2.697   0.968
 4048SOL     OW13042   5.416   1.849   2.430
 4048SOL    HW113043   5.341   1.849   2.496
 4048SOL    HW213044   5.385   1.889   2.344
 4049SOL     OW13045   6.000   6.134   7.013
 4049SOL    HW113046   5.924   6.186   0.035
 4049SOL    HW213047   6.041   6.076   0.068
 4050SOL     OW13048   1.745   6.578   0.820
 4050SOL    HW113049   1.692   6.595   0.737
 4050SOL    HW213050   1.710   6.635   0.894
 4051SOL     OW13051   3.787   2.787   0.361
 4051SOL    HW113052   3.722   2.855   0.327
 4051SOL    HW213053   3.877   2.828   0.369
 4052SOL     OW13054   0.100   0.408   2.441
 4052SOL    HW113055   0.198   0.412   2.461
 4052SOL    HW213056   0.078   0.319   2.401
 4053SOL     OW13057   3.161   5.291   4.102
 4053SOL    HW113058   3.091   5.300   4.173
 4053SOL    HW213059   3.198   5.198   4.103
 4054SOL     OW13060   0.608   2.959   1.773
 4054SOL    HW113061   0.698   2.972   1.814
 4054SOL    HW213062   0.576   2.866   1.792
 4055SOL     OW13063   3.891   3.679   6.104
 4055SOL    HW113064   3.882   3.773   6.135
 4055SOL    HW213065   3.893   3.677   6.004
 4056SOL     OW13066   3.769   3.416   0.492
 4056SOL    HW113067   3.748   3.322   0.464
 4056SOL    HW213068   3.696   3.477   0.463
 4057SOL     OW13069   5.721   1.904   1.255
 4057SOL    HW113070   5.696   1.927   1.349
 4057SOL    HW213071   5.638   1.884   1.203
 4058SOL     OW13072   1.610   0.576   4.345
 4058SOL    HW113073   1.648   0.485   4.327
 4058SOL    HW213074   1.675   0.645   4.313
 4059SOL     OW13075   1.382   2.824   3.554
 4059SOL    HW113076   1.329   2.739   3.548
 4059SOL    HW213077   1.394   2.862   3.463
 4060SOL     OW13078   4.769   6.017   4.559
 4060SOL    HW113079   4.836   5.999   4.487
 4060SOL    HW213080   4.808   5.993   4.647
 4061SOL     OW13081   3.357   4.892   1.840
 4061SOL    HW113082   3.377   4.986   1.869
 4061SOL    HW213083   3.434   4.833   1.864
 4062SOL     OW13084   3.189   1.736   2.897
 4062SOL    HW113085   3.170   1.834   2.900
 4062SOL    HW213086   3.123   1.691   2.837
 4063SOL     OW13087   5.694   6.696   5.239
 4063SOL    HW113088   5.641   6.777   5.214
 4063SOL    HW213089   5.641   6.614   5.217
 4064SOL     OW13090   1.611   6.512   3.571
 4064SOL    HW113091   1.646   6.536   3.480
 4064SOL    HW213092   1.512   6.503   3.567
 4065SOL     OW13093   0.569   6.467   0.793
 4065SOL    HW113094   0.585   6.513   0.705
 4065SOL    HW213095   0.539   6.535   0.860
 4066SOL     OW13096   5.333   5.483   2.802
 4066SOL    HW113097   5.340   5.539   2.884
 4066SOL    HW213098   5.417   5.491   2.748
 4067SOL     OW13099   5.983   2.822   2.336
 4067SOL    HW113100   6.032   2.741   2.304
 4067SOL    HW213101   5.909   2.794   2.397
 4068SOL     OW13102   3.177   0.922   3.941
 4068SOL    HW113103   3.155   0.988   3.869
 4068SOL    HW213104   3.236   0.965   4.010
 4069SOL     OW13105   3.695   4.567   5.880
 4069SOL    HW113106   3.695   4.472   5.849
 4069SOL    HW213107   3.643   4.623   5.815
 4070SOL     OW13108   0.785   3.684   2.408
 4070SOL    HW113109   0.846   3.764   2.404
 4070SOL    HW213110   0.768   3.651   2.315
 4071SOL     OW13111   1.088   0.597   5.144
 4071SOL    HW113112   1.179   0.627   5.172
 4071SOL    HW213113   1.043   0.550   5.220
 4072SOL     OW13114   1.004   5.898   4.350
 4072SOL    HW113115   0.954   5.981   4.376
 4072SOL    HW213116   1.085   5.924   4.296
 4073SOL     OW13117   2.187   5.410   6.280
 4073SOL    HW113118   2.200   5.468   6.199
 4073SOL    HW213119   2.104   5.356   6.269
 4074SOL     OW13120   0.733   2.960   2.222
 4074SOL    HW113121   0.705   2.949   2.317
 4074SOL    HW213122   0.766   3.053   2.208
 4075SOL     OW13123   3.999   2.171   2.491
 4075SOL    HW113124   4.047   2.251   2.528
 4075SOL    HW213125   4.000   2.176   2.391
 4076SOL     OW13126   2.020   3.470   5.629
 4076SOL    HW113127   1.923   3.488   5.649
 4076SOL    HW213128   2.066   3.556   5.606
 4077SOL     OW13129   3.420   6.816   0.035
 4077SOL    HW113130   3.408   6.914   0.023
 4077SOL    HW213131   3.400   6.791   0.130
 4078SOL     OW13132   6.557   5.066   1.362
 4078SOL    HW113133   6.533   5.142   1.423
 4078SOL    HW213134   6.568   4.982   1.415
 4079SOL     OW13135   0.570   2.240   3.397
 4079SOL    HW113136   0.664   2.255   3.365
 4079SOL    HW213137   0.570   2.230   3.497
 4080SOL     OW13138   2.683   3.301   0.826
 4080SOL    HW113139   2.664   3.348   0.912
 4080SOL    HW213140   2.602   3.307   0.767
 4081SOL     OW13141   1.609   1.990   3.538
 4081SOL    HW113142   1.624   2.057   3.465
 4081SOL    HW213143   1.561   1.911   3.501
 4082SOL     OW13144   1.188   2.060   0.997
 4082SOL    HW113145   1.126   2.132   0.965
 4082SOL    HW213146   1.204   2.071   1.095
 4083SOL     OW13147   5.845   4.213   2.868
 4083SOL    HW113148   5.883   4.121   2.870
 4083SOL    HW213149   5.919   4.280   2.872
 4084SOL     OW13150   4.681   2.211   3.068
 4084SOL    HW113151   4.760   2.159   3.101
 4084SOL    HW213152   4.611   2.149   3.034
 4085SOL     OW13153   2.638   5.742   0.733
 4085SOL    HW113154   2.547   5.732   0.775
 4085SOL    HW213155   2.692   5.806   0.787
 4086SOL     OW13156   6.858   4.955   1.130
 4086SOL    HW113157   6.929   4.935   1.063
 4086SOL    HW213158   6.894   5.018   1.199
 4087SOL     OW13159   2.396   1.435   2.884
 4087SOL    HW113160   2.332   1.449   2.959
 4087SOL    HW213161   2.346   1.405   2.802
 4088SOL     OW13162   6.541   1.096   6.538
 4088SOL    HW113163   6.604   1.046   6.479
 4088SOL    HW213164   6.547   1.194   6.518
 4089SOL     OW13165   6.364   4.900   4.461
 4089SOL    HW113166   6.330   4.992   4.440
 4089SOL    HW213167   6.419   4.903   4.545
 4090SOL     OW13168   2.166   5.738   5.292
 4090SOL    HW113169   2.137   5.785   5.209
 4090SOL    HW213170   2.104   5.760   5.367
 4091SOL     OW13171   0.466   6.022   6.995
 4091SOL    HW113172   0.473   5.925   0.001
 4091SOL    HW213173   0.371   6.050   6.999
 4092SOL     OW13174   5.727   2.478   3.584
 4092SOL    HW113175   5.742   2.426   3.668
 4092SOL    HW213176   5.640   2.450   3.542
 4093SOL     OW13177   5.261   6.812   1.258
 4093SOL    HW113178   5.228   6.720   1.281
 4093SOL    HW213179   5.184   6.876   1.260
 4094SOL     OW13180   1.064   4.599   6.506
 4094SOL    HW113181   1.107   4.690   6.507
 4094SOL    HW213182   1.038   4.574   6.599
 4095SOL     OW13183   0.623   3.725   0.241
 4095SOL    HW113184   0.637   3.723   0.340
 4095SOL    HW213185   0.539   3.676   0.217
 4096SOL     OW13186   3.784   0.740   6.393
 4096SOL    HW113187   3.783   0.734   6.492
 4096SOL    HW213188   3.878   0.746   6.361
 4097SOL     OW13189   5.159   4.518   5.042
 4097SOL    HW113190   5.071   4.490   5.006
 4097SOL    HW213191   5.190   4.452   5.110
 4098SOL     OW13192   0.976   2.573   1.296
 4098SOL    HW113193   0.997   2.629   1.376
 4098SOL    HW213194   0.930   2.489   1.325
 4099SOL     OW13195   3.481   5.288   0.905
 4099SOL    HW113196   3.506   5.208   0.960
 4099SOL    HW213197   3.558   5.312   0.846
 4100SOL     OW13198   0.825   0.001   4.541
 4100SOL    HW113199   0.833   0.047   4.452
 4100SOL    HW213200   0.875   0.052   4.610
 4101SOL     OW13201   1.026   1.130   0.030
 4101SOL    HW113202   1.014   1.154   0.126
 4101SOL    HW213203   1.087   1.051   0.023
 4102SOL     OW13204   1.692   0.274   0.570
 4102SOL    HW113205   1.736   0.348   0.521
 4102SOL    HW213206   1.738   0.188   0.550
 4103SOL     OW13207   1.030   0.055   2.156
 4103SOL    HW113208   0.998   0.043   2.063
 4103SOL    HW213209   0.966   0.014   2.220
 4104SOL     OW13210   0.225   4.822   3.481
 4104SOL    HW113211   0.179   4.759   3.419
 4104SOL    HW213212   0.304   4.777   3.522
 4105SOL     OW13213   6.457   0.371   3.006
 4105SOL    HW113214   6.526   0.443   3.015
 4105SOL    HW213215   6.484   0.292   3.060
 4106SOL     OW13216   0.160   3.129   3.695
 4106SOL    HW113217   0.066   3.161   3.683
 4106SOL    HW213218   0.160   3.040   3.741
 4107SOL     OW13219   1.172   5.679   0.729
 4107SOL    HW113220   1.133   5.586   0.724
 4107SOL    HW213221   1.214   5.692   0.818
 4108SOL     OW13222   6.116   4.808   4.546
 4108SOL    HW113223   6.130   4.710   4.536
 4108SOL    HW213224   6.205   4.855   4.536
 4109SOL     OW13225   6.243   6.734   4.800
 4109SOL    HW113226   6.178   6.730   4.876
 4109SOL    HW213227   6.231   6.653   4.742
 4110SOL     OW13228   4.076   3.990   6.014
 4110SOL    HW113229   4.094   3.994   5.916
 4110SOL    HW213230   4.160   4.010   6.065
 4111SOL     OW13231   5.496   5.114   6.259
 4111SOL    HW113232   5.563   5.051   6.220
 4111SOL    HW213233   5.404   5.089   6.227
 4112SOL     OW13234   4.851   6.221   4.282
 4112SOL    HW113235   4.751   6.220   4.281
 4112SOL    HW213236   4.885   6.128   4.299
 4113SOL     OW13237   5.372   5.634   4.551
 4113SOL    HW113238   5.439   5.696   4.593
 4113SOL    HW213239   5.383   5.637   4.451
 4114SOL     OW13240   4.780   1.950   3.742
 4114SOL    HW113241   4.738   2.030   3.699
 4114SOL    HW213242   4.712   1.877   3.751
 4115SOL     OW13243   3.080   4.806   2.871
 4115SOL    HW113244   3.156   4.867   2.895
 4115SOL    HW213245   3.009   4.812   2.941
 4116SOL     OW13246   4.354   1.768   3.262
 4116SOL    HW113247   4.318   1.675   3.259
 4116SOL    HW213248   4.339   1.813   3.174
 4117SOL     OW13249   1.259   3.381   2.711
 4117SOL    HW113250   1.266   3.296   2.762
 4117SOL    HW213251   1.226   3.362   2.618
 4118SOL     OW13252   5.340   6.649   0.188
 4118SOL    HW113253   5.244   6.627   0.173
 4118SOL    HW213254   5.353   6.748   0.187
 4119SOL     OW13255   2.955   1.668   3.773
 4119SOL    HW113256   2.984   1.630   3.861
 4119SOL    HW213257   2.975   1.604   3.700
 4120SOL     OW13258   2.864   1.329   6.042
 4120SOL    HW113259   2.828   1.309   5.951
 4120SOL    HW213260   2.821   1.267   6.109
 4121SOL     OW13261   6.587   6.966   3.916
 4121SOL    HW113262   6.531   0.006   3.856
 4121SOL    HW213263   6.533   6.890   3.951
 4122SOL     OW13264   1.403   6.351   4.486
 4122SOL    HW113265   1.344   6.304   4.420
 4122SOL    HW213266   1.451   6.426   4.439
 4123SOL     OW13267   4.244   4.726   5.301
 4123SOL    HW113268   4.172   4.664   5.332
 4123SOL    HW213269   4.203   4.803   5.252
 4124SOL     OW13270   6.665   6.665   0.959
 4124SOL    HW113271   6.705   6.598   0.896
 4124SOL    HW213272   6.602   6.725   0.910
 4125SOL     OW13273   4.278   2.265   3.008
 4125SOL    HW113274   4.368   2.298   2.979
 4125SOL    HW213275   4.213   2.342   3.008
 4126SOL     OW13276   1.709   3.470   3.262
 4126SOL    HW113277   1.656   3.389   3.240
 4126SOL    HW213278   1.664   3.521   3.336
 4127SOL     OW13279   5.892   3.619   4.894
 4127SOL    HW113280   5.926   3.705   4.855
 4127SOL    HW213281   5.970   3.562   4.920
 4128SOL     OW13282   0.662   3.477   1.231
 4128SOL    HW113283   0.602   3.432   1.297
 4128SOL    HW213284   0.751   3.432   1.231
 4129SOL     OW13285   3.172   0.909   0.121
 4129SOL    HW113286   3.171   0.997   0.167
 4129SOL    HW213287   3.096   0.905   0.056
 4130SOL     OW13288   6.569   2.636   0.542
 4130SOL    HW113289   6.546   2.692   0.622
 4130SOL    HW213290   6.512   2.554   0.543
 4131SOL     OW13291   0.261   1.619   3.110
 4131SOL    HW113292   0.347   1.670   3.103
 4131SOL    HW213293   0.278   1.522   3.095
 4132SOL     OW13294   4.916   3.960   3.435
 4132SOL    HW113295   4.884   3.881   3.487
 4132SOL    HW213296   4.860   3.972   3.354
 4133SOL     OW13297   3.353   5.964   1.704
 4133SOL    HW113298   3.360   6.060   1.677
 4133SOL    HW213299   3.268   5.925   1.668
 4134SOL     OW13300   1.630   3.728   0.990
 4134SOL    HW113301   1.728   3.743   0.977
 4134SOL    HW213302   1.584   3.726   0.901
 4135SOL     OW13303   0.244   2.600   2.091
 4135SOL    HW113304   0.229   2.613   1.992
 4135SOL    HW213305   0.194   2.671   2.141
 4136SOL     OW13306   1.389   3.694   3.280
 4136SOL    HW113307   1.397   3.726   3.375
 4136SOL    HW213308   1.381   3.595   3.279
 4137SOL     OW13309   1.769   3.069   1.222
 4137SOL    HW113310   1.857   3.115   1.230
 4137SOL    HW213311   1.719   3.079   1.308
 4138SOL     OW13312   3.925   5.496   2.761
 4138SOL    HW113313   3.846   5.481   2.702
 4138SOL    HW213314   3.998   5.541   2.709
 4139SOL     OW13315   1.135   1.052   5.232
 4139SOL    HW113316   1.141   1.005   5.144
 4139SOL    HW213317   1.062   1.120   5.229
 4140SOL     OW13318   3.212   1.100   4.989
 4140SOL    HW113319   3.256   1.140   4.909
 4140SOL    HW213320   3.127   1.149   5.009
 4141SOL     OW13321   5.246   6.529   1.338
 4141SOL    HW113322   5.305   6.498   1.264
 4141SOL    HW213323   5.194   6.452   1.374
 4142SOL     OW13324   6.533   4.665   0.653
 4142SOL    HW113325   6.441   4.662   0.693
 4142SOL    HW213326   6.601   4.663   0.726
 4143SOL     OW13327   5.745   3.149   1.388
 4143SOL    HW113328   5.786   3.186   1.471
 4143SOL    HW213329   5.645   3.150   1.396
 4144SOL     OW13330   5.004   1.429   0.194
 4144SOL    HW113331   4.984   1.336   0.227
 4144SOL    HW213332   5.037   1.485   0.270
 4145SOL     OW13333   0.480   6.369   1.628
 4145SOL    HW113334   0.401   6.389   1.570
 4145SOL    HW213335   0.542   6.307   1.580
 4146SOL     OW13336   6.510   0.251   3.609
 4146SOL    HW113337   6.429   0.195   3.593
 4146SOL    HW213338   6.554   0.272   3.521
 4147SOL     OW13339   3.982   4.652   5.876
 4147SOL    HW113340   3.884   4.638   5.860
 4147SOL    HW213341   3.998   4.747   5.902
 4148SOL     OW13342   2.816   0.622   4.386
 4148SOL    HW113343   2.761   0.540   4.402
 4148SOL    HW213344   2.905   0.595   4.349
 4149SOL     OW13345   0.239   4.381   1.234
 4149SOL    HW113346   0.278   4.417   1.318
 4149SOL    HW213347   0.210   4.457   1.175
 4150SOL     OW13348   0.944   0.976   5.745
 4150SOL    HW113349   0.877   1.040   5.785
 4150SOL    HW213350   0.975   0.913   5.816
 4151SOL     OW13351   2.547   6.274   5.809
 4151SOL    HW113352   2.571   6.319   5.895
 4151SOL    HW213353   2.609   6.305   5.737
 4152SOL     OW13354   4.255   5.577   1.673
 4152SOL    HW113355   4.292   5.668   1.691
 4152SOL    HW213356   4.229   5.570   1.577
 4153SOL     OW13357   5.909   5.055   1.019
 4153SOL    HW113358   5.953   5.012   0.940
 4153SOL    HW213359   5.850   4.989   1.064
 4154SOL     OW13360   6.617   4.837   4.179
 4154SOL    HW113361   6.545   4.906   4.186
 4154SOL    HW213362   6.579   4.747   4.203
 4155SOL     OW13363   0.207   0.697   1.020
 4155SOL    HW113364   0.268   0.759   0.972
 4155SOL    HW213365   0.185   0.734   1.110
 4156SOL     OW13366   6.133   5.345   5.237
 4156SOL    HW113367   6.122   5.392   5.149
 4156SOL    HW213368   6.141   5.412   5.310
 4157SOL     OW13369   5.457   5.596   4.276
 4157SOL    HW113370   5.446   5.572   4.179
 4157SOL    HW213371   5.456   5.695   4.286
 4158SOL     OW13372   0.628   3.216   2.366
 4158SOL    HW113373   0.715   3.250   2.402
 4158SOL    HW213374   0.574   3.180   2.442
 4159SOL     OW13375   1.574   3.233   3.229
 4159SOL    HW113376   1.486   3.203   3.192
 4159SOL    HW213377   1.576   3.216   3.328
 4160SOL     OW13378   5.388   0.411   6.925
 4160SOL    HW113379   5.327   0.340   6.962
 4160SOL    HW213380   5.437   0.455   6.999
 4161SOL     OW13381   0.806   2.079   0.624
 4161SOL    HW113382   0.896   2.054   0.587
 4161SOL    HW213383   0.816   2.156   0.687
 4162SOL     OW13384   6.103   6.007   0.239
 4162SOL    HW113385   6.164   5.929   0.252
 4162SOL    HW213386   6.010   5.981   0.263
 4163SOL     OW13387   5.293   0.590   3.688
 4163SOL    HW113388   5.327   0.549   3.773
 4163SOL    HW213389   5.293   0.521   3.616
 4164SOL     OW13390   1.784   6.779   5.122
 4164SOL    HW113391   1.862   6.773   5.184
 4164SOL    HW213392   1.726   6.698   5.133
 4165SOL     OW13393   4.197   0.118   5.895
 4165SOL    HW113394   4.280   0.161   5.859
 4165SOL    HW213395   4.203   0.019   5.882
 4166SOL     OW13396   5.616   1.469   0.650
 4166SOL    HW113397   5.630   1.403   0.724
 4166SOL    HW213398   5.526   1.452   0.608
 4167SOL     OW13399   3.167   4.240   0.171
 4167SOL    HW113400   3.128   4.239   0.263
 4167SOL    HW213401   3.260   4.277   0.175
 4168SOL     OW13402   0.352   3.929   1.272
 4168SOL    HW113403   0.360   4.023   1.238
 4168SOL    HW213404   0.283   3.926   1.344
 4169SOL     OW13405   5.961   5.065   4.415
 4169SOL    HW113406   5.889   5.127   4.384
 4169SOL    HW213407   5.923   5.000   4.481
 4170SOL     OW13408   4.439   3.246   6.254
 4170SOL    HW113409   4.344   3.233   6.282
 4170SOL    HW213410   4.484   3.156   6.246
 4171SOL     OW13411   6.151   5.846   1.109
 4171SOL    HW113412   6.140   5.925   1.049
 4171SOL    HW213413   6.237   5.800   1.089
 4172SOL     OW13414   2.031   1.655   6.464
 4172SOL    HW113415   2.067   1.613   6.547
 4172SOL    HW213416   1.938   1.622   6.447
 4173SOL     OW13417   5.374   3.558   4.729
 4173SOL    HW113418   5.306   3.488   4.752
 4173SOL    HW213419   5.460   3.538   4.777
 4174SOL     OW13420   4.485   1.113   2.798
 4174SOL    HW113421   4.410   1.065   2.753
 4174SOL    HW213422   4.469   1.212   2.792
 4175SOL     OW13423   2.092   5.107   4.173
 4175SOL    HW113424   2.077   5.014   4.207
 4175SOL    HW213425   2.027   5.169   4.217
 4176SOL     OW13426   4.295   6.327   1.336
 4176SOL    HW113427   4.201   6.325   1.300
 4176SOL    HW213428   4.296   6.286   1.427
 4177SOL     OW13429   6.086   5.064   5.670
 4177SOL    HW113430   6.098   5.156   5.708
 4177SOL    HW213431   6.036   5.007   5.735
 4178SOL     OW13432   4.297   6.701   4.022
 4178SOL    HW113433   4.384   6.704   4.071
 4178SOL    HW213434   4.246   6.785   4.041
 4179SOL     OW13435   5.529   3.610   2.861
 4179SOL    HW113436   5.577   3.618   2.948
 4179SOL    HW213437   5.476   3.525   2.860
 4180SOL     OW13438   3.827   3.688   0.542
 4180SOL    HW113439   3.924   3.694   0.566
 4180SOL    HW213440   3.798   3.593   0.548
 4181SOL     OW13441   3.936   0.789   6.802
 4181SOL    HW113442   3.977   0.729   6.870
 4181SOL    HW213443   3.881   0.859   6.847
 4182SOL     OW13444   0.825   6.303   3.630
 4182SOL    HW113445   0.834   6.205   3.645
 4182SOL    HW213446   0.863   6.327   3.541
 4183SOL     OW13447   2.920   1.567   0.036
 4183SOL    HW113448   3.001   1.579   6.995
 4183SOL    HW213449   2.947   1.530   0.124
 4184SOL     OW13450   3.235   6.921   2.891
 4184SOL    HW113451   3.201   7.012   2.869
 4184SOL    HW213452   3.319   6.903   2.840
 4185SOL     OW13453   1.182   5.222   2.959
 4185SOL    HW113454   1.163   5.211   3.057
 4185SOL    HW213455   1.231   5.308   2.945
 4186SOL     OW13456   2.632   4.827   6.872
 4186SOL    HW113457   2.614   4.889   6.948
 4186SOL    HW213458   2.708   4.766   6.896
 4187SOL     OW13459   3.704   3.707   5.592
 4187SOL    HW113460   3.728   3.671   5.682
 4187SOL    HW213461   3.685   3.805   5.599
 4188SOL     OW13462   5.526   0.959   5.307
 4188SOL    HW113463   5.619   0.922   5.297
 4188SOL    HW213464   5.463   0.885   5.328
 4189SOL     OW13465   3.186   5.024   4.879
 4189SOL    HW113466   3.152   5.118   4.884
 4189SOL    HW213467   3.286   5.025   4.869
 4190SOL     OW13468   0.879   0.777   0.664
 4190SOL    HW113469   0.935   0.854   0.693
 4190SOL    HW213470   0.796   0.773   0.718
 4191SOL     OW13471   4.965   4.325   3.509
 4191SOL    HW113472   5.016   4.337   3.424
 4191SOL    HW213473   4.874   4.363   3.500
 4192SOL     OW13474   0.511   1.112   4.002
 4192SOL    HW113475   0.558   1.069   3.924
 4192SOL    HW213476   0.519   1.211   3.996
 4193SOL     OW13477   6.359   0.724   1.092
 4193SOL    HW113478   6.452   0.717   1.129
 4193SOL    HW213479   6.350   0.661   1.015
 4194SOL     OW13480   5.426   0.235   4.710
 4194SOL    HW113481   5.505   0.295   4.701
 4194SOL    HW213482   5.405   0.223   4.807
 4195SOL     OW13483   4.057   6.278   1.109
 4195SOL    HW113484   3.977   6.218   1.103
 4195SOL    HW213485   4.035   6.368   1.072
 4196SOL     OW13486   6.081   2.337   2.176
 4196SOL    HW113487   6.129   2.295   2.253
 4196SOL    HW213488   6.066   2.268   2.105
 4197SOL     OW13489   4.754   5.070   5.544
 4197SOL    HW113490   4.702   5.039   5.624
 4197SOL    HW213491   4.844   5.103   5.574
 4198SOL     OW13492   6.328   2.117   0.371
 4198SOL    HW113493   6.266   2.123   0.449
 4198SOL    HW213494   6.415   2.162   0.393
 4199SOL     OW13495   1.901   2.126   5.999
 4199SOL    HW113496   1.916   2.189   6.075
 4199SOL    HW213497   1.988   2.111   5.951
 4200SOL     OW13498   3.539   0.722   5.941
 4200SOL    HW113499   3.577   0.748   6.030
 4200SOL    HW213500   3.444   0.693   5.953
 4201SOL     OW13501   6.047   6.769   3.670
 4201SOL    HW113502   5.969   6.708   3.684
 4201SOL    HW213503   6.015   6.862   3.655
 4202SOL     OW13504   3.550   5.650   5.767
 4202SOL    HW113505   3.540   5.724   5.833
 4202SOL    HW213506   3.646   5.621   5.764
 4203SOL     OW13507   3.700   4.816   6.897
 4203SOL    HW113508   3.602   4.799   6.911
 4203SOL    HW213509   3.720   4.912   6.916
 4204SOL     OW13510   4.078   3.634   3.393
 4204SOL    HW113511   4.096   3.583   3.309
 4204SOL    HW213512   4.031   3.720   3.371
 4205SOL     OW13513   4.433   5.832   3.329
 4205SOL    HW113514   4.433   5.879   3.241
 4205SOL    HW213515   4.339   5.810   3.356
 4206SOL     OW13516   6.840   0.307   5.459
 4206SOL    HW113517   6.900   0.235   5.425
 4206SOL    HW213518   6.894   0.387   5.485
 4207SOL     OW13519   1.891   1.697   1.751
 4207SOL    HW113520   1.820   1.741   1.805
 4207SOL    HW213521   1.960   1.765   1.725
 4208SOL     OW13522   6.989   2.864   5.385
 4208SOL    HW113523   0.065   2.865   5.424
 4208SOL    HW213524   6.994   2.842   5.288
 4209SOL     OW13525   6.576   0.697   3.790
 4209SOL    HW113526   6.649   0.638   3.756
 4209SOL    HW213527   6.487   0.656   3.768
 4210SOL     OW13528   3.916   3.074   2.172
 4210SOL    HW113529   3.990   3.136   2.200
 4210SOL    HW213530   3.864   3.045   2.253
 4211SOL     OW13531   4.460   6.588   6.377
 4211SOL    HW113532   4.385   6.528   6.405
 4211SOL    HW213533   4.443   6.681   6.410
 4212SOL     OW13534   6.264   1.881   2.572
 4212SOL    HW113535   6.269   1.785   2.601
 4212SOL    HW213536   6.225   1.936   2.646
 4213SOL     OW13537   1.839   0.418   1.551
 4213SOL    HW113538   1.886   0.468   1.478
 4213SOL    HW213539   1.840   0.320   1.531
 4214SOL     OW13540   0.856   5.118   5.677
 4214SOL    HW113541   0.774   5.064   5.658
 4214SOL    HW213542   0.916   5.066   5.739
 4215SOL     OW13543   5.034   0.169   5.781
 4215SOL    HW113544   4.983   0.253   5.758
 4215SOL    HW213545   5.094   0.188   5.858
 4216SOL     OW13546   1.809   1.422   2.591
 4216SOL    HW113547   1.732   1.484   2.600
 4216SOL    HW213548   1.862   1.422   2.676
 4217SOL     OW13549   0.985   0.559   2.434
 4217SOL    HW113550   0.975   0.637   2.496
 4217SOL    HW213551   1.022   0.591   2.347
 4218SOL     OW13552   4.121   1.101   1.641
 4218SOL    HW113553   4.067   1.174   1.684
 4218SOL    HW213554   4.117   1.019   1.698
 4219SOL     OW13555   4.044   5.987   3.930
 4219SOL    HW113556   4.063   6.061   3.865
 4219SOL    HW213557   3.954   5.948   3.911
 4220SOL     OW13558   6.091   2.729   3.699
 4220SOL    HW113559   6.180   2.690   3.723
 4220SOL    HW213560   6.089   2.749   3.601
 4221SOL     OW13561   5.726   5.526   5.935
 4221SOL    HW113562   5.652   5.459   5.946
 4221SOL    HW213563   5.752   5.531   5.839
 4222SOL     OW13564   0.011   2.527   2.857
 4222SOL    HW113565   6.983   2.566   2.777
 4222SOL    HW213566   0.083   2.465   2.829
 4223SOL     OW13567   3.341   3.085   6.743
 4223SOL    HW113568   3.383   3.018   6.681
 4223SOL    HW213569   3.245   3.097   6.718
 4224SOL     OW13570   4.977   4.310   4.165
 4224SOL    HW113571   4.982   4.215   4.134
 4224SOL    HW213572   4.890   4.350   4.135
 4225SOL     OW13573   3.950   1.479   5.958
 4225SOL    HW113574   4.042   1.518   5.945
 4225SOL    HW213575   3.940   1.398   5.899
 4226SOL     OW13576   1.019   0.818   2.090
 4226SOL    HW113577   0.929   0.804   2.131
 4226SOL    HW213578   1.059   0.730   2.066
 4227SOL     OW13579   4.215   4.781   0.994
 4227SOL    HW113580   4.146   4.803   1.063
 4227SOL    HW213581   4.266   4.865   0.971
 4228SOL     OW13582   0.796   4.336   5.068
 4228SOL    HW113583   0.801   4.293   4.978
 4228SOL    HW213584   0.886   4.372   5.092
 4229SOL     OW13585   5.033   5.408   5.755
 4229SOL    HW113586   5.131   5.425   5.742
 4229SOL    HW213587   4.985   5.496   5.760
 4230SOL     OW13588   1.143   6.206   2.659
 4230SOL    HW113589   1.242   6.219   2.658
 4230SOL    HW213590   1.107   6.214   2.567
 4231SOL     OW13591   5.706   0.146   5.768
 4231SOL    HW113592   5.623   0.196   5.793
 4231SOL    HW213593   5.746   0.105   5.849
 4232SOL     OW13594   0.617   4.978   2.901
 4232SOL    HW113595   0.708   4.937   2.897
 4232SOL    HW213596   0.626   5.076   2.921
 4233SOL     OW13597   6.854   0.972   6.445
 4233SOL    HW113598   6.837   1.069   6.464
 4233SOL    HW213599   6.871   0.960   6.347
 4234SOL     OW13600   2.320   6.406   4.895
 4234SOL    HW113601   2.286   6.477   4.834
 4234SOL    HW213602   2.245   6.372   4.952
 4235SOL     OW13603   5.535   3.600   5.946
 4235SOL    HW113604   5.519   3.567   5.853
 4235SOL    HW213605   5.633   3.603   5.964
 4236SOL     OW13606   6.382   3.536   2.687
 4236SOL    HW113607   6.364   3.610   2.751
 4236SOL    HW213608   6.441   3.468   2.731
 4237SOL     OW13609   5.681   6.182   2.657
 4237SOL    HW113610   5.586   6.192   2.686
 4237SOL    HW213611   5.684   6.167   2.558
 4238SOL     OW13612   2.609   5.846   3.208
 4238SOL    HW113613   2.535   5.904   3.172
 4238SOL    HW213614   2.586   5.750   3.195
 4239SOL     OW13615   6.096   1.965   2.801
 4239SOL    HW113616   6.007   1.933   2.769
 4239SOL    HW213617   6.095   1.967   2.901
 4240SOL     OW13618   2.127   6.171   6.835
 4240SOL    HW113619   2.201   6.129   6.888
 4240SOL    HW213620   2.163   6.251   6.786
 4241SOL     OW13621   6.389   0.573   0.416
 4241SOL    HW113622   6.422   0.480   0.400
 4241SOL    HW213623   6.373   0.618   0.328
 4242SOL     OW13624   3.058   1.488   3.623
 4242SOL    HW113625   3.025   1.408   3.573
 4242SOL    HW213626   3.152   1.472   3.655
 4243SOL     OW13627   6.515   3.027   3.708
 4243SOL    HW113628   6.513   2.952   3.774
 4243SOL    HW213629   6.430   3.028   3.656
 4244SOL     OW13630   4.459   4.173   1.322
 4244SOL    HW113631   4.456   4.076   1.344
 4244SOL    HW213632   4.381   4.219   1.364
 4245SOL     OW13633   0.491   1.497   6.061
 4245SOL    HW113634   0.429   1.572   6.042
 4245SOL    HW213635   0.556   1.525   6.132
 4246SOL     OW13636   6.677   4.060   3.708
 4246SOL    HW113637   6.765   4.088   3.747
 4246SOL    HW213638   6.692   3.989   3.639
 4247SOL     OW13639   3.030   5.882   3.650
 4247SOL    HW113640   2.971   5.844   3.578
 4247SOL    HW213641   2.980   5.883   3.736
 4248SOL     OW13642   3.190   2.152   3.280
 4248SOL    HW113643   3.120   2.180   3.214
 4248SOL    HW213644   3.276   2.133   3.232
 4249SOL     OW13645   5.416   2.647   3.483
 4249SOL    HW113646   5.367   2.635   3.397
 4249SOL    HW213647   5.416   2.560   3.534
 4250SOL     OW13648   6.071   4.683   2.813
 4250SOL    HW113649   6.116   4.743   2.747
 4250SOL    HW213650   6.030   4.737   2.886
 4251SOL     OW13651   5.411   4.492   1.936
 4251SOL    HW113652   5.483   4.423   1.945
 4251SOL    HW213653   5.420   4.539   1.848
 4252SOL     OW13654   5.152   6.888   6.461
 4252SOL    HW113655   5.194   6.975   6.434
 4252SOL    HW213656   5.169   6.820   6.389
 4253SOL     OW13657   3.216   0.220   0.901
 4253SOL    HW113658   3.295   0.168   0.871
 4253SOL    HW213659   3.174   0.267   0.823
 4254SOL     OW13660   1.227   3.656   2.020
 4254SOL    HW113661   1.155   3.660   2.090
 4254SOL    HW213662   1.287   3.735   2.029
 4255SOL     OW13663   6.680   4.118   4.108
 4255SOL    HW113664   6.708   4.204   4.150
 4255SOL    HW213665   6.582   4.119   4.092
 4256SOL     OW13666   1.794   6.416   0.463
 4256SOL    HW113667   1.695   6.421   0.466
 4256SOL    HW213668   1.827   6.359   0.539
 4257SOL     OW13669   2.224   0.835   4.041
 4257SOL    HW113670   2.239   0.926   4.080
 4257SOL    HW213671   2.312   0.793   4.020
 4258SOL     OW13672   4.317   5.960   0.953
 4258SOL    HW113673   4.295   5.887   0.888
 4258SOL    HW213674   4.384   6.022   0.911
 4259SOL     OW13675   2.731   0.435   1.157
 4259SOL    HW113676   2.738   0.336   1.165
 4259SOL    HW213677   2.821   0.473   1.135
 4260SOL     OW13678   5.793   0.258   1.588
 4260SOL    HW113679   5.767   0.265   1.684
 4260SOL    HW213680   5.754   0.334   1.537
 4261SOL     OW13681   2.170   0.165   2.708
 4261SOL    HW113682   2.166   0.066   2.694
 4261SOL    HW213683   2.164   0.211   2.619
 4262SOL     OW13684   0.914   4.922   6.607
 4262SOL    HW113685   0.885   5.000   6.662
 4262SOL    HW213686   0.996   4.881   6.649
 4263SOL     OW13687   3.221   0.239   3.261
 4263SOL    HW113688   3.195   0.170   3.193
 4263SOL    HW213689   3.147   0.248   3.328
 4264SOL     OW13690   6.498   2.383   2.326
 4264SOL    HW113691   6.451   2.317   2.385
 4264SOL    HW213692   6.476   2.476   2.355
 4265SOL     OW13693   4.799   1.551   1.652
 4265SOL    HW113694   4.750   1.623   1.604
 4265SOL    HW213695   4.820   1.581   1.745
 4266SOL     OW13696   1.802   5.394   0.105
 4266SOL    HW113697   1.708   5.365   0.091
 4266SOL    HW213698   1.806   5.494   0.108
 4267SOL     OW13699   1.921   3.024   3.568
 4267SOL    HW113700   1.848   3.037   3.636
 4267SOL    HW213701   2.008   3.052   3.607
 4268SOL     OW13702   1.211   6.301   6.832
 4268SOL    HW113703   1.165   6.213   6.821
 4268SOL    HW213704   1.273   6.316   6.755
 4269SOL     OW13705   2.918   0.597   2.558
 4269SOL    HW113706   2.977   0.589   2.638
 4269SOL    HW213707   2.922   0.513   2.504
 4270SOL     OW13708   4.127   3.266   3.076
 4270SOL    HW113709   4.163   3.354   3.046
 4270SOL    HW213710   4.095   3.273   3.170
 4271SOL     OW13711   6.836   0.943   6.760
 4271SOL    HW113712   6.864   0.951   6.664
 4271SOL    HW213713   6.797   0.852   6.776
 4272SOL     OW13714   6.770   2.450   4.588
 4272SOL    HW113715   6.709   2.379   4.623
 4272SOL    HW213716   6.732   2.540   4.609
 4273SOL     OW13717   4.810   6.766   4.498
 4273SOL    HW113718   4.844   6.858   4.476
 4273SOL    HW213719   4.723   6.774   4.548
 4274SOL     OW13720   1.233   6.172   1.905
 4274SOL    HW113721   1.186   6.246   1.952
 4274SOL    HW213722   1.167   6.100   1.883
 4275SOL     OW13723   6.654   1.882   4.512
 4275SOL    HW113724   6.705   1.838   4.439
 4275SOL    HW213725   6.700   1.866   4.600
 4276SOL     OW13726   1.410   4.954   3.532
 4276SOL    HW113727   1.415   5.043   3.579
 4276SOL    HW213728   1.378   4.885   3.596
 4277SOL     OW13729   6.324   4.587   3.169
 4277SOL    HW113730   6.399   4.639   3.129
 4277SOL    HW213731   6.319   4.497   3.127
 4278SOL     OW13732   6.621   0.193   4.818
 4278SOL    HW113733   6.644   0.268   4.880
 4278SOL    HW213734   6.649   0.106   4.858
 4279SOL     OW13735   3.168   0.590   4.051
 4279SOL    HW113736   3.202   0.681   4.072
 4279SOL    HW213737   3.237   0.539   4.000
 4280SOL     OW13738   4.613   0.560   5.604
 4280SOL    HW113739   4.705   0.583   5.634
 4280SOL    HW213740   4.609   0.463   5.578
 4281SOL     OW13741   6.988   4.702   3.400
 4281SOL    HW113742   6.932   4.749   3.332
 4281SOL    HW213743   0.025   4.630   3.356
 4282SOL     OW13744   3.540   4.007   6.296
 4282SOL    HW113745   3.580   4.082   6.348
 4282SOL    HW213746   3.561   3.920   6.339
 4283SOL     OW13747   0.885   0.608   3.523
 4283SOL    HW113748   0.849   0.701   3.523
 4283SOL    HW213749   0.810   0.543   3.509
 4284SOL     OW13750   3.849   5.047   1.347
 4284SOL    HW113751   3.755   5.083   1.349
 4284SOL    HW213752   3.860   4.987   1.267
 4285SOL     OW13753   1.450   0.434   5.523
 4285SOL    HW113754   1.543   0.456   5.494
 4285SOL    HW213755   1.450   0.414   5.621
 4286SOL     OW13756   4.618   6.382   6.137
 4286SOL    HW113757   4.558   6.408   6.213
 4286SOL    HW213758   4.611   6.284   6.121
 4287SOL     OW13759   5.600   1.423   6.096
 4287SOL    HW113760   5.556   1.386   6.014
 4287SOL    HW213761   5.681   1.369   6.117
 4288SOL     OW13762   6.998   5.755   4.107
 4288SOL    HW113763   7.006   5.854   4.092
 4288SOL    HW213764   6.903   5.727   4.093
 4289SOL     OW13765   6.681   3.131   6.275
 4289SOL    HW113766   6.652   3.188   6.352
 4289SOL    HW213767   6.622   3.149   6.196
 4290SOL     OW13768   1.408   6.595   3.040
 4290SOL    HW113769   1.309   6.587   3.039
 4290SOL    HW213770   1.435   6.684   3.003
 4291SOL     OW13771   4.390   3.630   0.557
 4291SOL    HW113772   4.439   3.706   0.513
 4291SOL    HW213773   4.404   3.634   0.655
 4292SOL     OW13774   5.917   2.937   0.403
 4292SOL    HW113775   5.910   2.913   0.499
 4292SOL    HW213776   5.900   3.035   0.392
 4293SOL     OW13777   2.802   3.123   0.523
 4293SOL    HW113778   2.775   3.219   0.533
 4293SOL    HW213779   2.805   3.080   0.614
 4294SOL     OW13780   2.062   2.227   6.724
 4294SOL    HW113781   2.115   2.270   6.651
 4294SOL    HW213782   2.110   2.145   6.756
 4295SOL     OW13783   3.768   5.812   4.595
 4295SOL    HW113784   3.692   5.849   4.542
 4295SOL    HW213785   3.854   5.847   4.560
 4296SOL     OW13786   2.779   6.864   0.795
 4296SOL    HW113787   2.873   6.892   0.815
 4296SOL    HW213788   2.749   6.905   0.709
 4297SOL     OW13789   4.656   0.436   6.349
 4297SOL    HW113790   4.656   0.339   6.373
 4297SOL    HW213791   4.561   0.468   6.339
 4298SOL     OW13792   3.722   5.214   0.284
 4298SOL    HW113793   3.745   5.117   0.288
 4298SOL    HW213794   3.651   5.234   0.351
 4299SOL     OW13795   1.269   3.096   6.369
 4299SOL    HW113796   1.240   3.138   6.283
 4299SOL    HW213797   1.253   2.998   6.366
 4300SOL     OW13798   3.238   6.823   0.735
 4300SOL    HW113799   3.293   6.817   0.818
 4300SOL    HW213800   3.185   6.739   0.725
 4301SOL     OW13801   3.799   1.588   1.474
 4301SOL    HW113802   3.797   1.680   1.512
 4301SOL    HW213803   3.894   1.556   1.470
 4302SOL     OW13804   1.019   0.183   6.452
 4302SOL    HW113805   1.041   0.115   6.382
 4302SOL    HW213806   0.948   0.148   6.513
 4303SOL     OW13807   7.002   3.979   3.822
 4303SOL    HW113808   0.075   3.986   3.865
 4303SOL    HW213809   6.948   4.060   3.843
 4304SOL     OW13810   3.186   4.016   3.012
 4304SOL    HW113811   3.165   3.919   3.008
 4304SOL    HW213812   3.121   4.063   3.072
 4305SOL     OW13813   6.987   0.395   5.218
 4305SOL    HW113814   6.916   0.342   5.172
 4305SOL    HW213815   0.043   0.334   5.249
 4306SOL     OW13816   5.445   4.349   5.815
 4306SOL    HW113817   5.440   4.312   5.908
 4306SOL    HW213818   5.487   4.280   5.755
 4307SOL     OW13819   5.061   4.052   5.659
 4307SOL    HW113820   4.969   4.060   5.622
 4307SOL    HW213821   5.066   3.972   5.718
 4308SOL     OW13822   6.545   4.845   0.400
 4308SOL    HW113823   6.573   4.775   0.466
 4308SOL    HW213824   6.445   4.849   0.396
 4309SOL     OW13825   1.318   1.203   0.213
 4309SOL    HW113826   1.316   1.109   0.249
 4309SOL    HW213827   1.371   1.261   0.274
 4310SOL     OW13828   1.362   2.609   2.145
 4310SOL    HW113829   1.378   2.636   2.050
 4310SOL    HW213830   1.410   2.524   2.163
 4311SOL     OW13831   1.938   5.928   2.644
 4311SOL    HW113832   1.860   5.914   2.705
 4311SOL    HW213833   2.002   5.994   2.685
 4312SOL     OW13834   2.081   5.306   1.601
 4312SOL    HW113835   2.161   5.365   1.589
 4312SOL    HW213836   2.108   5.210   1.593
 4313SOL     OW13837   4.468   1.398   1.734
 4313SOL    HW113838   4.543   1.384   1.669
 4313SOL    HW213839   4.496   1.466   1.802
 4314SOL     OW13840   6.222   1.405   4.241
 4314SOL    HW113841   6.304   1.372   4.288
 4314SOL    HW213842   6.150   1.337   4.248
 4315SOL     OW13843   2.456   6.305   2.491
 4315SOL    HW113844   2.463   6.220   2.439
 4315SOL    HW213845   2.531   6.366   2.466
 4316SOL     OW13846   5.503   0.707   2.064
 4316SOL    HW113847   5.514   0.615   2.101
 4316SOL    HW213848   5.583   0.731   2.009
 4317SOL     OW13849   5.144   2.505   4.686
 4317SOL    HW113850   5.089   2.446   4.746
 4317SOL    HW213851   5.092   2.587   4.664
 4318SOL     OW13852   0.818   3.148   4.998
 4318SOL    HW113853   0.771   3.155   5.086
 4318SOL    HW213854   0.752   3.121   4.928
 4319SOL     OW13855   2.052   1.660   1.414
 4319SOL    HW113856   2.038   1.759   1.421
 4319SOL    HW213857   1.978   1.620   1.359
 4320SOL     OW13858   5.530   5.308   0.274
 4320SOL    HW113859   5.481   5.278   0.192
 4320SOL    HW213860   5.472   5.295   0.354
 4321SOL     OW13861   0.096   6.418   4.972
 4321SOL    HW113862   0.060   6.431   4.879
 4321SOL    HW213863   0.189   6.454   4.977
 4322SOL     OW13864   6.182   2.580   6.845
 4322SOL    HW113865   6.277   2.590   6.874
 4322SOL    HW213866   6.173   2.499   6.786
 4323SOL     OW13867   4.667   3.767   1.446
 4323SOL    HW113868   4.682   3.675   1.409
 4323SOL    HW213869   4.591   3.811   1.398
 4324SOL     OW13870   5.275   4.088   6.616
 4324SOL    HW113871   5.269   4.089   6.715
 4324SOL    HW213872   5.215   4.158   6.577
 4325SOL     OW13873   2.538   1.089   1.517
 4325SOL    HW113874   2.469   1.036   1.468
 4325SOL    HW213875   2.499   1.178   1.543
 4326SOL     OW13876   4.689   4.896   4.027
 4326SOL    HW113877   4.758   4.966   4.047
 4326SOL    HW213878   4.688   4.828   4.100
 4327SOL     OW13879   5.832   6.047   1.676
 4327SOL    HW113880   5.771   6.124   1.693
 4327SOL    HW213881   5.779   5.962   1.682
 4328SOL     OW13882   4.730   3.678   5.668
 4328SOL    HW113883   4.669   3.685   5.589
 4328SOL    HW213884   4.734   3.767   5.715
 4329SOL     OW13885   4.394   1.373   5.442
 4329SOL    HW113886   4.447   1.289   5.435
 4329SOL    HW213887   4.395   1.406   5.536
 4330SOL     OW13888   2.110   6.472   4.323
 4330SOL    HW113889   2.025   6.523   4.333
 4330SOL    HW213890   2.129   6.423   4.408
 4331SOL     OW13891   5.527   1.340   1.696
 4331SOL    HW113892   5.505   1.281   1.774
 4331SOL    HW213893   5.494   1.433   1.715
 4332SOL     OW13894   5.459   3.748   1.928
 4332SOL    HW113895   5.426   3.766   1.836
 4332SOL    HW213896   5.486   3.652   1.936
 4333SOL     OW13897   3.385   0.959   5.495
 4333SOL    HW113898   3.321   0.958   5.572
 4333SOL    HW213899   3.434   0.871   5.491
 4334SOL     OW13900   1.536   2.566   2.374
 4334SOL    HW113901   1.536   2.537   2.278
 4334SOL    HW213902   1.514   2.663   2.380
 4335SOL     OW13903   3.217   3.691   2.521
 4335SOL    HW113904   3.167   3.729   2.599
 4335SOL    HW213905   3.194   3.741   2.438
 4336SOL     OW13906   2.985   6.570   6.543
 4336SOL    HW113907   3.065   6.616   6.505
 4336SOL    HW213908   2.929   6.533   6.470
 4337SOL     OW13909   0.641   4.391   1.022
 4337SOL    HW113910   0.619   4.295   1.037
 4337SOL    HW213911   0.625   4.443   1.106
 4338SOL     OW13912   6.012   0.340   5.530
 4338SOL    HW113913   6.052   0.317   5.442
 4338SOL    HW213914   6.069   0.407   5.577
 4339SOL     OW13915   5.718   3.123   5.424
 4339SOL    HW113916   5.714   3.053   5.352
 4339SOL    HW213917   5.792   3.100   5.488
 4340SOL     OW13918   6.667   2.890   1.864
 4340SOL    HW113919   6.576   2.922   1.891
 4340SOL    HW213920   6.729   2.895   1.943
 4341SOL     OW13921   0.556   5.853   2.428
 4341SOL    HW113922   0.575   5.941   2.384
 4341SOL    HW213923   0.491   5.801   2.373
 4342SOL     OW13924   5.463   3.730   3.609
 4342SOL    HW113925   5.539   3.792   3.589
 4342SOL    HW213926   5.408   3.716   3.527
 4343SOL     OW13927   2.628   6.642   5.165
 4343SOL    HW113928   2.605   6.608   5.073
 4343SOL    HW213929   2.620   6.568   5.231
 4344SOL     OW13930   0.418   4.478   1.913
 4344SOL    HW113931   0.463   4.459   2.001
 4344SOL    HW213932   0.319   4.480   1.927
 4345SOL     OW13933   3.316   3.648   4.909
 4345SOL    HW113934   3.355   3.696   4.987
 4345SOL    HW213935   3.390   3.621   4.847
 4346SOL     OW13936   2.120   3.299   2.431
 4346SOL    HW113937   2.146   3.389   2.469
 4346SOL    HW213938   2.118   3.305   2.332
 4347SOL     OW13939   6.741   6.667   2.742
 4347SOL    HW113940   6.829   6.713   2.742
 4347SOL    HW213941   6.672   6.726   2.700
 4348SOL     OW13942   6.652   4.701   3.937
 4348SOL    HW113943   6.685   4.767   3.870
 4348SOL    HW213944   6.621   4.749   4.019
 4349SOL     OW13945   6.188   2.269   2.402
 4349SOL    HW113946   6.270   2.212   2.407
 4349SOL    HW213947   6.108   2.215   2.425
 4350SOL     OW13948   3.687   1.235   4.079
 4350SOL    HW113949   3.784   1.213   4.086
 4350SOL    HW213950   3.636   1.154   4.053
 4351SOL     OW13951   1.627   5.081   0.867
 4351SOL    HW113952   1.723   5.060   0.882
 4351SOL    HW213953   1.579   4.998   0.838
 4352SOL     OW13954   6.514   3.657   2.436
 4352SOL    HW113955   6.491   3.607   2.352
 4352SOL    HW213956   6.478   3.607   2.515
 4353SOL     OW13957   4.175   2.870   6.436
 4353SOL    HW113958   4.155   2.874   6.338
 4353SOL    HW213959   4.097   2.906   6.487
 4354SOL     OW13960   2.169   6.990   5.506
 4354SOL    HW113961   2.221   6.910   5.473
 4354SOL    HW213962   2.083   6.997   5.455
 4355SOL     OW13963   2.030   6.957   2.339
 4355SOL    HW113964   2.039   6.869   2.385
 4355SOL    HW213965   1.936   6.969   2.307
 4356SOL     OW13966   4.985   3.838   0.482
 4356SOL    HW113967   5.015   3.927   0.517
 4356SOL    HW213968   4.970   3.844   0.384
 4357SOL     OW13969   6.532   1.173   0.938
 4357SOL    HW113970   6.606   1.232   0.971
 4357SOL    HW213971   6.566   1.079   0.929
 4358SOL     OW13972   0.672   0.116   0.637
 4358SOL    HW113973   0.694   0.078   0.547
 4358SOL    HW213974   0.756   0.137   0.686
 4359SOL     OW13975   2.058   1.529   5.885
 4359SOL    HW113976   2.073   1.463   5.958
 4359SOL    HW213977   2.125   1.602   5.891
 4360SOL     OW13978   1.338   3.297   3.530
 4360SOL    HW113979   1.282   3.215   3.525
 4360SOL    HW213980   1.432   3.272   3.552
 4361SOL     OW13981   2.446   3.328   1.235
 4361SOL    HW113982   2.367   3.376   1.274
 4361SOL    HW213983   2.424   3.231   1.226
 4362SOL     OW13984   6.166   5.713   3.271
 4362SOL    HW113985   6.172   5.708   3.370
 4362SOL    HW213986   6.091   5.655   3.238
 4363SOL     OW13987   5.944   2.076   1.261
 4363SOL    HW113988   5.882   2.002   1.233
 4363SOL    HW213989   5.904   2.163   1.234
 4364SOL     OW13990   2.909   3.638   4.558
 4364SOL    HW113991   2.811   3.633   4.578
 4364SOL    HW213992   2.930   3.575   4.483
 4365SOL     OW13993   2.152   1.013   2.113
 4365SOL    HW113994   2.158   1.111   2.093
 4365SOL    HW213995   2.204   0.993   2.196
 4366SOL     OW13996   6.067   0.264   0.281
 4366SOL    HW113997   6.069   0.323   0.361
 4366SOL    HW213998   6.038   0.172   0.307
 4367SOL     OW13999   2.164   4.229   4.564
 4367SOL    HW114000   2.170   4.147   4.507
 4367SOL    HW214001   2.164   4.202   4.661
 4368SOL     OW14002   3.823   4.717   0.695
 4368SOL    HW114003   3.805   4.797   0.751
 4368SOL    HW214004   3.832   4.636   0.753
 4369SOL     OW14005   4.251   5.340   2.649
 4369SOL    HW114006   4.296   5.389   2.575
 4369SOL    HW214007   4.318   5.313   2.718
 4370SOL     OW14008   3.781   5.576   1.774
 4370SOL    HW114009   3.811   5.664   1.812
 4370SOL    HW214010   3.728   5.592   1.691
 4371SOL     OW14011   0.953   1.804   2.013
 4371SOL    HW114012   0.922   1.777   1.922
 4371SOL    HW214013   0.988   1.898   2.010
 4372SOL     OW14014   2.845   1.837   2.773
 4372SOL    HW114015   2.759   1.803   2.734
 4372SOL    HW214016   2.876   1.916   2.720
 4373SOL     OW14017   5.908   2.038   0.280
 4373SOL    HW114018   5.852   2.110   0.238
 4373SOL    HW214019   5.947   1.981   0.208
 4374SOL     OW14020   0.883   1.561   0.673
 4374SOL    HW114021   0.971   1.607   0.682
 4374SOL    HW214022   0.883   1.477   0.728
 4375SOL     OW14023   4.215   6.875   3.048
 4375SOL    HW114024   4.196   6.843   2.956
 4375SOL    HW214025   4.243   6.798   3.105
 4376SOL     OW14026   0.518   6.911   1.939
 4376SOL    HW114027   0.452   6.838   1.957
 4376SOL    HW214028   0.480   6.998   1.968
 4377SOL     OW14029   5.644   4.693   0.012
 4377SOL    HW114030   5.576   4.703   0.085
 4377SOL    HW214031   5.655   4.596   7.006
 4378SOL     OW14032   2.335   2.748   2.822
 4378SOL    HW114033   2.289   2.835   2.837
 4378SOL    HW214034   2.403   2.757   2.749
 4379SOL     OW14035   1.687   2.474   2.560
 4379SOL    HW114036   1.784   2.469   2.537
 4379SOL    HW214037   1.637   2.517   2.485
 4380SOL     OW14038   1.418   7.009   2.776
 4380SOL    HW114039   1.423   0.073   2.835
 4380SOL    HW214040   1.419   0.021   2.680
 4381SOL     OW14041   1.718   4.385   4.982
 4381SOL    HW114042   1.700   4.461   4.920
 4381SOL    HW214043   1.639   4.369   5.040
 4382SOL     OW14044   6.842   3.096   5.160
 4382SOL    HW114045   6.851   3.179   5.105
 4382SOL    HW214046   6.859   3.117   5.256
 4383SOL     OW14047   0.764   2.839   5.891
 4383SOL    HW114048   0.806   2.910   5.947
 4383SOL    HW214049   0.667   2.830   5.915
 4384SOL     OW14050   6.442   1.789   5.273
 4384SOL    HW114051   6.530   1.833   5.288
 4384SOL    HW214052   6.377   1.820   5.342
 4385SOL     OW14053   5.999   2.418   5.139
 4385SOL    HW114054   6.052   2.371   5.208
 4385SOL    HW214055   6.046   2.503   5.112
 4386SOL     OW14056   2.359   3.074   6.515
 4386SOL    HW114057   2.438   3.122   6.552
 4386SOL    HW214058   2.333   3.115   6.427
 4387SOL     OW14059   6.693   1.381   1.044
 4387SOL    HW114060   6.655   1.450   0.982
 4387SOL    HW214061   6.638   1.378   1.127
 4388SOL     OW14062   5.097   2.475   6.624
 4388SOL    HW114063   5.098   2.378   6.647
 4388SOL    HW214064   5.130   2.488   6.530
 4389SOL     OW14065   6.659   3.304   0.664
 4389SOL    HW114066   6.560   3.307   0.652
 4389SOL    HW214067   6.701   3.260   0.584
 4390SOL     OW14068   3.806   1.063   1.534
 4390SOL    HW114069   3.787   1.001   1.610
 4390SOL    HW214070   3.813   1.157   1.568
 4391SOL     OW14071   1.971   5.744   6.891
 4391SOL    HW114072   1.968   5.844   6.890
 4391SOL    HW214073   2.067   5.714   6.894
 4392SOL     OW14074   0.114   2.927   4.703
 4392SOL    HW114075   0.202   2.933   4.751
 4392SOL    HW214076   0.129   2.934   4.605
 4393SOL     OW14077   5.973   0.574   2.393
 4393SOL    HW114078   5.885   0.528   2.402
 4393SOL    HW214079   6.029   0.526   2.325
 4394SOL     OW14080   6.477   5.774   2.381
 4394SOL    HW114081   6.571   5.767   2.416
 4394SOL    HW214082   6.413   5.750   2.454
 4395SOL     OW14083   2.834   6.532   1.883
 4395SOL    HW114084   2.872   6.440   1.876
 4395SOL    HW214085   2.890   6.596   1.830
 4396SOL     OW14086   2.298   2.315   3.544
 4396SOL    HW114087   2.366   2.340   3.476
 4396SOL    HW214088   2.282   2.216   3.541
 4397SOL     OW14089   6.986   1.428   4.779
 4397SOL    HW114090   0.052   1.473   4.813
 4397SOL    HW214091   6.982   1.334   4.813
 4398SOL     OW14092   0.328   3.789   5.623
 4398SOL    HW114093   0.339   3.875   5.673
 4398SOL    HW214094   0.407   3.730   5.640
 4399SOL     OW14095   2.357   0.211   1.861
 4399SOL    HW114096   2.388   0.213   1.766
 4399SOL    HW214097   2.409   0.141   1.911
 4400SOL     OW14098   3.074   6.255   5.495
 4400SOL    HW114099   3.015   6.195   5.550
 4400SOL    HW214100   3.032   6.346   5.490
 4401SOL     OW14101   3.966   6.806   6.151
 4401SOL    HW114102   3.872   6.839   6.150
 4401SOL    HW214103   3.996   6.790   6.057
 4402SOL     OW14104   2.595   0.396   1.994
 4402SOL    HW114105   2.513   0.445   2.026
 4402SOL    HW214106   2.586   0.378   1.896
 4403SOL     OW14107   1.173   0.407   1.881
 4403SOL    HW114108   1.265   0.438   1.907
 4403SOL    HW214109   1.129   0.365   1.960
 4404SOL     OW14110   1.304   5.001   5.791
 4404SOL    HW114111   1.321   4.909   5.828
 4404SOL    HW214112   1.363   5.016   5.712
 4405SOL     OW14113   1.624   3.981   0.659
 4405SOL    HW114114   1.676   4.032   0.727
 4405SOL    HW214115   1.610   4.038   0.578
 4406SOL     OW14116   0.435   3.528   0.660
 4406SOL    HW114117   0.344   3.540   0.621
 4406SOL    HW214118   0.501   3.585   0.611
 4407SOL     OW14119   6.282   5.183   0.421
 4407SOL    HW114120   6.273   5.257   0.354
 4407SOL    HW214121   6.379   5.167   0.441
 4408SOL     OW14122   3.489   0.493   0.980
 4408SOL    HW114123   3.460   0.548   0.901
 4408SOL    HW214124   3.558   0.543   1.032
 4409SOL     OW14125   5.051   1.163   2.482
 4409SOL    HW114126   5.091   1.230   2.544
 4409SOL    HW214127   5.029   1.080   2.533
 4410SOL     OW14128   1.170   5.088   0.042
 4410SOL    HW114129   1.249   5.062   7.002
 4410SOL    HW214130   1.086   5.075   7.005
 4411SOL     OW14131   3.861   4.041   4.383
 4411SOL    HW114132   3.855   3.944   4.405
 4411SOL    HW214133   3.914   4.054   4.299
 4412SOL     OW14134   4.328   6.099   4.763
 4412SOL    HW114135   4.370   6.117   4.674
 4412SOL    HW214136   4.266   6.022   4.756
 4413SOL     OW14137   5.939   4.857   4.248
 4413SOL    HW114138   5.970   4.916   4.322
 4413SOL    HW214139   5.985   4.768   4.254
 4414SOL     OW14140   3.258   5.126   1.226
 4414SOL    HW114141   3.272   5.202   1.290
 4414SOL    HW214142   3.179   5.072   1.254
 4415SOL     OW14143   3.958   2.560   0.572
 4415SOL    HW114144   3.865   2.595   0.556
 4415SOL    HW214145   4.024   2.631   0.548
 4416SOL     OW14146   3.873   0.937   4.158
 4416SOL    HW114147   3.893   1.018   4.103
 4416SOL    HW214148   3.853   0.964   4.252
 4417SOL     OW14149   5.617   3.949   3.563
 4417SOL    HW114150   5.605   3.981   3.469
 4417SOL    HW214151   5.586   4.020   3.626
 4418SOL     OW14152   5.921   1.951   2.125
 4418SOL    HW114153   5.929   2.043   2.087
 4418SOL    HW214154   5.996   1.934   2.189
 4419SOL     OW14155   5.728   6.083   6.475
 4419SOL    HW114156   5.693   6.076   6.382
 4419SOL    HW214157   5.652   6.075   6.540
 4420SOL     OW14158   5.100   0.584   1.718
 4420SOL    HW114159   5.104   0.489   1.686
 4420SOL    HW214160   5.166   0.639   1.666
 4421SOL     OW14161   2.562   1.239   5.387
 4421SOL    HW114162   2.489   1.224   5.321
 4421SOL    HW214163   2.636   1.174   5.371
 4422SOL     OW14164   2.314   3.737   6.988
 4422SOL    HW114165   2.351   3.670   6.923
 4422SOL    HW214166   2.252   3.691   0.035
 4423SOL     OW14167   0.152   3.224   6.037
 4423SOL    HW114168   0.106   3.239   6.125
 4423SOL    HW214169   0.103   3.275   5.965
 4424SOL     OW14170   5.613   1.282   4.317
 4424SOL    HW114171   5.675   1.214   4.355
 4424SOL    HW214172   5.575   1.249   4.230
 4425SOL     OW14173   2.708   3.618   0.603
 4425SOL    HW114174   2.657   3.624   0.518
 4425SOL    HW214175   2.780   3.688   0.603
 4426SOL     OW14176   0.019   1.803   3.518
 4426SOL    HW114177   0.071   1.810   3.433
 4426SOL    HW214178   6.941   1.829   3.502
 4427SOL     OW14179   0.587   6.432   2.635
 4427SOL    HW114180   0.669   6.375   2.629
 4427SOL    HW214181   0.510   6.385   2.591
 4428SOL     OW14182   3.227   0.517   3.172
 4428SOL    HW114183   3.254   0.536   3.078
 4428SOL    HW214184   3.221   0.418   3.186
 4429SOL     OW14185   2.727   6.412   2.862
 4429SOL    HW114186   2.749   6.352   2.938
 4429SOL    HW214187   2.810   6.453   2.825
 4430SOL     OW14188   4.861   4.059   4.818
 4430SOL    HW114189   4.847   3.960   4.817
 4430SOL    HW214190   4.821   4.097   4.902
 4431SOL     OW14191   2.512   1.227   1.920
 4431SOL    HW114192   2.501   1.186   2.010
 4431SOL    HW214193   2.548   1.320   1.929
 4432SOL     OW14194   2.546   3.056   6.006
 4432SOL    HW114195   2.567   3.132   6.067
 4432SOL    HW214196   2.449   3.059   5.981
 4433SOL     OW14197   5.021   2.094   4.189
 4433SOL    HW114198   4.974   2.146   4.260
 4433SOL    HW214199   5.119   2.115   4.191
 4434SOL     OW14200   5.356   1.531   3.322
 4434SOL    HW114201   5.280   1.467   3.315
 4434SOL    HW214202   5.442   1.480   3.331
 4435SOL     OW14203   5.072   3.160   1.531
 4435SOL    HW114204   5.063   3.258   1.547
 4435SOL    HW214205   5.143   3.122   1.590
 4436SOL     OW14206   4.229   1.424   1.615
 4436SOL    HW114207   4.178   1.339   1.607
 4436SOL    HW214208   4.309   1.410   1.672
 4437SOL     OW14209   6.421   2.205   2.849
 4437SOL    HW114210   6.424   2.200   2.949
 4437SOL    HW214211   6.454   2.119   2.810
 4438SOL     OW14212   5.029   6.728   6.843
 4438SOL    HW114213   4.979   6.663   6.901
 4438SOL    HW214214   4.978   6.741   6.757
 4439SOL     OW14215   0.141   4.290   1.615
 4439SOL    HW114216   0.105   4.207   1.572
 4439SOL    HW214217   0.231   4.270   1.655
 4440SOL     OW14218   2.468   4.591   0.747
 4440SOL    HW114219   2.557   4.554   0.771
 4440SOL    HW214220   2.411   4.520   0.706
 4441SOL     OW14221   0.122   2.056   2.710
 4441SOL    HW114222   0.114   2.034   2.807
 4441SOL    HW214223   0.202   2.011   2.672
 4442SOL     OW14224   2.342   5.132   4.266
 4442SOL    HW114225   2.258   5.151   4.214
 4442SOL    HW214226   2.320   5.076   4.346
 4443SOL     OW14227   0.708   3.496   6.738
 4443SOL    HW114228   0.713   3.411   6.789
 4443SOL    HW214229   0.613   3.530   6.739
 4444SOL     OW14230   3.034   4.184   5.244
 4444SOL    HW114231   2.989   4.273   5.229
 4444SOL    HW214232   2.998   4.118   5.179
 4445SOL     OW14233   1.268   6.725   0.310
 4445SOL    HW114234   1.273   6.756   0.404
 4445SOL    HW214235   1.281   6.802   0.248
 4446SOL     OW14236   5.025   0.897   1.629
 4446SOL    HW114237   4.991   0.844   1.707
 4446SOL    HW214238   5.024   0.840   1.547
 4447SOL     OW14239   5.728   4.105   5.793
 4447SOL    HW114240   5.816   4.061   5.808
 4447SOL    HW214241   5.657   4.056   5.844
 4448SOL     OW14242   2.630   3.934   1.387
 4448SOL    HW114243   2.531   3.945   1.384
 4448SOL    HW214244   2.656   3.885   1.471
 4449SOL     OW14245   5.203   0.697   6.075
 4449SOL    HW114246   5.198   0.780   6.130
 4449SOL    HW214247   5.271   0.709   6.002
 4450SOL     OW14248   3.342   3.153   5.613
 4450SOL    HW114249   3.438   3.169   5.639
 4450SOL    HW214250   3.283   3.212   5.667
 4451SOL     OW14251   6.506   4.596   2.862
 4451SOL    HW114252   6.579   4.529   2.868
 4451SOL    HW214253   6.460   4.588   2.774
 4452SOL     OW14254   4.974   6.356   4.520
 4452SOL    HW114255   5.003   6.450   4.539
 4452SOL    HW214256   4.941   6.349   4.426
 4453SOL     OW14257   1.041   3.127   1.488
 4453SOL    HW114258   1.068   3.223   1.478
 4453SOL    HW214259   1.035   3.085   1.398
 4454SOL     OW14260   1.777   1.997   0.095
 4454SOL    HW114261   1.710   1.956   0.156
 4454SOL    HW214262   1.817   2.078   0.138
 4455SOL     OW14263   4.419   6.117   5.827
 4455SOL    HW114264   4.424   6.065   5.912
 4455SOL    HW214265   4.392   6.055   5.753
 4456SOL     OW14266   2.947   6.279   1.844
 4456SOL    HW114267   2.966   6.276   1.746
 4456SOL    HW214268   2.901   6.195   1.872
 4457SOL     OW14269   4.277   1.012   2.622
 4457SOL    HW114270   4.277   1.038   2.526
 4457SOL    HW214271   4.183   1.009   2.656
 4458SOL     OW14272   1.693   2.493   0.605
 4458SOL    HW114273   1.717   2.487   0.702
 4458SOL    HW214274   1.761   2.547   0.556
 4459SOL     OW14275   4.245   1.135   4.228
 4459SOL    HW114276   4.195   1.193   4.292
 4459SOL    HW214277   4.325   1.096   4.274
 4460SOL     OW14278   2.436   2.600   5.935
 4460SOL    HW114279   2.517   2.618   5.990
 4460SOL    HW214280   2.414   2.680   5.879
 4461SOL     OW14281   1.521   0.120   1.114
 4461SOL    HW114282   1.505   0.104   1.017
 4461SOL    HW214283   1.446   0.173   1.152
 4462SOL     OW14284   5.780   5.130   1.621
 4462SOL    HW114285   5.860   5.171   1.663
 4462SOL    HW214286   5.809   5.064   1.551
 4463SOL     OW14287   5.088   1.316   0.959
 4463SOL    HW114288   5.186   1.309   0.941
 4463SOL    HW214289   5.057   1.233   1.004
 4464SOL     OW14290   0.146   5.383   0.583
 4464SOL    HW114291   0.122   5.479   0.570
 4464SOL    HW214292   0.101   5.347   0.664
 4465SOL     OW14293   3.109   5.862   1.576
 4465SOL    HW114294   3.010   5.875   1.573
 4465SOL    HW214295   3.129   5.766   1.596
 4466SOL     OW14296   1.355   1.761   3.267
 4466SOL    HW114297   1.418   1.790   3.195
 4466SOL    HW214298   1.405   1.745   3.352
 4467SOL     OW14299   1.980   5.795   2.408
 4467SOL    HW114300   1.960   5.838   2.496
 4467SOL    HW214301   1.901   5.743   2.378
 4468SOL     OW14302   2.134   3.786   0.465
 4468SOL    HW114303   2.207   3.848   0.495
 4468SOL    HW214304   2.046   3.828   0.485
 4469SOL     OW14305   3.360   0.512   1.605
 4469SOL    HW114306   3.270   0.548   1.579
 4469SOL    HW214307   3.429   0.583   1.590
 4470SOL     OW14308   6.731   2.228   2.266
 4470SOL    HW114309   6.644   2.276   2.271
 4470SOL    HW214310   6.715   2.130   2.266
 4471SOL     OW14311   0.769   2.083   6.370
 4471SOL    HW114312   0.791   2.162   6.313
 4471SOL    HW214313   0.757   2.112   6.465
 4472SOL     OW14314   1.248   3.388   1.871
 4472SOL    HW114315   1.260   3.486   1.885
 4472SOL    HW214316   1.163   3.358   1.913
 4473SOL     OW14317   5.841   2.701   4.407
 4473SOL    HW114318   5.763   2.705   4.470
 4473SOL    HW214319   5.853   2.789   4.362
 4474SOL     OW14320   2.190   0.655   2.106
 4474SOL    HW114321   2.188   0.711   2.189
 4474SOL    HW214322   2.229   0.707   2.031
 4475SOL     OW14323   1.560   4.015   2.522
 4475SOL    HW114324   1.581   4.111   2.542
 4475SOL    HW214325   1.554   3.963   2.608
 4476SOL     OW14326   4.939   6.870   3.148
 4476SOL    HW114327   4.973   6.777   3.130
 4476SOL    HW214328   4.956   6.893   3.244
 4477SOL     OW14329   1.981   6.844   4.904
 4477SOL    HW114330   1.910   6.825   4.971
 4477SOL    HW214331   2.064   6.794   4.929
 4478SOL     OW14332   3.559   6.856   3.074
 4478SOL    HW114333   3.583   6.826   2.982
 4478SOL    HW214334   3.481   6.804   3.107
 4479SOL     OW14335   0.683   1.601   1.001
 4479SOL    HW114336   0.634   1.613   1.087
 4479SOL    HW214337   0.621   1.616   0.925
 4480SOL     OW14338   1.095   4.481   5.441
 4480SOL    HW114339   1.080   4.577   5.417
 4480SOL    HW214340   1.192   4.466   5.459
 4481SOL     OW14341   3.429   5.967   4.972
 4481SOL    HW114342   3.400   6.055   4.933
 4481SOL    HW214343   3.521   5.945   4.939
 4482SOL     OW14344   1.381   3.031   4.741
 4482SOL    HW114345   1.418   3.123   4.753
 4482SOL    HW214346   1.456   2.967   4.723
 4483SOL     OW14347   5.665   2.468   2.408
 4483SOL    HW114348   5.711   2.438   2.324
 4483SOL    HW214349   5.585   2.523   2.383
 4484SOL     OW14350   2.765   2.217   6.261
 4484SOL    HW114351   2.777   2.312   6.235
 4484SOL    HW214352   2.668   2.197   6.275
 4485SOL     OW14353   5.414   1.729   4.520
 4485SOL    HW114354   5.496   1.710   4.466
 4485SOL    HW214355   5.437   1.785   4.599
 4486SOL     OW14356   5.651   4.934   5.475
 4486SOL    HW114357   5.654   4.977   5.385
 4486SOL    HW214358   5.743   4.904   5.501
 4487SOL     OW14359   2.813   2.668   6.464
 4487SOL    HW114360   2.895   2.726   6.470
 4487SOL    HW214361   2.748   2.695   6.534
 4488SOL     OW14362   0.847   3.381   5.969
 4488SOL    HW114363   0.850   3.475   5.935
 4488SOL    HW214364   0.867   3.318   5.894
 4489SOL     OW14365   5.270   5.492   5.060
 4489SOL    HW114366   5.183   5.473   5.104
 4489SOL    HW214367   5.329   5.542   5.123
 4490SOL     OW14368   6.437   2.272   1.653
 4490SOL    HW114369   6.388   2.185   1.645
 4490SOL    HW214370   6.471   2.283   1.747
 4491SOL     OW14371   6.424   3.100   4.062
 4491SOL    HW114372   6.489   3.155   4.009
 4491SOL    HW214373   6.332   3.112   4.026
 4492SOL     OW14374   5.911   4.660   1.690
 4492SOL    HW114375   5.895   4.562   1.686
 4492SOL    HW214376   6.008   4.678   1.705
 4493SOL     OW14377   4.718   5.196   4.644
 4493SOL    HW114378   4.634   5.221   4.692
 4493SOL    HW214379   4.773   5.136   4.702
 4494SOL     OW14380   0.430   0.706   6.836
 4494SOL    HW114381   0.368   0.780   6.810
 4494SOL    HW214382   0.521   0.742   6.852
 4495SOL     OW14383   3.708   6.608   4.511
 4495SOL    HW114384   3.644   6.625   4.587
 4495SOL    HW214385   3.675   6.531   4.457
 4496SOL     OW14386   5.507   6.481   0.971
 4496SOL    HW114387   5.427   6.423   0.987
 4496SOL    HW214388   5.548   6.457   0.882
 4497SOL     OW14389   5.610   1.712   6.723
 4497SOL    HW114390   5.569   1.633   6.769
 4497SOL    HW214391   5.566   1.796   6.754
 4498SOL     OW14392   0.140   3.249   0.200
 4498SOL    HW114393   0.184   3.253   0.110
 4498SOL    HW214394   0.068   3.179   0.199
 4499SOL     OW14395   5.405   3.929   4.185
 4499SOL    HW114396   5.496   3.889   4.176
 4499SOL    HW214397   5.406   4.021   4.146
 4500SOL     OW14398   3.009   3.173   4.970
 4500SOL    HW114399   3.071   3.109   4.926
 4500SOL    HW214400   3.060   3.256   4.997
 4501SOL     OW14401   6.891   3.463   3.080
 4501SOL    HW114402   6.911   3.528   3.153
 4501SOL    HW214403   6.792   3.456   3.068
 4502SOL     OW14404   0.423   2.785   6.386
 4502SOL    HW114405   0.326   2.776   6.411
 4502SOL    HW214406   0.443   2.724   6.309
 4503SOL     OW14407   3.465   6.804   1.414
 4503SOL    HW114408   3.507   6.836   1.329
 4503SOL    HW214409   3.536   6.766   1.474
 4504SOL     OW14410   6.791   1.163   4.718
 4504SOL    HW114411   6.816   1.143   4.624
 4504SOL    HW214412   6.828   1.092   4.778
 4505SOL     OW14413   5.957   5.258   1.773
 4505SOL    HW114414   6.000   5.315   1.703
 4505SOL    HW214415   6.008   5.267   1.859
 4506SOL     OW14416   4.707   2.809   3.413
 4506SOL    HW114417   4.752   2.884   3.461
 4506SOL    HW214418   4.651   2.757   3.478
 4507SOL     OW14419   5.775   4.566   2.991
 4507SOL    HW114420   5.813   4.474   3.003
 4507SOL    HW214421   5.693   4.576   3.048
 4508SOL     OW14422   1.853   5.659   0.098
 4508SOL    HW114423   1.908   5.687   0.020
 4508SOL    HW214424   1.764   5.703   0.094
 4509SOL     OW14425   4.456   2.316   2.166
 4509SOL    HW114426   4.400   2.296   2.246
 4509SOL    HW214427   4.524   2.243   2.154
 4510SOL     OW14428   3.839   1.731   4.284
 4510SOL    HW114429   3.752   1.782   4.285
 4510SOL    HW214430   3.876   1.728   4.377
 4511SOL     OW14431   5.928   3.578   6.753
 4511SOL    HW114432   5.873   3.650   6.712
 4511SOL    HW214433   5.937   3.595   6.851
 4512SOL     OW14434   2.787   1.606   5.576
 4512SOL    HW114435   2.779   1.689   5.521
 4512SOL    HW214436   2.814   1.529   5.518
 4513SOL     OW14437   0.636   4.799   6.590
 4513SOL    HW114438   0.689   4.771   6.670
 4513SOL    HW214439   0.698   4.829   6.518
 4514SOL     OW14440   4.002   2.059   6.335
 4514SOL    HW114441   4.004   2.084   6.239
 4514SOL    HW214442   4.067   2.116   6.386
 4515SOL     OW14443   0.266   1.926   5.599
 4515SOL    HW114444   0.189   1.866   5.621
 4515SOL    HW214445   0.339   1.913   5.666
 4516SOL     OW14446   1.966   0.190   0.374
 4516SOL    HW114447   1.939   0.112   0.317
 4516SOL    HW214448   1.944   0.275   0.326
 4517SOL     OW14449   4.282   0.909   6.552
 4517SOL    HW114450   4.382   0.910   6.544
 4517SOL    HW214451   4.251   0.988   6.604
 4518SOL     OW14452   0.101   0.135   2.565
 4518SOL    HW114453   0.082   0.038   2.582
 4518SOL    HW214454   0.077   0.157   2.470
 4519SOL     OW14455   0.055   6.934   1.471
 4519SOL    HW114456   7.009   6.995   1.423
 4519SOL    HW214457   0.047   6.842   1.433
 4520SOL     OW14458   4.478   6.439   4.763
 4520SOL    HW114459   4.505   6.349   4.729
 4520SOL    HW214460   4.560   6.494   4.779
 4521SOL     OW14461   6.670   2.208   4.731
 4521SOL    HW114462   6.719   2.232   4.815
 4521SOL    HW214463   6.627   2.119   4.742
 4522SOL     OW14464   5.372   5.740   3.368
 4522SOL    HW114465   5.298   5.684   3.402
 4522SOL    HW214466   5.452   5.683   3.348
 4523SOL     OW14467   0.981   4.525   0.028
 4523SOL    HW114468   0.908   4.523   0.096
 4523SOL    HW214469   1.057   4.581   0.061
 4524SOL     OW14470   6.152   2.607   2.274
 4524SOL    HW114471   6.148   2.516   2.234
 4524SOL    HW214472   6.167   2.599   2.373
 4525SOL     OW14473   4.454   2.044   5.914
 4525SOL    HW114474   4.539   1.999   5.886
 4525SOL    HW214475   4.392   1.976   5.955
 4526SOL     OW14476   7.008   0.063   0.377
 4526SOL    HW114477   6.935   0.105   0.323
 4526SOL    HW214478   0.055   0.134   0.408
 4527SOL     OW14479   5.996   1.271   3.679
 4527SOL    HW114480   6.030   1.190   3.728
 4527SOL    HW214481   5.946   1.241   3.598
 4528SOL     OW14482   4.753   0.352   0.227
 4528SOL    HW114483   4.791   0.356   0.134
 4528SOL    HW214484   4.810   0.407   0.288
 4529SOL     OW14485   1.941   0.268   5.201
 4529SOL    HW114486   1.919   0.243   5.107
 4529SOL    HW214487   1.858   0.264   5.257
 4530SOL     OW14488   1.854   5.147   4.311
 4530SOL    HW114489   1.834   5.072   4.248
 4530SOL    HW214490   1.795   5.140   4.391
 4531SOL     OW14491   0.650   2.773   5.252
 4531SOL    HW114492   0.707   2.715   5.193
 4531SOL    HW214493   0.708   2.838   5.300
 4532SOL     OW14494   6.449   1.464   2.158
 4532SOL    HW114495   6.479   1.451   2.064
 4532SOL    HW214496   6.381   1.394   2.182
 4533SOL     OW14497   1.366   1.954   1.899
 4533SOL    HW114498   1.400   1.910   1.815
 4533SOL    HW214499   1.294   2.019   1.876
 4534SOL     OW14500   4.722   4.196   4.629
 4534SOL    HW114501   4.715   4.270   4.696
 4534SOL    HW214502   4.785   4.126   4.662
 4535SOL     OW14503   3.367   1.150   2.593
 4535SOL    HW114504   3.441   1.141   2.659
 4535SOL    HW214505   3.288   1.195   2.636
 4536SOL     OW14506   4.102   1.649   4.495
 4536SOL    HW114507   4.139   1.737   4.525
 4536SOL    HW214508   4.156   1.575   4.536
 4537SOL     OW14509   4.226   3.623   0.296
 4537SOL    HW114510   4.278   3.631   0.382
 4537SOL    HW214511   4.205   3.527   0.279
 4538SOL     OW14512   1.773   0.162   3.009
 4538SOL    HW114513   1.768   0.213   2.923
 4538SOL    HW214514   1.723   0.210   3.080
 4539SOL     OW14515   3.249   6.448   4.788
 4539SOL    HW114516   3.271   6.501   4.870
 4539SOL    HW214517   3.191   6.503   4.727
 4540SOL     OW14518   2.513   2.119   6.347
 4540SOL    HW114519   2.490   2.131   6.250
 4540SOL    HW214520   2.492   2.203   6.396
 4541SOL     OW14521   5.653   1.940   0.025
 4541SOL    HW114522   5.748   1.954   0.000
 4541SOL    HW214523   5.647   1.911   0.121
 4542SOL     OW14524   6.852   1.617   1.606
 4542SOL    HW114525   6.851   1.640   1.703
 4542SOL    HW214526   6.782   1.547   1.588
 4543SOL     OW14527   4.477   1.994   1.894
 4543SOL    HW114528   4.443   2.078   1.851
 4543SOL    HW214529   4.563   1.968   1.851
 4544SOL     OW14530   3.666   5.732   6.631
 4544SOL    HW114531   3.590   5.752   6.692
 4544SOL    HW214532   3.741   5.796   6.648
 4545SOL     OW14533   5.601   3.217   4.421
 4545SOL    HW114534   5.642   3.161   4.493
 4545SOL    HW214535   5.673   3.255   4.363
 4546SOL     OW14536   1.244   1.037   4.736
 4546SOL    HW114537   1.271   1.111   4.674
 4546SOL    HW214538   1.165   0.989   4.698
 4547SOL     OW14539   6.574   1.994   1.356
 4547SOL    HW114540   6.525   1.925   1.409
 4547SOL    HW214541   6.581   1.964   1.260
 4548SOL     OW14542   1.382   3.398   4.015
 4548SOL    HW114543   1.337   3.486   4.030
 4548SOL    HW214544   1.335   3.348   3.942
 4549SOL     OW14545   6.779   4.360   1.576
 4549SOL    HW114546   6.846   4.286   1.567
 4549SOL    HW214547   6.761   4.399   1.485
 4550SOL     OW14548   0.867   5.180   3.363
 4550SOL    HW114549   0.846   5.193   3.460
 4550SOL    HW214550   0.790   5.134   3.318
 4551SOL     OW14551   6.992   3.147   4.775
 4551SOL    HW114552   6.900   3.181   4.793
 4551SOL    HW214553   6.989   3.047   4.768
 4552SOL     OW14554   6.665   2.937   1.604
 4552SOL    HW114555   6.684   2.911   1.699
 4552SOL    HW214556   6.566   2.944   1.591
 4553SOL     OW14557   3.745   4.654   6.661
 4553SOL    HW114558   3.703   4.724   6.719
 4553SOL    HW214559   3.697   4.567   6.673
 4554SOL     OW14560   6.326   6.310   1.300
 4554SOL    HW114561   6.275   6.276   1.221
 4554SOL    HW214562   6.340   6.408   1.291
 4555SOL     OW14563   2.610   2.071   5.206
 4555SOL    HW114564   2.572   2.028   5.288
 4555SOL    HW214565   2.676   2.141   5.232
 4556SOL     OW14566   5.605   3.107   3.889
 4556SOL    HW114567   5.528   3.149   3.936
 4556SOL    HW214568   5.642   3.033   3.945
 4557SOL     OW14569   5.069   6.399   5.496
 4557SOL    HW114570   5.143   6.429   5.436
 4557SOL    HW214571   5.089   6.308   5.531
 4558SOL     OW14572   6.980   4.357   5.357
 4558SOL    HW114573   6.921   4.406   5.420
 4558SOL    HW214574   0.033   4.419   5.320
 4559SOL     OW14575   0.554   3.876   1.901
 4559SOL    HW114576   0.507   3.807   1.845
 4559SOL    HW214577   0.645   3.842   1.926
 4560SOL     OW14578   5.459   4.217   1.855
 4560SOL    HW114579   5.501   4.209   1.765
 4560SOL    HW214580   5.361   4.229   1.846
 4561SOL     OW14581   2.584   2.095   3.068
 4561SOL    HW114582   2.620   2.009   3.031
 4561SOL    HW214583   2.523   2.075   3.144
 4562SOL     OW14584   2.300   6.518   5.914
 4562SOL    HW114585   2.396   6.534   5.937
 4562SOL    HW214586   2.275   6.424   5.938
 4563SOL     OW14587   0.184   2.648   0.780
 4563SOL    HW114588   0.193   2.561   0.829
 4563SOL    HW214589   0.207   2.634   0.684
 4564SOL     OW14590   6.936   5.523   1.884
 4564SOL    HW114591   7.009   5.577   1.927
 4564SOL    HW214592   6.911   5.565   1.797
 4565SOL     OW14593   0.586   0.864   5.130
 4565SOL    HW114594   0.666   0.804   5.123
 4565SOL    HW214595   0.612   0.947   5.181
 4566SOL     OW14596   6.819   2.874   0.351
 4566SOL    HW114597   6.868   2.826   0.278
 4566SOL    HW214598   6.731   2.828   0.368
 4567SOL     OW14599   5.973   1.430   5.979
 4567SOL    HW114600   5.886   1.407   5.934
 4567SOL    HW214601   6.041   1.453   5.910
 4568SOL     OW14602   1.997   3.155   6.225
 4568SOL    HW114603   1.907   3.198   6.232
 4568SOL    HW214604   2.013   3.098   6.306
 4569SOL     OW14605   2.171   1.789   3.092
 4569SOL    HW114606   2.183   1.835   3.004
 4569SOL    HW214607   2.185   1.691   3.081
 4570SOL     OW14608   0.002   6.743   2.498
 4570SOL    HW114609   0.013   6.762   2.595
 4570SOL    HW214610   6.944   6.799   2.461
 4571SOL     OW14611   4.208   4.565   6.507
 4571SOL    HW114612   4.209   4.661   6.535
 4571SOL    HW214613   4.242   4.558   6.413
 4572SOL     OW14614   2.261   0.244   6.733
 4572SOL    HW114615   2.319   0.325   6.726
 4572SOL    HW214616   2.285   0.193   6.815
 4573SOL     OW14617   6.351   0.062   0.774
 4573SOL    HW114618   6.438   0.104   0.802
 4573SOL    HW214619   6.324   7.010   0.842
 4574SOL     OW14620   5.711   3.747   0.625
 4574SOL    HW114621   5.663   3.802   0.557
 4574SOL    HW214622   5.763   3.808   0.686
 4575SOL     OW14623   5.548   1.097   6.014
 4575SOL    HW114624   5.582   1.004   6.031
 4575SOL    HW214625   5.475   1.093   5.945
 4576SOL     OW14626   2.837   6.215   5.690
 4576SOL    HW114627   2.892   6.238   5.770
 4576SOL    HW214628   2.797   6.299   5.652
 4577SOL     OW14629   1.066   2.037   4.331
 4577SOL    HW114630   1.085   1.942   4.309
 4577SOL    HW214631   1.112   2.096   4.264
 4578SOL     OW14632   0.838   2.906   5.380
 4578SOL    HW114633   0.904   2.858   5.438
 4578SOL    HW214634   0.856   3.004   5.384
 4579SOL     OW14635   3.878   0.476   3.335
 4579SOL    HW114636   3.793   0.436   3.369
 4579SOL    HW214637   3.928   0.519   3.411
 4580SOL     OW14638   5.808   4.603   0.604
 4580SOL    HW114639   5.755   4.629   0.524
 4580SOL    HW214640   5.751   4.550   0.666
 4581SOL     OW14641   2.276   5.220   2.642
 4581SOL    HW114642   2.240   5.129   2.619
 4581SOL    HW214643   2.338   5.213   2.720
 4582SOL     OW14644   5.114   0.300   5.045
 4582SOL    HW114645   5.041   0.286   4.978
 4582SOL    HW214646   5.203   0.287   5.001
 4583SOL     OW14647   2.842   2.318   6.667
 4583SOL    HW114648   2.763   2.354   6.716
 4583SOL    HW214649   2.926   2.353   6.708
 4584SOL     OW14650   0.079   4.113   5.539
 4584SOL    HW114651   0.073   4.031   5.482
 4584SOL    HW214652   0.044   4.192   5.488
 4585SOL     OW14653   2.564   5.886   3.664
 4585SOL    HW114654   2.591   5.967   3.716
 4585SOL    HW214655   2.495   5.912   3.596
 4586SOL     OW14656   4.009   4.922   0.525
 4586SOL    HW114657   4.078   4.881   0.465
 4586SOL    HW214658   3.920   4.880   0.508
 4587SOL     OW14659   3.692   3.809   3.392
 4587SOL    HW114660   3.685   3.891   3.335
 4587SOL    HW214661   3.699   3.836   3.488
 4588SOL     OW14662   2.366   3.635   5.369
 4588SOL    HW114663   2.419   3.553   5.349
 4588SOL    HW214664   2.428   3.712   5.382
 4589SOL     OW14665   6.465   1.108   2.222
 4589SOL    HW114666   6.488   1.203   2.243
 4589SOL    HW214667   6.475   1.052   2.305
 4590SOL     OW14668   4.767   5.678   0.724
 4590SOL    HW114669   4.858   5.640   0.707
 4590SOL    HW214670   4.742   5.740   0.649
 4591SOL     OW14671   1.272   6.985   4.366
 4591SOL    HW114672   1.269   6.891   4.332
 4591SOL    HW214673   1.343   6.992   4.437
 4592SOL     OW14674   2.411   1.567   2.575
 4592SOL    HW114675   2.364   1.481   2.594
 4592SOL    HW214676   2.478   1.585   2.647
 4593SOL     OW14677   5.364   5.829   2.672
 4593SOL    HW114678   5.285   5.800   2.618
 4593SOL    HW214679   5.436   5.760   2.666
 4594SOL     OW14680   2.693   1.473   2.922
 4594SOL    HW114681   2.705   1.492   3.020
 4594SOL    HW214682   2.597   1.454   2.904
 4595SOL     OW14683   4.347   3.184   5.620
 4595SOL    HW114684   4.387   3.275   5.626
 4595SOL    HW214685   4.361   3.136   5.707
 4596SOL     OW14686   5.975   0.218   1.983
 4596SOL    HW114687   6.037   0.281   1.936
 4596SOL    HW214688   5.930   0.265   2.058
 4597SOL     OW14689   3.940   5.667   6.356
 4597SOL    HW114690   3.973   5.737   6.420
 4597SOL    HW214691   3.981   5.579   6.380
 4598SOL     OW14692   1.320   5.994   0.120
 4598SOL    HW114693   1.387   6.053   0.166
 4598SOL    HW214694   1.352   5.974   0.027
 4599SOL     OW14695   1.780   4.735   0.307
 4599SOL    HW114696   1.855   4.798   0.286
 4599SOL    HW214697   1.703   4.787   0.346
 4600SOL     OW14698   1.575   5.679   5.579
 4600SOL    HW114699   1.498   5.620   5.554
 4600SOL    HW214700   1.646   5.672   5.508
 4601SOL     OW14701   1.934   1.314   5.073
 4601SOL    HW114702   2.018   1.262   5.077
 4601SOL    HW214703   1.912   1.350   5.164
 4602SOL     OW14704   2.839   6.332   1.133
 4602SOL    HW114705   2.890   6.381   1.204
 4602SOL    HW214706   2.883   6.348   1.044
 4603SOL     OW14707   3.284   6.310   0.561
 4603SOL    HW114708   3.350   6.237   0.544
 4603SOL    HW214709   3.289   6.338   0.657
 4604SOL     OW14710   4.631   0.084   6.907
 4604SOL    HW114711   4.696   0.010   6.891
 4604SOL    HW214712   4.615   0.094   7.005
 4605SOL     OW14713   2.059   6.712   2.464
 4605SOL    HW114714   2.121   6.641   2.429
 4605SOL    HW214715   1.968   6.673   2.477
 4606SOL     OW14716   0.663   6.679   2.541
 4606SOL    HW114717   0.689   6.659   2.447
 4606SOL    HW214718   0.653   6.594   2.592
 4607SOL     OW14719   1.654   3.480   1.628
 4607SOL    HW114720   1.651   3.390   1.670
 4607SOL    HW214721   1.566   3.501   1.586
 4608SOL     OW14722   0.664   5.865   3.707
 4608SOL    HW114723   0.585   5.832   3.656
 4608SOL    HW214724   0.735   5.895   3.643
 4609SOL     OW14725   4.444   5.064   6.522
 4609SOL    HW114726   4.543   5.082   6.525
 4609SOL    HW214727   4.406   5.076   6.614
 4610SOL     OW14728   5.108   1.920   0.710
 4610SOL    HW114729   5.018   1.963   0.720
 4610SOL    HW214730   5.121   1.891   0.615
 4611SOL     OW14731   0.666   6.294   6.183
 4611SOL    HW114732   0.642   6.219   6.121
 4611SOL    HW214733   0.661   6.381   6.134
 4612SOL     OW14734   1.040   6.361   0.360
 4612SOL    HW114735   1.033   6.459   0.343
 4612SOL    HW214736   1.108   6.321   0.298
 4613SOL     OW14737   1.590   5.491   1.983
 4613SOL    HW114738   1.628   5.455   2.069
 4613SOL    HW214739   1.654   5.558   1.944
 4614SOL     OW14740   6.306   3.310   2.987
 4614SOL    HW114741   6.254   3.277   3.065
 4614SOL    HW214742   6.402   3.320   3.012
 4615SOL     OW14743   2.154   0.558   6.691
 4615SOL    HW114744   2.174   0.618   6.769
 4615SOL    HW214745   2.104   0.610   6.621
 4616SOL     OW14746   6.089   1.356   4.568
 4616SOL    HW114747   6.034   1.372   4.486
 4616SOL    HW214748   6.185   1.345   4.542
 4617SOL     OW14749   0.815   2.222   2.297
 4617SOL    HW114750   0.850   2.157   2.364
 4617SOL    HW214751   0.767   2.296   2.344
 4618SOL     OW14752   2.431   2.766   5.242
 4618SOL    HW114753   2.476   2.849   5.208
 4618SOL    HW214754   2.337   2.763   5.208
 4619SOL     OW14755   3.617   6.421   3.545
 4619SOL    HW114756   3.650   6.497   3.488
 4619SOL    HW214757   3.665   6.337   3.519
 4620SOL     OW14758   2.573   5.063   0.833
 4620SOL    HW114759   2.598   5.108   0.919
 4620SOL    HW214760   2.533   5.130   0.770
 4621SOL     OW14761   5.097   0.467   2.654
 4621SOL    HW114762   5.058   0.433   2.739
 4621SOL    HW214763   5.024   0.477   2.586
 4622SOL     OW14764   3.098   4.653   0.597
 4622SOL    HW114765   3.093   4.555   0.616
 4622SOL    HW214766   3.054   4.704   0.671
 4623SOL     OW14767   5.561   6.156   1.094
 4623SOL    HW114768   5.564   6.123   1.189
 4623SOL    HW214769   5.652   6.148   1.053
 4624SOL     OW14770   3.689   6.771   2.839
 4624SOL    HW114771   3.695   6.683   2.886
 4624SOL    HW214772   3.767   6.828   2.867
 4625SOL     OW14773   1.830   4.181   1.516
 4625SOL    HW114774   1.820   4.095   1.565
 4625SOL    HW214775   1.787   4.255   1.568
 4626SOL     OW14776   5.664   4.346   2.048
 4626SOL    HW114777   5.602   4.333   2.125
 4626SOL    HW214778   5.659   4.266   1.988
 4627SOL     OW14779   2.049   4.829   4.864
 4627SOL    HW114780   2.055   4.737   4.904
 4627SOL    HW214781   1.954   4.847   4.837
 4628SOL     OW14782   5.383   4.140   4.024
 4628SOL    HW114783   5.418   4.078   3.954
 4628SOL    HW214784   5.458   4.199   4.056
 4629SOL     OW14785   2.963   5.092   5.608
 4629SOL    HW114786   2.919   5.072   5.696
 4629SOL    HW214787   2.971   5.007   5.555
 4630SOL     OW14788   2.725   6.390   2.240
 4630SOL    HW114789   2.701   6.443   2.321
 4630SOL    HW214790   2.670   6.422   2.163
 4631SOL     OW14791   1.679   5.907   3.748
 4631SOL    HW114792   1.704   5.820   3.790
 4631SOL    HW214793   1.740   5.925   3.671
 4632SOL     OW14794   3.084   4.832   2.391
 4632SOL    HW114795   2.997   4.840   2.343
 4632SOL    HW214796   3.070   4.784   2.478
 4633SOL     OW14797   6.011   0.607   4.907
 4633SOL    HW114798   6.018   0.571   5.000
 4633SOL    HW214799   5.915   0.610   4.879
 4634SOL     OW14800   2.953   4.172   5.808
 4634SOL    HW114801   2.900   4.243   5.762
 4634SOL    HW214802   2.891   4.113   5.861
 4635SOL     OW14803   5.132   3.649   1.672
 4635SOL    HW114804   5.224   3.687   1.682
 4635SOL    HW214805   5.102   3.612   1.759
 4636SOL     OW14806   2.006   4.493   0.049
 4636SOL    HW114807   1.936   4.422   0.042
 4636SOL    HW214808   1.965   4.577   0.083
 4637SOL     OW14809   0.831   6.173   1.343
 4637SOL    HW114810   0.806   6.173   1.247
 4637SOL    HW214811   0.903   6.105   1.360
 4638SOL     OW14812   4.152   4.652   7.007
 4638SOL    HW114813   4.152   4.553   6.993
 4638SOL    HW214814   4.100   4.697   6.934
 4639SOL     OW14815   3.598   3.535   5.843
 4639SOL    HW114816   3.604   3.561   5.939
 4639SOL    HW214817   3.513   3.571   5.803
 4640SOL     OW14818   4.819   3.833   3.681
 4640SOL    HW114819   4.823   3.742   3.639
 4640SOL    HW214820   4.868   3.833   3.767
 4641SOL     OW14821   2.375   0.471   4.407
 4641SOL    HW114822   2.403   0.376   4.394
 4641SOL    HW214823   2.321   0.501   4.329
 4642SOL     OW14824   1.180   6.695   4.006
 4642SOL    HW114825   1.112   6.623   4.006
 4642SOL    HW214826   1.186   6.736   4.097
 4643SOL     OW14827   6.741   2.101   0.606
 4643SOL    HW114828   6.803   2.023   0.601
 4643SOL    HW214829   6.791   2.182   0.636
 4644SOL     OW14830   0.566   5.295   5.451
 4644SOL    HW114831   0.571   5.206   5.497
 4644SOL    HW214832   0.658   5.327   5.428
 4645SOL     OW14833   0.252   0.010   3.825
 4645SOL    HW114834   0.281   6.932   3.839
 4645SOL    HW214835   0.292   0.045   3.741
 4646SOL     OW14836   2.164   5.663   3.726
 4646SOL    HW114837   2.260   5.643   3.708
 4646SOL    HW214838   2.142   5.640   3.821
 4647SOL     OW14839   1.999   0.036   3.108
 4647SOL    HW114840   1.921   0.098   3.114
 4647SOL    HW214841   2.001   7.008   3.019
 4648SOL     OW14842   3.543   0.917   2.854
 4648SOL    HW114843   3.616   0.865   2.809
 4648SOL    HW214844   3.537   1.008   2.814
 4649SOL     OW14845   5.003   0.727   6.893
 4649SOL    HW114846   5.051   0.667   6.957
 4649SOL    HW214847   4.975   0.674   6.813
 4650SOL     OW14848   4.843   5.601   2.899
 4650SOL    HW114849   4.814   5.506   2.886
 4650SOL    HW214850   4.919   5.622   2.837
 4651SOL     OW14851   6.243   3.086   0.162
 4651SOL    HW114852   6.273   3.077   0.067
 4651SOL    HW214853   6.295   3.024   0.220
 4652SOL     OW14854   6.348   6.361   4.150
 4652SOL    HW114855   6.359   6.272   4.193
 4652SOL    HW214856   6.364   6.433   4.218
 4653SOL     OW14857   5.039   5.591   1.041
 4653SOL    HW114858   5.062   5.649   1.119
 4653SOL    HW214859   4.982   5.642   0.977
 4654SOL     OW14860   0.476   6.711   0.431
 4654SOL    HW114861   0.536   6.631   0.436
 4654SOL    HW214862   0.499   6.765   0.351
 4655SOL     OW14863   5.992   4.184   1.049
 4655SOL    HW114864   5.979   4.268   0.996
 4655SOL    HW214865   5.976   4.203   1.146
 4656SOL     OW14866   1.151   0.345   2.447
 4656SOL    HW114867   1.069   0.394   2.475
 4656SOL    HW214868   1.153   0.336   2.347
 4657SOL     OW14869   4.130   5.868   1.777
 4657SOL    HW114870   4.169   5.949   1.821
 4657SOL    HW214871   4.053   5.895   1.719
 4658SOL     OW14872   3.840   0.849   3.332
 4658SOL    HW114873   3.930   0.867   3.370
 4658SOL    HW214874   3.842   0.863   3.233
 4659SOL     OW14875   3.292   4.497   5.415
 4659SOL    HW114876   3.372   4.529   5.364
 4659SOL    HW214877   3.287   4.397   5.412
 4660SOL     OW14878   0.784   4.671   5.664
 4660SOL    HW114879   0.808   4.616   5.744
 4660SOL    HW214880   0.717   4.622   5.608
 4661SOL     OW14881   3.032   4.614   6.169
 4661SOL    HW114882   3.085   4.529   6.165
 4661SOL    HW214883   2.951   4.605   6.111
 4662SOL     OW14884   3.275   0.154   5.313
 4662SOL    HW114885   3.354   0.205   5.348
 4662SOL    HW214886   3.303   0.100   5.234
 4663SOL     OW14887   0.302   1.476   1.238
 4663SOL    HW114888   0.263   1.419   1.311
 4663SOL    HW214889   0.233   1.542   1.208
 4664SOL     OW14890   1.690   0.854   1.005
 4664SOL    HW114891   1.662   0.768   0.963
 4664SOL    HW214892   1.745   0.906   0.940
 4665SOL     OW14893   3.295   6.338   6.700
 4665SOL    HW114894   3.318   6.249   6.661
 4665SOL    HW214895   3.201   6.336   6.735
 4666SOL     OW14896   2.070   2.655   0.273
 4666SOL    HW114897   2.131   2.576   0.268
 4666SOL    HW214898   1.998   2.647   0.204
 4667SOL     OW14899   6.603   3.547   1.982
 4667SOL    HW114900   6.553   3.531   2.067
 4667SOL    HW214901   6.643   3.639   1.983
 4668SOL     OW14902   4.161   2.198   3.343
 4668SOL    HW114903   4.177   2.100   3.335
 4668SOL    HW214904   4.192   2.243   3.259
 4669SOL     OW14905   4.712   6.254   0.010
 4669SOL    HW114906   4.656   6.274   0.091
 4669SOL    HW214907   4.808   6.269   0.032
 4670SOL     OW14908   2.152   2.380   5.616
 4670SOL    HW114909   2.101   2.296   5.637
 4670SOL    HW214910   2.133   2.449   5.686
 4671SOL     OW14911   6.942   3.089   0.174
 4671SOL    HW114912   6.938   3.067   0.076
 4671SOL    HW214913   6.852   3.076   0.215
 4672SOL     OW14914   2.657   4.837   5.548
 4672SOL    HW114915   2.650   4.877   5.457
 4672SOL    HW214916   2.566   4.817   5.582
 4673SOL     OW14917   4.937   7.005   2.177
 4673SOL    HW114918   5.013   6.943   2.196
 4673SOL    HW214919   4.907   0.033   2.261
 4674SOL     OW14920   5.241   0.874   6.274
 4674SOL    HW114921   5.242   0.973   6.260
 4674SOL    HW214922   5.333   0.843   6.298
 4675SOL     OW14923   2.533   1.231   6.761
 4675SOL    HW114924   2.500   1.304   6.702
 4675SOL    HW214925   2.462   1.205   6.826
 4676SOL     OW14926   6.825   6.389   4.411
 4676SOL    HW114927   6.737   6.385   4.458
 4676SOL    HW214928   6.867   6.299   4.412
 4677SOL     OW14929   2.163   1.197   6.576
 4677SOL    HW114930   2.200   1.112   6.615
 4677SOL    HW214931   2.239   1.253   6.542
 4678SOL     OW14932   1.920   4.328   3.059
 4678SOL    HW114933   1.876   4.318   3.148
 4678SOL    HW214934   2.018   4.340   3.072
 4679SOL     OW14935   3.400   1.208   0.061
 4679SOL    HW114936   3.371   1.115   0.037
 4679SOL    HW214937   3.390   1.221   0.160
 4680SOL     OW14938   2.671   1.276   0.566
 4680SOL    HW114939   2.623   1.228   0.640
 4680SOL    HW214940   2.750   1.323   0.605
 4681SOL     OW14941   5.030   6.041   6.085
 4681SOL    HW114942   5.064   5.975   6.152
 4681SOL    HW214943   5.067   6.132   6.106
 4682SOL     OW14944   4.369   4.181   5.693
 4682SOL    HW114945   4.460   4.201   5.657
 4682SOL    HW214946   4.301   4.233   5.641
 4683SOL     OW14947   4.066   4.770   2.778
 4683SOL    HW114948   4.084   4.672   2.784
 4683SOL    HW214949   3.971   4.788   2.805
 4684SOL     OW14950   6.710   1.881   5.571
 4684SOL    HW114951   6.618   1.918   5.586
 4684SOL    HW214952   6.759   1.876   5.658
 4685SOL     OW14953   0.789   6.330   5.287
 4685SOL    HW114954   0.866   6.384   5.323
 4685SOL    HW214955   0.813   6.294   5.197
 4686SOL     OW14956   4.564   5.021   6.937
 4686SOL    HW114957   4.606   4.960   6.869
 4686SOL    HW214958   4.553   4.973   0.007
 4687SOL     OW14959   6.643   3.751   5.018
 4687SOL    HW114960   6.547   3.724   5.016
 4687SOL    HW214961   6.652   3.843   4.981
 4688SOL     OW14962   6.371   3.710   5.030
 4688SOL    HW114963   6.334   3.646   5.098
 4688SOL    HW214964   6.367   3.668   4.939
 4689SOL     OW14965   6.057   0.389   0.510
 4689SOL    HW114966   5.995   0.463   0.539
 4689SOL    HW214967   6.131   0.380   0.577
 4690SOL     OW14968   1.169   0.591   6.926
 4690SOL    HW114969   1.099   0.521   6.936
 4690SOL    HW214970   1.232   0.586   7.004
 4691SOL     OW14971   2.866   5.102   1.925
 4691SOL    HW114972   2.809   5.126   1.847
 4691SOL    HW214973   2.866   5.003   1.938
 4692SOL     OW14974   5.770   5.388   1.908
 4692SOL    HW114975   5.832   5.326   1.859
 4692SOL    HW214976   5.786   5.380   2.006
 4693SOL     OW14977   1.101   0.939   3.219
 4693SOL    HW114978   1.007   0.926   3.188
 4693SOL    HW214979   1.160   0.870   3.177
 4694SOL     OW14980   2.300   0.259   0.242
 4694SOL    HW114981   2.315   0.357   0.256
 4694SOL    HW214982   2.376   0.208   0.282
 4695SOL     OW14983   2.119   3.747   1.430
 4695SOL    HW114984   2.064   3.684   1.483
 4695SOL    HW214985   2.216   3.726   1.443
 4696SOL     OW14986   0.134   4.038   6.384
 4696SOL    HW114987   0.042   4.059   6.352
 4696SOL    HW214988   0.138   4.047   6.483
 4697SOL     OW14989   2.324   3.305   0.880
 4697SOL    HW114990   2.361   3.289   0.788
 4697SOL    HW214991   2.355   3.394   0.914
 4698SOL     OW14992   4.666   5.909   3.429
 4698SOL    HW114993   4.578   5.877   3.395
 4698SOL    HW214994   4.653   5.997   3.475
 4699SOL     OW14995   1.656   6.857   2.013
 4699SOL    HW114996   1.605   6.944   2.015
 4699SOL    HW214997   1.705   6.850   1.926
 4700SOL     OW14998   6.744   1.795   2.777
 4700SOL    HW114999   6.770   1.748   2.692
 4700SOL    HW215000   6.826   1.834   2.819
 4701SOL     OW15001   2.301   2.364   6.949
 4701SOL    HW115002   2.353   2.330   0.011
 4701SOL    HW215003   2.329   2.316   6.866
 4702SOL     OW15004   5.365   4.710   6.374
 4702SOL    HW115005   5.297   4.781   6.394
 4702SOL    HW215006   5.331   4.653   6.299
 4703SOL     OW15007   0.783   1.483   1.492
 4703SOL    HW115008   0.860   1.495   1.555
 4703SOL    HW215009   0.736   1.398   1.513
 4704SOL     OW15010   1.455   7.014   0.310
 4704SOL    HW115011   1.475   0.086   0.267
 4704SOL    HW215012   1.357   6.996   0.304
 4705SOL     OW15013   3.203   3.388   1.936
 4705SOL    HW115014   3.264   3.309   1.941
 4705SOL    HW215015   3.121   3.364   1.884
 4706SOL     OW15016   3.763   6.994   6.914
 4706SOL    HW115017   3.742   6.964   7.007
 4706SOL    HW215018   3.698   0.048   6.885
 4707SOL     OW15019   1.883   6.092   1.333
 4707SOL    HW115020   1.793   6.066   1.299
 4707SOL    HW215021   1.905   6.038   1.414
 4708SOL     OW15022   1.061   1.852   6.458
 4708SOL    HW115023   1.142   1.803   6.492
 4708SOL    HW215024   0.996   1.786   6.420
 4709SOL     OW15025   4.679   5.815   5.676
 4709SOL    HW115026   4.752   5.863   5.627
 4709SOL    HW215027   4.595   5.870   5.673
 4710SOL     OW15028   3.789   1.182   5.125
 4710SOL    HW115029   3.858   1.137   5.182
 4710SOL    HW215030   3.733   1.242   5.181
 4711SOL     OW15031   5.421   0.903   1.473
 4711SOL    HW115032   5.459   0.842   1.542
 4711SOL    HW215033   5.488   0.973   1.450
 4712SOL     OW15034   2.873   4.355   0.305
 4712SOL    HW115035   2.821   4.333   0.387
 4712SOL    HW215036   2.968   4.328   0.317
 4713SOL     OW15037   3.285   3.089   0.630
 4713SOL    HW115038   3.341   3.104   0.712
 4713SOL    HW215039   3.193   3.060   0.657
 4714SOL     OW15040   1.431   2.510   6.789
 4714SOL    HW115041   1.484   2.528   6.706
 4714SOL    HW215042   1.368   2.435   6.772
 4715SOL     OW15043   6.755   2.930   2.382
 4715SOL    HW115044   6.706   2.882   2.454
 4715SOL    HW215045   6.799   3.011   2.419
 4716SOL     OW15046   4.880   6.060   6.415
 4716SOL    HW115047   4.871   6.151   6.373
 4716SOL    HW215048   4.791   6.029   6.446
 4717SOL     OW15049   0.429   6.776   3.678
 4717SOL    HW115050   0.371   6.713   3.728
 4717SOL    HW215051   0.372   6.840   3.627
 4718SOL     OW15052   5.793   2.338   1.205
 4718SOL    HW115053   5.779   2.397   1.285
 4718SOL    HW215054   5.713   2.281   1.191
 4719SOL     OW15055   5.205   3.457   2.243
 4719SOL    HW115056   5.214   3.542   2.190
 4719SOL    HW215057   5.232   3.380   2.185
 4720SOL     OW15058   2.193   5.517   6.041
 4720SOL    HW115059   2.168   5.440   5.983
 4720SOL    HW215060   2.216   5.596   5.984
 4721SOL     OW15061   6.717   2.583   1.527
 4721SOL    HW115062   6.760   2.637   1.455
 4721SOL    HW215063   6.636   2.538   1.491
 4722SOL     OW15064   0.893   5.886   6.534
 4722SOL    HW115065   0.875   5.905   6.630
 4722SOL    HW215066   0.808   5.857   6.489
 4723SOL     OW15067   1.812   3.905   6.018
 4723SOL    HW115068   1.896   3.869   5.977
 4723SOL    HW215069   1.835   3.968   6.092
 4724SOL     OW15070   5.605   6.295   2.987
 4724SOL    HW115071   5.656   6.244   3.057
 4724SOL    HW215072   5.669   6.349   2.932
 4725SOL     OW15073   6.153   5.798   2.797
 4725SOL    HW115074   6.156   5.848   2.884
 4725SOL    HW215075   6.078   5.832   2.742
 4726SOL     OW15076   1.571   2.443   5.869
 4726SOL    HW115077   1.661   2.411   5.841
 4726SOL    HW215078   1.520   2.367   5.911
 4727SOL     OW15079   0.846   6.014   0.571
 4727SOL    HW115080   0.945   5.997   0.571
 4727SOL    HW215081   0.808   5.987   0.483
 4728SOL     OW15082   5.442   0.754   1.726
 4728SOL    HW115083   5.469   0.845   1.759
 4728SOL    HW215084   5.445   0.689   1.803
 4729SOL     OW15085   2.535   1.647   1.048
 4729SOL    HW115086   2.562   1.590   0.970
 4729SOL    HW215087   2.583   1.735   1.042
 4730SOL     OW15088   3.226   5.915   5.145
 4730SOL    HW115089   3.167   5.845   5.104
 4730SOL    HW215090   3.308   5.927   5.088
 4731SOL     OW15091   4.412   0.099   6.716
 4731SOL    HW115092   4.398   0.187   6.669
 4731SOL    HW215093   4.495   0.103   6.770
 4732SOL     OW15094   1.191   2.996   5.897
 4732SOL    HW115095   1.257   2.965   5.966
 4732SOL    HW215096   1.127   3.060   5.938
 4733SOL     OW15097   1.343   4.467   3.598
 4733SOL    HW115098   1.382   4.436   3.684
 4733SOL    HW215099   1.416   4.485   3.533
 4734SOL     OW15100   4.611   2.471   0.629
 4734SOL    HW115101   4.529   2.511   0.672
 4734SOL    HW215102   4.635   2.523   0.547
 4735SOL     OW15103   0.292   5.743   5.004
 4735SOL    HW115104   0.336   5.757   5.092
 4735SOL    HW215105   0.196   5.769   5.010
 4736SOL     OW15106   0.086   2.051   6.481
 4736SOL    HW115107   0.167   2.061   6.423
 4736SOL    HW215108   0.114   2.021   6.572
 4737SOL     OW15109   2.377   4.310   2.555
 4737SOL    HW115110   2.452   4.284   2.617
 4737SOL    HW215111   2.315   4.232   2.544
 4738SOL     OW15112   0.399   6.431   3.091
 4738SOL    HW115113   0.455   6.458   3.169
 4738SOL    HW215114   0.302   6.438   3.115
 4739SOL     OW15115   4.419   6.086   3.194
 4739SOL    HW115116   4.455   6.096   3.287
 4739SOL    HW215117   4.397   6.176   3.157
 4740SOL     OW15118   1.539   0.945   1.227
 4740SOL    HW115119   1.598   0.880   1.178
 4740SOL    HW215120   1.500   1.010   1.162
 4741SOL     OW15121   3.786   3.486   1.075
 4741SOL    HW115122   3.818   3.573   1.037
 4741SOL    HW215123   3.864   3.428   1.098
 4742SOL     OW15124   3.231   6.932   5.500
 4742SOL    HW115125   3.179   6.858   5.457
 4742SOL    HW215126   3.260   6.997   5.430
 4743SOL     OW15127   1.892   3.556   3.072
 4743SOL    HW115128   1.844   3.519   3.151
 4743SOL    HW215129   1.859   3.648   3.053
 4744SOL     OW15130   1.616   4.577   0.639
 4744SOL    HW115131   1.620   4.562   0.540
 4744SOL    HW215132   1.656   4.498   0.686
 4745SOL     OW15133   3.069   3.578   5.659
 4745SOL    HW115134   2.972   3.559   5.670
 4745SOL    HW215135   3.081   3.668   5.616
 4746SOL     OW15136   5.215   6.199   2.935
 4746SOL    HW115137   5.159   6.185   3.017
 4746SOL    HW215138   5.276   6.276   2.949
 4747SOL     OW15139   1.704   3.760   0.107
 4747SOL    HW115140   1.637   3.824   0.070
 4747SOL    HW215141   1.761   3.725   0.033
 4748SOL     OW15142   2.530   5.716   1.303
 4748SOL    HW115143   2.614   5.669   1.275
 4748SOL    HW215144   2.477   5.740   1.221
 4749SOL     OW15145   2.257   6.189   5.874
 4749SOL    HW115146   2.241   6.090   5.880
 4749SOL    HW215147   2.336   6.207   5.816
 4750SOL     OW15148   0.087   3.843   4.887
 4750SOL    HW115149   0.175   3.855   4.934
 4750SOL    HW215150   0.016   3.893   4.936
 4751SOL     OW15151   4.131   2.000   2.653
 4751SOL    HW115152   4.100   2.073   2.591
 4751SOL    HW215153   4.068   1.923   2.649
 4752SOL     OW15154   4.137   1.084   6.715
 4752SOL    HW115155   4.142   1.018   6.790
 4752SOL    HW215156   4.192   1.164   6.736
 4753SOL     OW15157   6.282   0.190   4.211
 4753SOL    HW115158   6.291   0.098   4.248
 4753SOL    HW215159   6.345   0.202   4.134
 4754SOL     OW15160   5.687   4.295   4.659
 4754SOL    HW115161   5.690   4.329   4.753
 4754SOL    HW215162   5.600   4.321   4.617
 4755SOL     OW15163   3.187   0.571   7.008
 4755SOL    HW115164   3.191   0.629   6.927
 4755SOL    HW215165   3.253   0.603   0.059
 4756SOL     OW15166   5.663   2.894   6.063
 4756SOL    HW115167   5.589   2.835   6.096
 4756SOL    HW215168   5.664   2.893   5.963
 4757SOL     OW15169   2.524   1.716   1.495
 4757SOL    HW115170   2.434   1.685   1.527
 4757SOL    HW215171   2.576   1.753   1.571
 4758SOL     OW15172   1.715   6.568   3.308
 4758SOL    HW115173   1.793   6.630   3.323
 4758SOL    HW215174   1.651   6.611   3.244
 4759SOL     OW15175   6.815   4.707   5.154
 4759SOL    HW115176   6.748   4.777   5.177
 4759SOL    HW215177   6.768   4.621   5.134
 4760SOL     OW15178   2.297   1.998   0.105
 4760SOL    HW115179   2.378   1.942   0.089
 4760SOL    HW215180   2.218   1.955   0.061
 4761SOL     OW15181   1.189   6.358   0.742
 4761SOL    HW115182   1.150   6.301   0.814
 4761SOL    HW215183   1.164   6.320   0.653
 4762SOL     OW15184   1.694   5.066   2.247
 4762SOL    HW115185   1.700   5.067   2.147
 4762SOL    HW215186   1.598   5.059   2.274
 4763SOL     OW15187   5.945   0.221   2.356
 4763SOL    HW115188   5.996   0.290   2.305
 4763SOL    HW215189   5.985   0.210   2.447
 4764SOL     OW15190   4.799   3.868   5.218
 4764SOL    HW115191   4.725   3.832   5.276
 4764SOL    HW215192   4.822   3.800   5.148
 4765SOL     OW15193   4.408   0.573   5.285
 4765SOL    HW115194   4.308   0.577   5.281
 4765SOL    HW215195   4.446   0.624   5.208
 4766SOL     OW15196   5.765   5.603   3.730
 4766SOL    HW115197   5.815   5.560   3.655
 4766SOL    HW215198   5.673   5.626   3.699
 4767SOL     OW15199   3.091   5.506   5.121
 4767SOL    HW115200   3.007   5.497   5.175
 4767SOL    HW215201   3.170   5.498   5.182
 4768SOL     OW15202   4.515   2.150   6.529
 4768SOL    HW115203   4.503   2.053   6.507
 4768SOL    HW215204   4.570   2.159   6.612
 4769SOL     OW15205   4.959   5.915   0.029
 4769SOL    HW115206   5.003   6.002   0.004
 4769SOL    HW215207   4.980   5.847   6.975
 4770SOL     OW15208   6.435   1.873   4.338
 4770SOL    HW115209   6.395   1.799   4.392
 4770SOL    HW215210   6.527   1.893   4.372
 4771SOL     OW15211   2.877   6.017   5.510
 4771SOL    HW115212   2.844   6.096   5.563
 4771SOL    HW215213   2.912   5.948   5.572
 4772SOL     OW15214   3.925   5.383   0.535
 4772SOL    HW115215   4.013   5.336   0.528
 4772SOL    HW215216   3.927   5.446   0.613
 4773SOL     OW15217   6.818   4.988   4.977
 4773SOL    HW115218   6.768   5.061   4.930
 4773SOL    HW215219   6.753   4.932   5.028
 4774SOL     OW15220   1.890   3.415   1.092
 4774SOL    HW115221   1.955   3.492   1.088
 4774SOL    HW215222   1.938   3.333   1.122
 4775SOL     OW15223   5.719   6.642   2.948
 4775SOL    HW115224   5.638   6.699   2.931
 4775SOL    HW215225   5.754   6.608   2.860
 4776SOL     OW15226   1.113   6.969   5.720
 4776SOL    HW115227   1.191   6.949   5.660
 4776SOL    HW215228   1.139   0.026   5.783
 4777SOL     OW15229   1.298   5.020   1.419
 4777SOL    HW115230   1.256   4.938   1.457
 4777SOL    HW215231   1.363   5.059   1.485
 4778SOL     OW15232   6.562   3.264   3.910
 4778SOL    HW115233   6.526   3.330   3.844
 4778SOL    HW215234   6.597   3.313   3.990
 4779SOL     OW15235   5.744   6.790   2.578
 4779SOL    HW115236   5.732   6.858   2.506
 4779SOL    HW215237   5.680   6.715   2.564
 4780SOL     OW15238   5.896   2.216   6.783
 4780SOL    HW115239   5.943   2.257   6.705
 4780SOL    HW215240   5.937   2.251   6.868
 4781SOL     OW15241   2.492   5.601   3.187
 4781SOL    HW115242   2.497   5.540   3.108
 4781SOL    HW215243   2.569   5.583   3.249
 4782SOL     OW15244   6.405   5.748   6.782
 4782SOL    HW115245   6.393   5.654   6.750
 4782SOL    HW215246   6.415   5.808   6.703
 4783SOL     OW15247   5.072   3.773   7.002
 4783SOL    HW115248   5.104   3.679   7.001
 4783SOL    HW215249   5.082   3.813   6.911
 4784SOL     OW15250   6.541   2.838   6.529
 4784SOL    HW115251   6.466   2.771   6.535
 4784SOL    HW215252   6.609   2.805   6.464
 4785SOL     OW15253   0.822   6.383   3.119
 4785SOL    HW115254   0.791   6.455   3.057
 4785SOL    HW215255   0.754   6.311   3.123
 4786SOL     OW15256   2.340   0.185   0.819
 4786SOL    HW115257   2.272   0.245   0.861
 4786SOL    HW215258   2.431   0.212   0.849
 4787SOL     OW15259   4.030   1.040   2.752
 4787SOL    HW115260   4.007   1.048   2.849
 4787SOL    HW215261   4.022   1.129   2.709
 4788SOL     OW15262   6.408   6.219   0.228
 4788SOL    HW115263   6.379   6.124   0.218
 4788SOL    HW215264   6.364   6.275   0.158
 4789SOL     OW15265   5.520   1.607   2.251
 4789SOL    HW115266   5.467   1.604   2.336
 4789SOL    HW215267   5.476   1.548   2.183
 4790SOL     OW15268   5.574   1.638   5.600
 4790SOL    HW115269   5.486   1.653   5.643
 4790SOL    HW215270   5.619   1.725   5.583
 4791SOL     OW15271   0.617   2.849   1.235
 4791SOL    HW115272   0.586   2.855   1.140
 4791SOL    HW215273   0.612   2.940   1.277
 4792SOL     OW15274   2.850   4.816   3.702
 4792SOL    HW115275   2.776   4.876   3.730
 4792SOL    HW215276   2.937   4.849   3.740
 4793SOL     OW15277   2.142   2.851   5.150
 4793SOL    HW115278   2.067   2.917   5.149
 4793SOL    HW215279   2.222   2.890   5.105
 4794SOL     OW15280   5.638   7.008   4.840
 4794SOL    HW115281   5.711   0.056   4.864
 4794SOL    HW215282   5.631   7.002   4.741
 4795SOL     OW15283   6.114   2.206   3.992
 4795SOL    HW115284   6.107   2.122   3.939
 4795SOL    HW215285   6.141   2.184   4.086
 4796SOL     OW15286   4.471   1.016   5.066
 4796SOL    HW115287   4.408   1.062   5.004
 4796SOL    HW215288   4.549   1.076   5.085
 4797SOL     OW15289   0.730   6.629   5.283
 4797SOL    HW115290   0.785   6.549   5.258
 4797SOL    HW215291   0.649   6.600   5.333
 4798SOL     OW15292   0.362   4.084   5.655
 4798SOL    HW115293   0.266   4.066   5.636
 4798SOL    HW215294   0.417   4.059   5.575
 4799SOL     OW15295   3.666   1.948   0.902
 4799SOL    HW115296   3.655   1.862   0.853
 4799SOL    HW215297   3.755   1.988   0.880
 4800SOL     OW15298   2.403   2.853   6.779
 4800SOL    HW115299   2.323   2.794   6.780
 4800SOL    HW215300   2.375   2.949   6.787
 4801SOL     OW15301   3.440   2.897   0.061
 4801SOL    HW115302   3.400   2.846   7.002
 4801SOL    HW215303   3.401   2.989   0.063
 4802SOL     OW15304   0.347   6.543   2.318
 4802SOL    HW115305   0.424   6.550   2.255
 4802SOL    HW215306   0.269   6.593   2.281
 4803SOL     OW15307   6.997   4.599   6.828
 4803SOL    HW115308   0.045   4.530   6.797
 4803SOL    HW215309   6.964   4.653   6.750
 4804SOL     OW15310   6.941   6.253   1.518
 4804SOL    HW115311   6.982   6.210   1.599
 4804SOL    HW215312   6.971   6.205   1.436
 4805SOL     OW15313   5.720   1.127   2.013
 4805SOL    HW115314   5.672   1.183   2.081
 4805SOL    HW215315   5.812   1.108   2.045
 4806SOL     OW15316   1.222   4.273   2.662
 4806SOL    HW115317   1.319   4.273   2.687
 4806SOL    HW215318   1.168   4.306   2.739
 4807SOL     OW15319   0.296   4.798   0.117
 4807SOL    HW115320   0.257   4.747   0.194
 4807SOL    HW215321   0.336   4.734   0.051
 4808SOL     OW15322   4.779   5.468   0.135
 4808SOL    HW115323   4.704   5.406   0.113
 4808SOL    HW215324   4.781   5.544   0.070
 4809SOL     OW15325   3.653   5.448   0.725
 4809SOL    HW115326   3.594   5.457   0.645
 4809SOL    HW215327   3.719   5.523   0.726
 4810SOL     OW15328   1.485   4.263   2.793
 4810SOL    HW115329   1.518   4.174   2.826
 4810SOL    HW215330   1.458   4.319   2.872
 4811SOL     OW15331   3.033   4.063   1.884
 4811SOL    HW115332   3.026   4.145   1.827
 4811SOL    HW215333   3.022   3.982   1.827
 4812SOL     OW15334   0.592   6.099   2.321
 4812SOL    HW115335   0.548   6.173   2.372
 4812SOL    HW215336   0.665   6.135   2.264
 4813SOL     OW15337   5.380   1.362   6.575
 4813SOL    HW115338   5.469   1.406   6.584
 4813SOL    HW215339   5.389   1.264   6.591
 4814SOL     OW15340   0.280   3.253   0.878
 4814SOL    HW115341   0.246   3.346   0.891
 4814SOL    HW215342   0.231   3.209   0.803
 4815SOL     OW15343   5.198   3.968   2.709
 4815SOL    HW115344   5.226   3.940   2.617
 4815SOL    HW215345   5.229   3.900   2.776
 4816SOL     OW15346   2.236   4.835   1.109
 4816SOL    HW115347   2.266   4.917   1.060
 4816SOL    HW215348   2.140   4.818   1.091
 4817SOL     OW15349   2.549   1.892   0.062
 4817SOL    HW115350   2.584   1.798   0.053
 4817SOL    HW215351   2.615   1.947   0.113
 4818SOL     OW15352   0.118   0.446   4.570
 4818SOL    HW115353   0.082   0.387   4.498
 4818SOL    HW215354   0.111   0.542   4.541
 4819SOL     OW15355   2.305   2.330   1.233
 4819SOL    HW115356   2.351   2.288   1.155
 4819SOL    HW215357   2.344   2.294   1.318
 4820SOL     OW15358   6.487   2.421   1.439
 4820SOL    HW115359   6.455   2.385   1.351
 4820SOL    HW215360   6.467   2.355   1.511
 4821SOL     OW15361   0.794   6.986   2.339
 4821SOL    HW115362   0.832   6.912   2.396
 4821SOL    HW215363   0.756   0.040   2.399
 4822SOL     OW15364   1.779   3.686   4.464
 4822SOL    HW115365   1.734   3.650   4.382
 4822SOL    HW215366   1.764   3.623   4.541
 4823SOL     OW15367   0.972   0.614   4.106
 4823SOL    HW115368   1.022   0.651   4.027
 4823SOL    HW215369   0.950   0.688   4.169
 4824SOL     OW15370   5.119   2.109   3.913
 4824SOL    HW115371   5.064   2.081   3.992
 4824SOL    HW215372   5.061   2.111   3.832
 4825SOL     OW15373   2.122   1.747   4.992
 4825SOL    HW115374   2.110   1.803   4.910
 4825SOL    HW215375   2.182   1.795   5.056
 4826SOL     OW15376   0.458   0.986   6.390
 4826SOL    HW115377   0.418   1.060   6.444
 4826SOL    HW215378   0.519   1.025   6.321
 4827SOL     OW15379   6.470   1.748   1.451
 4827SOL    HW115380   6.539   1.694   1.402
 4827SOL    HW215381   6.380   1.730   1.410
 4828SOL     OW15382   5.538   3.475   1.308
 4828SOL    HW115383   5.485   3.413   1.366
 4828SOL    HW215384   5.560   3.429   1.222
 4829SOL     OW15385   4.143   6.584   0.046
 4829SOL    HW115386   4.104   6.626   6.981
 4829SOL    HW215387   4.175   6.655   0.108
 4830SOL     OW15388   4.472   6.611   3.606
 4830SOL    HW115389   4.499   6.559   3.526
 4830SOL    HW215390   4.554   6.639   3.657
 4831SOL     OW15391   0.252   4.576   6.364
 4831SOL    HW115392   0.172   4.637   6.365
 4831SOL    HW215393   0.238   4.504   6.296
 4832SOL     OW15394   3.374   3.335   5.179
 4832SOL    HW115395   3.453   3.381   5.139
 4832SOL    HW215396   3.396   3.238   5.191
 4833SOL     OW15397   4.982   2.211   2.849
 4833SOL    HW115398   4.948   2.287   2.794
 4833SOL    HW215399   4.965   2.125   2.801
 4834SOL     OW15400   4.266   6.632   1.259
 4834SOL    HW115401   4.283   6.727   1.284
 4834SOL    HW215402   4.201   6.592   1.324
 4835SOL     OW15403   6.911   1.029   6.164
 4835SOL    HW115404   6.930   0.957   6.097
 4835SOL    HW215405   6.996   1.071   6.194
 4836SOL     OW15406   4.894   3.149   4.237
 4836SOL    HW115407   4.845   3.083   4.294
 4836SOL    HW215408   4.927   3.225   4.294
 4837SOL     OW15409   6.115   4.343   1.831
 4837SOL    HW115410   6.184   4.402   1.789
 4837SOL    HW215411   6.100   4.371   1.926
 4838SOL     OW15412   0.868   4.613   0.850
 4838SOL    HW115413   0.779   4.602   0.805
 4838SOL    HW215414   0.870   4.556   0.933
 4839SOL     OW15415   1.663   2.479   6.222
 4839SOL    HW115416   1.611   2.403   6.180
 4839SOL    HW215417   1.606   2.561   6.222
 4840SOL     OW15418   0.129   5.798   5.774
 4840SOL    HW115419   0.075   5.861   5.829
 4840SOL    HW215420   0.124   5.707   5.814
 4841SOL     OW15421   2.974   6.237   2.216
 4841SOL    HW115422   2.940   6.157   2.266
 4841SOL    HW215423   2.902   6.306   2.212
 4842SOL     OW15424   3.647   4.889   2.411
 4842SOL    HW115425   3.574   4.948   2.444
 4842SOL    HW215426   3.720   4.886   2.479
 4843SOL     OW15427   6.196   3.023   0.573
 4843SOL    HW115428   6.208   2.924   0.560
 4843SOL    HW215429   6.104   3.040   0.610
 4844SOL     OW15430   6.469   3.303   5.681
 4844SOL    HW115431   6.502   3.343   5.767
 4844SOL    HW215432   6.541   3.309   5.612
 4845SOL     OW15433   5.769   5.371   5.264
 4845SOL    HW115434   5.720   5.456   5.288
 4845SOL    HW215435   5.724   5.328   5.186
 4846SOL     OW15436   0.296   2.878   3.848
 4846SOL    HW115437   0.278   2.887   3.946
 4846SOL    HW215438   0.271   2.786   3.818
 4847SOL     OW15439   2.753   1.009   6.229
 4847SOL    HW115440   2.718   1.099   6.253
 4847SOL    HW215441   2.716   0.941   6.293
 4848SOL     OW15442   1.667   0.748   4.129
 4848SOL    HW115443   1.709   0.831   4.165
 4848SOL    HW215444   1.627   0.767   4.039
 4849SOL     OW15445   1.295   6.763   6.925
 4849SOL    HW115446   1.241   6.842   6.895
 4849SOL    HW215447   1.261   6.680   6.881
 4850SOL     OW15448   4.077   1.634   2.423
 4850SOL    HW115449   4.089   1.685   2.338
 4850SOL    HW215450   4.073   1.698   2.500
 4851SOL     OW15451   4.392   5.940   5.632
 4851SOL    HW115452   4.447   5.989   5.564
 4851SOL    HW215453   4.295   5.957   5.614
 4852SOL     OW15454   1.202   6.073   5.122
 4852SOL    HW115455   1.216   6.058   5.024
 4852SOL    HW215456   1.200   5.985   5.169
 4853SOL     OW15457   3.243   1.232   3.368
 4853SOL    HW115458   3.326   1.180   3.387
 4853SOL    HW215459   3.261   1.330   3.383
 4854SOL     OW15460   4.642   0.252   1.506
 4854SOL    HW115461   4.646   0.293   1.597
 4854SOL    HW215462   4.555   0.203   1.495
 4855SOL     OW15463   6.033   2.713   2.697
 4855SOL    HW115464   6.092   2.646   2.652
 4855SOL    HW215465   5.979   2.667   2.768
 4856SOL     OW15466   1.735   3.752   2.669
 4856SOL    HW115467   1.765   3.675   2.725
 4856SOL    HW215468   1.646   3.784   2.702
 4857SOL     OW15469   2.178   2.137   5.112
 4857SOL    HW115470   2.231   2.217   5.140
 4857SOL    HW215471   2.112   2.164   5.042
 4858SOL     OW15472   0.513   0.759   4.251
 4858SOL    HW115473   0.590   0.737   4.192
 4858SOL    HW215474   0.432   0.709   4.221
 4859SOL     OW15475   6.914   0.726   4.702
 4859SOL    HW115476   6.982   0.707   4.774
 4859SOL    HW215477   6.960   0.732   4.614
 4860SOL     OW15478   4.369   4.584   1.574
 4860SOL    HW115479   4.379   4.555   1.669
 4860SOL    HW215480   4.289   4.644   1.565
 4861SOL     OW15481   5.236   4.845   0.015
 4861SOL    HW115482   5.175   4.821   0.090
 4861SOL    HW215483   5.225   4.779   6.957
 4862SOL     OW15484   2.609   4.645   4.618
 4862SOL    HW115485   2.643   4.630   4.711
 4862SOL    HW215486   2.546   4.571   4.594
 4863SOL     OW15487   6.029   3.943   1.602
 4863SOL    HW115488   6.059   3.937   1.507
 4863SOL    HW215489   5.976   3.861   1.625
 4864SOL     OW15490   4.007   1.306   2.657
 4864SOL    HW115491   4.052   1.320   2.745
 4864SOL    HW215492   3.933   1.372   2.645
 4865SOL     OW15493   2.041   0.033   4.556
 4865SOL    HW115494   1.978   0.103   4.523
 4865SOL    HW215495   2.125   0.076   4.590
 4866SOL     OW15496   6.249   2.512   1.646
 4866SOL    HW115497   6.304   2.581   1.693
 4866SOL    HW215498   6.304   2.429   1.634
 4867SOL     OW15499   3.620   5.346   2.172
 4867SOL    HW115500   3.678   5.426   2.188
 4867SOL    HW215501   3.676   5.270   2.139
 4868SOL     OW15502   6.521   5.147   2.934
 4868SOL    HW115503   6.561   5.113   2.848
 4868SOL    HW215504   6.579   5.219   2.971
 4869SOL     OW15505   1.360   0.955   1.447
 4869SOL    HW115506   1.276   0.901   1.439
 4869SOL    HW215507   1.410   0.952   1.361
 4870SOL     OW15508   0.260   5.761   1.793
 4870SOL    HW115509   0.294   5.850   1.824
 4870SOL    HW215510   0.203   5.721   1.865
 4871SOL     OW15511   1.378   1.365   3.543
 4871SOL    HW115512   1.467   1.331   3.514
 4871SOL    HW215513   1.390   1.442   3.605
 4872SOL     OW15514   6.192   6.459   3.495
 4872SOL    HW115515   6.188   6.367   3.456
 4872SOL    HW215516   6.125   6.518   3.449
 4873SOL     OW15517   6.650   5.560   3.029
 4873SOL    HW115518   6.554   5.553   3.056
 4873SOL    HW215519   6.689   5.644   3.066
 4874SOL     OW15520   6.326   3.733   2.918
 4874SOL    HW115521   6.230   3.723   2.942
 4874SOL    HW215522   6.383   3.713   2.998
 4875SOL     OW15523   6.060   2.468   1.447
 4875SOL    HW115524   6.129   2.486   1.517
 4875SOL    HW215525   6.105   2.452   1.359
 4876SOL     OW15526   5.532   1.722   3.944
 4876SOL    HW115527   5.460   1.730   3.875
 4876SOL    HW215528   5.530   1.630   3.983
 4877SOL     OW15529   1.446   1.908   6.689
 4877SOL    HW115530   1.504   1.861   6.623
 4877SOL    HW215531   1.503   1.951   6.759
 4878SOL     OW15532   6.258   1.539   2.530
 4878SOL    HW115533   6.290   1.575   2.617
 4878SOL    HW215534   6.178   1.481   2.544
 4879SOL     OW15535   4.349   6.831   2.527
 4879SOL    HW115536   4.396   6.758   2.478
 4879SOL    HW215537   4.386   6.838   2.620
 4880SOL     OW15538   5.343   3.406   0.521
 4880SOL    HW115539   5.346   3.385   0.619
 4880SOL    HW215540   5.426   3.372   0.477
 4881SOL     OW15541   1.850   1.050   6.686
 4881SOL    HW115542   1.909   1.046   6.767
 4881SOL    HW215543   1.773   0.988   6.698
 4882SOL     OW15544   5.086   1.411   4.797
 4882SOL    HW115545   5.075   1.508   4.822
 4882SOL    HW215546   5.168   1.375   4.840
 4883SOL     OW15547   5.037   4.984   1.940
 4883SOL    HW115548   5.124   5.031   1.951
 4883SOL    HW215549   4.988   4.982   2.027
 4884SOL     OW15550   2.349   6.342   1.214
 4884SOL    HW115551   2.395   6.430   1.208
 4884SOL    HW215552   2.327   6.321   1.309
 4885SOL     OW15553   2.507   5.167   1.959
 4885SOL    HW115554   2.408   5.155   1.953
 4885SOL    HW215555   2.528   5.247   2.015
 4886SOL     OW15556   0.951   5.247   1.271
 4886SOL    HW115557   0.890   5.301   1.212
 4886SOL    HW215558   0.899   5.171   1.310
 4887SOL     OW15559   0.934   0.264   2.743
 4887SOL    HW115560   0.892   0.244   2.832
 4887SOL    HW215561   1.029   0.291   2.756
 4888SOL     OW15562   2.512   0.080   3.731
 4888SOL    HW115563   2.423   0.126   3.739
 4888SOL    HW215564   2.583   0.149   3.720
 4889SOL     OW15565   6.955   1.390   5.999
 4889SOL    HW115566   7.014   1.471   6.002
 4889SOL    HW215567   7.012   1.309   5.986
 4890SOL     OW15568   0.507   1.144   6.993
 4890SOL    HW115569   0.607   1.138   6.982
 4890SOL    HW215570   0.482   1.239   7.014
 4891SOL     OW15571   1.852   4.269   6.711
 4891SOL    HW115572   1.855   4.265   6.811
 4891SOL    HW215573   1.857   4.365   6.682
 4892SOL     OW15574   3.253   5.672   1.691
 4892SOL    HW115575   3.243   5.614   1.771
 4892SOL    HW215576   3.345   5.712   1.690
 4893SOL     OW15577   6.900   3.336   1.619
 4893SOL    HW115578   6.924   3.429   1.645
 4893SOL    HW215579   6.801   3.324   1.622
 4894SOL     OW15580   2.213   1.502   3.553
 4894SOL    HW115581   2.120   1.498   3.588
 4894SOL    HW215582   2.278   1.487   3.627
 4895SOL     OW15583   0.938   4.579   3.945
 4895SOL    HW115584   1.001   4.557   3.871
 4895SOL    HW215585   0.969   4.661   3.993
 4896SOL     OW15586   1.938   4.908   2.252
 4896SOL    HW115587   1.852   4.959   2.252
 4896SOL    HW215588   1.933   4.834   2.319
 4897SOL     OW15589   1.818   3.766   5.648
 4897SOL    HW115590   1.784   3.819   5.725
 4897SOL    HW215591   1.918   3.776   5.642
 4898SOL     OW15592   4.166   0.812   4.248
 4898SOL    HW115593   4.206   0.820   4.339
 4898SOL    HW215594   4.076   0.855   4.247
 4899SOL     OW15595   5.596   5.752   3.030
 4899SOL    HW115596   5.572   5.845   3.058
 4899SOL    HW215597   5.691   5.749   3.000
 4900SOL     OW15598   3.054   6.573   4.642
 4900SOL    HW115599   2.990   6.584   4.718
 4900SOL    HW215600   3.041   6.646   4.576
 4901SOL     OW15601   3.577   0.749   5.500
 4901SOL    HW115602   3.655   0.773   5.442
 4901SOL    HW215603   3.595   0.661   5.543
 4902SOL     OW15604   2.251   1.655   4.452
 4902SOL    HW115605   2.297   1.718   4.390
 4902SOL    HW215606   2.284   1.670   4.545
 4903SOL     OW15607   3.890   5.875   6.741
 4903SOL    HW115608   3.926   5.787   6.773
 4903SOL    HW215609   3.837   5.918   6.813
 4904SOL     OW15610   2.181   6.970   4.070
 4904SOL    HW115611   2.169   6.881   4.115
 4904SOL    HW215612   2.150   0.026   4.131
 4905SOL     OW15613   4.123   6.767   2.765
 4905SOL    HW115614   4.192   6.767   2.693
 4905SOL    HW215615   4.097   6.673   2.786
 4906SOL     OW15616   5.128   2.415   6.330
 4906SOL    HW115617   5.047   2.473   6.337
 4906SOL    HW215618   5.197   2.460   6.274
 4907SOL     OW15619   4.685   5.709   2.017
 4907SOL    HW115620   4.620   5.643   2.054
 4907SOL    HW215621   4.648   5.801   2.028
 4908SOL     OW15622   5.614   5.188   6.954
 4908SOL    HW115623   5.697   5.236   6.984
 4908SOL    HW215624   5.636   5.093   6.933
 4909SOL     OW15625   6.781   0.065   4.130
 4909SOL    HW115626   6.723   0.064   4.048
 4909SOL    HW215627   6.753   0.141   4.189
 4910SOL     OW15628   5.743   0.653   4.849
 4910SOL    HW115629   5.661   0.635   4.902
 4910SOL    HW215630   5.764   0.751   4.853
 4911SOL     OW15631   1.571   3.820   4.151
 4911SOL    HW115632   1.485   3.858   4.186
 4911SOL    HW215633   1.596   3.739   4.205
 4912SOL     OW15634   4.856   1.333   6.511
 4912SOL    HW115635   4.832   1.385   6.593
 4912SOL    HW215636   4.911   1.389   6.450
 4913SOL     OW15637   3.621   2.761   5.540
 4913SOL    HW115638   3.546   2.770   5.474
 4913SOL    HW215639   3.678   2.684   5.514
 4914SOL     OW15640   4.030   0.689   4.919
 4914SOL    HW115641   4.061   0.649   4.833
 4914SOL    HW215642   4.026   0.618   4.989
 4915SOL     OW15643   4.142   6.552   5.779
 4915SOL    HW115644   4.181   6.462   5.801
 4915SOL    HW215645   4.171   6.579   5.687
 4916SOL     OW15646   1.011   6.966   3.948
 4916SOL    HW115647   1.099   6.987   3.992
 4916SOL    HW215648   0.958   6.905   4.007
 4917SOL     OW15649   2.680   5.248   1.443
 4917SOL    HW115650   2.761   5.264   1.386
 4917SOL    HW215651   2.623   5.177   1.401
 4918SOL     OW15652   5.149   5.506   2.392
 4918SOL    HW115653   5.110   5.417   2.416
 4918SOL    HW215654   5.132   5.524   2.296
 4919SOL     OW15655   2.608   2.726   0.381
 4919SOL    HW115656   2.565   2.803   0.334
 4919SOL    HW215657   2.707   2.740   0.384
 4920SOL     OW15658   5.832   0.916   4.070
 4920SOL    HW115659   5.922   0.951   4.042
 4920SOL    HW215660   5.843   0.860   4.152
 4921SOL     OW15661   1.244   5.119   0.523
 4921SOL    HW115662   1.206   5.142   0.433
 4921SOL    HW215663   1.170   5.100   0.587
 4922SOL     OW15664   2.548   2.415   5.004
 4922SOL    HW115665   2.453   2.420   4.973
 4922SOL    HW215666   2.582   2.322   4.991
 4923SOL     OW15667   4.000   1.748   2.653
 4923SOL    HW115668   3.909   1.757   2.614
 4923SOL    HW215669   3.998   1.684   2.730
 4924SOL     OW15670   3.182   1.513   5.128
 4924SOL    HW115671   3.220   1.521   5.036
 4924SOL    HW215672   3.100   1.571   5.135
 4925SOL     OW15673   6.823   6.915   2.448
 4925SOL    HW115674   6.804   7.011   2.469
 4925SOL    HW215675   6.763   6.885   2.373
 4926SOL     OW15676   5.222   0.942   0.673
 4926SOL    HW115677   5.233   0.848   0.706
 4926SOL    HW215678   5.237   1.006   0.748
 4927SOL     OW15679   3.536   3.834   4.282
 4927SOL    HW115680   3.584   3.757   4.322
 4927SOL    HW215681   3.506   3.897   4.354
 4928SOL     OW15682   1.743   6.734   6.794
 4928SOL    HW115683   1.654   6.700   6.825
 4928SOL    HW215684   1.799   6.657   6.765
 4929SOL     OW15685   0.154   5.630   4.512
 4929SOL    HW115686   0.208   5.617   4.595
 4929SOL    HW215687   0.094   5.552   4.498
 4930SOL     OW15688   5.180   0.971   2.934
 4930SOL    HW115689   5.276   0.965   2.903
 4930SOL    HW215690   5.131   0.889   2.904
 4931SOL     OW15691   0.242   6.650   0.871
 4931SOL    HW115692   0.194   6.720   0.923
 4931SOL    HW215693   0.340   6.667   0.873
 4932SOL     OW15694   2.715   3.190   1.755
 4932SOL    HW115695   2.660   3.187   1.839
 4932SOL    HW215696   2.661   3.156   1.679
 4933SOL     OW15697   2.453   0.504   3.200
 4933SOL    HW115698   2.404   0.480   3.117
 4933SOL    HW215699   2.549   0.521   3.178
 4934SOL     OW15700   2.931   5.951   2.356
 4934SOL    HW115701   2.835   5.946   2.381
 4934SOL    HW215702   2.958   5.867   2.309
 4935SOL     OW15703   1.782   1.539   6.464
 4935SOL    HW115704   1.791   1.489   6.378
 4935SOL    HW215705   1.774   1.475   6.540
 4936SOL     OW15706   2.510   4.526   1.996
 4936SOL    HW115707   2.430   4.507   2.053
 4936SOL    HW215708   2.587   4.551   2.053
 4937SOL     OW15709   6.335   2.930   5.682
 4937SOL    HW115710   6.346   2.905   5.586
 4937SOL    HW215711   6.279   2.861   5.727
 4938SOL     OW15712   2.347   5.243   5.611
 4938SOL    HW115713   2.376   5.197   5.527
 4938SOL    HW215714   2.351   5.342   5.596
 4939SOL     OW15715   6.393   2.302   4.421
 4939SOL    HW115716   6.442   2.262   4.499
 4939SOL    HW215717   6.415   2.250   4.338
 4940SOL     OW15718   6.912   1.039   5.186
 4940SOL    HW115719   6.862   1.123   5.168
 4940SOL    HW215720   6.900   1.013   5.282
 4941SOL     OW15721   5.240   2.511   5.506
 4941SOL    HW115722   5.264   2.459   5.424
 4941SOL    HW215723   5.207   2.449   5.576
 4942SOL     OW15724   5.123   2.878   6.426
 4942SOL    HW115725   5.129   2.794   6.372
 4942SOL    HW215726   5.073   2.859   6.511
 4943SOL     OW15727   4.520   3.804   6.599
 4943SOL    HW115728   4.579   3.766   6.527
 4943SOL    HW215729   4.553   3.894   6.626
 4944SOL     OW15730   2.035   4.460   1.967
 4944SOL    HW115731   2.094   4.423   2.038
 4944SOL    HW215732   2.026   4.559   1.980
 4945SOL     OW15733   0.937   0.089   4.269
 4945SOL    HW115734   0.865   0.092   4.199
 4945SOL    HW215735   1.026   0.078   4.224
 4946SOL     OW15736   1.296   4.589   6.897
 4946SOL    HW115737   1.260   4.639   6.975
 4946SOL    HW215738   1.304   4.492   6.920
 4947SOL     OW15739   2.389   1.087   0.946
 4947SOL    HW115740   2.444   1.006   0.965
 4947SOL    HW215741   2.394   1.150   1.024
 4948SOL     OW15742   1.159   2.636   2.452
 4948SOL    HW115743   1.107   2.720   2.436
 4948SOL    HW215744   1.143   2.572   2.377
 4949SOL     OW15745   5.111   6.303   6.144
 4949SOL    HW115746   5.197   6.324   6.190
 4949SOL    HW215747   5.097   6.367   6.069
 4950SOL     OW15748   2.367   5.572   4.223
 4950SOL    HW115749   2.375   5.655   4.279
 4950SOL    HW215750   2.435   5.574   4.150
 4951SOL     OW15751   5.829   1.623   5.037
 4951SOL    HW115752   5.813   1.617   5.135
 4951SOL    HW215753   5.927   1.623   5.019
 4952SOL     OW15754   0.148   0.832   6.189
 4952SOL    HW115755   0.185   0.780   6.266
 4952SOL    HW215756   0.160   0.930   6.205
 4953SOL     OW15757   2.553   5.752   2.583
 4953SOL    HW115758   2.526   5.813   2.657
 4953SOL    HW215759   2.569   5.660   2.619
 4954SOL     OW15760   4.187   3.098   6.856
 4954SOL    HW115761   4.266   3.075   6.913
 4954SOL    HW215762   4.219   3.126   6.766
 4955SOL     OW15763   2.853   6.316   6.574
 4955SOL    HW115764   2.801   6.370   6.508
 4955SOL    HW215765   2.946   6.353   6.581
 4956SOL     OW15766   2.046   6.819   5.203
 4956SOL    HW115767   2.106   6.865   5.138
 4956SOL    HW215768   2.093   6.809   5.291
 4957SOL     OW15769   6.733   2.137   1.894
 4957SOL    HW115770   6.695   2.224   1.862
 4957SOL    HW215771   6.680   2.104   1.972
 4958SOL     OW15772   6.739   4.930   5.459
 4958SOL    HW115773   6.803   4.986   5.406
 4958SOL    HW215774   6.783   4.901   5.544
 4959SOL     OW15775   6.340   1.221   0.163
 4959SOL    HW115776   6.390   1.250   0.245
 4959SOL    HW215777   6.332   1.298   0.100
 4960SOL     OW15778   3.383   4.982   3.696
 4960SOL    HW115779   3.353   4.916   3.765
 4960SOL    HW215780   3.394   5.072   3.738
 4961SOL     OW15781   4.429   1.073   6.127
 4961SOL    HW115782   4.509   1.042   6.178
 4961SOL    HW215783   4.459   1.128   6.048
 4962SOL     OW15784   6.637   2.098   0.347
 4962SOL    HW115785   6.703   2.133   0.281
 4962SOL    HW215786   6.675   2.103   0.439
 4963SOL     OW15787   6.008   5.666   6.813
 4963SOL    HW115788   5.932   5.730   6.799
 4963SOL    HW215789   6.023   5.614   6.730
 4964SOL     OW15790   2.732   6.868   3.782
 4964SOL    HW115791   2.795   6.909   3.716
 4964SOL    HW215792   2.675   6.939   3.822
 4965SOL     OW15793   6.900   0.738   2.888
 4965SOL    HW115794   6.826   0.802   2.903
 4965SOL    HW215795   6.887   0.691   2.800
 4966SOL     OW15796   2.175   0.045   4.968
 4966SOL    HW115797   2.118   6.984   4.941
 4966SOL    HW215798   2.225   0.023   5.051
 4967SOL     OW15799   3.991   5.432   5.982
 4967SOL    HW115800   3.977   5.334   5.994
 4967SOL    HW215801   4.068   5.448   5.920
 4968SOL     OW15802   6.505   2.131   3.926
 4968SOL    HW115803   6.444   2.063   3.886
 4968SOL    HW215804   6.494   2.132   4.025
 4969SOL     OW15805   2.586   0.135   2.660
 4969SOL    HW115806   2.684   0.122   2.642
 4969SOL    HW215807   2.548   0.051   2.699
 4970SOL     OW15808   1.586   2.259   3.131
 4970SOL    HW115809   1.677   2.299   3.144
 4970SOL    HW215810   1.546   2.295   3.046
 4971SOL     OW15811   6.454   5.883   4.241
 4971SOL    HW115812   6.552   5.868   4.229
 4971SOL    HW215813   6.405   5.836   4.168
 4972SOL     OW15814   2.011   3.152   0.454
 4972SOL    HW115815   1.915   3.167   0.478
 4972SOL    HW215816   2.070   3.191   0.526
 4973SOL     OW15817   1.908   0.492   2.667
 4973SOL    HW115818   1.998   0.490   2.623
 4973SOL    HW215819   1.840   0.528   2.603
 4974SOL     OW15820   6.046   4.909   0.861
 4974SOL    HW115821   6.030   4.933   0.765
 4974SOL    HW215822   6.093   4.821   0.865
 4975SOL     OW15823   5.824   4.488   5.667
 4975SOL    HW115824   5.805   4.397   5.632
 4975SOL    HW215825   5.920   4.493   5.695
 4976SOL     OW15826   2.369   0.445   3.904
 4976SOL    HW115827   2.463   0.447   3.936
 4976SOL    HW215828   2.343   0.352   3.879
 4977SOL     OW15829   4.065   4.607   0.570
 4977SOL    HW115830   3.986   4.644   0.619
 4977SOL    HW215831   4.063   4.637   0.475
 4978SOL     OW15832   0.067   4.356   4.884
 4978SOL    HW115833   0.123   4.295   4.829
 4978SOL    HW215834   6.994   4.369   4.841
 4979SOL     OW15835   0.407   0.260   6.111
 4979SOL    HW115836   0.366   0.178   6.072
 4979SOL    HW215837   0.339   0.308   6.166
 4980SOL     OW15838   5.143   6.158   3.398
 4980SOL    HW115839   5.211   6.118   3.336
 4980SOL    HW215840   5.189   6.216   3.465
 4981SOL     OW15841   5.118   6.360   6.749
 4981SOL    HW115842   5.036   6.412   6.725
 4981SOL    HW215843   5.092   6.285   6.811
 4982SOL     OW15844   2.370   1.643   6.083
 4982SOL    HW115845   2.301   1.666   6.152
 4982SOL    HW215846   2.461   1.659   6.121
 4983SOL     OW15847   5.594   2.409   4.738
 4983SOL    HW115848   5.617   2.469   4.662
 4983SOL    HW215849   5.513   2.443   4.785
 4984SOL     OW15850   5.579   4.177   3.713
 4984SOL    HW115851   5.659   4.214   3.666
 4984SOL    HW215852   5.543   4.246   3.775
 4985SOL     OW15853   6.174   6.243   3.300
 4985SOL    HW115854   6.253   6.272   3.246
 4985SOL    HW215855   6.153   6.147   3.281
 4986SOL     OW15856   6.020   4.080   1.815
 4986SOL    HW115857   6.006   4.029   1.730
 4986SOL    HW215858   6.056   4.171   1.793
 4987SOL     OW15859   1.024   0.679   0.972
 4987SOL    HW115860   1.024   0.634   0.883
 4987SOL    HW215861   0.990   0.773   0.963
 4988SOL     OW15862   5.454   0.640   3.271
 4988SOL    HW115863   5.368   0.609   3.312
 4988SOL    HW215864   5.531   0.591   3.313
 4989SOL     OW15865   5.547   0.059   1.793
 4989SOL    HW115866   5.574   6.979   1.784
 4989SOL    HW215867   5.629   0.114   1.811
 4990SOL     OW15868   1.770   1.666   4.964
 4990SOL    HW115869   1.843   1.601   4.946
 4990SOL    HW215870   1.809   1.753   4.993
 4991SOL     OW15871   6.674   4.334   4.854
 4991SOL    HW115872   6.760   4.297   4.818
 4991SOL    HW215873   6.598   4.275   4.827
 4992SOL     OW15874   5.016   0.798   4.674
 4992SOL    HW115875   4.957   0.754   4.607
 4992SOL    HW215876   4.970   0.879   4.712
 4993SOL     OW15877   3.392   5.357   4.250
 4993SOL    HW115878   3.318   5.376   4.186
 4993SOL    HW215879   3.402   5.258   4.261
 4994SOL     OW15880   2.353   6.988   3.037
 4994SOL    HW115881   2.441   6.940   3.032
 4994SOL    HW215882   2.281   6.930   2.998
 4995SOL     OW15883   6.984   2.704   5.873
 4995SOL    HW115884   6.941   2.691   5.963
 4995SOL    HW215885   6.913   2.703   5.802
 4996SOL     OW15886   1.569   1.075   2.594
 4996SOL    HW115887   1.483   1.048   2.551
 4996SOL    HW215888   1.555   1.157   2.649
 4997SOL     OW15889   5.478   2.176   3.345
 4997SOL    HW115890   5.467   2.078   3.356
 4997SOL    HW215891   5.568   2.204   3.379
 4998SOL     OW15892   2.152   4.101   5.237
 4998SOL    HW115893   2.238   4.065   5.201
 4998SOL    HW215894   2.119   4.175   5.178
 4999SOL     OW15895   6.363   4.436   0.842
 4999SOL    HW115896   6.372   4.422   0.940
 4999SOL    HW215897   6.280   4.490   0.824
 5000SOL     OW15898   2.919   6.722   3.950
 5000SOL    HW115899   2.960   6.703   3.861
 5000SOL    HW215900   2.828   6.761   3.937
 5001SOL     OW15901   0.769   4.077   0.340
 5001SOL    HW115902   0.814   4.016   0.275
 5001SOL    HW215903   0.742   4.025   0.422
 5002SOL     OW15904   1.287   3.506   3.693
 5002SOL    HW115905   1.364   3.557   3.731
 5002SOL    HW215906   1.320   3.437   3.629
 5003SOL     OW15907   2.458   6.299   3.019
 5003SOL    HW115908   2.558   6.307   3.018
 5003SOL    HW215909   2.427   6.263   2.931
 5004SOL     OW15910   3.161   4.961   5.946
 5004SOL    HW115911   3.244   4.908   5.958
 5004SOL    HW215912   3.171   5.021   5.866
 5005SOL     OW15913   3.241   2.506   0.318
 5005SOL    HW115914   3.143   2.520   0.303
 5005SOL    HW215915   3.256   2.413   0.353
 5006SOL     OW15916   5.126   6.913   0.337
 5006SOL    HW115917   5.099   6.926   0.242
 5006SOL    HW215918   5.067   6.970   0.396
 5007SOL     OW15919   1.572   0.158   6.784
 5007SOL    HW115920   1.585   0.095   6.861
 5007SOL    HW215921   1.523   0.111   6.711
 5008SOL     OW15922   6.228   7.013   3.176
 5008SOL    HW115923   6.184   6.936   3.224
 5008SOL    HW215924   6.239   6.990   3.080
 5009SOL     OW15925   1.755   6.052   0.903
 5009SOL    HW115926   1.816   5.973   0.904
 5009SOL    HW215927   1.810   6.136   0.911
 5010SOL     OW15928   3.407   3.452   2.762
 5010SOL    HW115929   3.315   3.427   2.732
 5010SOL    HW215930   3.474   3.390   2.721
 5011SOL     OW15931   1.923   3.888   2.975
 5011SOL    HW115932   1.845   3.867   3.033
 5011SOL    HW215933   2.004   3.906   3.032
 5012SOL     OW15934   4.882   4.162   6.556
 5012SOL    HW115935   4.914   4.072   6.584
 5012SOL    HW215936   4.933   4.233   6.606
 5013SOL     OW15937   4.938   1.714   6.907
 5013SOL    HW115938   5.016   1.663   6.943
 5013SOL    HW215939   4.870   1.727   6.980
 5014SOL     OW15940   5.146   4.129   0.868
 5014SOL    HW115941   5.219   4.195   0.890
 5014SOL    HW215942   5.186   4.038   0.858
 5015SOL     OW15943   4.678   2.409   3.860
 5015SOL    HW115944   4.708   2.319   3.892
 5015SOL    HW215945   4.741   2.442   3.790
 5016SOL     OW15946   2.434   2.454   0.753
 5016SOL    HW115947   2.502   2.383   0.772
 5016SOL    HW215948   2.455   2.498   0.666
 5017SOL     OW15949   1.682   1.946   6.824
 5017SOL    HW115950   1.732   2.029   6.800
 5017SOL    HW215951   1.688   1.931   6.922
 5018SOL     OW15952   0.202   4.186   1.944
 5018SOL    HW115953   0.141   4.178   2.023
 5018SOL    HW215954   0.288   4.228   1.973
 5019SOL     OW15955   1.497   4.670   6.397
 5019SOL    HW115956   1.511   4.622   6.484
 5019SOL    HW215957   1.521   4.609   6.321
 5020SOL     OW15958   4.741   6.626   6.172
 5020SOL    HW115959   4.787   6.656   6.089
 5020SOL    HW215960   4.672   6.557   6.149
 5021SOL     OW15961   1.532   1.946   5.980
 5021SOL    HW115962   1.630   1.927   5.989
 5021SOL    HW215963   1.490   1.880   5.918
 5022SOL     OW15964   1.462   0.812   0.626
 5022SOL    HW115965   1.530   0.771   0.687
 5022SOL    HW215966   1.492   0.800   0.531
 5023SOL     OW15967   6.331   3.170   0.812
 5023SOL    HW115968   6.236   3.197   0.826
 5023SOL    HW215969   6.354   3.180   0.715
 5024SOL     OW15970   6.006   5.883   2.573
 5024SOL    HW115971   6.062   5.936   2.509
 5024SOL    HW215972   5.913   5.922   2.576
 5025SOL     OW15973   3.719   1.912   2.267
 5025SOL    HW115974   3.781   1.943   2.195
 5025SOL    HW215975   3.651   1.983   2.285
 5026SOL     OW15976   6.157   6.336   6.514
 5026SOL    HW115977   6.140   6.432   6.538
 5026SOL    HW215978   6.235   6.302   6.566
 5027SOL     OW15979   0.809   6.535   2.346
 5027SOL    HW115980   0.804   6.440   2.375
 5027SOL    HW215981   0.904   6.562   2.335
 5028SOL     OW15982   0.366   6.728   3.390
 5028SOL    HW115983   0.440   6.676   3.346
 5028SOL    HW215984   0.365   6.709   3.488
 5029SOL     OW15985   0.415   3.177   3.210
 5029SOL    HW115986   0.480   3.243   3.248
 5029SOL    HW215987   0.332   3.177   3.266
 5030SOL     OW15988   6.490   0.764   6.361
 5030SOL    HW115989   6.523   0.788   6.270
 5030SOL    HW215990   6.567   0.759   6.424
 5031SOL     OW15991   5.972   0.685   4.595
 5031SOL    HW115992   5.987   0.658   4.690
 5031SOL    HW215993   5.877   0.717   4.584
 5032SOL     OW15994   1.506   3.056   0.727
 5032SOL    HW115995   1.550   3.109   0.799
 5032SOL    HW215996   1.495   2.961   0.756
 5033SOL     OW15997   2.709   6.103   6.644
 5033SOL    HW115998   2.772   6.174   6.614
 5033SOL    HW215999   2.722   6.021   6.589
 5034SOL     OW16000   5.992   1.176   2.910
 5034SOL    HW116001   5.893   1.191   2.900
 5034SOL    HW216002   6.009   1.080   2.932
 5035SOL     OW16003   0.021   4.074   0.207
 5035SOL    HW116004   6.971   4.002   0.191
 5035SOL    HW216005   0.109   4.034   0.232
 5036SOL     OW16006   0.268   4.939   6.885
 5036SOL    HW116007   0.304   4.883   6.960
 5036SOL    HW216008   0.297   4.900   6.798
 5037SOL     OW16009   5.495   2.292   2.627
 5037SOL    HW116010   5.434   2.288   2.547
 5037SOL    HW216011   5.583   2.331   2.599
 5038SOL     OW16012   2.039   3.817   5.900
 5038SOL    HW116013   2.088   3.901   5.879
 5038SOL    HW216014   2.096   3.757   5.956
 5039SOL     OW16015   3.031   3.820   5.508
 5039SOL    HW116016   3.007   3.917   5.500
 5039SOL    HW216017   3.079   3.790   5.426
 5040SOL     OW16018   1.942   4.640   6.209
 5040SOL    HW116019   1.899   4.665   6.122
 5040SOL    HW216020   1.927   4.713   6.276
 5041SOL     OW16021   1.857   1.927   1.384
 5041SOL    HW116022   1.881   1.903   1.289
 5041SOL    HW216023   1.793   1.859   1.419
 5042SOL     OW16024   5.796   3.045   1.124
 5042SOL    HW116025   5.786   2.948   1.100
 5042SOL    HW216026   5.784   3.055   1.223
 5043SOL     OW16027   2.808   1.242   5.786
 5043SOL    HW116028   2.785   1.167   5.847
 5043SOL    HW216029   2.725   1.272   5.738
 5044SOL     OW16030   6.592   6.142   2.337
 5044SOL    HW116031   6.521   6.079   2.304
 5044SOL    HW216032   6.648   6.096   2.406
 5045SOL     OW16033   5.810   3.217   0.466
 5045SOL    HW116034   5.753   3.242   0.388
 5045SOL    HW216035   5.785   3.274   0.544
 5046SOL     OW16036   3.575   4.196   4.149
 5046SOL    HW116037   3.629   4.280   4.152
 5046SOL    HW216038   3.576   4.153   4.239
 5047SOL     OW16039   0.180   3.226   2.501
 5047SOL    HW116040   0.163   3.323   2.521
 5047SOL    HW216041   0.167   3.173   2.585
 5048SOL     OW16042   0.466   1.184   1.809
 5048SOL    HW116043   0.458   1.193   1.908
 5048SOL    HW216044   0.541   1.241   1.776
 5049SOL     OW16045   6.060   2.114   4.644
 5049SOL    HW116046   6.015   2.084   4.728
 5049SOL    HW216047   6.149   2.069   4.636
 5050SOL     OW16048   0.987   0.947   1.856
 5050SOL    HW116049   0.988   0.895   1.941
 5050SOL    HW216050   1.065   1.009   1.854
 5051SOL     OW16051   4.187   3.434   0.607
 5051SOL    HW116052   4.260   3.497   0.582
 5051SOL    HW216053   4.159   3.451   0.702
 5052SOL     OW16054   2.583   5.759   5.949
 5052SOL    HW116055   2.584   5.847   5.902
 5052SOL    HW216056   2.589   5.685   5.882
 5053SOL     OW16057   1.997   3.935   3.849
 5053SOL    HW116058   1.949   3.943   3.761
 5053SOL    HW216059   1.930   3.914   3.921
 5054SOL     OW16060   3.881   5.757   5.180
 5054SOL    HW116061   3.803   5.711   5.222
 5054SOL    HW216062   3.918   5.701   5.107
 5055SOL     OW16063   1.603   6.881   5.672
 5055SOL    HW116064   1.702   6.880   5.691
 5055SOL    HW216065   1.586   6.835   5.585
 5056SOL     OW16066   6.255   4.078   0.470
 5056SOL    HW116067   6.355   4.080   0.463
 5056SOL    HW216068   6.228   4.001   0.529
 5057SOL     OW16069   0.112   5.446   5.080
 5057SOL    HW116070   0.211   5.439   5.065
 5057SOL    HW216071   0.065   5.446   4.992
 5058SOL     OW16072   2.533   3.372   5.331
 5058SOL    HW116073   2.503   3.277   5.340
 5058SOL    HW216074   2.624   3.375   5.290
 5059SOL     OW16075   5.530   3.255   3.399
 5059SOL    HW116076   5.527   3.157   3.420
 5059SOL    HW216077   5.503   3.307   3.480
 5060SOL     OW16078   0.542   2.465   5.597
 5060SOL    HW116079   0.450   2.501   5.586
 5060SOL    HW216080   0.595   2.523   5.659
 5061SOL     OW16081   3.496   3.192   3.360
 5061SOL    HW116082   3.485   3.095   3.339
 5061SOL    HW216083   3.574   3.204   3.421
 5062SOL     OW16084   5.869   0.995   3.114
 5062SOL    HW116085   5.849   0.973   3.209
 5062SOL    HW216086   5.924   0.921   3.074
 5063SOL     OW16087   1.299   0.087   2.131
 5063SOL    HW116088   1.206   0.076   2.165
 5063SOL    HW216089   1.340   7.014   2.116
 5064SOL     OW16090   4.271   4.162   1.672
 5064SOL    HW116091   4.344   4.179   1.737
 5064SOL    HW216092   4.293   4.205   1.584
 5065SOL     OW16093   1.081   1.901   3.225
 5065SOL    HW116094   1.078   1.844   3.143
 5065SOL    HW216095   1.020   1.979   3.214
 5066SOL     OW16096   3.805   4.860   1.137
 5066SOL    HW116097   3.900   4.830   1.142
 5066SOL    HW216098   3.746   4.791   1.179
 5067SOL     OW16099   3.029   1.249   2.451
 5067SOL    HW116100   2.953   1.198   2.409
 5067SOL    HW216101   3.065   1.197   2.528
 5068SOL     OW16102   2.995   4.850   0.437
 5068SOL    HW116103   3.042   4.774   0.481
 5068SOL    HW216104   3.061   4.921   0.412
 5069SOL     OW16105   1.802   2.300   5.812
 5069SOL    HW116106   1.881   2.282   5.752
 5069SOL    HW216107   1.788   2.220   5.870
 5070SOL     OW16108   5.045   4.798   4.470
 5070SOL    HW116109   5.008   4.804   4.563
 5070SOL    HW216110   5.068   4.890   4.438
 5071SOL     OW16111   4.025   1.830   3.581
 5071SOL    HW116112   4.027   1.881   3.667
 5071SOL    HW216113   3.930   1.814   3.554
 5072SOL     OW16114   1.166   0.752   1.561
 5072SOL    HW116115   1.101   0.824   1.584
 5072SOL    HW216116   1.239   0.750   1.630
 5073SOL     OW16117   1.334   4.259   0.851
 5073SOL    HW116118   1.363   4.167   0.825
 5073SOL    HW216119   1.249   4.254   0.904
 5074SOL     OW16120   3.059   2.107   1.887
 5074SOL    HW116121   3.028   2.196   1.922
 5074SOL    HW216122   3.092   2.051   1.963
 5075SOL     OW16123   1.493   2.232   6.318
 5075SOL    HW116124   1.534   2.268   6.402
 5075SOL    HW216125   1.495   2.132   6.320
 5076SOL     OW16126   5.720   0.109   0.965
 5076SOL    HW116127   5.708   0.011   0.981
 5076SOL    HW216128   5.713   0.158   1.052
 5077SOL     OW16129   1.553   4.189   5.819
 5077SOL    HW116130   1.600   4.177   5.731
 5077SOL    HW216131   1.617   4.230   5.885
 5078SOL     OW16132   0.430   1.027   4.270
 5078SOL    HW116133   0.464   0.935   4.248
 5078SOL    HW216134   0.426   1.082   4.187
 5079SOL     OW16135   2.397   2.689   4.894
 5079SOL    HW116136   2.407   2.767   4.955
 5079SOL    HW216137   2.475   2.683   4.832
 5080SOL     OW16138   6.145   6.446   5.840
 5080SOL    HW116139   6.122   6.363   5.891
 5080SOL    HW216140   6.243   6.463   5.847
 5081SOL     OW16141   2.406   3.946   6.059
 5081SOL    HW116142   2.325   3.958   6.001
 5081SOL    HW216143   2.385   3.978   6.151
 5082SOL     OW16144   4.985   6.191   1.131
 5082SOL    HW116145   4.904   6.215   1.078
 5082SOL    HW216146   4.956   6.157   1.221
 5083SOL     OW16147   2.651   0.868   2.675
 5083SOL    HW116148   2.694   0.922   2.747
 5083SOL    HW216149   2.592   0.799   2.716
 5084SOL     OW16150   0.840   4.846   3.847
 5084SOL    HW116151   0.855   4.882   3.755
 5084SOL    HW216152   0.855   4.747   3.847
 5085SOL     OW16153   6.469   2.515   5.469
 5085SOL    HW116154   6.544   2.498   5.532
 5085SOL    HW216155   6.454   2.614   5.460
 5086SOL     OW16156   1.620   5.425   3.088
 5086SOL    HW116157   1.609   5.355   3.158
 5086SOL    HW216158   1.596   5.386   2.999
 5087SOL     OW16159   1.146   5.115   2.162
 5087SOL    HW116160   1.102   5.025   2.159
 5087SOL    HW216161   1.077   5.186   2.170
 5088SOL     OW16162   6.106   6.749   4.032
 5088SOL    HW116163   6.032   6.815   4.030
 5088SOL    HW216164   6.154   6.750   3.944
 5089SOL     OW16165   6.348   4.363   3.574
 5089SOL    HW116166   6.371   4.404   3.662
 5089SOL    HW216167   6.426   4.371   3.512
 5090SOL     OW16168   1.839   3.285   2.448
 5090SOL    HW116169   1.799   3.205   2.402
 5090SOL    HW216170   1.939   3.279   2.443
 5091SOL     OW16171   0.036   1.439   1.474
 5091SOL    HW116172   0.017   1.480   1.563
 5091SOL    HW216173   7.016   1.498   1.402
 5092SOL     OW16174   3.427   3.432   3.276
 5092SOL    HW116175   3.509   3.483   3.250
 5092SOL    HW216176   3.451   3.337   3.298
 5093SOL     OW16177   3.118   0.922   0.466
 5093SOL    HW116178   3.200   0.964   0.429
 5093SOL    HW216179   3.112   0.827   0.433
 5094SOL     OW16180   2.519   5.442   6.057
 5094SOL    HW116181   2.422   5.420   6.070
 5094SOL    HW216182   2.534   5.465   5.961
 5095SOL     OW16183   6.699   2.478   2.766
 5095SOL    HW116184   6.749   2.400   2.728
 5095SOL    HW216185   6.687   2.465   2.865
 5096SOL     OW16186   4.245   4.850   6.491
 5096SOL    HW116187   4.177   4.910   6.533
 5096SOL    HW216188   4.334   4.897   6.490
 5097SOL     OW16189   0.889   0.405   6.643
 5097SOL    HW116190   0.900   0.431   6.739
 5097SOL    HW216191   0.978   0.378   6.606
 5098SOL     OW16192   2.668   0.851   2.187
 5098SOL    HW116193   2.747   0.810   2.141
 5098SOL    HW216194   2.690   0.865   2.284
 5099SOL     OW16195   0.640   0.046   1.177
 5099SOL    HW116196   0.738   0.065   1.172
 5099SOL    HW216197   0.621   7.003   1.255
 5100SOL     OW16198   3.047   5.793   4.359
 5100SOL    HW116199   2.969   5.837   4.402
 5100SOL    HW216200   3.127   5.853   4.366
 5101SOL     OW16201   4.030   7.005   6.600
 5101SOL    HW116202   4.051   0.062   6.664
 5101SOL    HW216203   3.959   0.019   6.537
 5102SOL     OW16204   5.742   6.249   3.830
 5102SOL    HW116205   5.771   6.162   3.791
 5102SOL    HW216206   5.801   6.322   3.796
 5103SOL     OW16207   0.013   1.134   4.211
 5103SOL    HW116208   7.007   1.214   4.267
 5103SOL    HW216209   0.102   1.097   4.240
 5104SOL     OW16210   1.610   5.849   2.021
 5104SOL    HW116211   1.523   5.896   2.027
 5104SOL    HW216212   1.662   5.862   2.106
 5105SOL     OW16213   2.677   2.452   0.062
 5105SOL    HW116214   2.691   2.403   6.993
 5105SOL    HW216215   2.606   2.521   0.050
 5106SOL     OW16216   4.241   1.848   0.526
 5106SOL    HW116217   4.336   1.878   0.515
 5106SOL    HW216218   4.184   1.928   0.545
 5107SOL     OW16219   4.193   2.217   1.303
 5107SOL    HW116220   4.205   2.277   1.224
 5107SOL    HW216221   4.273   2.224   1.363
 5108SOL     OW16222   3.912   3.895   4.951
 5108SOL    HW116223   3.974   3.827   4.912
 5108SOL    HW216224   3.875   3.953   4.878
 5109SOL     OW16225   0.789   2.130   6.642
 5109SOL    HW116226   0.789   2.031   6.659
 5109SOL    HW216227   0.764   2.178   6.726
 5110SOL     OW16228   0.718   0.064   6.371
 5110SOL    HW116229   0.731   0.075   6.272
 5110SOL    HW216230   0.729   0.152   6.416
 5111SOL     OW16231   1.133   0.474   4.676
 5111SOL    HW116232   1.155   0.548   4.613
 5111SOL    HW216233   1.088   0.399   4.627
 5112SOL     OW16234   1.483   7.002   3.234
 5112SOL    HW116235   1.565   6.990   3.290
 5112SOL    HW216236   1.466   6.918   3.182
 5113SOL     OW16237   1.899   6.275   0.958
 5113SOL    HW116238   1.861   6.300   1.047
 5113SOL    HW216239   1.925   6.358   0.909
 5114SOL     OW16240   4.115   0.243   6.714
 5114SOL    HW116241   4.184   0.312   6.691
 5114SOL    HW216242   4.119   0.223   6.812
 5115SOL     OW16243   1.371   5.202   3.671
 5115SOL    HW116244   1.352   5.260   3.750
 5115SOL    HW216245   1.466   5.212   3.644
 5116SOL     OW16246   0.840   6.506   6.921
 5116SOL    HW116247   0.854   6.443   6.998
 5116SOL    HW216248   0.798   6.456   6.845
 5117SOL     OW16249   1.659   4.334   4.466
 5117SOL    HW116250   1.583   4.268   4.461
 5117SOL    HW216251   1.702   4.328   4.556
 5118SOL     OW16252   5.278   0.890   0.027
 5118SOL    HW116253   5.254   0.841   0.111
 5118SOL    HW216254   5.309   0.824   6.974
 5119SOL     OW16255   5.600   0.467   2.417
 5119SOL    HW116256   5.642   0.519   2.492
 5119SOL    HW216257   5.501   0.474   2.424
 5120SOL     OW16258   3.955   0.207   4.027
 5120SOL    HW116259   4.028   0.274   4.036
 5120SOL    HW216260   3.875   0.250   3.984
 5121SOL     OW16261   2.853   2.892   6.858
 5121SOL    HW116262   2.925   2.939   6.909
 5121SOL    HW216263   2.845   2.932   6.767
 5122SOL     OW16264   3.387   6.235   3.552
 5122SOL    HW116265   3.416   6.326   3.522
 5122SOL    HW216266   3.467   6.182   3.581
 5123SOL     OW16267   4.166   2.039   4.451
 5123SOL    HW116268   4.082   2.079   4.414
 5123SOL    HW216269   4.201   1.971   4.386
 5124SOL     OW16270   2.240   5.500   4.671
 5124SOL    HW116271   2.197   5.559   4.603
 5124SOL    HW216272   2.338   5.519   4.675
 5125SOL     OW16273   6.094   3.673   3.967
 5125SOL    HW116274   6.019   3.665   4.033
 5125SOL    HW216275   6.120   3.582   3.935
 5126SOL     OW16276   6.285   5.343   5.531
 5126SOL    HW116277   6.236   5.261   5.503
 5126SOL    HW216278   6.274   5.356   5.629
 5127SOL     OW16279   0.912   3.914   0.173
 5127SOL    HW116280   1.011   3.924   0.161
 5127SOL    HW216281   0.869   3.902   0.083
 5128SOL     OW16282   6.854   0.536   6.177
 5128SOL    HW116283   6.820   0.494   6.092
 5128SOL    HW216284   6.777   0.573   6.228
 5129SOL     OW16285   6.370   0.094   2.611
 5129SOL    HW116286   6.434   0.167   2.635
 5129SOL    HW216287   6.362   0.088   2.511
 5130SOL     OW16288   0.105   5.353   4.040
 5130SOL    HW116289   0.123   5.446   4.006
 5130SOL    HW216290   0.177   5.292   4.008
 5131SOL     OW16291   2.253   4.657   4.312
 5131SOL    HW116292   2.298   4.568   4.301
 5131SOL    HW216293   2.297   4.725   4.253
 5132SOL     OW16294   3.634   2.704   0.048
 5132SOL    HW116295   3.575   2.784   0.062
 5132SOL    HW216296   3.730   2.732   0.050
 5133SOL     OW16297   2.197   5.478   0.100
 5133SOL    HW116298   2.143   5.543   0.154
 5133SOL    HW216299   2.188   5.386   0.139
 5134SOL     OW16300   0.563   3.377   3.080
 5134SOL    HW116301   0.623   3.433   3.024
 5134SOL    HW216302   0.474   3.368   3.035
 5135SOL     OW16303   5.679   3.001   4.642
 5135SOL    HW116304   5.777   2.982   4.646
 5135SOL    HW216305   5.629   2.927   4.688
 5136SOL     OW16306   4.614   0.770   6.011
 5136SOL    HW116307   4.636   0.837   6.082
 5136SOL    HW216308   4.603   0.817   5.923
 5137SOL     OW16309   4.876   3.150   5.461
 5137SOL    HW116310   4.958   3.094   5.474
 5137SOL    HW216311   4.811   3.131   5.535
 5138SOL     OW16312   3.277   2.903   5.524
 5138SOL    HW116313   3.187   2.918   5.485
 5138SOL    HW216314   3.319   2.990   5.547
 5139SOL     OW16315   1.066   0.587   3.286
 5139SOL    HW116316   1.160   0.599   3.319
 5139SOL    HW216317   1.003   0.601   3.363
 5140SOL     OW16318   4.191   2.736   0.178
 5140SOL    HW116319   4.248   2.750   0.097
 5140SOL    HW216320   4.159   2.824   0.212
 5141SOL     OW16321   6.802   3.712   0.684
 5141SOL    HW116322   6.873   3.774   0.649
 5141SOL    HW216323   6.777   3.647   0.612
 5142SOL     OW16324   6.057   0.066   3.497
 5142SOL    HW116325   5.987   0.135   3.511
 5142SOL    HW216326   6.102   0.080   3.408
 5143SOL     OW16327   6.654   4.567   3.618
 5143SOL    HW116328   6.601   4.590   3.699
 5143SOL    HW216329   6.607   4.600   3.536
 5144SOL     OW16330   0.382   4.732   6.113
 5144SOL    HW116331   0.373   4.644   6.065
 5144SOL    HW216332   0.434   4.719   6.197
 5145SOL     OW16333   2.895   4.936   5.878
 5145SOL    HW116334   2.836   5.005   5.920
 5145SOL    HW216335   2.981   4.930   5.929
 5146SOL     OW16336   3.583   4.047   5.490
 5146SOL    HW116337   3.600   4.052   5.391
 5146SOL    HW216338   3.524   3.969   5.509
 5147SOL     OW16339   6.859   5.223   2.830
 5147SOL    HW116340   6.928   5.186   2.768
 5147SOL    HW216341   6.772   5.177   2.813
 5148SOL     OW16342   6.766   5.997   1.289
 5148SOL    HW116343   6.778   5.901   1.315
 5148SOL    HW216344   6.680   6.032   1.326
 5149SOL     OW16345   6.196   5.531   2.768
 5149SOL    HW116346   6.202   5.470   2.847
 5149SOL    HW216347   6.157   5.618   2.796
 5150SOL     OW16348   2.374   5.508   2.914
 5150SOL    HW116349   2.360   5.413   2.885
 5150SOL    HW216350   2.287   5.557   2.909
 5151SOL     OW16351   6.333   2.327   0.903
 5151SOL    HW116352   6.426   2.292   0.911
 5151SOL    HW216353   6.270   2.251   0.887
 5152SOL     OW16354   2.528   4.618   0.361
 5152SOL    HW116355   2.476   4.702   0.342
 5152SOL    HW216356   2.614   4.642   0.404
 5153SOL     OW16357   1.889   0.685   0.208
 5153SOL    HW116358   1.950   0.689   0.287
 5153SOL    HW216359   1.871   0.778   0.176
 5154SOL     OW16360   0.848   3.039   6.057
 5154SOL    HW116361   0.933   3.080   6.089
 5154SOL    HW216362   0.773   3.104   6.069
 5155SOL     OW16363   4.531   6.854   1.842
 5155SOL    HW116364   4.436   6.885   1.850
 5155SOL    HW216365   4.591   6.920   1.888
 5156SOL     OW16366   5.796   3.789   5.920
 5156SOL    HW116367   5.767   3.781   6.016
 5156SOL    HW216368   5.874   3.851   5.915
 5157SOL     OW16369   3.775   2.073   3.306
 5157SOL    HW116370   3.787   2.128   3.388
 5157SOL    HW216371   3.864   2.053   3.265
 5158SOL     OW16372   3.445   1.244   1.604
 5158SOL    HW116373   3.501   1.195   1.670
 5158SOL    HW216374   3.464   1.342   1.609
 5159SOL     OW16375   6.941   3.658   4.620
 5159SOL    HW116376   6.890   3.686   4.539
 5159SOL    HW216377   0.021   3.684   4.609
 5160SOL     OW16378   0.064   5.307   3.000
 5160SOL    HW116379   7.008   5.265   2.945
 5160SOL    HW216380   0.023   5.365   3.070
 5161SOL     OW16381   1.367   3.757   5.682
 5161SOL    HW116382   1.429   3.809   5.740
 5161SOL    HW216383   1.398   3.662   5.677
 5162SOL     OW16384   1.299   5.486   2.907
 5162SOL    HW116385   1.378   5.475   2.846
 5162SOL    HW216386   1.263   5.579   2.898
 5163SOL     OW16387   3.584   6.472   0.109
 5163SOL    HW116388   3.600   6.373   0.107
 5163SOL    HW216389   3.489   6.491   0.086
 5164SOL     OW16390   3.979   2.579   0.234
 5164SOL    HW116391   4.054   2.637   0.202
 5164SOL    HW216392   3.902   2.636   0.262
 5165SOL     OW16393   6.062   4.466   6.061
 5165SOL    HW116394   6.043   4.438   6.155
 5165SOL    HW216395   6.161   4.476   6.048
 5166SOL     OW16396   0.634   5.295   2.678
 5166SOL    HW116397   0.537   5.321   2.670
 5166SOL    HW216398   0.640   5.198   2.700
 5167SOL     OW16399   6.569   6.301   6.779
 5167SOL    HW116400   6.500   6.236   6.810
 5167SOL    HW216401   6.580   6.294   6.680
 5168SOL     OW16402   5.661   4.090   2.192
 5168SOL    HW116403   5.715   4.070   2.110
 5168SOL    HW216404   5.577   4.037   2.190
 5169SOL     OW16405   3.854   1.672   4.628
 5169SOL    HW116406   3.848   1.709   4.721
 5169SOL    HW216407   3.944   1.692   4.589
 5170SOL     OW16408   0.595   4.343   5.747
 5170SOL    HW116409   0.509   4.369   5.791
 5170SOL    HW216410   0.671   4.376   5.802
 5171SOL     OW16411   1.267   5.885   4.526
 5171SOL    HW116412   1.307   5.954   4.466
 5171SOL    HW216413   1.171   5.872   4.502
 5172SOL     OW16414   1.141   2.032   2.329
 5172SOL    HW116415   1.118   2.060   2.236
 5172SOL    HW216416   1.211   1.961   2.325
 5173SOL     OW16417   4.983   4.751   5.892
 5173SOL    HW116418   5.079   4.723   5.898
 5173SOL    HW216419   4.941   4.744   5.983
 5174SOL     OW16420   2.230   4.910   3.619
 5174SOL    HW116421   2.312   4.957   3.652
 5174SOL    HW216422   2.255   4.851   3.542
 5175SOL     OW16423   2.305   3.371   0.211
 5175SOL    HW116424   2.317   3.373   0.311
 5175SOL    HW216425   2.207   3.369   0.190
 5176SOL     OW16426   4.591   2.811   6.588
 5176SOL    HW116427   4.596   2.716   6.617
 5176SOL    HW216428   4.670   2.861   6.625
 5177SOL     OW16429   5.412   0.567   0.178
 5177SOL    HW116430   5.456   0.502   0.240
 5177SOL    HW216431   5.347   0.623   0.229
 5178SOL     OW16432   1.054   4.402   2.198
 5178SOL    HW116433   0.957   4.387   2.218
 5178SOL    HW216434   1.109   4.332   2.244
 5179SOL     OW16435   3.828   6.290   3.771
 5179SOL    HW116436   3.911   6.257   3.816
 5179SOL    HW216437   3.809   6.383   3.802
 5180SOL     OW16438   2.911   2.934   1.066
 5180SOL    HW116439   2.823   2.981   1.066
 5180SOL    HW216440   2.982   2.996   1.033
 5181SOL     OW16441   6.219   1.633   2.029
 5181SOL    HW116442   6.145   1.595   2.084
 5181SOL    HW216443   6.227   1.731   2.046
 5182SOL     OW16444   3.858   4.338   1.643
 5182SOL    HW116445   3.817   4.428   1.651
 5182SOL    HW216446   3.922   4.337   1.566
 5183SOL     OW16447   4.543   1.596   2.929
 5183SOL    HW116448   4.591   1.668   2.878
 5183SOL    HW216449   4.466   1.636   2.979
 5184SOL     OW16450   0.360   2.187   4.432
 5184SOL    HW116451   0.267   2.195   4.398
 5184SOL    HW216452   0.392   2.276   4.462
 5185SOL     OW16453   5.623   1.051   2.454
 5185SOL    HW116454   5.600   0.954   2.465
 5185SOL    HW216455   5.555   1.095   2.396
 5186SOL     OW16456   6.397   3.298   1.198
 5186SOL    HW116457   6.415   3.375   1.259
 5186SOL    HW216458   6.298   3.290   1.183
 5187SOL     OW16459   0.724   6.817   4.063
 5187SOL    HW116460   0.703   6.779   3.974
 5187SOL    HW216461   0.666   6.775   4.133
 5188SOL     OW16462   0.513   5.759   0.927
 5188SOL    HW116463   0.467   5.758   1.016
 5188SOL    HW216464   0.452   5.794   0.857
 5189SOL     OW16465   4.361   4.851   0.577
 5189SOL    HW116466   4.378   4.826   0.481
 5189SOL    HW216467   4.370   4.769   0.634
 5190SOL     OW16468   0.045   2.540   4.293
 5190SOL    HW116469   0.124   2.511   4.239
 5190SOL    HW216470   0.024   2.635   4.272
 5191SOL     OW16471   4.319   0.441   1.768
 5191SOL    HW116472   4.281   0.387   1.693
 5191SOL    HW216473   4.419   0.435   1.766
 5192SOL     OW16474   2.811   5.674   2.907
 5192SOL    HW116475   2.790   5.771   2.903
 5192SOL    HW216476   2.751   5.624   2.845
 5193SOL     OW16477   4.905   4.427   4.946
 5193SOL    HW116478   4.932   4.375   4.865
 5193SOL    HW216479   4.816   4.395   4.979
 5194SOL     OW16480   4.702   1.900   0.374
 5194SOL    HW116481   4.658   1.929   0.289
 5194SOL    HW216482   4.796   1.933   0.376
 5195SOL     OW16483   5.899   6.275   4.607
 5195SOL    HW116484   5.858   6.303   4.694
 5195SOL    HW216485   5.957   6.349   4.573
 5196SOL     OW16486   3.235   4.843   0.828
 5196SOL    HW116487   3.189   4.913   0.775
 5196SOL    HW216488   3.228   4.865   0.926
 5197SOL     OW16489   2.183   5.520   5.092
 5197SOL    HW116490   2.193   5.597   5.154
 5197SOL    HW216491   2.274   5.487   5.065
 5198SOL     OW16492   3.710   6.514   2.993
 5198SOL    HW116493   3.662   6.497   3.079
 5198SOL    HW216494   3.785   6.449   2.982
 5199SOL     OW16495   1.445   5.759   0.476
 5199SOL    HW116496   1.518   5.827   0.484
 5199SOL    HW216497   1.456   5.689   0.546
 5200SOL     OW16498   1.310   2.220   5.098
 5200SOL    HW116499   1.348   2.163   5.170
 5200SOL    HW216500   1.285   2.309   5.136
 5201SOL     OW16501   0.089   6.387   4.105
 5201SOL    HW116502   0.136   6.351   4.185
 5201SOL    HW216503   0.071   6.312   4.041
 5202SOL     OW16504   6.103   4.147   5.571
 5202SOL    HW116505   6.061   4.056   5.564
 5202SOL    HW216506   6.199   4.137   5.596
 5203SOL     OW16507   2.376   1.333   6.472
 5203SOL    HW116508   2.392   1.430   6.490
 5203SOL    HW216509   2.382   1.316   6.374
 5204SOL     OW16510   4.341   6.231   6.866
 5204SOL    HW116511   4.347   6.297   6.791
 5204SOL    HW216512   4.349   6.279   6.953
 5205SOL     OW16513   0.308   5.829   0.760
 5205SOL    HW116514   0.298   5.927   0.742
 5205SOL    HW216515   0.220   5.791   0.789
 5206SOL     OW16516   0.664   5.099   0.470
 5206SOL    HW116517   0.724   5.057   0.403
 5206SOL    HW216518   0.658   5.198   0.453
 5207SOL     OW16519   1.431   6.979   3.645
 5207SOL    HW116520   1.354   0.005   3.692
 5207SOL    HW216521   1.413   6.975   3.547
 5208SOL     OW16522   5.140   2.373   0.133
 5208SOL    HW116523   5.207   2.427   0.184
 5208SOL    HW216524   5.061   2.353   0.191
 5209SOL     OW16525   5.547   0.123   2.077
 5209SOL    HW116526   5.617   0.053   2.096
 5209SOL    HW216527   5.528   0.124   1.979
 5210SOL     OW16528   4.555   3.144   0.423
 5210SOL    HW116529   4.508   3.134   0.511
 5210SOL    HW216530   4.646   3.104   0.430
 5211SOL     OW16531   4.034   2.504   5.889
 5211SOL    HW116532   4.117   2.474   5.841
 5211SOL    HW216533   3.955   2.452   5.856
 5212SOL     OW16534   0.890   2.833   0.577
 5212SOL    HW116535   0.903   2.927   0.545
 5212SOL    HW216536   0.976   2.799   0.615
 5213SOL     OW16537   4.180   3.948   0.389
 5213SOL    HW116538   4.096   3.988   0.351
 5213SOL    HW216539   4.191   3.854   0.355
 5214SOL     OW16540   4.805   2.430   6.659
 5214SOL    HW116541   4.899   2.456   6.640
 5214SOL    HW216542   4.771   2.482   6.737
 5215SOL     OW16543   1.094   4.786   4.063
 5215SOL    HW116544   1.064   4.881   4.066
 5215SOL    HW216545   1.193   4.783   4.048
 5216SOL     OW16546   4.173   4.830   1.525
 5216SOL    HW116547   4.075   4.839   1.541
 5216SOL    HW216548   4.223   4.884   1.593
 5217SOL     OW16549   3.616   5.335   4.435
 5217SOL    HW116550   3.540   5.318   4.371
 5217SOL    HW216551   3.702   5.305   4.394
 5218SOL     OW16552   0.823   0.632   1.407
 5218SOL    HW116553   0.820   0.690   1.326
 5218SOL    HW216554   0.867   0.545   1.385
 5219SOL     OW16555   3.561   1.509   5.013
 5219SOL    HW116556   3.573   1.470   5.104
 5219SOL    HW216557   3.646   1.554   4.984
 5220SOL     OW16558   1.365   5.896   2.316
 5220SOL    HW116559   1.430   5.928   2.385
 5220SOL    HW216560   1.272   5.920   2.343
 5221SOL     OW16561   5.985   1.797   3.232
 5221SOL    HW116562   5.948   1.707   3.212
 5221SOL    HW216563   6.081   1.801   3.203
 5222SOL     OW16564   3.933   6.639   2.537
 5222SOL    HW116565   3.883   6.683   2.462
 5222SOL    HW216566   3.885   6.557   2.567
 5223SOL     OW16567   6.332   2.487   0.485
 5223SOL    HW116568   6.285   2.401   0.463
 5223SOL    HW216569   6.305   2.516   0.577
 5224SOL     OW16570   6.216   2.732   4.835
 5224SOL    HW116571   6.200   2.830   4.825
 5224SOL    HW216572   6.202   2.687   4.747
 5225SOL     OW16573   7.014   0.697   3.828
 5225SOL    HW116574   0.026   0.645   3.909
 5225SOL    HW216575   0.037   0.789   3.833
 5226SOL     OW16576   6.757   6.923   4.631
 5226SOL    HW116577   6.711   6.981   4.563
 5226SOL    HW216578   6.839   6.883   4.590
 5227SOL     OW16579   0.146   3.178   5.525
 5227SOL    HW116580   0.204   3.206   5.602
 5227SOL    HW216581   0.158   3.080   5.508
 5228SOL     OW16582   0.096   2.409   0.528
 5228SOL    HW116583   0.007   2.440   0.496
 5228SOL    HW216584   0.091   2.389   0.626
 5229SOL     OW16585   2.670   6.334   0.316
 5229SOL    HW116586   2.584   6.296   0.351
 5229SOL    HW216587   2.743   6.317   0.383
 5230SOL     OW16588   0.439   5.937   1.921
 5230SOL    HW116589   0.384   5.966   2.000
 5230SOL    HW216590   0.456   5.839   1.927
 5231SOL     OW16591   4.875   2.547   4.482
 5231SOL    HW116592   4.828   2.601   4.412
 5231SOL    HW216593   4.926   2.609   4.542
 5232SOL     OW16594   1.611   3.562   6.209
 5232SOL    HW116595   1.642   3.600   6.295
 5232SOL    HW216596   1.685   3.509   6.167
 5233SOL     OW16597   4.127   1.269   2.425
 5233SOL    HW116598   4.097   1.313   2.340
 5233SOL    HW216599   4.068   1.298   2.500
 5234SOL     OW16600   2.620   1.686   6.160
 5234SOL    HW116601   2.698   1.677   6.098
 5234SOL    HW216602   2.651   1.721   6.248
 5235SOL     OW16603   1.767   2.481   0.891
 5235SOL    HW116604   1.803   2.572   0.911
 5235SOL    HW216605   1.818   2.413   0.943
 5236SOL     OW16606   4.529   5.189   1.937
 5236SOL    HW116607   4.522   5.162   1.841
 5236SOL    HW216608   4.558   5.111   1.991
 5237SOL     OW16609   1.062   0.688   4.875
 5237SOL    HW116610   1.081   0.612   4.813
 5237SOL    HW216611   1.052   0.654   4.969
 5238SOL     OW16612   0.908   4.615   0.279
 5238SOL    HW116613   0.897   4.694   0.218
 5238SOL    HW216614   0.984   4.632   0.342
 5239SOL     OW16615   3.479   3.080   5.204
 5239SOL    HW116616   3.522   3.081   5.114
 5239SOL    HW216617   3.464   2.985   5.233
 5240SOL     OW16618   3.034   2.273   5.559
 5240SOL    HW116619   3.007   2.330   5.480
 5240SOL    HW216620   3.081   2.192   5.526
 5241SOL     OW16621   0.347   5.138   4.519
 5241SOL    HW116622   0.389   5.228   4.524
 5241SOL    HW216623   0.332   5.113   4.423
 5242SOL     OW16624   6.558   6.617   0.306
 5242SOL    HW116625   6.477   6.589   0.253
 5242SOL    HW216626   6.536   6.614   0.403
 5243SOL     OW16627   1.844   5.628   1.546
 5243SOL    HW116628   1.855   5.600   1.641
 5243SOL    HW216629   1.752   5.665   1.533
 5244SOL     OW16630   2.821   5.126   6.997
 5244SOL    HW116631   2.900   5.073   6.964
 5244SOL    HW216632   2.742   5.065   7.006
 5245SOL     OW16633   4.470   4.401   0.234
 5245SOL    HW116634   4.471   4.316   0.286
 5245SOL    HW216635   4.452   4.381   0.138
 5246SOL     OW16636   6.107   3.316   1.489
 5246SOL    HW116637   6.126   3.297   1.393
 5246SOL    HW216638   6.136   3.409   1.512
 5247SOL     OW16639   2.069   0.729   6.510
 5247SOL    HW116640   2.116   0.703   6.426
 5247SOL    HW216641   1.995   0.793   6.490
 5248SOL     OW16642   5.900   2.283   3.025
 5248SOL    HW116643   5.854   2.310   3.109
 5248SOL    HW216644   5.973   2.348   3.004
 5249SOL     OW16645   0.519   5.314   6.143
 5249SOL    HW116646   0.459   5.269   6.077
 5249SOL    HW216647   0.563   5.393   6.099
 5250SOL     OW16648   2.262   5.842   6.602
 5250SOL    HW116649   2.237   5.753   6.565
 5250SOL    HW216650   2.321   5.890   6.537
 5251SOL     OW16651   0.453   3.201   6.892
 5251SOL    HW116652   0.442   3.142   6.973
 5251SOL    HW216653   0.543   3.245   6.895
 5252SOL     OW16654   1.988   6.601   0.456
 5252SOL    HW116655   1.935   6.517   0.446
 5252SOL    HW216656   1.928   6.674   0.488
 5253SOL     OW16657   6.091   4.571   4.789
 5253SOL    HW116658   6.004   4.569   4.739
 5253SOL    HW216659   6.084   4.636   4.864
 5254SOL     OW16660   4.692   0.488   2.809
 5254SOL    HW116661   4.602   0.454   2.783
 5254SOL    HW216662   4.720   0.561   2.747
 5255SOL     OW16663   5.599   1.918   5.291
 5255SOL    HW116664   5.572   1.827   5.258
 5255SOL    HW216665   5.612   1.915   5.390
 5256SOL     OW16666   4.331   1.853   3.740
 5256SOL    HW116667   4.395   1.850   3.817
 5256SOL    HW216668   4.248   1.900   3.768
 5257SOL     OW16669   5.285   6.998   1.940
 5257SOL    HW116670   5.306   0.076   1.914
 5257SOL    HW216671   5.367   6.941   1.931
 5258SOL     OW16672   6.169   3.134   1.753
 5258SOL    HW116673   6.196   3.230   1.739
 5258SOL    HW216674   6.129   3.098   1.669
 5259SOL     OW16675   4.946   6.315   2.165
 5259SOL    HW116676   5.046   6.308   2.159
 5259SOL    HW216677   4.918   6.305   2.261
 5260SOL     OW16678   4.468   3.296   0.735
 5260SOL    HW116679   4.517   3.311   0.820
 5260SOL    HW216680   4.438   3.200   0.730
 5261SOL     OW16681   0.709   3.647   6.514
 5261SOL    HW116682   0.614   3.620   6.494
 5261SOL    HW216683   0.743   3.592   6.591
 5262SOL     OW16684   2.572   1.173   3.655
 5262SOL    HW116685   2.573   1.090   3.711
 5262SOL    HW216686   2.608   1.249   3.708
 5263SOL     OW16687   2.363   1.720   3.787
 5263SOL    HW116688   2.439   1.743   3.727
 5263SOL    HW216689   2.349   1.621   3.788
 5264SOL     OW16690   6.802   2.628   2.023
 5264SOL    HW116691   6.741   2.680   2.083
 5264SOL    HW216692   6.763   2.625   1.930
 5265SOL     OW16693   6.350   3.799   3.968
 5265SOL    HW116694   6.255   3.782   3.997
 5265SOL    HW216695   6.385   3.880   4.016
 5266SOL     OW16696   2.938   5.799   0.327
 5266SOL    HW116697   2.963   5.709   0.291
 5266SOL    HW216698   3.017   5.841   0.371
 5267SOL     OW16699   5.476   3.196   5.276
 5267SOL    HW116700   5.544   3.149   5.332
 5267SOL    HW216701   5.475   3.157   5.184
 5268SOL     OW16702   5.937   1.045   6.899
 5268SOL    HW116703   5.937   1.119   6.831
 5268SOL    HW216704   5.939   0.957   6.852
 5269SOL     OW16705   1.357   6.390   2.869
 5269SOL    HW116706   1.282   6.336   2.907
 5269SOL    HW216707   1.374   6.469   2.927
 5270SOL     OW16708   6.020   0.797   0.977
 5270SOL    HW116709   6.067   0.864   0.920
 5270SOL    HW216710   6.054   0.705   0.957
 5271SOL     OW16711   6.502   5.536   5.454
 5271SOL    HW116712   6.594   5.533   5.415
 5271SOL    HW216713   6.445   5.466   5.411
 5272SOL     OW16714   2.920   5.570   1.873
 5272SOL    HW116715   2.946   5.486   1.827
 5272SOL    HW216716   2.840   5.554   1.932
 5273SOL     OW16717   6.752   3.044   3.908
 5273SOL    HW116718   6.702   3.028   3.993
 5273SOL    HW216719   6.712   3.122   3.860
 5274SOL     OW16720   6.418   6.538   2.849
 5274SOL    HW116721   6.460   6.628   2.864
 5274SOL    HW216722   6.425   6.514   2.752
 5275SOL     OW16723   3.799   2.054   1.409
 5275SOL    HW116724   3.814   2.091   1.317
 5275SOL    HW216725   3.737   2.115   1.459
 5276SOL     OW16726   1.962   0.096   1.214
 5276SOL    HW116727   1.934   0.004   1.185
 5276SOL    HW216728   1.883   0.157   1.212
 5277SOL     OW16729   1.332   1.461   2.491
 5277SOL    HW116730   1.289   1.395   2.553
 5277SOL    HW216731   1.288   1.550   2.503
 5278SOL     OW16732   6.090   0.062   3.960
 5278SOL    HW116733   6.164   0.129   3.961
 5278SOL    HW216734   6.124   6.991   3.928
 5279SOL     OW16735   2.245   5.074   6.250
 5279SOL    HW116736   2.280   4.985   6.281
 5279SOL    HW216737   2.322   5.135   6.229
 5280SOL     OW16738   2.471   6.186   4.870
 5280SOL    HW116739   2.409   6.264   4.861
 5280SOL    HW216740   2.535   6.202   4.945
 5281SOL     OW16741   6.938   2.673   2.616
 5281SOL    HW116742   6.976   2.651   2.526
 5281SOL    HW216743   6.844   2.639   2.622
 5282SOL     OW16744   3.033   2.030   4.055
 5282SOL    HW116745   3.070   1.949   4.099
 5282SOL    HW216746   2.933   2.030   4.062
 5283SOL     OW16747   4.314   6.901   1.335
 5283SOL    HW116748   4.256   6.880   1.414
 5283SOL    HW216749   4.264   6.959   1.271
 5284SOL     OW16750   5.101   3.426   3.161
 5284SOL    HW116751   5.052   3.383   3.085
 5284SOL    HW216752   5.101   3.526   3.149
 5285SOL     OW16753   2.478   4.837   3.921
 5285SOL    HW116754   2.533   4.907   3.965
 5285SOL    HW216755   2.536   4.778   3.865
 5286SOL     OW16756   1.633   4.497   0.363
 5286SOL    HW116757   1.695   4.574   0.345
 5286SOL    HW216758   1.684   4.412   0.358
 5287SOL     OW16759   2.682   6.617   0.818
 5287SOL    HW116760   2.655   6.590   0.910
 5287SOL    HW216761   2.719   6.710   0.820
 5288SOL     OW16762   3.367   0.387   1.842
 5288SOL    HW116763   3.386   0.449   1.766
 5288SOL    HW216764   3.277   0.408   1.880
 5289SOL     OW16765   1.916   4.833   6.380
 5289SOL    HW116766   1.986   4.875   6.437
 5289SOL    HW216767   1.827   4.873   6.401
 5290SOL     OW16768   1.482   5.599   5.145
 5290SOL    HW116769   1.481   5.520   5.206
 5290SOL    HW216770   1.505   5.569   5.052
 5291SOL     OW16771   2.476   5.207   6.240
 5291SOL    HW116772   2.507   5.196   6.334
 5291SOL    HW216773   2.525   5.283   6.198
 5292SOL     OW16774   6.010   3.142   6.576
 5292SOL    HW116775   6.011   3.107   6.669
 5292SOL    HW216776   5.925   3.114   6.531
 5293SOL     OW16777   0.347   0.511   5.035
 5293SOL    HW116778   0.271   0.541   5.094
 5293SOL    HW216779   0.354   0.572   4.956
 5294SOL     OW16780   4.527   3.383   5.574
 5294SOL    HW116781   4.627   3.379   5.570
 5294SOL    HW216782   4.492   3.414   5.485
 5295SOL     OW16783   5.891   0.802   2.756
 5295SOL    HW116784   5.962   0.735   2.737
 5295SOL    HW216785   5.929   0.876   2.813
 5296SOL     OW16786   2.061   5.262   6.987
 5296SOL    HW116787   1.973   5.241   0.011
 5296SOL    HW216788   2.058   5.353   6.944
 5297SOL     OW16789   2.020   2.156   1.909
 5297SOL    HW116790   1.984   2.249   1.918
 5297SOL    HW216791   2.119   2.161   1.896
 5298SOL     OW16792   0.675   5.510   1.015
 5298SOL    HW116793   0.691   5.518   1.114
 5298SOL    HW216794   0.641   5.597   0.980
 5299SOL     OW16795   2.683   2.453   0.525
 5299SOL    HW116796   2.653   2.548   0.512
 5299SOL    HW216797   2.781   2.452   0.544
 5300SOL     OW16798   0.469   5.727   2.759
 5300SOL    HW116799   0.489   5.781   2.841
 5300SOL    HW216800   0.555   5.704   2.713
 5301SOL     OW16801   4.672   1.670   0.518
 5301SOL    HW116802   4.681   1.764   0.486
 5301SOL    HW216803   4.592   1.628   0.475
 5302SOL     OW16804   5.564   4.607   3.190
 5302SOL    HW116805   5.550   4.694   3.237
 5302SOL    HW216806   5.598   4.539   3.255
 5303SOL     OW16807   0.006   6.201   3.915
 5303SOL    HW116808   0.013   6.120   3.858
 5303SOL    HW216809   6.931   6.241   3.907
 5304SOL     OW16810   6.467   2.034   5.674
 5304SOL    HW116811   6.482   1.955   5.734
 5304SOL    HW216812   6.397   2.093   5.713
 5305SOL     OW16813   1.906   6.558   4.575
 5305SOL    HW116814   1.902   6.605   4.486
 5305SOL    HW216815   1.823   6.577   4.627
 5306SOL     OW16816   0.913   5.480   5.233
 5306SOL    HW116817   0.856   5.562   5.232
 5306SOL    HW216818   0.882   5.418   5.304
 5307SOL     OW16819   4.096   6.662   6.808
 5307SOL    HW116820   4.016   6.713   6.777
 5307SOL    HW216821   4.177   6.720   6.801
 5308SOL     OW16822   0.562   6.896   4.533
 5308SOL    HW116823   0.647   6.942   4.561
 5308SOL    HW216824   0.550   6.813   4.587
 5309SOL     OW16825   3.149   3.917   2.383
 5309SOL    HW116826   3.113   3.963   2.302
 5309SOL    HW216827   3.225   3.970   2.421
 5310SOL     OW16828   5.372   2.771   1.941
 5310SOL    HW116829   5.297   2.816   1.892
 5310SOL    HW216830   5.345   2.756   2.036
 5311SOL     OW16831   0.140   5.995   1.056
 5311SOL    HW116832   0.092   6.080   1.079
 5311SOL    HW216833   0.189   6.007   0.970
 5312SOL     OW16834   6.768   3.951   2.671
 5312SOL    HW116835   6.790   3.958   2.574
 5312SOL    HW216836   6.726   4.037   2.702
 5313SOL     OW16837   1.026   6.012   0.234
 5313SOL    HW116838   1.106   5.994   0.291
 5313SOL    HW216839   1.056   6.047   0.145
 5314SOL     OW16840   3.679   4.726   0.460
 5314SOL    HW116841   3.582   4.738   0.483
 5314SOL    HW216842   3.732   4.716   0.545
 5315SOL     OW16843   4.129   4.315   1.006
 5315SOL    HW116844   4.151   4.405   0.967
 5315SOL    HW216845   4.089   4.257   0.936
 5316SOL     OW16846   6.694   5.178   4.851
 5316SOL    HW116847   6.769   5.223   4.802
 5316SOL    HW216848   6.607   5.203   4.809
 5317SOL     OW16849   6.578   1.343   4.778
 5317SOL    HW116850   6.655   1.285   4.753
 5317SOL    HW216851   6.501   1.324   4.716
 5318SOL     OW16852   0.463   1.907   5.791
 5318SOL    HW116853   0.511   1.820   5.781
 5318SOL    HW216854   0.496   1.954   5.873
 5319SOL     OW16855   5.092   6.933   0.040
 5319SOL    HW116856   5.053   6.850   7.016
 5319SOL    HW216857   5.135   6.988   6.984
 5320SOL     OW16858   5.543   5.244   6.612
 5320SOL    HW116859   5.593   5.273   6.531
 5320SOL    HW216860   5.605   5.199   6.676
 5321SOL     OW16861   0.654   4.901   2.465
 5321SOL    HW116862   0.700   4.832   2.522
 5321SOL    HW216863   0.584   4.948   2.519
 5322SOL     OW16864   3.644   6.553   6.208
 5322SOL    HW116865   3.669   6.649   6.194
 5322SOL    HW216866   3.685   6.496   6.137
 5323SOL     OW16867   3.522   2.995   1.059
 5323SOL    HW116868   3.617   2.977   1.036
 5323SOL    HW216869   3.516   3.039   1.148
 5324SOL     OW16870   3.657   2.645   1.767
 5324SOL    HW116871   3.736   2.704   1.781
 5324SOL    HW216872   3.680   2.552   1.796
 5325SOL     OW16873   6.059   6.697   3.383
 5325SOL    HW116874   5.959   6.696   3.379
 5325SOL    HW216875   6.088   6.733   3.472
 5326SOL     OW16876   6.021   5.043   2.185
 5326SOL    HW116877   5.988   4.952   2.207
 5326SOL    HW216878   6.106   5.061   2.235
 5327SOL     OW16879   0.615   5.684   5.868
 5327SOL    HW116880   0.539   5.738   5.833
 5327SOL    HW216881   0.679   5.664   5.794
 5328SOL     OW16882   3.991   2.791   5.807
 5328SOL    HW116883   3.996   2.813   5.709
 5328SOL    HW216884   3.977   2.693   5.819
 5329SOL     OW16885   0.102   3.470   6.749
 5329SOL    HW116886   0.165   3.415   6.694
 5329SOL    HW216887   0.019   3.489   6.696
 5330SOL     OW16888   3.206   4.727   0.024
 5330SOL    HW116889   3.151   4.810   0.008
 5330SOL    HW216890   3.248   4.732   0.114
 5331SOL     OW16891   5.672   1.250   0.815
 5331SOL    HW116892   5.679   1.155   0.787
 5331SOL    HW216893   5.731   1.267   0.894
 5332SOL     OW16894   6.397   4.182   6.898
 5332SOL    HW116895   6.425   4.237   6.819
 5332SOL    HW216896   6.427   4.227   6.982
 5333SOL     OW16897   1.280   0.459   3.822
 5333SOL    HW116898   1.189   0.500   3.823
 5333SOL    HW216899   1.282   0.379   3.882
 5334SOL     OW16900   3.761   5.136   5.214
 5334SOL    HW116901   3.749   5.051   5.162
 5334SOL    HW216902   3.856   5.167   5.206
 5335SOL     OW16903   0.336   5.311   2.314
 5335SOL    HW116904   0.362   5.247   2.242
 5335SOL    HW216905   0.305   5.260   2.394
 5336SOL     OW16906   1.940   2.458   3.472
 5336SOL    HW116907   1.996   2.492   3.548
 5336SOL    HW216908   1.999   2.416   3.403
 5337SOL     OW16909   5.741   4.918   1.402
 5337SOL    HW116910   5.665   4.888   1.460
 5337SOL    HW216911   5.711   4.994   1.345
 5338SOL     OW16912   5.535   0.963   6.992
 5338SOL    HW116913   5.442   0.982   0.007
 5338SOL    HW216914   5.575   0.891   0.032
 5339SOL     OW16915   5.977   1.503   3.160
 5339SOL    HW116916   5.904   1.467   3.102
 5339SOL    HW216917   6.006   1.432   3.225
 5340SOL     OW16918   5.541   3.826   1.059
 5340SOL    HW116919   5.591   3.776   0.988
 5340SOL    HW216920   5.448   3.788   1.068
 5341SOL     OW16921   3.084   4.977   5.192
 5341SOL    HW116922   3.134   5.005   5.110
 5341SOL    HW216923   3.099   4.880   5.209
 5342SOL     OW16924   5.066   6.624   4.554
 5342SOL    HW116925   4.969   6.647   4.553
 5342SOL    HW216926   5.120   6.706   4.575
 5343SOL     OW16927   3.797   3.382   4.800
 5343SOL    HW116928   3.893   3.355   4.803
 5343SOL    HW216929   3.787   3.477   4.831
 5344SOL     OW16930   0.795   1.313   0.195
 5344SOL    HW116931   0.887   1.279   0.219
 5344SOL    HW216932   0.730   1.286   0.266
 5345SOL     OW16933   4.997   0.589   6.638
 5345SOL    HW116934   5.027   0.668   6.585
 5345SOL    HW216935   4.990   0.509   6.579
 5346SOL     OW16936   2.776   5.385   4.427
 5346SOL    HW116937   2.684   5.346   4.430
 5346SOL    HW216938   2.787   5.451   4.502
 5347SOL     OW16939   6.579   3.667   3.482
 5347SOL    HW116940   6.512   3.700   3.548
 5347SOL    HW216941   6.663   3.640   3.530
 5348SOL     OW16942   6.988   0.874   5.944
 5348SOL    HW116943   6.928   0.832   5.876
 5348SOL    HW216944   0.066   0.844   5.929
 5349SOL     OW16945   2.413   3.555   1.023
 5349SOL    HW116946   2.415   3.627   1.093
 5349SOL    HW216947   2.459   3.474   1.059
 5350SOL     OW16948   2.287   6.550   5.204
 5350SOL    HW116949   2.222   6.492   5.253
 5350SOL    HW216950   2.380   6.520   5.224
 5351SOL     OW16951   0.148   5.440   2.131
 5351SOL    HW116952   0.109   5.364   2.079
 5351SOL    HW216953   0.168   5.409   2.224
 5352SOL     OW16954   2.492   4.532   3.102
 5352SOL    HW116955   2.422   4.602   3.090
 5352SOL    HW216956   2.524   4.502   3.013
 5353SOL     OW16957   4.188   5.584   3.798
 5353SOL    HW116958   4.105   5.637   3.780
 5353SOL    HW216959   4.190   5.504   3.738
 5354SOL     OW16960   2.222   4.790   0.401
 5354SOL    HW116961   2.183   4.710   0.355
 5354SOL    HW216962   2.297   4.827   0.346
 5355SOL     OW16963   6.038   4.601   4.319
 5355SOL    HW116964   5.943   4.569   4.318
 5355SOL    HW216965   6.082   4.572   4.403
 5356SOL     OW16966   6.773   3.746   2.429
 5356SOL    HW116967   6.836   3.673   2.456
 5356SOL    HW216968   6.679   3.715   2.441
 5357SOL     OW16969   4.065   4.846   1.210
 5357SOL    HW116970   4.124   4.925   1.227
 5357SOL    HW216971   4.040   4.805   1.298
 5358SOL     OW16972   4.765   2.083   1.029
 5358SOL    HW116973   4.678   2.128   1.009
 5358SOL    HW216974   4.799   2.116   1.117
 5359SOL     OW16975   2.004   1.925   6.579
 5359SOL    HW116976   1.951   1.851   6.538
 5359SOL    HW216977   1.954   1.964   6.656
 5360SOL     OW16978   5.502   5.604   3.679
 5360SOL    HW116979   5.488   5.677   3.746
 5360SOL    HW216980   5.413   5.578   3.641
 5361SOL     OW16981   2.152   6.717   4.125
 5361SOL    HW116982   2.182   6.650   4.193
 5361SOL    HW216983   2.062   6.690   4.089
 5362SOL     OW16984   6.197   6.124   2.743
 5362SOL    HW116985   6.296   6.113   2.741
 5362SOL    HW216986   6.169   6.187   2.671
 5363SOL     OW16987   5.303   6.481   5.346
 5363SOL    HW116988   5.274   6.568   5.305
 5363SOL    HW216989   5.395   6.458   5.314
 5364SOL     OW16990   6.487   6.904   1.912
 5364SOL    HW116991   6.479   6.851   1.827
 5364SOL    HW216992   6.583   6.916   1.935
 5365SOL     OW16993   3.524   3.099   2.102
 5365SOL    HW116994   3.454   3.104   2.031
 5365SOL    HW216995   3.615   3.096   2.059
 5366SOL     OW16996   6.944   6.862   2.133
 5366SOL    HW116997   6.861   6.889   2.181
 5366SOL    HW216998   6.947   6.906   2.043
 5367SOL     OW16999   6.599   6.282   1.130
 5367SOL    HW117000   6.564   6.198   1.088
 5367SOL    HW217001   6.532   6.356   1.116
 5368SOL     OW17002   6.359   6.581   2.575
 5368SOL    HW117003   6.354   6.675   2.542
 5368SOL    HW217004   6.348   6.518   2.498
 5369SOL     OW17005   2.670   6.165   0.874
 5369SOL    HW117006   2.605   6.143   0.947
 5369SOL    HW217007   2.624   6.154   0.785
 5370SOL     OW17008   4.472   3.711   1.206
 5370SOL    HW117009   4.545   3.661   1.158
 5370SOL    HW217010   4.391   3.715   1.148
 5371SOL     OW17011   6.607   4.892   5.136
 5371SOL    HW117012   6.586   4.962   5.205
 5371SOL    HW217013   6.526   4.875   5.080
 5372SOL     OW17014   1.405   6.743   2.689
 5372SOL    HW117015   1.392   6.836   2.724
 5372SOL    HW217016   1.496   6.711   2.712
 5373SOL     OW17017   3.978   6.718   5.895
 5373SOL    HW117018   4.034   6.649   5.850
 5373SOL    HW217019   3.887   6.681   5.913
 5374SOL     OW17020   2.540   4.193   0.602
 5374SOL    HW117021   2.553   4.207   0.700
 5374SOL    HW217022   2.598   4.256   0.551
 5375SOL     OW17023   0.791   5.500   6.022
 5375SOL    HW117024   0.850   5.467   5.948
 5375SOL    HW217025   0.744   5.583   5.992
 5376SOL     OW17026   1.322   2.466   1.511
 5376SOL    HW117027   1.378   2.548   1.516
 5376SOL    HW217028   1.326   2.417   1.597
 5377SOL     OW17029   1.270   0.110   3.360
 5377SOL    HW117030   1.194   0.052   3.387
 5377SOL    HW217031   1.323   0.063   3.289
 5378SOL     OW17032   6.661   0.264   1.640
 5378SOL    HW117033   6.710   0.181   1.669
 5378SOL    HW217034   6.562   0.248   1.648
 5379SOL     OW17035   1.453   3.357   4.772
 5379SOL    HW117036   1.362   3.391   4.748
 5379SOL    HW217037   1.463   3.356   4.871
 5380SOL     OW17038   2.594   6.930   1.105
 5380SOL    HW117039   2.667   6.867   1.131
 5380SOL    HW217040   2.552   6.899   1.020
 5381SOL     OW17041   6.411   5.983   2.214
 5381SOL    HW117042   6.422   5.889   2.246
 5381SOL    HW217043   6.392   5.983   2.116
 5382SOL     OW17044   3.159   2.153   2.694
 5382SOL    HW117045   3.245   2.176   2.739
 5382SOL    HW217046   3.172   2.149   2.595
 5383SOL     OW17047   1.320   2.356   4.399
 5383SOL    HW117048   1.255   2.429   4.380
 5383SOL    HW217049   1.321   2.292   4.322
 5384SOL     OW17050   4.681   5.583   4.651
 5384SOL    HW117051   4.715   5.525   4.725
 5384SOL    HW217052   4.675   5.530   4.566
 5385SOL     OW17053   5.622   3.320   5.597
 5385SOL    HW117054   5.671   3.281   5.518
 5385SOL    HW217055   5.610   3.418   5.584
 5386SOL     OW17056   5.935   1.480   4.366
 5386SOL    HW117057   5.999   1.556   4.377
 5386SOL    HW217058   5.846   1.516   4.336
 5387SOL     OW17059   2.807   6.774   3.380
 5387SOL    HW117060   2.778   6.714   3.455
 5387SOL    HW217061   2.864   6.848   3.417
 5388SOL     OW17062   1.694   6.742   2.753
 5388SOL    HW117063   1.752   6.816   2.786
 5388SOL    HW217064   1.697   6.666   2.819
 5389SOL     OW17065   4.053   1.650   4.863
 5389SOL    HW117066   4.096   1.570   4.821
 5389SOL    HW217067   4.059   1.727   4.800
 5390SOL     OW17068   5.254   4.137   3.433
 5390SOL    HW117069   5.214   4.189   3.357
 5390SOL    HW217070   5.323   4.074   3.397
 5391SOL     OW17071   3.395   1.674   0.020
 5391SOL    HW117072   3.327   1.630   6.977
 5391SOL    HW217073   3.428   1.758   6.993
 5392SOL     OW17074   5.378   3.832   1.688
 5392SOL    HW117075   5.467   3.808   1.649
 5392SOL    HW217076   5.329   3.892   1.624
 5393SOL     OW17077   4.539   0.739   5.092
 5393SOL    HW117078   4.520   0.725   4.995
 5393SOL    HW217079   4.523   0.835   5.116
 5394SOL     OW17080   0.803   5.815   1.238
 5394SOL    HW117081   0.716   5.860   1.260
 5394SOL    HW217082   0.845   5.859   1.159
 5395SOL     OW17083   5.034   0.701   0.894
 5395SOL    HW117084   5.123   0.699   0.848
 5395SOL    HW217085   5.045   0.737   0.986
 5396SOL     OW17086   5.416   5.307   1.492
 5396SOL    HW117087   5.428   5.269   1.584
 5396SOL    HW217088   5.337   5.265   1.448
 5397SOL     OW17089   6.949   2.279   1.808
 5397SOL    HW117090   6.883   2.220   1.856
 5397SOL    HW217091   0.014   2.289   1.865
 5398SOL     OW17092   3.465   2.049   3.857
 5398SOL    HW117093   3.366   2.064   3.850
 5398SOL    HW217094   3.507   2.069   3.768
 5399SOL     OW17095   2.646   0.304   6.085
 5399SOL    HW117096   2.653   0.231   6.153
 5399SOL    HW217097   2.695   0.277   6.002
 5400SOL     OW17098   2.969   3.376   0.799
 5400SOL    HW117099   2.989   3.396   0.703
 5400SOL    HW217100   2.874   3.401   0.819
 5401SOL     OW17101   5.756   3.925   2.378
 5401SOL    HW117102   5.673   3.919   2.434
 5401SOL    HW217103   5.742   3.993   2.306
 5402SOL     OW17104   2.569   6.554   0.565
 5402SOL    HW117105   2.602   6.556   0.660
 5402SOL    HW217106   2.639   6.513   0.507
 5403SOL     OW17107   5.240   3.578   6.475
 5403SOL    HW117108   5.301   3.619   6.408
 5403SOL    HW217109   5.294   3.539   6.549
 5404SOL     OW17110   0.885   0.354   1.321
 5404SOL    HW117111   0.893   0.258   1.349
 5404SOL    HW217112   0.881   0.360   1.221
 5405SOL     OW17113   5.866   5.309   6.776
 5405SOL    HW117114   5.965   5.308   6.765
 5405SOL    HW217115   5.827   5.223   6.744
 5406SOL     OW17116   2.114   0.834   4.822
 5406SOL    HW117117   2.136   0.882   4.737
 5406SOL    HW217118   2.157   0.880   4.899
 5407SOL     OW17119   3.441   1.118   0.656
 5407SOL    HW117120   3.390   1.179   0.716
 5407SOL    HW217121   3.383   1.087   0.581
 5408SOL     OW17122   3.570   1.239   4.938
 5408SOL    HW117123   3.638   1.215   5.007
 5408SOL    HW217124   3.571   1.338   4.923
 5409SOL     OW17125   6.869   1.599   2.580
 5409SOL    HW117126   6.952   1.629   2.532
 5409SOL    HW217127   6.893   1.559   2.668
 5410SOL     OW17128   0.868   2.417   6.526
 5410SOL    HW117129   0.965   2.419   6.500
 5410SOL    HW217130   0.858   2.365   6.611
 5411SOL     OW17131   4.988   4.774   6.180
 5411SOL    HW117132   4.977   4.839   6.255
 5411SOL    HW217133   5.041   4.695   6.212
 5412SOL     OW17134   2.405   1.370   6.208
 5412SOL    HW117135   2.372   1.305   6.140
 5412SOL    HW217136   2.433   1.454   6.161
 5413SOL     OW17137   0.757   6.861   6.820
 5413SOL    HW117138   0.729   6.957   6.829
 5413SOL    HW217139   0.803   6.831   6.904
 5414SOL     OW17140   6.333   4.470   5.246
 5414SOL    HW117141   6.311   4.558   5.288
 5414SOL    HW217142   6.252   4.412   5.247
 5415SOL     OW17143   2.847   6.274   0.511
 5415SOL    HW117144   2.862   6.288   0.608
 5415SOL    HW217145   2.928   6.302   0.460
 5416SOL     OW17146   2.716   4.745   5.258
 5416SOL    HW117147   2.655   4.670   5.282
 5416SOL    HW217148   2.781   4.713   5.189
 5417SOL     OW17149   3.915   0.224   5.039
 5417SOL    HW117150   3.944   0.168   4.961
 5417SOL    HW217151   3.816   0.234   5.038
 5418SOL     OW17152   5.620   5.692   4.909
 5418SOL    HW117153   5.574   5.614   4.952
 5418SOL    HW217154   5.719   5.683   4.920
 5419SOL     OW17155   4.266   6.093   0.389
 5419SOL    HW117156   4.204   6.026   0.430
 5419SOL    HW217157   4.264   6.084   0.290
 5420SOL     OW17158   2.254   1.766   0.756
 5420SOL    HW117159   2.326   1.808   0.701
 5420SOL    HW217160   2.174   1.826   0.759
 5421SOL     OW17161   3.553   5.133   1.738
 5421SOL    HW117162   3.592   5.224   1.721
 5421SOL    HW217163   3.493   5.107   1.662
 5422SOL     OW17164   1.806   5.367   4.721
 5422SOL    HW117165   1.794   5.415   4.634
 5422SOL    HW217166   1.878   5.411   4.774
 5423SOL     OW17167   5.788   5.203   0.410
 5423SOL    HW117168   5.727   5.278   0.433
 5423SOL    HW217169   5.751   5.153   0.331
 5424SOL     OW17170   5.080   4.048   4.168
 5424SOL    HW117171   5.137   4.016   4.093
 5424SOL    HW217172   5.120   4.018   4.255
 5425SOL     OW17173   6.453   2.637   4.625
 5425SOL    HW117174   6.401   2.557   4.656
 5425SOL    HW217175   6.395   2.696   4.570
 5426SOL     OW17176   4.343   5.486   2.445
 5426SOL    HW117177   4.368   5.476   2.348
 5426SOL    HW217178   4.315   5.581   2.462
 5427SOL     OW17179   5.570   2.888   0.513
 5427SOL    HW117180   5.566   2.788   0.515
 5427SOL    HW217181   5.504   2.922   0.447
 5428SOL     OW17182   5.104   6.588   2.227
 5428SOL    HW117183   5.154   6.675   2.219
 5428SOL    HW217184   5.041   6.579   2.149
 5429SOL     OW17185   1.586   6.981   5.095
 5429SOL    HW117186   1.667   6.923   5.101
 5429SOL    HW217187   1.585   0.028   5.172
 5430SOL     OW17188   1.920   2.909   4.902
 5430SOL    HW117189   2.007   2.939   4.861
 5430SOL    HW217190   1.905   2.958   4.988
 5431SOL     OW17191   3.368   3.722   6.683
 5431SOL    HW117192   3.352   3.791   6.753
 5431SOL    HW217193   3.285   3.668   6.670
 5432SOL     OW17194   4.747   5.632   6.438
 5432SOL    HW117195   4.762   5.731   6.442
 5432SOL    HW217196   4.650   5.612   6.453
 5433SOL     OW17197   1.067   6.961   1.292
 5433SOL    HW117198   1.125   7.000   1.363
 5433SOL    HW217199   1.043   6.867   1.317
 5434SOL     OW17200   4.511   1.023   4.610
 5434SOL    HW117201   4.560   0.943   4.646
 5434SOL    HW217202   4.464   1.069   4.685
 5435SOL     OW17203   6.269   3.986   0.741
 5435SOL    HW117204   6.213   3.956   0.818
 5435SOL    HW217205   6.344   3.921   0.728
 5436SOL     OW17206   6.288   4.394   4.102
 5436SOL    HW117207   6.273   4.361   4.195
 5436SOL    HW217208   6.335   4.482   4.105
 5437SOL     OW17209   3.503   5.135   5.511
 5437SOL    HW117210   3.520   5.064   5.578
 5437SOL    HW217211   3.419   5.115   5.461
 5438SOL     OW17212   4.837   5.081   2.113
 5438SOL    HW117213   4.802   5.169   2.080
 5438SOL    HW217214   4.783   5.007   2.073
 5439SOL     OW17215   0.976   3.549   0.060
 5439SOL    HW117216   0.903   3.612   0.034
 5439SOL    HW217217   0.936   3.462   0.088
 5440SOL     OW17218   6.396   6.763   4.068
 5440SOL    HW117219   6.425   6.701   3.995
 5440SOL    HW217220   6.461   6.758   4.144
 5441SOL     OW17221   5.405   3.378   2.928
 5441SOL    HW117222   5.455   3.330   3.000
 5441SOL    HW217223   5.310   3.346   2.926
 5442SOL     OW17224   4.273   6.837   3.589
 5442SOL    HW117225   4.206   6.819   3.517
 5442SOL    HW217226   4.324   6.753   3.608
 5443SOL     OW17227   4.519   6.417   3.963
 5443SOL    HW117228   4.610   6.458   3.973
 5443SOL    HW217229   4.528   6.324   3.930
 5444SOL     OW17230   6.491   1.258   4.076
 5444SOL    HW117231   6.491   1.354   4.047
 5444SOL    HW217232   6.527   1.201   4.002
 5445SOL     OW17233   5.710   4.409   3.359
 5445SOL    HW117234   5.747   4.346   3.291
 5445SOL    HW217235   5.622   4.376   3.391
 5446SOL     OW17236   5.855   4.879   4.587
 5446SOL    HW117237   5.944   4.839   4.565
 5446SOL    HW217238   5.839   4.872   4.685
 5447SOL     OW17239   1.827   1.573   1.261
 5447SOL    HW117240   1.775   1.523   1.191
 5447SOL    HW217241   1.768   1.589   1.340
 5448SOL     OW17242   4.525   4.864   3.811
 5448SOL    HW117243   4.570   4.882   3.899
 5448SOL    HW217244   4.591   4.821   3.749
 5449SOL     OW17245   2.078   1.055   1.370
 5449SOL    HW117246   2.057   0.993   1.294
 5449SOL    HW217247   2.029   1.141   1.358
 5450SOL     OW17248   3.281   6.639   1.334
 5450SOL    HW117249   3.343   6.708   1.370
 5450SOL    HW217250   3.329   6.551   1.329
 5451SOL     OW17251   1.603   6.062   3.977
 5451SOL    HW117252   1.696   6.077   4.011
 5451SOL    HW217253   1.605   6.003   3.897
 5452SOL     OW17254   2.401   4.650   1.408
 5452SOL    HW117255   2.362   4.629   1.497
 5452SOL    HW217256   2.498   4.671   1.419
 5453SOL     OW17257   5.449   3.964   2.102
 5453SOL    HW117258   5.422   4.044   2.049
 5453SOL    HW217259   5.487   3.894   2.041
 5454SOL     OW17260   5.422   5.883   1.546
 5454SOL    HW117261   5.429   5.796   1.594
 5454SOL    HW217262   5.330   5.920   1.559
 5455SOL     OW17263   0.319   1.990   3.825
 5455SOL    HW117264   0.298   2.018   3.918
 5455SOL    HW217265   0.235   1.980   3.773
 5456SOL     OW17266   3.472   1.611   6.533
 5456SOL    HW117267   3.546   1.655   6.482
 5456SOL    HW217268   3.456   1.520   6.495
 5457SOL     OW17269   6.972   1.937   0.889
 5457SOL    HW117270   6.961   1.841   0.861
 5457SOL    HW217271   0.033   1.944   0.952
 5458SOL     OW17272   0.022   4.446   0.753
 5458SOL    HW117273   6.970   4.508   0.713
 5458SOL    HW217274   7.015   4.427   0.848
 5459SOL     OW17275   2.267   5.174   4.909
 5459SOL    HW117276   2.327   5.102   4.876
 5459SOL    HW217277   2.321   5.252   4.940
 5460SOL     OW17278   3.085   6.999   2.275
 5460SOL    HW117279   3.060   6.916   2.324
 5460SOL    HW217280   3.119   6.976   2.184
 5461SOL     OW17281   0.898   1.136   4.737
 5461SOL    HW117282   0.889   1.037   4.728
 5461SOL    HW217283   0.898   1.178   4.646
 5462SOL     OW17284   5.299   5.997   6.371
 5462SOL    HW117285   5.280   5.924   6.306
 5462SOL    HW217286   5.227   6.000   6.440
 5463SOL     OW17287   0.368   1.458   6.859
 5463SOL    HW117288   0.341   1.383   6.798
 5463SOL    HW217289   0.330   1.442   6.950
 5464SOL     OW17290   6.012   6.267   5.216
 5464SOL    HW117291   6.057   6.206   5.281
 5464SOL    HW217292   6.054   6.257   5.126
 5465SOL     OW17293   6.773   0.312   3.096
 5465SOL    HW117294   6.785   0.409   3.118
 5465SOL    HW217295   6.718   0.268   3.167
 5466SOL     OW17296   6.209   2.720   5.798
 5466SOL    HW117297   6.239   2.625   5.795
 5466SOL    HW217298   6.171   2.741   5.888
 5467SOL     OW17299   5.638   3.921   2.897
 5467SOL    HW117300   5.730   3.960   2.894
 5467SOL    HW217301   5.617   3.876   2.810
 5468SOL     OW17302   0.019   2.503   4.590
 5468SOL    HW117303   6.944   2.466   4.605
 5468SOL    HW217304   0.029   2.530   4.494
 5469SOL     OW17305   3.395   5.753   5.974
 5469SOL    HW117306   3.412   5.688   6.048
 5469SOL    HW217307   3.365   5.704   5.893
 5470SOL     OW17308   3.794   5.190   4.280
 5470SOL    HW117309   3.803   5.091   4.287
 5470SOL    HW217310   3.845   5.222   4.200
 5471SOL     OW17311   5.576   0.461   2.142
 5471SOL    HW117312   5.579   0.497   2.235
 5471SOL    HW217313   5.610   0.367   2.142
 5472SOL     OW17314   2.960   3.749   6.856
 5472SOL    HW117315   2.926   3.772   6.948
 5472SOL    HW217316   3.028   3.817   6.829
 5473SOL     OW17317   1.558   3.426   0.446
 5473SOL    HW117318   1.601   3.441   0.357
 5473SOL    HW217319   1.502   3.506   0.470
 5474SOL     OW17320   0.335   5.861   4.651
 5474SOL    HW117321   0.357   5.808   4.569
 5474SOL    HW217322   0.315   5.799   4.727
 5475SOL     OW17323   1.555   1.697   0.681
 5475SOL    HW117324   1.544   1.796   0.687
 5475SOL    HW217325   1.549   1.657   0.772
 5476SOL     OW17326   2.001   4.886   5.301
 5476SOL    HW117327   2.022   4.980   5.274
 5476SOL    HW217328   2.079   4.827   5.280
 5477SOL     OW17329   2.146   3.606   3.448
 5477SOL    HW117330   2.114   3.541   3.516
 5477SOL    HW217331   2.159   3.560   3.361
 5478SOL     OW17332   4.640   6.519   5.446
 5478SOL    HW117333   4.676   6.610   5.430
 5478SOL    HW217334   4.687   6.453   5.387
 5479SOL     OW17335   4.506   1.651   4.580
 5479SOL    HW117336   4.464   1.601   4.656
 5479SOL    HW217337   4.598   1.682   4.607
 5480SOL     OW17338   5.574   4.980   4.992
 5480SOL    HW117339   5.515   5.045   4.944
 5480SOL    HW217340   5.518   4.920   5.049
 5481SOL     OW17341   4.829   1.356   4.739
 5481SOL    HW117342   4.921   1.355   4.776
 5481SOL    HW217343   4.782   1.441   4.764
 5482SOL     OW17344   3.840   4.000   2.612
 5482SOL    HW117345   3.827   4.018   2.515
 5482SOL    HW217346   3.775   3.931   2.643
 5483SOL     OW17347   0.287   1.747   5.267
 5483SOL    HW117348   0.302   1.661   5.316
 5483SOL    HW217349   0.312   1.735   5.171
 5484SOL     OW17350   5.977   0.629   3.797
 5484SOL    HW117351   6.027   0.545   3.817
 5484SOL    HW217352   5.900   0.638   3.860
 5485SOL     OW17353   3.027   0.139   4.647
 5485SOL    HW117354   3.012   0.234   4.676
 5485SOL    HW217355   2.975   0.121   4.564
 5486SOL     OW17356   1.788   5.938   4.597
 5486SOL    HW117357   1.831   5.944   4.687
 5486SOL    HW217358   1.694   5.907   4.606
 5487SOL     OW17359   5.336   3.063   6.440
 5487SOL    HW117360   5.259   3.023   6.489
 5487SOL    HW217361   5.405   3.092   6.507
 5488SOL     OW17362   5.344   1.182   1.153
 5488SOL    HW117363   5.329   1.198   1.055
 5488SOL    HW217364   5.395   1.259   1.191
 5489SOL     OW17365   1.040   4.843   0.864
 5489SOL    HW117366   1.126   4.804   0.898
 5489SOL    HW217367   0.976   4.768   0.843
 5490SOL     OW17368   3.534   0.249   1.098
 5490SOL    HW117369   3.500   0.180   1.034
 5490SOL    HW217370   3.508   0.340   1.065
 5491SOL     OW17371   2.144   3.519   6.437
 5491SOL    HW117372   2.133   3.442   6.374
 5491SOL    HW217373   2.159   3.603   6.385
 5492SOL     OW17374   0.768   1.866   6.682
 5492SOL    HW117375   0.718   1.783   6.659
 5492SOL    HW217376   0.859   1.841   6.715
 5493SOL     OW17377   4.090   3.721   3.938
 5493SOL    HW117378   4.079   3.704   3.840
 5493SOL    HW217379   4.068   3.637   3.989
 5494SOL     OW17380   6.715   2.849   6.789
 5494SOL    HW117381   6.781   2.780   6.759
 5494SOL    HW217382   6.643   2.858   6.720
 5495SOL     OW17383   3.697   2.424   1.547
 5495SOL    HW117384   3.692   2.361   1.625
 5495SOL    HW217385   3.627   2.495   1.557
 5496SOL     OW17386   2.803   0.294   3.603
 5496SOL    HW117387   2.807   0.378   3.656
 5496SOL    HW217388   2.754   0.311   3.517
 5497SOL     OW17389   0.260   2.335   3.985
 5497SOL    HW117390   0.281   2.292   4.072
 5497SOL    HW217391   0.162   2.325   3.965
 5498SOL     OW17392   5.268   6.851   1.557
 5498SOL    HW117393   5.171   6.829   1.570
 5498SOL    HW217394   5.292   6.839   1.461
 5499SOL     OW17395   0.252   1.142   3.823
 5499SOL    HW117396   0.334   1.148   3.766
 5499SOL    HW217397   0.278   1.114   3.916
 5500SOL     OW17398   2.002   0.330   0.079
 5500SOL    HW117399   2.008   0.245   0.026
 5500SOL    HW217400   1.930   0.322   0.147
 5501SOL     OW17401   3.794   0.181   0.740
 5501SOL    HW117402   3.863   0.222   0.799
 5501SOL    HW217403   3.797   0.081   0.748
 5502SOL     OW17404   5.922   3.971   0.042
 5502SOL    HW117405   5.851   4.039   0.063
 5502SOL    HW217406   5.990   3.971   0.115
 5503SOL     OW17407   6.914   5.670   3.798
 5503SOL    HW117408   6.864   5.697   3.881
 5503SOL    HW217409   6.866   5.705   3.717
 5504SOL     OW17410   4.180   1.405   4.792
 5504SOL    HW117411   4.095   1.357   4.767
 5504SOL    HW217412   4.204   1.382   4.886
 5505SOL     OW17413   1.769   5.466   4.473
 5505SOL    HW117414   1.692   5.406   4.452
 5505SOL    HW217415   1.743   5.561   4.457
 5506SOL     OW17416   1.258   1.703   6.164
 5506SOL    HW117417   1.355   1.703   6.188
 5506SOL    HW217418   1.238   1.783   6.107
 5507SOL     OW17419   2.502   0.145   3.343
 5507SOL    HW117420   2.455   0.208   3.405
 5507SOL    HW217421   2.434   0.092   3.293
 5508SOL     OW17422   2.227   0.948   6.659
 5508SOL    HW117423   2.200   0.943   6.755
 5508SOL    HW217424   2.181   0.875   6.608
 5509SOL     OW17425   1.069   6.245   0.975
 5509SOL    HW117426   1.115   6.191   1.046
 5509SOL    HW217427   1.016   6.318   1.017
 5510SOL     OW17428   5.021   6.181   0.783
 5510SOL    HW117429   4.998   6.083   0.780
 5510SOL    HW217430   4.945   6.232   0.824
 5511SOL     OW17431   2.696   0.624   4.088
 5511SOL    HW117432   2.664   0.533   4.060
 5511SOL    HW217433   2.716   0.623   4.186
 5512SOL     OW17434   5.880   1.965   1.702
 5512SOL    HW117435   5.928   1.912   1.772
 5512SOL    HW217436   5.895   2.063   1.719
 5513SOL     OW17437   4.064   4.559   6.105
 5513SOL    HW117438   4.055   4.460   6.111
 5513SOL    HW217439   4.028   4.591   6.018
 5514SOL     OW17440   4.905   6.250   2.421
 5514SOL    HW117441   5.001   6.242   2.445
 5514SOL    HW217442   4.851   6.267   2.504
 5515SOL     OW17443   0.013   4.764   1.463
 5515SOL    HW117444   0.007   4.668   1.493
 5515SOL    HW217445   0.100   4.779   1.417
 5516SOL     OW17446   1.314   3.824   6.369
 5516SOL    HW117447   1.392   3.764   6.389
 5516SOL    HW217448   1.341   3.891   6.300
 5517SOL     OW17449   2.105   3.356   2.172
 5517SOL    HW117450   2.161   3.400   2.101
 5517SOL    HW217451   2.056   3.279   2.132
 5518SOL     OW17452   5.743   6.483   6.388
 5518SOL    HW117453   5.805   6.449   6.318
 5518SOL    HW217454   5.694   6.563   6.354
 5519SOL     OW17455   5.565   3.140   2.821
 5519SOL    HW117456   5.498   3.069   2.843
 5519SOL    HW217457   5.580   3.143   2.722
 5520SOL     OW17458   6.656   5.476   2.284
 5520SOL    HW117459   6.724   5.403   2.273
 5520SOL    HW217460   6.662   5.540   2.208
 5521SOL     OW17461   4.583   6.922   1.587
 5521SOL    HW117462   4.557   6.883   1.675
 5521SOL    HW217463   4.516   6.991   1.560
 5522SOL     OW17464   0.086   5.081   1.021
 5522SOL    HW117465   0.067   4.999   0.967
 5522SOL    HW217466   0.174   5.071   1.067
 5523SOL     OW17467   3.765   0.068   2.009
 5523SOL    HW117468   3.693   0.137   2.019
 5523SOL    HW217469   3.771   0.014   2.093
 5524SOL     OW17470   5.127   5.151   4.944
 5524SOL    HW117471   5.090   5.240   4.968
 5524SOL    HW217472   5.069   5.078   4.981
 5525SOL     OW17473   6.907   3.048   6.930
 5525SOL    HW117474   6.832   3.006   6.878
 5525SOL    HW217475   6.969   3.094   6.867
 5526SOL     OW17476   5.194   4.685   4.803
 5526SOL    HW117477   5.294   4.687   4.806
 5526SOL    HW217478   5.160   4.632   4.881
 5527SOL     OW17479   6.619   3.749   4.656
 5527SOL    HW117480   6.678   3.668   4.663
 5527SOL    HW217481   6.628   3.804   4.739
 5528SOL     OW17482   1.131   2.094   6.914
 5528SOL    HW117483   1.102   2.161   6.982
 5528SOL    HW217484   1.095   2.120   6.824
 5529SOL     OW17485   1.895   0.488   4.330
 5529SOL    HW117486   1.939   0.573   4.358
 5529SOL    HW217487   1.896   0.481   4.230
 5530SOL     OW17488   6.910   2.406   2.175
 5530SOL    HW117489   6.855   2.325   2.195
 5530SOL    HW217490   6.868   2.456   2.099
 5531SOL     OW17491   3.821   3.008   2.438
 5531SOL    HW117492   3.889   3.030   2.508
 5531SOL    HW217493   3.746   2.957   2.480
 5532SOL     OW17494   1.344   2.047   0.471
 5532SOL    HW117495   1.432   1.999   0.467
 5532SOL    HW217496   1.306   2.056   0.379
 5533SOL     OW17497   3.576   0.781   3.232
 5533SOL    HW117498   3.554   0.690   3.196
 5533SOL    HW217499   3.649   0.773   3.300
 5534SOL     OW17500   0.684   1.374   5.889
 5534SOL    HW117501   0.618   1.389   5.962
 5534SOL    HW217502   0.771   1.416   5.914
 5535SOL     OW17503   0.475   3.411   4.510
 5535SOL    HW117504   0.402   3.353   4.546
 5535SOL    HW217505   0.507   3.472   4.582
 5536SOL     OW17506   2.779   0.897   4.496
 5536SOL    HW117507   2.845   0.953   4.546
 5536SOL    HW217508   2.827   0.822   4.450
 5537SOL     OW17509   2.757   0.770   3.574
 5537SOL    HW117510   2.695   0.700   3.609
 5537SOL    HW217511   2.810   0.808   3.650
 5538SOL     OW17512   3.014   0.278   5.229
 5538SOL    HW117513   3.032   0.333   5.148
 5538SOL    HW217514   3.099   0.235   5.260
 5539SOL     OW17515   1.512   3.175   0.215
 5539SOL    HW117516   1.568   3.250   0.179
 5539SOL    HW217517   1.488   3.195   0.310
 5540SOL     OW17518   5.881   3.847   3.504
 5540SOL    HW117519   5.794   3.888   3.530
 5540SOL    HW217520   5.929   3.816   3.587
 5541SOL     OW17521   5.915   0.855   6.169
 5541SOL    HW117522   5.905   0.953   6.154
 5541SOL    HW217523   6.007   0.836   6.203
 5542SOL     OW17524   6.536   5.292   6.717
 5542SOL    HW117525   6.575   5.203   6.737
 5542SOL    HW217526   6.598   5.343   6.657
 5543SOL     OW17527   3.381   5.386   5.908
 5543SOL    HW117528   3.359   5.321   5.981
 5543SOL    HW217529   3.329   5.363   5.826
 5544SOL     OW17530   5.518   6.636   5.958
 5544SOL    HW117531   5.560   6.604   5.874
 5544SOL    HW217532   5.419   6.646   5.945
 5545SOL     OW17533   4.170   1.684   2.933
 5545SOL    HW117534   4.076   1.703   2.961
 5545SOL    HW217535   4.223   1.769   2.937
 5546SOL     OW17536   0.940   6.692   4.732
 5546SOL    HW117537   1.000   6.749   4.788
 5546SOL    HW217538   0.850   6.686   4.775
 5547SOL     OW17539   3.497   0.681   4.327
 5547SOL    HW117540   3.447   0.726   4.253
 5547SOL    HW217541   3.480   0.729   4.413
 5548SOL     OW17542   5.598   3.527   5.403
 5548SOL    HW117543   5.696   3.510   5.394
 5548SOL    HW217544   5.552   3.499   5.319
 5549SOL     OW17545   5.023   4.075   0.613
 5549SOL    HW117546   4.925   4.090   0.622
 5549SOL    HW217547   5.069   4.100   0.699
 5550SOL     OW17548   2.331   4.594   2.608
 5550SOL    HW117549   2.344   4.501   2.572
 5550SOL    HW217550   2.246   4.631   2.574
 5551SOL     OW17551   2.115   5.513   3.149
 5551SOL    HW117552   2.021   5.537   3.172
 5551SOL    HW217553   2.169   5.596   3.138
 5552SOL     OW17554   6.429   0.422   0.069
 5552SOL    HW117555   6.426   0.504   0.125
 5552SOL    HW217556   6.350   0.364   0.092
 5553SOL     OW17557   4.942   6.485   0.386
 5553SOL    HW117558   4.941   6.397   0.432
 5553SOL    HW217559   4.975   6.556   0.448
 5554SOL     OW17560   4.399   1.721   6.060
 5554SOL    HW117561   4.434   1.778   6.135
 5554SOL    HW217562   4.326   1.770   6.013
 5555SOL     OW17563   1.441   4.263   3.790
 5555SOL    HW117564   1.477   4.324   3.861
 5555SOL    HW217565   1.514   4.240   3.726
 5556SOL     OW17566   6.973   1.524   3.291
 5556SOL    HW117567   0.023   1.598   3.305
 5556SOL    HW217568   6.886   1.549   3.333
 5557SOL     OW17569   3.316   6.692   3.207
 5557SOL    HW117570   3.220   6.698   3.236
 5557SOL    HW217571   3.332   6.605   3.161
 5558SOL     OW17572   4.190   3.686   6.045
 5558SOL    HW117573   4.125   3.761   6.031
 5558SOL    HW217574   4.225   3.656   5.957
 5559SOL     OW17575   1.504   0.265   2.187
 5559SOL    HW117576   1.415   0.224   2.169
 5559SOL    HW217577   1.516   0.277   2.285
 5560SOL     OW17578   1.175   6.493   2.251
 5560SOL    HW117579   1.141   6.587   2.244
 5560SOL    HW217580   1.273   6.494   2.267
 5561SOL     OW17581   0.884   1.621   3.816
 5561SOL    HW117582   0.802   1.622   3.758
 5561SOL    HW217583   0.880   1.541   3.877
 5562SOL     OW17584   3.804   2.294   6.814
 5562SOL    HW117585   3.810   2.383   6.770
 5562SOL    HW217586   3.833   2.303   6.910
 5563SOL     OW17587   4.161   5.270   2.255
 5563SOL    HW117588   4.144   5.324   2.337
 5563SOL    HW217589   4.188   5.331   2.180
 5564SOL     OW17590   4.480   0.561   1.527
 5564SOL    HW117591   4.489   0.546   1.429
 5564SOL    HW217592   4.569   0.553   1.570
 5565SOL     OW17593   4.500   1.914   6.242
 5565SOL    HW117594   4.404   1.933   6.264
 5565SOL    HW217595   4.552   1.901   6.326
 5566SOL     OW17596   1.383   4.997   6.863
 5566SOL    HW117597   1.482   4.998   6.869
 5566SOL    HW217598   1.351   4.908   6.830
 5567SOL     OW17599   0.306   2.900   1.287
 5567SOL    HW117600   0.333   2.896   1.383
 5567SOL    HW217601   0.208   2.920   1.281
 5568SOL     OW17602   4.192   1.655   3.983
 5568SOL    HW117603   4.282   1.698   3.971
 5568SOL    HW217604   4.204   1.557   3.999
 5569SOL     OW17605   1.394   1.599   2.835
 5569SOL    HW117606   1.349   1.513   2.858
 5569SOL    HW217607   1.469   1.581   2.772
 5570SOL     OW17608   6.185   4.542   4.541
 5570SOL    HW117609   6.271   4.491   4.549
 5570SOL    HW217610   6.157   4.575   4.631
 5571SOL     OW17611   6.921   5.983   0.736
 5571SOL    HW117612   6.908   6.029   0.648
 5571SOL    HW217613   6.839   5.993   0.792
 5572SOL     OW17614   1.415   2.076   5.298
 5572SOL    HW117615   1.327   2.037   5.326
 5572SOL    HW217616   1.448   2.137   5.370
 5573SOL     OW17617   2.033   4.330   5.633
 5573SOL    HW117618   2.123   4.372   5.641
 5573SOL    HW217619   2.043   4.238   5.595
 5574SOL     OW17620   6.504   1.970   2.758
 5574SOL    HW117621   6.594   1.929   2.744
 5574SOL    HW217622   6.434   1.899   2.749
 5575SOL     OW17623   6.911   1.265   0.956
 5575SOL    HW117624   6.832   1.313   0.995
 5575SOL    HW217625   6.888   1.233   0.864
 5576SOL     OW17626   1.423   5.128   2.172
 5576SOL    HW117627   1.323   5.129   2.159
 5576SOL    HW217628   1.456   5.222   2.178
 5577SOL     OW17629   2.787   3.348   5.266
 5577SOL    HW117630   2.819   3.253   5.268
 5577SOL    HW217631   2.845   3.400   5.203
 5578SOL     OW17632   3.407   3.889   0.489
 5578SOL    HW117633   3.327   3.847   0.444
 5578SOL    HW217634   3.411   3.986   0.464
 5579SOL     OW17635   1.152   3.593   6.024
 5579SOL    HW117636   1.094   3.670   5.994
 5579SOL    HW217637   1.194   3.550   5.944
 5580SOL     OW17638   5.332   2.775   6.000
 5580SOL    HW117639   5.283   2.702   5.952
 5580SOL    HW217640   5.337   2.754   6.097
 5581SOL     OW17641   1.775   0.270   2.413
 5581SOL    HW117642   1.703   0.330   2.447
 5581SOL    HW217643   1.784   0.281   2.314
 5582SOL     OW17644   3.238   3.582   4.416
 5582SOL    HW117645   3.197   3.669   4.390
 5582SOL    HW217646   3.172   3.508   4.402
 5583SOL     OW17647   4.033   0.480   2.527
 5583SOL    HW117648   4.113   0.472   2.468
 5583SOL    HW217649   4.055   0.539   2.606
 5584SOL     OW17650   5.800   4.404   3.887
 5584SOL    HW117651   5.876   4.469   3.894
 5584SOL    HW217652   5.801   4.361   3.796
 5585SOL     OW17653   4.663   6.175   3.837
 5585SOL    HW117654   4.678   6.080   3.864
 5585SOL    HW217655   4.657   6.181   3.737
 5586SOL     OW17656   0.031   2.397   6.893
 5586SOL    HW117657   0.072   2.454   6.822
 5586SOL    HW217658   0.097   2.327   6.922
 5587SOL     OW17659   4.101   5.965   2.669
 5587SOL    HW117660   4.105   6.032   2.596
 5587SOL    HW217661   4.032   5.896   2.647
 5588SOL     OW17662   2.123   6.084   2.802
 5588SOL    HW117663   2.086   6.150   2.868
 5588SOL    HW217664   2.173   6.013   2.851
 5589SOL     OW17665   5.974   3.903   5.488
 5589SOL    HW117666   5.876   3.883   5.491
 5589SOL    HW217667   5.999   3.937   5.397
 5590SOL     OW17668   6.124   5.374   4.278
 5590SOL    HW117669   6.166   5.434   4.210
 5590SOL    HW217670   6.054   5.317   4.234
 5591SOL     OW17671   5.227   1.110   0.206
 5591SOL    HW117672   5.291   1.187   0.197
 5591SOL    HW217673   5.221   1.061   0.119
 5592SOL     OW17674   6.631   4.999   2.745
 5592SOL    HW117675   6.709   4.942   2.722
 5592SOL    HW217676   6.560   4.943   2.789
 5593SOL     OW17677   0.128   3.013   6.446
 5593SOL    HW117678   0.193   3.081   6.415
 5593SOL    HW217679   0.078   3.048   6.525
 5594SOL     OW17680   3.567   0.787   6.620
 5594SOL    HW117681   3.641   0.722   6.635
 5594SOL    HW217682   3.606   0.876   6.595
 5595SOL     OW17683   6.428   0.608   5.507
 5595SOL    HW117684   6.445   0.541   5.434
 5595SOL    HW217685   6.344   0.659   5.488
 5596SOL     OW17686   4.645   0.507   3.274
 5596SOL    HW117687   4.655   0.585   3.211
 5596SOL    HW217688   4.585   0.439   3.232
 5597SOL     OW17689   5.917   2.165   5.625
 5597SOL    HW117690   5.947   2.235   5.691
 5597SOL    HW217691   5.835   2.197   5.579
 5598SOL     OW17692   6.037   3.382   3.982
 5598SOL    HW117693   5.990   3.380   3.894
 5598SOL    HW217694   5.984   3.437   4.047
 5599SOL     OW17695   0.858   2.950   1.860
 5599SOL    HW117696   0.862   2.875   1.926
 5599SOL    HW217697   0.937   2.944   1.799
 5600SOL     OW17698   2.147   0.491   2.522
 5600SOL    HW117699   2.077   0.464   2.456
 5600SOL    HW217700   2.235   0.452   2.496
 5601SOL     OW17701   2.673   1.270   6.295
 5601SOL    HW117702   2.605   1.340   6.272
 5601SOL    HW217703   2.705   1.285   6.389
 5602SOL     OW17704   0.152   0.621   1.928
 5602SOL    HW117705   0.061   0.655   1.954
 5602SOL    HW217706   0.148   0.585   1.835
 5603SOL     OW17707   5.654   2.529   0.155
 5603SOL    HW117708   5.632   2.597   0.085
 5603SOL    HW217709   5.716   2.569   0.223
 5604SOL     OW17710   6.392   2.509   5.152
 5604SOL    HW117711   6.438   2.454   5.082
 5604SOL    HW217712   6.454   2.523   5.229
 5605SOL     OW17713   0.576   1.049   4.665
 5605SOL    HW117714   0.618   0.980   4.606
 5605SOL    HW217715   0.573   1.015   4.759
 5606SOL     OW17716   5.435   0.221   0.978
 5606SOL    HW117717   5.342   0.187   0.962
 5606SOL    HW217718   5.500   0.162   0.930
 5607SOL     OW17719   5.737   1.223   4.050
 5607SOL    HW117720   5.814   1.196   3.992
 5607SOL    HW217721   5.685   1.141   4.076
 5608SOL     OW17722   6.661   0.918   2.874
 5608SOL    HW117723   6.672   0.973   2.791
 5608SOL    HW217724   6.680   0.974   2.955
 5609SOL     OW17725   4.493   5.567   2.110
 5609SOL    HW117726   4.469   5.470   2.120
 5609SOL    HW217727   4.414   5.623   2.135
 5610SOL     OW17728   5.147   4.761   1.758
 5610SOL    HW117729   5.111   4.669   1.743
 5610SOL    HW217730   5.106   4.799   1.841
 5611SOL     OW17731   0.840   5.193   3.631
 5611SOL    HW117732   0.913   5.134   3.667
 5611SOL    HW217733   0.769   5.203   3.700
 5612SOL     OW17734   4.450   2.850   6.372
 5612SOL    HW117735   4.516   2.834   6.445
 5612SOL    HW217736   4.357   2.843   6.409
 5613SOL     OW17737   5.445   5.632   5.221
 5613SOL    HW117738   5.394   5.642   5.306
 5613SOL    HW217739   5.446   5.719   5.172
 5614SOL     OW17740   5.336   2.853   4.722
 5614SOL    HW117741   5.291   2.893   4.642
 5614SOL    HW217742   5.385   2.771   4.695
 5615SOL     OW17743   6.463   1.541   4.020
 5615SOL    HW117744   6.416   1.585   4.096
 5615SOL    HW217745   6.416   1.564   3.934
 5616SOL     OW17746   2.342   2.353   5.221
 5616SOL    HW117747   2.335   2.390   5.128
 5616SOL    HW217748   2.337   2.428   5.287
 5617SOL     OW17749   2.244   4.996   5.715
 5617SOL    HW117750   2.279   5.087   5.696
 5617SOL    HW217751   2.158   4.982   5.666
 5618SOL     OW17752   6.877   4.870   4.084
 5618SOL    HW117753   6.779   4.884   4.099
 5618SOL    HW217754   6.896   4.772   4.077
 5619SOL     OW17755   3.801   3.655   4.215
 5619SOL    HW117756   3.862   3.591   4.167
 5619SOL    HW217757   3.849   3.698   4.291
 5620SOL     OW17758   4.130   3.946   6.955
 5620SOL    HW117759   4.166   3.864   7.000
 5620SOL    HW217760   4.148   3.941   6.857
 5621SOL     OW17761   1.452   2.954   0.024
 5621SOL    HW117762   1.511   2.874   0.039
 5621SOL    HW217763   1.439   3.002   0.111
 5622SOL     OW17764   4.044   0.266   6.119
 5622SOL    HW117765   4.097   0.245   6.037
 5622SOL    HW217766   4.104   0.268   6.198
 5623SOL     OW17767   4.837   6.385   4.748
 5623SOL    HW117768   4.815   6.482   4.761
 5623SOL    HW217769   4.892   6.373   4.665
 5624SOL     OW17770   0.264   4.400   3.782
 5624SOL    HW117771   0.212   4.412   3.698
 5624SOL    HW217772   0.201   4.386   3.859
 5625SOL     OW17773   0.307   6.630   5.701
 5625SOL    HW117774   0.368   6.564   5.744
 5625SOL    HW217775   0.273   6.594   5.615
 5626SOL     OW17776   2.802   6.395   3.988
 5626SOL    HW117777   2.758   6.352   4.067
 5626SOL    HW217778   2.737   6.454   3.941
 5627SOL     OW17779   0.478   5.161   6.498
 5627SOL    HW117780   0.388   5.117   6.495
 5627SOL    HW217781   0.467   5.260   6.496
 5628SOL     OW17782   1.691   2.968   1.652
 5628SOL    HW117783   1.602   2.977   1.697
 5628SOL    HW217784   1.680   2.923   1.564
 5629SOL     OW17785   4.391   3.144   1.745
 5629SOL    HW117786   4.474   3.092   1.769
 5629SOL    HW217787   4.417   3.238   1.722
 5630SOL     OW17788   2.282   4.103   6.631
 5630SOL    HW117789   2.195   4.054   6.642
 5630SOL    HW217790   2.313   4.135   6.720
 5631SOL     OW17791   4.735   1.505   2.217
 5631SOL    HW117792   4.641   1.537   2.204
 5631SOL    HW217793   4.743   1.411   2.185
 5632SOL     OW17794   2.977   2.485   5.735
 5632SOL    HW117795   3.055   2.542   5.709
 5632SOL    HW217796   2.985   2.396   5.691
 5633SOL     OW17797   5.666   4.886   4.376
 5633SOL    HW117798   5.661   4.793   4.340
 5633SOL    HW217799   5.741   4.893   4.441
 5634SOL     OW17800   1.840   4.963   4.095
 5634SOL    HW117801   1.910   4.893   4.081
 5634SOL    HW217802   1.873   5.050   4.058
 5635SOL     OW17803   1.631   6.367   6.954
 5635SOL    HW117804   1.643   6.364   6.855
 5635SOL    HW217805   1.673   6.449   6.991
 5636SOL     OW17806   5.451   6.953   5.034
 5636SOL    HW117807   5.426   6.858   5.015
 5636SOL    HW217808   5.515   6.985   4.964
 5637SOL     OW17809   4.608   6.760   3.080
 5637SOL    HW117810   4.525   6.811   3.057
 5637SOL    HW217811   4.614   6.750   3.180
 5638SOL     OW17812   6.889   3.579   1.155
 5638SOL    HW117813   6.909   3.676   1.138
 5638SOL    HW217814   6.881   3.531   1.068
 5639SOL     OW17815   2.549   0.127   2.222
 5639SOL    HW117816   2.511   0.090   2.307
 5639SOL    HW217817   2.505   0.214   2.201
 5640SOL     OW17818   3.470   0.747   2.578
 5640SOL    HW117819   3.524   0.807   2.519
 5640SOL    HW217820   3.528   0.710   2.651
 5641SOL     OW17821   0.267   4.446   5.430
 5641SOL    HW117822   0.322   4.363   5.427
 5641SOL    HW217823   0.314   4.519   5.381
 5642SOL     OW17824   0.400   5.829   5.255
 5642SOL    HW117825   0.362   5.811   5.346
 5642SOL    HW217826   0.398   5.927   5.237
 5643SOL     OW17827   4.058   0.908   3.500
 5643SOL    HW117828   4.036   0.946   3.590
 5643SOL    HW217829   4.132   0.841   3.509
 5644SOL     OW17830   3.558   0.128   4.876
 5644SOL    HW117831   3.616   0.052   4.847
 5644SOL    HW217832   3.586   0.212   4.829
 5645SOL     OW17833   5.439   4.861   2.718
 5645SOL    HW117834   5.380   4.823   2.789
 5645SOL    HW217835   5.517   4.907   2.760
 5646SOL     OW17836   0.879   5.951   3.560
 5646SOL    HW117837   0.950   5.942   3.630
 5646SOL    HW217838   0.871   5.865   3.510
 5647SOL     OW17839   4.574   6.795   0.680
 5647SOL    HW117840   4.672   6.776   0.684
 5647SOL    HW217841   4.547   6.845   0.763
 5648SOL     OW17842   1.735   6.942   3.581
 5648SOL    HW117843   1.736   6.951   3.481
 5648SOL    HW217844   1.641   6.952   3.614
 5649SOL     OW17845   0.405   0.663   4.556
 5649SOL    HW117846   0.390   0.566   4.534
 5649SOL    HW217847   0.468   0.703   4.489
 5650SOL     OW17848   1.033   4.972   0.637
 5650SOL    HW117849   1.055   4.934   0.727
 5650SOL    HW217850   0.966   5.045   0.647
 5651SOL     OW17851   1.323   1.433   1.696
 5651SOL    HW117852   1.410   1.456   1.741
 5651SOL    HW217853   1.330   1.343   1.654
 5652SOL     OW17854   6.694   6.920   2.218
 5652SOL    HW117855   6.663   6.994   2.159
 5652SOL    HW217856   6.673   6.832   2.175
 5653SOL     OW17857   6.748   6.540   6.841
 5653SOL    HW117858   6.722   6.445   6.823
 5653SOL    HW217859   6.774   6.585   6.756
 5654SOL     OW17860   6.538   0.403   5.345
 5654SOL    HW117861   6.638   0.401   5.333
 5654SOL    HW217862   6.504   0.310   5.354
 5655SOL     OW17863   1.324   4.012   4.649
 5655SOL    HW117864   1.363   4.034   4.738
 5655SOL    HW217865   1.268   3.929   4.657
 5656SOL     OW17866   0.003   3.742   6.584
 5656SOL    HW117867   6.996   3.809   6.654
 5656SOL    HW217868   0.102   3.726   6.585
 5657SOL     OW17869   5.639   1.753   0.663
 5657SOL    HW117870   5.646   1.655   0.679
 5657SOL    HW217871   5.587   1.770   0.579
 5658SOL     OW17872   3.835   4.334   6.460
 5658SOL    HW117873   3.818   4.432   6.449
 5658SOL    HW217874   3.916   4.307   6.408
 5659SOL     OW17875   3.843   2.986   4.698
 5659SOL    HW117876   3.771   2.936   4.746
 5659SOL    HW217877   3.931   2.941   4.713
 5660SOL     OW17878   5.256   0.084   0.781
 5660SOL    HW117879   5.342   0.065   0.733
 5660SOL    HW217880   5.204   7.016   0.791
 5661SOL     OW17881   1.455   5.202   5.015
 5661SOL    HW117882   1.360   5.223   4.993
 5661SOL    HW217883   1.472   5.104   5.003
 5662SOL     OW17884   2.948   6.145   3.612
 5662SOL    HW117885   3.013   6.191   3.552
 5662SOL    HW217886   2.983   6.055   3.638
 5663SOL     OW17887   1.951   3.313   7.014
 5663SOL    HW117888   2.039   3.360   0.004
 5663SOL    HW217889   1.949   3.237   0.063
 5664SOL     OW17890   6.600   3.918   4.471
 5664SOL    HW117891   6.562   3.871   4.392
 5664SOL    HW217892   6.639   3.852   4.535
 5665SOL     OW17893   2.104   1.054   0.268
 5665SOL    HW117894   2.081   1.082   0.361
 5665SOL    HW217895   2.062   1.117   0.202
 5666SOL     OW17896   6.108   6.504   2.427
 5666SOL    HW117897   6.049   6.578   2.461
 5666SOL    HW217898   6.150   6.533   2.341
 5667SOL     OW17899   1.315   5.498   4.396
 5667SOL    HW117900   1.410   5.518   4.372
 5667SOL    HW217901   1.268   5.462   4.316
 5668SOL     OW17902   5.294   2.184   4.112
 5668SOL    HW117903   5.275   2.280   4.130
 5668SOL    HW217904   5.232   2.151   4.040
 5669SOL     OW17905   6.799   3.402   6.790
 5669SOL    HW117906   6.824   3.423   6.884
 5669SOL    HW217907   6.714   3.449   6.766
 5670SOL     OW17908   6.826   2.505   3.659
 5670SOL    HW117909   6.830   2.503   3.559
 5670SOL    HW217910   6.791   2.594   3.689
 5671SOL     OW17911   6.712   5.948   6.541
 5671SOL    HW117912   6.724   5.950   6.640
 5671SOL    HW217913   6.791   5.989   6.496
 5672SOL     OW17914   3.849   4.606   6.417
 5672SOL    HW117915   3.809   4.621   6.507
 5672SOL    HW217916   3.909   4.683   6.394
 5673SOL     OW17917   1.014   0.388   2.127
 5673SOL    HW117918   0.991   0.291   2.136
 5673SOL    HW217919   0.943   0.434   2.074
 5674SOL     OW17920   0.410   4.968   4.733
 5674SOL    HW117921   0.392   5.021   4.651
 5674SOL    HW217922   0.453   4.881   4.708
 5675SOL     OW17923   3.839   2.423   0.041
 5675SOL    HW117924   3.781   2.499   0.013
 5675SOL    HW217925   3.924   2.459   0.080
 5676SOL     OW17926   2.192   2.934   2.028
 5676SOL    HW117927   2.259   2.917   1.956
 5676SOL    HW217928   2.122   2.863   2.025
 5677SOL     OW17929   0.920   1.370   0.446
 5677SOL    HW117930   0.905   1.400   0.540
 5677SOL    HW217931   0.959   1.446   0.392
 5678SOL     OW17932   4.187   6.594   2.217
 5678SOL    HW117933   4.258   6.664   2.230
 5678SOL    HW217934   4.161   6.556   2.306
 5679SOL     OW17935   0.307   1.494   3.807
 5679SOL    HW117936   0.300   1.559   3.731
 5679SOL    HW217937   0.231   1.429   3.802
 5680SOL     OW17938   1.758   5.000   5.617
 5680SOL    HW117939   1.710   4.911   5.619
 5680SOL    HW217940   1.785   5.025   5.710
 5681SOL     OW17941   0.104   4.274   0.963
 5681SOL    HW117942   0.173   4.342   0.938
 5681SOL    HW217943   0.095   4.207   0.890
 5682SOL     OW17944   2.360   4.853   5.180
 5682SOL    HW117945   2.308   4.903   5.249
 5682SOL    HW217946   2.335   4.756   5.184
 5683SOL     OW17947   4.186   0.951   6.098
 5683SOL    HW117948   4.283   0.975   6.099
 5683SOL    HW217949   4.176   0.854   6.123
 5684SOL     OW17950   2.225   3.302   5.606
 5684SOL    HW117951   2.162   3.380   5.609
 5684SOL    HW217952   2.230   3.267   5.513
 5685SOL     OW17953   1.885   2.886   2.228
 5685SOL    HW117954   1.890   2.828   2.310
 5685SOL    HW217955   1.831   2.840   2.158
 5686SOL     OW17956   3.115   1.318   6.155
 5686SOL    HW117957   3.129   1.409   6.192
 5686SOL    HW217958   3.037   1.318   6.093
 5687SOL     OW17959   0.854   5.083   0.021
 5687SOL    HW117960   0.864   5.152   0.092
 5687SOL    HW217961   0.761   5.088   6.999
 5688SOL     OW17962   0.478   2.478   1.354
 5688SOL    HW117963   0.405   2.459   1.420
 5688SOL    HW217964   0.502   2.393   1.306
 5689SOL     OW17965   3.887   1.259   0.565
 5689SOL    HW117966   3.851   1.168   0.541
 5689SOL    HW217967   3.861   1.325   0.494
 5690SOL     OW17968   2.226   6.002   0.024
 5690SOL    HW117969   2.152   5.991   0.091
 5690SOL    HW217970   2.296   5.932   0.040
 5691SOL     OW17971   3.510   0.806   1.767
 5691SOL    HW117972   3.546   0.773   1.680
 5691SOL    HW217973   3.430   0.752   1.793
 5692SOL     OW17974   5.741   3.317   0.715
 5692SOL    HW117975   5.787   3.340   0.801
 5692SOL    HW217976   5.698   3.227   0.724
 5693SOL     OW17977   5.310   2.324   2.442
 5693SOL    HW117978   5.216   2.330   2.477
 5693SOL    HW217979   5.316   2.369   2.353
 5694SOL     OW17980   0.787   1.601   3.329
 5694SOL    HW117981   0.704   1.546   3.343
 5694SOL    HW217982   0.842   1.560   3.256
 5695SOL     OW17983   1.278   2.752   3.083
 5695SOL    HW117984   1.335   2.737   3.001
 5695SOL    HW217985   1.203   2.687   3.083
 5696SOL     OW17986   0.997   1.537   3.171
 5696SOL    HW117987   1.052   1.478   3.231
 5696SOL    HW217988   1.057   1.597   3.120
 5697SOL     OW17989   5.903   2.245   1.493
 5697SOL    HW117990   5.958   2.327   1.499
 5697SOL    HW217991   5.935   2.189   1.416
 5698SOL     OW17992   0.816   3.960   3.927
 5698SOL    HW117993   0.828   3.904   4.008
 5698SOL    HW217994   0.784   4.051   3.953
 5699SOL     OW17995   0.757   2.810   3.176
 5699SOL    HW117996   0.714   2.895   3.144
 5699SOL    HW217997   0.801   2.764   3.099
 5700SOL     OW17998   6.876   6.909   3.264
 5700SOL    HW117999   6.793   6.955   3.297
 5700SOL    HW218000   6.924   6.968   3.199
 5701SOL     OW18001   1.306   0.845   2.006
 5701SOL    HW118002   1.376   0.807   2.067
 5701SOL    HW218003   1.223   0.865   2.059
 5702SOL     OW18004   2.662   5.896   4.783
 5702SOL    HW118005   2.575   5.851   4.805
 5702SOL    HW218006   2.667   5.983   4.830
 5703SOL     OW18007   6.795   4.650   1.619
 5703SOL    HW118008   6.807   4.713   1.696
 5703SOL    HW218009   6.810   4.556   1.649
 5704SOL     OW18010   4.674   4.788   2.331
 5704SOL    HW118011   4.761   4.742   2.348
 5704SOL    HW218012   4.599   4.734   2.370
 5705SOL     OW18013   5.307   0.190   0.077
 5705SOL    HW118014   5.350   0.107   0.042
 5705SOL    HW218015   5.368   0.235   0.142
 5706SOL     OW18016   6.924   4.020   0.832
 5706SOL    HW118017   6.891   4.073   0.753
 5706SOL    HW218018   0.004   3.999   0.820
 5707SOL     OW18019   0.268   6.490   0.205
 5707SOL    HW118020   0.207   6.448   0.138
 5707SOL    HW218021   0.363   6.479   0.176
 5708SOL     OW18022   5.160   6.050   1.883
 5708SOL    HW118023   5.063   6.062   1.904
 5708SOL    HW218024   5.208   6.136   1.896
 5709SOL     OW18025   1.343   0.537   2.568
 5709SOL    HW118026   1.290   0.452   2.562
 5709SOL    HW218027   1.309   0.602   2.499
 5710SOL     OW18028   2.469   2.943   0.797
 5710SOL    HW118029   2.401   2.870   0.806
 5710SOL    HW218030   2.470   2.976   0.702
 5711SOL     OW18031   5.513   0.795   2.348
 5711SOL    HW118032   5.522   0.769   2.252
 5711SOL    HW218033   5.418   0.785   2.377
 5712SOL     OW18034   6.455   0.304   6.470
 5712SOL    HW118035   6.391   0.364   6.422
 5712SOL    HW218036   6.544   0.307   6.425
 5713SOL     OW18037   3.418   2.937   1.602
 5713SOL    HW118038   3.352   2.894   1.541
 5713SOL    HW218039   3.414   2.893   1.692
 5714SOL     OW18040   0.284   5.858   0.443
 5714SOL    HW118041   0.349   5.791   0.480
 5714SOL    HW218042   0.317   5.950   0.461
 5715SOL     OW18043   0.800   0.226   3.003
 5715SOL    HW118044   0.737   0.148   3.014
 5715SOL    HW218045   0.796   0.283   3.085
 5716SOL     OW18046   1.953   4.158   6.491
 5716SOL    HW118047   1.995   4.240   6.452
 5716SOL    HW218048   1.902   4.182   6.573
 5717SOL     OW18049   1.400   4.816   1.213
 5717SOL    HW118050   1.366   4.891   1.270
 5717SOL    HW218051   1.497   4.828   1.197
 5718SOL     OW18052   0.184   2.563   5.090
 5718SOL    HW118053   0.114   2.504   5.051
 5718SOL    HW218054   0.175   2.565   5.190
 5719SOL     OW18055   2.740   1.845   6.341
 5719SOL    HW118056   2.720   1.795   6.425
 5719SOL    HW218057   2.791   1.928   6.364
 5720SOL     OW18058   1.584   5.435   4.918
 5720SOL    HW118059   1.660   5.419   4.855
 5720SOL    HW218060   1.566   5.352   4.971
 5721SOL     OW18061   0.181   3.418   1.213
 5721SOL    HW118062   0.252   3.485   1.232
 5721SOL    HW218063   0.100   3.438   1.269
 5722SOL     OW18064   6.786   1.545   4.964
 5722SOL    HW118065   6.691   1.568   4.984
 5722SOL    HW218066   6.801   1.546   4.865
 5723SOL     OW18067   3.882   3.327   0.732
 5723SOL    HW118068   3.852   3.351   0.640
 5723SOL    HW218069   3.936   3.402   0.770
 5724SOL     OW18070   5.611   2.805   4.836
 5724SOL    HW118071   5.522   2.821   4.878
 5724SOL    HW218072   5.677   2.781   4.908
 5725SOL     OW18073   5.049   5.642   4.356
 5725SOL    HW118074   5.050   5.563   4.295
 5725SOL    HW218075   5.062   5.612   4.451
 5726SOL     OW18076   0.359   4.645   4.544
 5726SOL    HW118077   0.403   4.636   4.633
 5726SOL    HW218078   0.265   4.610   4.550
 5727SOL     OW18079   6.653   1.686   3.757
 5727SOL    HW118080   6.678   1.773   3.800
 5727SOL    HW218081   6.567   1.698   3.707
 5728SOL     OW18082   3.685   0.363   6.743
 5728SOL    HW118083   3.687   0.356   6.643
 5728SOL    HW218084   3.613   0.303   6.778
 5729SOL     OW18085   1.144   1.397   0.923
 5729SOL    HW118086   1.229   1.418   0.972
 5729SOL    HW218087   1.081   1.474   0.933
 5730SOL     OW18088   4.663   4.760   5.921
 5730SOL    HW118089   4.712   4.745   5.835
 5730SOL    HW218090   4.648   4.672   5.967
 5731SOL     OW18091   6.837   6.531   3.787
 5731SOL    HW118092   6.837   6.495   3.694
 5731SOL    HW218093   6.786   6.617   3.790
 5732SOL     OW18094   6.557   5.505   4.758
 5732SOL    HW118095   6.493   5.462   4.695
 5732SOL    HW218096   6.602   5.582   4.714
 5733SOL     OW18097   4.492   6.630   5.137
 5733SOL    HW118098   4.518   6.671   5.224
 5733SOL    HW218099   4.498   6.530   5.145
 5734SOL     OW18100   0.965   6.673   5.578
 5734SOL    HW118101   1.003   6.677   5.670
 5734SOL    HW218102   0.866   6.686   5.582
 5735SOL     OW18103   4.017   2.170   2.206
 5735SOL    HW118104   4.066   2.212   2.129
 5735SOL    HW218105   3.946   2.109   2.170
 5736SOL     OW18106   6.075   4.431   0.152
 5736SOL    HW118107   6.139   4.478   0.213
 5736SOL    HW218108   6.000   4.494   0.128
 5737SOL     OW18109   5.585   6.919   1.139
 5737SOL    HW118110   5.643   6.837   1.146
 5737SOL    HW218111   5.561   6.950   1.231
 5738SOL     OW18112   2.289   3.106   5.966
 5738SOL    HW118113   2.278   3.100   5.867
 5738SOL    HW218114   2.219   3.051   6.011
 5739SOL     OW18115   1.646   0.906   5.695
 5739SOL    HW118116   1.552   0.887   5.668
 5739SOL    HW218117   1.699   0.821   5.691
 5740SOL     OW18118   4.231   3.540   1.762
 5740SOL    HW118119   4.262   3.634   1.774
 5740SOL    HW218120   4.189   3.507   1.847
 5741SOL     OW18121   0.369   4.089   4.427
 5741SOL    HW118122   0.402   4.046   4.511
 5741SOL    HW218123   0.437   4.076   4.355
 5742SOL     OW18124   5.186   6.859   2.179
 5742SOL    HW118125   5.221   6.879   2.087
 5742SOL    HW218126   5.260   6.866   2.245
 5743SOL     OW18127   2.651   4.995   5.280
 5743SOL    HW118128   2.734   5.048   5.293
 5743SOL    HW218129   2.674   4.899   5.266
 5744SOL     OW18130   4.671   0.655   2.194
 5744SOL    HW118131   4.625   0.606   2.269
 5744SOL    HW218132   4.606   0.718   2.151
 5745SOL     OW18133   1.579   0.717   3.879
 5745SOL    HW118134   1.495   0.727   3.825
 5745SOL    HW218135   1.658   0.718   3.818
 5746SOL     OW18136   6.117   6.679   1.580
 5746SOL    HW118137   6.097   6.588   1.616
 5746SOL    HW218138   6.061   6.696   1.499
 5747SOL     OW18139   0.044   4.512   3.105
 5747SOL    HW118140   6.963   4.492   3.095
 5747SOL    HW218141   0.062   4.605   3.074
 5748SOL     OW18142   1.451   5.603   0.239
 5748SOL    HW118143   1.517   5.654   0.184
 5748SOL    HW218144   1.444   5.644   0.330
 5749SOL     OW18145   1.368   7.015   4.761
 5749SOL    HW118146   1.410   0.000   4.670
 5749SOL    HW218147   1.316   0.083   4.774
 5750SOL     OW18148   5.628   6.426   4.467
 5750SOL    HW118149   5.537   6.467   4.462
 5750SOL    HW218150   5.619   6.326   4.459
 5751SOL     OW18151   2.692   2.317   4.565
 5751SOL    HW118152   2.719   2.362   4.480
 5751SOL    HW218153   2.641   2.234   4.543
 5752SOL     OW18154   6.285   0.659   0.137
 5752SOL    HW118155   6.288   0.700   0.046
 5752SOL    HW218156   6.190   0.644   0.164
 5753SOL     OW18157   3.860   3.324   5.213
 5753SOL    HW118158   3.847   3.263   5.291
 5753SOL    HW218159   3.894   3.413   5.246
 5754SOL     OW18160   6.498   4.125   1.089
 5754SOL    HW118161   6.574   4.083   1.039
 5754SOL    HW218162   6.512   4.224   1.094
 5755SOL     OW18163   2.088   2.785   6.385
 5755SOL    HW118164   2.119   2.708   6.442
 5755SOL    HW218165   2.168   2.832   6.347
 5756SOL     OW18166   6.251   6.584   3.757
 5756SOL    HW118167   6.225   6.489   3.738
 5756SOL    HW218168   6.183   6.646   3.718
 5757SOL     OW18169   6.724   6.384   2.773
 5757SOL    HW118170   6.750   6.480   2.769
 5757SOL    HW218171   6.655   6.364   2.703
 5758SOL     OW18172   2.384   0.822   5.107
 5758SOL    HW118173   2.430   0.753   5.163
 5758SOL    HW218174   2.439   0.841   5.025
 5759SOL     OW18175   4.965   1.097   6.383
 5759SOL    HW118176   4.927   1.178   6.428
 5759SOL    HW218177   4.959   1.019   6.446
 5760SOL     OW18178   0.507   4.632   1.158
 5760SOL    HW118179   0.519   4.712   1.217
 5760SOL    HW218180   0.522   4.659   1.062
 5761SOL     OW18181   5.694   6.906   6.350
 5761SOL    HW118182   5.638   6.883   6.429
 5761SOL    HW218183   5.680   6.837   6.279
 5762SOL     OW18184   4.737   5.852   0.183
 5762SOL    HW118185   4.791   5.786   0.235
 5762SOL    HW218186   4.786   5.877   0.100
 5763SOL     OW18187   6.830   1.232   6.483
 5763SOL    HW118188   6.888   1.313   6.489
 5763SOL    HW218189   6.781   1.220   6.570
 5764SOL     OW18190   4.535   4.745   5.574
 5764SOL    HW118191   4.512   4.663   5.522
 5764SOL    HW218192   4.632   4.741   5.601
 5765SOL     OW18193   6.681   3.755   0.015
 5765SOL    HW118194   6.638   3.791   0.098
 5765SOL    HW218195   6.650   3.808   6.952
 5766SOL     OW18196   2.424   2.292   0.179
 5766SOL    HW118197   2.414   2.193   0.167
 5766SOL    HW218198   2.513   2.311   0.220
 5767SOL     OW18199   2.062   0.182   0.654
 5767SOL    HW118200   2.029   0.176   0.560
 5767SOL    HW218201   2.123   0.105   0.673
 5768SOL     OW18202   6.997   6.790   2.764
 5768SOL    HW118203   0.004   6.883   2.792
 5768SOL    HW218204   7.011   6.727   2.840
 5769SOL     OW18205   2.425   6.106   4.324
 5769SOL    HW118206   2.494   6.038   4.300
 5769SOL    HW218207   2.357   6.064   4.385
 5770SOL     OW18208   5.620   6.993   0.423
 5770SOL    HW118209   5.534   6.943   0.417
 5770SOL    HW218210   5.696   6.930   0.414
 5771SOL     OW18211   1.564   6.346   3.111
 5771SOL    HW118212   1.511   6.429   3.096
 5771SOL    HW218213   1.521   6.293   3.185
 5772SOL     OW18214   6.299   2.545   0.758
 5772SOL    HW118215   6.302   2.462   0.814
 5772SOL    HW218216   6.378   2.602   0.778
 5773SOL     OW18217   4.782   1.169   3.979
 5773SOL    HW118218   4.837   1.184   4.061
 5773SOL    HW218219   4.746   1.256   3.946
 5774SOL     OW18220   2.926   5.854   3.890
 5774SOL    HW118221   2.938   5.783   3.959
 5774SOL    HW218222   2.880   5.933   3.931
 5775SOL     OW18223   1.525   0.721   2.177
 5775SOL    HW118224   1.496   0.626   2.164
 5775SOL    HW218225   1.625   0.726   2.166
 5776SOL     OW18226   6.264   1.169   5.746
 5776SOL    HW118227   6.176   1.216   5.755
 5776SOL    HW218228   6.252   1.083   5.696
 5777SOL     OW18229   6.745   0.318   5.049
 5777SOL    HW118230   6.696   0.404   5.061
 5777SOL    HW218231   6.691   0.243   5.085
 5778SOL     OW18232   1.690   0.376   1.764
 5778SOL    HW118233   1.745   0.383   1.681
 5778SOL    HW218234   1.722   0.298   1.819
 5779SOL     OW18235   4.085   1.467   0.539
 5779SOL    HW118236   4.134   1.469   0.626
 5779SOL    HW218237   3.990   1.440   0.554
 5780SOL     OW18238   6.178   5.392   3.039
 5780SOL    HW118239   6.180   5.302   2.996
 5780SOL    HW218240   6.105   5.394   3.107
 5781SOL     OW18241   0.782   3.946   4.696
 5781SOL    HW118242   0.816   3.853   4.676
 5781SOL    HW218243   0.682   3.944   4.704
 5782SOL     OW18244   1.612   0.676   0.799
 5782SOL    HW118245   1.532   0.636   0.845
 5782SOL    HW218246   1.650   0.609   0.735
 5783SOL     OW18247   1.672   0.912   1.464
 5783SOL    HW118248   1.621   0.919   1.378
 5783SOL    HW218249   1.651   0.825   1.508
 5784SOL     OW18250   6.688   6.304   0.054
 5784SOL    HW118251   6.602   6.265   0.021
 5784SOL    HW218252   6.670   6.360   0.135
 5785SOL     OW18253   1.604   1.362   1.506
 5785SOL    HW118254   1.601   1.314   1.594
 5785SOL    HW218255   1.695   1.400   1.491
 5786SOL     OW18256   0.810   4.332   0.384
 5786SOL    HW118257   0.888   4.331   0.447
 5786SOL    HW218258   0.799   4.242   0.343
 5787SOL     OW18259   4.578   2.654   4.873
 5787SOL    HW118260   4.570   2.676   4.970
 5787SOL    HW218261   4.565   2.555   4.860
 5788SOL     OW18262   3.183   0.976   1.095
 5788SOL    HW118263   3.147   1.010   1.182
 5788SOL    HW218264   3.283   0.985   1.095
 5789SOL     OW18265   3.303   3.482   5.990
 5789SOL    HW118266   3.225   3.425   6.013
 5789SOL    HW218267   3.307   3.496   5.891
 5790SOL     OW18268   0.636   4.771   4.670
 5790SOL    HW118269   0.616   4.703   4.741
 5790SOL    HW218270   0.669   4.726   4.588
 5791SOL     OW18271   2.784   2.265   2.518
 5791SOL    HW118272   2.769   2.304   2.609
 5791SOL    HW218273   2.701   2.275   2.463
 5792SOL     OW18274   5.608   3.433   2.186
 5792SOL    HW118275   5.586   3.518   2.234
 5792SOL    HW218276   5.575   3.438   2.092
 5793SOL     OW18277   5.876   0.765   4.289
 5793SOL    HW118278   5.966   0.730   4.315
 5793SOL    HW218279   5.809   0.735   4.357
 5794SOL     OW18280   2.940   0.252   6.431
 5794SOL    HW118281   2.899   0.284   6.516
 5794SOL    HW218282   2.950   0.329   6.368
 5795SOL     OW18283   6.827   0.008   1.291
 5795SOL    HW118284   6.885   0.062   1.229
 5795SOL    HW218285   6.780   6.953   1.239
 5796SOL     OW18286   4.243   0.735   6.364
 5796SOL    HW118287   4.249   0.808   6.432
 5796SOL    HW218288   4.148   0.705   6.356
 5797SOL     OW18289   5.147   1.573   0.399
 5797SOL    HW118290   5.078   1.620   0.454
 5797SOL    HW218291   5.182   1.635   0.329
 5798SOL     OW18292   6.958   4.788   4.385
 5798SOL    HW118293   6.896   4.866   4.384
 5798SOL    HW218294   0.036   4.819   4.379
 5799SOL     OW18295   0.034   0.587   4.084
 5799SOL    HW118296   0.011   0.491   4.071
 5799SOL    HW218297   6.975   0.634   4.130
 5800SOL     OW18298   0.963   6.639   1.673
 5800SOL    HW118299   0.995   6.545   1.661
 5800SOL    HW218300   1.008   6.699   1.607
 5801SOL     OW18301   2.143   2.603   3.662
 5801SOL    HW118302   2.106   2.647   3.743
 5801SOL    HW218303   2.224   2.550   3.686
 5802SOL     OW18304   6.401   3.010   2.661
 5802SOL    HW118305   6.317   2.979   2.617
 5802SOL    HW218306   6.384   3.025   2.759
 5803SOL     OW18307   1.769   5.732   3.439
 5803SOL    HW118308   1.745   5.677   3.519
 5803SOL    HW218309   1.783   5.827   3.467
 5804SOL     OW18310   6.952   5.773   3.121
 5804SOL    HW118311   6.898   5.858   3.120
 5804SOL    HW218312   0.017   5.785   3.063
 5805SOL     OW18313   1.765   2.874   0.515
 5805SOL    HW118314   1.810   2.909   0.597
 5805SOL    HW218315   1.810   2.790   0.486
 5806SOL     OW18316   0.057   4.568   4.593
 5806SOL    HW118317   0.005   4.483   4.596
 5806SOL    HW218318   0.016   4.630   4.526
 5807SOL     OW18319   1.069   5.411   0.800
 5807SOL    HW118320   1.152   5.390   0.852
 5807SOL    HW218321   0.999   5.342   0.820
 5808SOL     OW18322   0.026   6.600   4.453
 5808SOL    HW118323   0.092   6.525   4.450
 5808SOL    HW218324   6.960   6.574   4.402
 5809SOL     OW18325   6.706   1.868   5.296
 5809SOL    HW118326   6.716   1.867   5.395
 5809SOL    HW218327   6.777   1.926   5.256
 5810SOL     OW18328   4.736   1.059   5.326
 5810SOL    HW118329   4.685   0.977   5.300
 5810SOL    HW218330   4.729   1.127   5.253
 5811SOL     OW18331   3.594   1.409   5.260
 5811SOL    HW118332   3.512   1.361   5.289
 5811SOL    HW218333   3.661   1.408   5.335
 5812SOL     OW18334   5.024   3.288   5.817
 5812SOL    HW118335   5.083   3.324   5.890
 5812SOL    HW218336   5.017   3.189   5.826
 5813SOL     OW18337   2.584   0.254   0.912
 5813SOL    HW118338   2.602   0.301   0.998
 5813SOL    HW218339   2.633   0.166   0.912
 5814SOL     OW18340   0.344   3.434   2.036
 5814SOL    HW118341   0.282   3.394   1.970
 5814SOL    HW218342   0.359   3.370   2.111
 5815SOL     OW18343   4.695   1.885   4.138
 5815SOL    HW118344   4.739   1.899   4.227
 5815SOL    HW218345   4.707   1.790   4.110
 5816SOL     OW18346   5.654   5.026   0.210
 5816SOL    HW118347   5.671   4.995   0.116
 5816SOL    HW218348   5.556   5.033   0.226
 5817SOL     OW18349   6.255   4.688   5.341
 5817SOL    HW118350   6.249   4.782   5.309
 5817SOL    HW218351   6.167   4.660   5.380
 5818SOL     OW18352   0.150   5.524   5.362
 5818SOL    HW118353   0.151   5.512   5.263
 5818SOL    HW218354   0.219   5.590   5.389
 5819SOL     OW18355   3.287   6.079   7.001
 5819SOL    HW118356   3.219   6.014   6.965
 5819SOL    HW218357   3.362   6.028   0.027
 5820SOL     OW18358   4.384   4.623   2.690
 5820SOL    HW118359   4.426   4.565   2.759
 5820SOL    HW218360   4.374   4.716   2.726
 5821SOL     OW18361   6.500   0.856   1.443
 5821SOL    HW118362   6.448   0.941   1.442
 5821SOL    HW218363   6.440   0.779   1.418
 5822SOL     OW18364   2.007   2.795   1.871
 5822SOL    HW118365   2.026   2.757   1.780
 5822SOL    HW218366   1.918   2.840   1.871
 5823SOL     OW18367   2.737   6.977   4.697
 5823SOL    HW118368   2.791   6.983   4.614
 5823SOL    HW218369   2.785   0.006   4.772
 5824SOL     OW18370   0.528   6.387   3.633
 5824SOL    HW118371   0.439   6.343   3.625
 5824SOL    HW218372   0.595   6.320   3.667
 5825SOL     OW18373   0.380   6.125   4.592
 5825SOL    HW118374   0.372   6.026   4.603
 5825SOL    HW218375   0.294   6.169   4.617
 5826SOL     OW18376   0.560   6.073   5.933
 5826SOL    HW118377   0.605   6.006   5.992
 5826SOL    HW218378   0.471   6.097   5.971
 5827SOL     OW18379   1.678   3.113   4.437
 5827SOL    HW118380   1.686   3.058   4.520
 5827SOL    HW218381   1.583   3.113   4.406
 5828SOL     OW18382   4.978   1.186   2.829
 5828SOL    HW118383   5.061   1.131   2.821
 5828SOL    HW218384   4.986   1.267   2.771
 5829SOL     OW18385   1.380   0.404   4.517
 5829SOL    HW118386   1.393   0.420   4.615
 5829SOL    HW218387   1.313   0.331   4.504
 5830SOL     OW18388   5.097   0.248   6.045
 5830SOL    HW118389   5.050   0.174   6.092
 5830SOL    HW218390   5.030   0.315   6.012
 5831SOL     OW18391   1.249   1.068   6.069
 5831SOL    HW118392   1.267   1.070   5.971
 5831SOL    HW218393   1.333   1.043   6.117
 5832SOL     OW18394   3.596   4.543   0.266
 5832SOL    HW118395   3.671   4.490   0.226
 5832SOL    HW218396   3.633   4.608   0.332
 5833SOL     OW18397   4.144   3.503   5.046
 5833SOL    HW118398   4.216   3.516   5.114
 5833SOL    HW218399   4.109   3.410   5.051
 5834SOL     OW18400   6.448   4.294   6.643
 5834SOL    HW118401   6.475   4.216   6.586
 5834SOL    HW218402   6.415   4.368   6.584
 5835SOL     OW18403   5.469   1.757   2.780
 5835SOL    HW118404   5.551   1.757   2.722
 5835SOL    HW218405   5.494   1.788   2.872
 5836SOL     OW18406   3.120   0.190   1.732
 5836SOL    HW118407   3.193   0.177   1.665
 5836SOL    HW218408   3.155   0.240   1.810
 5837SOL     OW18409   3.588   3.171   0.332
 5837SOL    HW118410   3.509   3.135   0.282
 5837SOL    HW218411   3.672   3.146   0.284
 5838SOL     OW18412   2.796   1.826   1.332
 5838SOL    HW118413   2.701   1.801   1.311
 5838SOL    HW218414   2.856   1.747   1.315
 5839SOL     OW18415   0.561   2.194   0.503
 5839SOL    HW118416   0.653   2.171   0.533
 5839SOL    HW218417   0.528   2.274   0.552
 5840SOL     OW18418   0.800   4.276   6.950
 5840SOL    HW118419   0.897   4.268   6.973
 5840SOL    HW218420   0.790   4.301   6.854
 5841SOL     OW18421   5.531   0.990   1.858
 5841SOL    HW118422   5.528   1.090   1.868
 5841SOL    HW218423   5.617   0.955   1.894
 5842SOL     OW18424   4.930   2.722   1.681
 5842SOL    HW118425   4.930   2.717   1.581
 5842SOL    HW218426   4.836   2.719   1.714
 5843SOL     OW18427   0.958   4.406   1.945
 5843SOL    HW118428   0.875   4.351   1.942
 5843SOL    HW218429   1.007   4.390   2.030
 5844SOL     OW18430   1.350   5.649   6.051
 5844SOL    HW118431   1.260   5.650   6.095
 5844SOL    HW218432   1.373   5.554   6.028
 5845SOL     OW18433   0.841   0.187   1.924
 5845SOL    HW118434   0.904   0.133   1.868
 5845SOL    HW218435   0.769   0.225   1.866
 5846SOL     OW18436   5.808   3.526   5.784
 5846SOL    HW118437   5.783   3.538   5.688
 5846SOL    HW218438   5.830   3.615   5.825
 5847SOL     OW18439   2.705   2.387   1.720
 5847SOL    HW118440   2.792   2.429   1.744
 5847SOL    HW218441   2.680   2.321   1.791
 5848SOL     OW18442   1.534   5.838   3.269
 5848SOL    HW118443   1.503   5.772   3.201
 5848SOL    HW218444   1.487   5.820   3.356
 5849SOL     OW18445   1.927   6.981   5.358
 5849SOL    HW118446   1.840   0.009   5.333
 5849SOL    HW218447   1.955   6.919   5.285
 5850SOL     OW18448   0.440   3.671   2.144
 5850SOL    HW118449   0.383   3.749   2.120
 5850SOL    HW218450   0.404   3.588   2.102
 5851SOL     OW18451   5.197   3.920   3.945
 5851SOL    HW118452   5.271   3.901   4.009
 5851SOL    HW218453   5.235   3.942   3.856
 5852SOL     OW18454   5.154   6.408   2.537
 5852SOL    HW118455   5.132   6.327   2.592
 5852SOL    HW218456   5.070   6.457   2.514
 5853SOL     OW18457   4.138   5.167   5.430
 5853SOL    HW118458   4.198   5.088   5.416
 5853SOL    HW218459   4.084   5.154   5.513
 5854SOL     OW18460   4.125   3.916   5.414
 5854SOL    HW118461   4.081   3.851   5.476
 5854SOL    HW218462   4.111   3.887   5.319
 5855SOL     OW18463   1.469   1.047   4.367
 5855SOL    HW118464   1.485   1.111   4.442
 5855SOL    HW218465   1.371   1.040   4.349
 5856SOL     OW18466   1.223   6.350   3.750
 5856SOL    HW118467   1.251   6.366   3.656
 5856SOL    HW218468   1.218   6.437   3.799
 5857SOL     OW18469   6.453   3.252   4.893
 5857SOL    HW118470   6.421   3.208   4.810
 5857SOL    HW218471   6.469   3.183   4.964
 5858SOL     OW18472   2.171   2.186   2.808
 5858SOL    HW118473   2.095   2.145   2.857
 5858SOL    HW218474   2.197   2.127   2.731
 5859SOL     OW18475   6.457   6.087   1.042
 5859SOL    HW118476   6.371   6.134   1.064
 5859SOL    HW218477   6.463   6.003   1.096
 5860SOL     OW18478   6.724   5.274   3.119
 5860SOL    HW118479   6.796   5.227   3.171
 5860SOL    HW218480   6.749   5.370   3.107
 5861SOL     OW18481   5.450   1.135   4.132
 5861SOL    HW118482   5.427   1.075   4.055
 5861SOL    HW218483   5.366   1.173   4.170
 5862SOL     OW18484   6.202   5.255   0.983
 5862SOL    HW118485   6.279   5.196   1.006
 5862SOL    HW218486   6.167   5.231   0.892
 5863SOL     OW18487   2.801   2.067   4.833
 5863SOL    HW118488   2.831   2.049   4.927
 5863SOL    HW218489   2.873   2.115   4.783
 5864SOL     OW18490   3.100   3.797   2.745
 5864SOL    HW118491   3.175   3.777   2.808
 5864SOL    HW218492   3.021   3.740   2.768
 5865SOL     OW18493   5.499   0.591   4.957
 5865SOL    HW118494   5.494   0.555   5.050
 5865SOL    HW218495   5.435   0.668   4.947
 5866SOL     OW18496   3.518   3.151   1.266
 5866SOL    HW118497   3.521   3.171   1.364
 5866SOL    HW218498   3.507   3.236   1.215
 5867SOL     OW18499   2.043   3.264   1.445
 5867SOL    HW118500   2.125   3.299   1.491
 5867SOL    HW218501   1.992   3.205   1.508
 5868SOL     OW18502   1.793   1.529   5.820
 5868SOL    HW118503   1.753   1.454   5.872
 5868SOL    HW218504   1.892   1.516   5.814
 5869SOL     OW18505   2.143   5.669   2.896
 5869SOL    HW118506   2.170   5.663   2.800
 5869SOL    HW218507   2.043   5.667   2.903
 5870SOL     OW18508   5.534   6.205   4.892
 5870SOL    HW118509   5.440   6.176   4.875
 5870SOL    HW218510   5.588   6.126   4.922
 5871SOL     OW18511   3.693   3.625   1.837
 5871SOL    HW118512   3.627   3.695   1.812
 5871SOL    HW218513   3.658   3.535   1.811
 5872SOL     OW18514   4.180   6.802   1.573
 5872SOL    HW118515   4.081   6.805   1.585
 5872SOL    HW218516   4.212   6.708   1.580
 5873SOL     OW18517   3.408   6.811   2.154
 5873SOL    HW118518   3.467   6.765   2.222
 5873SOL    HW218519   3.441   6.904   2.140
 5874SOL     OW18520   2.214   4.524   5.058
 5874SOL    HW118521   2.278   4.466   5.109
 5874SOL    HW218522   2.130   4.536   5.111
 5875SOL     OW18523   4.235   1.350   0.355
 5875SOL    HW118524   4.246   1.410   0.276
 5875SOL    HW218525   4.175   1.394   0.422
 5876SOL     OW18526   3.989   3.356   1.721
 5876SOL    HW118527   3.999   3.433   1.783
 5876SOL    HW218528   3.974   3.390   1.628
 5877SOL     OW18529   6.434   6.482   1.075
 5877SOL    HW118530   6.498   6.558   1.086
 5877SOL    HW218531   6.433   6.453   0.979
 5878SOL     OW18532   0.084   5.292   4.439
 5878SOL    HW118533   0.056   5.231   4.364
 5878SOL    HW218534   0.101   5.237   4.521
 5879SOL     OW18535   1.927   4.223   6.972
 5879SOL    HW118536   2.003   4.170   6.934
 5879SOL    HW218537   1.903   4.187   0.046
 5880SOL     OW18538   4.425   4.098   6.910
 5880SOL    HW118539   4.399   4.078   7.004
 5880SOL    HW218540   4.348   4.077   6.849
 5881SOL     OW18541   0.390   6.197   2.738
 5881SOL    HW118542   0.485   6.228   2.731
 5881SOL    HW218543   0.379   6.114   2.683
 5882SOL     OW18544   0.253   6.199   1.320
 5882SOL    HW118545   0.277   6.283   1.368
 5882SOL    HW218546   0.163   6.210   1.277
 5883SOL     OW18547   1.264   0.761   6.341
 5883SOL    HW118548   1.347   0.765   6.396
 5883SOL    HW218549   1.289   0.756   6.244
 5884SOL     OW18550   3.121   1.857   4.601
 5884SOL    HW118551   3.200   1.908   4.635
 5884SOL    HW218552   3.087   1.796   4.672
 5885SOL     OW18553   0.550   0.408   3.492
 5885SOL    HW118554   0.639   0.367   3.476
 5885SOL    HW218555   0.557   0.476   3.565
 5886SOL     OW18556   0.604   1.594   4.803
 5886SOL    HW118557   0.596   1.499   4.832
 5886SOL    HW218558   0.689   1.607   4.752
 5887SOL     OW18559   2.803   1.575   3.428
 5887SOL    HW118560   2.793   1.660   3.478
 5887SOL    HW218561   2.854   1.509   3.484
 5888SOL     OW18562   3.127   1.004   1.687
 5888SOL    HW118563   3.052   1.069   1.699
 5888SOL    HW218564   3.107   0.920   1.738
 5889SOL     OW18565   1.355   6.685   1.098
 5889SOL    HW118566   1.393   6.770   1.134
 5889SOL    HW218567   1.430   6.628   1.063
 5890SOL     OW18568   2.147   1.454   3.953
 5890SOL    HW118569   2.086   1.481   4.027
 5890SOL    HW218570   2.175   1.359   3.965
 5891SOL     OW18571   3.676   3.247   6.104
 5891SOL    HW118572   3.653   3.275   6.010
 5891SOL    HW218573   3.629   3.161   6.125
 5892SOL     OW18574   0.544   5.106   1.893
 5892SOL    HW118575   0.491   5.054   1.959
 5892SOL    HW218576   0.602   5.045   1.840
 5893SOL     OW18577   1.717   3.975   4.373
 5893SOL    HW118578   1.731   3.952   4.469
 5893SOL    HW218579   1.791   4.035   4.342
 5894SOL     OW18580   6.486   4.653   4.373
 5894SOL    HW118581   6.435   4.714   4.434
 5894SOL    HW218582   6.461   4.558   4.392
 5895SOL     OW18583   5.227   3.704   4.264
 5895SOL    HW118584   5.133   3.736   4.276
 5895SOL    HW218585   5.285   3.782   4.239
 5896SOL     OW18586   4.806   0.355   6.942
 5896SOL    HW118587   4.797   0.435   6.882
 5896SOL    HW218588   4.898   0.354   6.981
 5897SOL     OW18589   4.239   0.459   1.497
 5897SOL    HW118590   4.324   0.497   1.533
 5897SOL    HW218591   4.163   0.522   1.515
 5898SOL     OW18592   1.978   6.651   3.409
 5898SOL    HW118593   2.071   6.686   3.418
 5898SOL    HW218594   1.936   6.644   3.499
 5899SOL     OW18595   5.066   5.832   5.872
 5899SOL    HW118596   5.054   5.926   5.902
 5899SOL    HW218597   5.144   5.791   5.920
 5900SOL     OW18598   5.277   4.785   3.148
 5900SOL    HW118599   5.195   4.830   3.113
 5900SOL    HW218600   5.344   4.775   3.074
 5901SOL     OW18601   2.606   0.418   0.621
 5901SOL    HW118602   2.591   0.464   0.533
 5901SOL    HW218603   2.555   0.332   0.623
 5902SOL     OW18604   6.655   2.707   5.943
 5902SOL    HW118605   6.721   2.700   6.017
 5902SOL    HW218606   6.699   2.686   5.856
 5903SOL     OW18607   4.128   4.379   6.965
 5903SOL    HW118608   4.159   4.341   6.878
 5903SOL    HW218609   4.028   4.369   6.971
 5904SOL     OW18610   0.822   3.868   1.945
 5904SOL    HW118611   0.854   3.913   1.861
 5904SOL    HW218612   0.891   3.803   1.976
 5905SOL     OW18613   6.431   5.801   2.789
 5905SOL    HW118614   6.480   5.720   2.755
 5905SOL    HW218615   6.333   5.788   2.776
 5906SOL     OW18616   4.195   2.192   3.744
 5906SOL    HW118617   4.228   2.222   3.834
 5906SOL    HW218618   4.266   2.139   3.698
 5907SOL     OW18619   0.534   4.877   1.298
 5907SOL    HW118620   0.488   4.883   1.386
 5907SOL    HW218621   0.623   4.922   1.305
 5908SOL     OW18622   0.287   2.557   6.213
 5908SOL    HW118623   0.228   2.636   6.234
 5908SOL    HW218624   0.380   2.589   6.194
 5909SOL     OW18625   6.710   5.494   0.573
 5909SOL    HW118626   6.802   5.468   0.544
 5909SOL    HW218627   6.670   5.555   0.505
 5910SOL     OW18628   0.124   3.515   3.654
 5910SOL    HW118629   0.215   3.484   3.681
 5910SOL    HW218630   0.063   3.437   3.646
 5911SOL     OW18631   6.509   6.641   6.241
 5911SOL    HW118632   6.488   6.703   6.317
 5911SOL    HW218633   6.527   6.695   6.158
 5912SOL     OW18634   6.805   0.768   5.774
 5912SOL    HW118635   6.794   0.687   5.717
 5912SOL    HW218636   6.724   0.827   5.765
 5913SOL     OW18637   4.566   2.991   6.128
 5913SOL    HW118638   4.522   2.921   6.185
 5913SOL    HW218639   4.641   3.033   6.179
 5914SOL     OW18640   1.886   5.078   6.737
 5914SOL    HW118641   1.835   5.060   6.653
 5914SOL    HW218642   1.826   5.062   6.816
 5915SOL     OW18643   4.731   5.727   1.322
 5915SOL    HW118644   4.783   5.657   1.370
 5915SOL    HW218645   4.749   5.816   1.364
 5916SOL     OW18646   5.755   6.008   3.666
 5916SOL    HW118647   5.824   5.936   3.665
 5916SOL    HW218648   5.688   5.993   3.595
 5917SOL     OW18649   3.356   3.896   4.084
 5917SOL    HW118650   3.414   3.851   4.153
 5917SOL    HW218651   3.336   3.831   4.010
 5918SOL     OW18652   2.396   4.329   5.177
 5918SOL    HW118653   2.350   4.345   5.265
 5918SOL    HW218654   2.434   4.236   5.177
 5919SOL     OW18655   3.777   3.019   3.121
 5919SOL    HW118656   3.698   2.974   3.080
 5919SOL    HW218657   3.768   3.016   3.221
 5920SOL     OW18658   4.568   1.028   6.634
 5920SOL    HW118659   4.612   1.082   6.706
 5920SOL    HW218660   4.582   1.074   6.546
 5921SOL     OW18661   3.583   5.228   6.327
 5921SOL    HW118662   3.659   5.279   6.287
 5921SOL    HW218663   3.618   5.152   6.382
 5922SOL     OW18664   5.524   3.816   3.131
 5922SOL    HW118665   5.561   3.730   3.165
 5922SOL    HW218666   5.579   3.848   3.053
 5923SOL     OW18667   0.091   1.678   1.948
 5923SOL    HW118668   0.008   1.630   1.919
 5923SOL    HW218669   0.136   1.717   1.868
 5924SOL     OW18670   6.765   6.962   2.845
 5924SOL    HW118671   6.836   6.931   2.782
 5924SOL    HW218672   6.785   0.039   2.874
 5925SOL     OW18673   4.013   6.563   1.984
 5925SOL    HW118674   3.945   6.627   2.019
 5925SOL    HW218675   4.092   6.562   2.046
 5926SOL     OW18676   3.905   5.589   2.430
 5926SOL    HW118677   3.959   5.507   2.447
 5926SOL    HW218678   3.839   5.571   2.357
 5927SOL     OW18679   1.470   4.642   2.423
 5927SOL    HW118680   1.526   4.716   2.460
 5927SOL    HW218681   1.485   4.559   2.477
 5928SOL     OW18682   3.197   6.507   1.083
 5928SOL    HW118683   3.192   6.412   1.113
 5928SOL    HW218684   3.226   6.565   1.159
 5929SOL     OW18685   6.440   0.314   5.914
 5929SOL    HW118686   6.453   0.232   5.969
 5929SOL    HW218687   6.519   0.374   5.924
 5930SOL     OW18688   6.736   4.091   3.286
 5930SOL    HW118689   6.780   4.061   3.202
 5930SOL    HW218690   6.732   4.015   3.351
 5931SOL     OW18691   6.731   6.115   2.569
 5931SOL    HW118692   6.825   6.146   2.581
 5931SOL    HW218693   6.668   6.191   2.584
 5932SOL     OW18694   3.116   0.025   1.087
 5932SOL    HW118695   3.148   0.085   1.014
 5932SOL    HW218696   3.128   0.071   1.175
 5933SOL     OW18697   6.510   4.875   3.565
 5933SOL    HW118698   6.530   4.809   3.493
 5933SOL    HW218699   6.418   4.858   3.602
 5934SOL     OW18700   3.234   3.009   4.908
 5934SOL    HW118701   3.237   2.929   4.969
 5934SOL    HW218702   3.314   3.067   4.926
 5935SOL     OW18703   6.663   4.932   6.407
 5935SOL    HW118704   6.642   4.836   6.385
 5935SOL    HW218705   6.706   4.937   6.497
 5936SOL     OW18706   3.237   2.446   1.430
 5936SOL    HW118707   3.149   2.433   1.475
 5936SOL    HW218708   3.309   2.457   1.499
 5937SOL     OW18709   6.247   3.362   2.092
 5937SOL    HW118710   6.174   3.424   2.122
 5937SOL    HW218711   6.243   3.351   1.993
 5938SOL     OW18712   6.369   5.572   3.126
 5938SOL    HW118713   6.305   5.616   3.189
 5938SOL    HW218714   6.317   5.523   3.056
 5939SOL     OW18715   2.418   6.414   3.363
 5939SOL    HW118716   2.340   6.370   3.408
 5939SOL    HW218717   2.385   6.489   3.305
 5940SOL     OW18718   4.565   5.362   2.563
 5940SOL    HW118719   4.552   5.267   2.535
 5940SOL    HW218720   4.491   5.418   2.526
 5941SOL     OW18721   5.556   3.713   2.310
 5941SOL    HW118722   5.645   3.757   2.323
 5941SOL    HW218723   5.488   3.783   2.285
 5942SOL     OW18724   5.505   4.083   0.257
 5942SOL    HW118725   5.573   4.100   0.186
 5942SOL    HW218726   5.425   4.038   0.217
 5943SOL     OW18727   3.393   4.263   5.889
 5943SOL    HW118728   3.478   4.233   5.846
 5943SOL    HW218729   3.363   4.350   5.850
 5944SOL     OW18730   0.155   2.295   0.285
 5944SOL    HW118731   0.204   2.210   0.302
 5944SOL    HW218732   0.131   2.337   0.372
 5945SOL     OW18733   6.492   4.791   5.523
 5945SOL    HW118734   6.439   4.769   5.442
 5945SOL    HW218735   6.564   4.856   5.499
 5946SOL     OW18736   3.640   3.626   6.089
 5946SOL    HW118737   3.636   3.574   6.175
 5946SOL    HW218738   3.722   3.683   6.088
 5947SOL     OW18739   3.409   3.211   2.315
 5947SOL    HW118740   3.457   3.182   2.232
 5947SOL    HW218741   3.319   3.169   2.318
 5948SOL     OW18742   4.275   5.040   2.380
 5948SOL    HW118743   4.224   4.961   2.414
 5948SOL    HW218744   4.216   5.094   2.320
 5949SOL     OW18745   5.306   4.034   1.500
 5949SOL    HW118746   5.375   4.032   1.427
 5949SOL    HW218747   5.216   4.053   1.460
 5950SOL     OW18748   5.171   1.528   5.350
 5950SOL    HW118749   5.095   1.591   5.338
 5950SOL    HW218750   5.231   1.531   5.270
 5951SOL     OW18751   1.375   5.398   4.074
 5951SOL    HW118752   1.361   5.300   4.061
 5951SOL    HW218753   1.286   5.445   4.075
 5952SOL     OW18754   5.361   5.186   3.010
 5952SOL    HW118755   5.303   5.173   2.929
 5952SOL    HW218756   5.364   5.101   3.063
 5953SOL     OW18757   6.704   3.677   5.557
 5953SOL    HW118758   6.693   3.638   5.465
 5953SOL    HW218759   6.684   3.775   5.553
 5954SOL     OW18760   6.569   5.247   5.563
 5954SOL    HW118761   6.484   5.297   5.582
 5954SOL    HW218762   6.560   5.196   5.477
 5955SOL     OW18763   4.765   5.558   2.469
 5955SOL    HW118764   4.674   5.540   2.506
 5955SOL    HW218765   4.830   5.493   2.508
 5956SOL     OW18766   4.789   1.891   4.400
 5956SOL    HW118767   4.748   1.978   4.428
 5956SOL    HW218768   4.885   1.889   4.428
 5957SOL     OW18769   2.971   1.071   4.608
 5957SOL    HW118770   3.057   1.068   4.557
 5957SOL    HW218771   2.988   1.109   4.699
 5958SOL     OW18772   4.665   6.272   2.903
 5958SOL    HW118773   4.665   6.187   2.956
 5958SOL    HW218774   4.585   6.274   2.843
 5959SOL     OW18775   4.221   2.816   5.566
 5959SOL    HW118776   4.123   2.804   5.547
 5959SOL    HW218777   4.240   2.913   5.583
 5960SOL     OW18778   4.128   5.626   5.063
 5960SOL    HW118779   4.196   5.590   4.998
 5960SOL    HW218780   4.122   5.564   5.141
 5961SOL     OW18781   4.446   2.139   2.713
 5961SOL    HW118782   4.423   2.235   2.731
 5961SOL    HW218783   4.386   2.104   2.641
 5962SOL     OW18784   5.822   6.440   6.666
 5962SOL    HW118785   5.824   6.445   6.567
 5962SOL    HW218786   5.836   6.345   6.695
 5963SOL     OW18787   3.607   3.686   6.395
 5963SOL    HW118788   3.615   3.608   6.457
 5963SOL    HW218789   3.534   3.667   6.328
 5964SOL     OW18790   1.287   6.202   5.358
 5964SOL    HW118791   1.322   6.131   5.418
 5964SOL    HW218792   1.267   6.163   5.268
 5965SOL     OW18793   1.945   1.769   0.255
 5965SOL    HW118794   1.846   1.780   0.261
 5965SOL    HW218795   1.983   1.839   0.195
 5966SOL     OW18796   2.237   5.937   5.729
 5966SOL    HW118797   2.310   5.870   5.740
 5966SOL    HW218798   2.163   5.917   5.793
 5967SOL     OW18799   3.005   0.403   5.977
 5967SOL    HW118800   2.925   0.379   5.923
 5967SOL    HW218801   3.084   0.348   5.947
 5968SOL     OW18802   5.398   2.046   0.401
 5968SOL    HW118803   5.317   2.089   0.440
 5968SOL    HW218804   5.402   1.951   0.430
 5969SOL     OW18805   5.853   0.500   6.381
 5969SOL    HW118806   5.792   0.421   6.390
 5969SOL    HW218807   5.946   0.472   6.405
 5970SOL     OW18808   0.148   4.256   2.990
 5970SOL    HW118809   0.110   4.348   2.992
 5970SOL    HW218810   0.103   4.203   2.917
 5971SOL     OW18811   0.409   1.422   2.261
 5971SOL    HW118812   0.405   1.518   2.234
 5971SOL    HW218813   0.505   1.396   2.276
 5972SOL     OW18814   5.575   5.874   6.006
 5972SOL    HW118815   5.656   5.854   5.950
 5972SOL    HW218816   5.572   5.811   6.084
 5973SOL     OW18817   1.362   3.241   1.643
 5973SOL    HW118818   1.288   3.289   1.689
 5973SOL    HW218819   1.449   3.269   1.683
 5974SOL     OW18820   5.833   5.813   6.630
 5974SOL    HW118821   5.863   5.882   6.565
 5974SOL    HW218822   5.733   5.806   6.627
 5975SOL     OW18823   4.465   0.327   1.085
 5975SOL    HW118824   4.516   0.260   1.139
 5975SOL    HW218825   4.444   0.289   0.995
 5976SOL     OW18826   4.084   2.604   6.134
 5976SOL    HW118827   4.054   2.570   6.045
 5976SOL    HW218828   4.079   2.704   6.135
 5977SOL     OW18829   1.230   5.911   0.382
 5977SOL    HW118830   1.267   5.926   0.290
 5977SOL    HW218831   1.291   5.851   0.433
 5978SOL     OW18832   4.269   5.348   1.830
 5978SOL    HW118833   4.265   5.430   1.773
 5978SOL    HW218834   4.362   5.332   1.861
 5979SOL     OW18835   6.083   0.609   2.635
 5979SOL    HW118836   6.059   0.590   2.539
 5979SOL    HW218837   6.182   0.605   2.646
 5980SOL     OW18838   3.557   3.943   1.325
 5980SOL    HW118839   3.636   3.910   1.376
 5980SOL    HW218840   3.572   4.039   1.298
 5981SOL     OW18841   6.042   1.897   1.457
 5981SOL    HW118842   6.042   1.976   1.395
 5981SOL    HW218843   5.986   1.919   1.537
 5982SOL     OW18844   6.231   2.057   1.802
 5982SOL    HW118845   6.255   1.960   1.797
 5982SOL    HW218846   6.218   2.093   1.709
 5983SOL     OW18847   1.123   1.164   3.617
 5983SOL    HW118848   1.194   1.234   3.609
 5983SOL    HW218849   1.103   1.147   3.713
 5984SOL     OW18850   5.770   5.735   3.311
 5984SOL    HW118851   5.805   5.786   3.390
 5984SOL    HW218852   5.701   5.669   3.342
 5985SOL     OW18853   6.930   3.377   3.911
 5985SOL    HW118854   6.900   3.454   3.967
 5985SOL    HW218855   0.011   3.359   3.928
 5986SOL     OW18856   3.265   4.098   4.340
 5986SOL    HW118857   3.363   4.084   4.326
 5986SOL    HW218858   3.221   4.114   4.251
 5987SOL     OW18859   5.650   0.085   3.974
 5987SOL    HW118860   5.625   0.141   3.896
 5987SOL    HW218861   5.692   7.016   3.942
 5988SOL     OW18862   4.135   0.537   5.605
 5988SOL    HW118863   4.204   0.605   5.626
 5988SOL    HW218864   4.060   0.543   5.672
 5989SOL     OW18865   2.422   5.881   6.328
 5989SOL    HW118866   2.467   5.913   6.244
 5989SOL    HW218867   2.356   5.810   6.305
 5990SOL     OW18868   3.191   3.522   0.880
 5990SOL    HW118869   3.115   3.461   0.858
 5990SOL    HW218870   3.171   3.614   0.848
 5991SOL     OW18871   3.696   5.102   6.896
 5991SOL    HW118872   3.718   5.169   6.826
 5991SOL    HW218873   3.609   5.125   6.939
 5992SOL     OW18874   3.615   0.311   2.006
 5992SOL    HW118875   3.625   0.390   2.067
 5992SOL    HW218876   3.519   0.301   1.980
 5993SOL     OW18877   3.323   4.711   5.950
 5993SOL    HW118878   3.280   4.690   6.038
 5993SOL    HW218879   3.413   4.752   5.966
 5994SOL     OW18880   6.746   2.546   1.205
 5994SOL    HW118881   6.840   2.548   1.238
 5994SOL    HW218882   6.715   2.451   1.198
 5995SOL     OW18883   4.934   3.430   2.236
 5995SOL    HW118884   5.033   3.443   2.231
 5995SOL    HW218885   4.898   3.485   2.312
 5996SOL     OW18886   0.862   6.094   0.837
 5996SOL    HW118887   0.882   6.057   0.746
 5996SOL    HW218888   0.929   6.166   0.859
 5997SOL     OW18889   0.058   5.444   2.466
 5997SOL    HW118890   0.138   5.486   2.507
 5997SOL    HW218891   0.057   5.346   2.488
 5998SOL     OW18892   6.208   1.661   3.139
 5998SOL    HW118893   6.246   1.595   3.204
 5998SOL    HW218894   6.140   1.617   3.082
 5999SOL     OW18895   2.700   2.892   1.670
 5999SOL    HW118896   2.745   2.823   1.614
 5999SOL    HW218897   2.762   2.969   1.685
 6000SOL     OW18898   2.314   6.824   0.516
 6000SOL    HW118899   2.280   6.733   0.489
 6000SOL    HW218900   2.377   6.858   0.446
 6001SOL     OW18901   0.266   4.546   6.730
 6001SOL    HW118902   0.266   4.626   6.670
 6001SOL    HW218903   0.222   4.469   6.683
 6002SOL     OW18904   5.914   0.613   0.670
 6002SOL    HW118905   5.936   0.685   0.604
 6002SOL    HW218906   5.949   0.639   0.760
 6003SOL     OW18907   5.632   2.003   4.423
 6003SOL    HW118908   5.700   2.073   4.443
 6003SOL    HW218909   5.540   2.041   4.433
 6004SOL     OW18910   6.721   3.817   3.116
 6004SOL    HW118911   6.623   3.819   3.139
 6004SOL    HW218912   6.772   3.779   3.193
 6005SOL     OW18913   5.032   5.238   4.322
 6005SOL    HW118914   5.012   5.317   4.264
 6005SOL    HW218915   5.035   5.266   4.418
 6006SOL     OW18916   2.612   1.035   5.144
 6006SOL    HW118917   2.582   0.950   5.188
 6006SOL    HW218918   2.711   1.031   5.127
 6007SOL     OW18919   5.350   3.764   6.117
 6007SOL    HW118920   5.433   3.805   6.155
 6007SOL    HW218921   5.374   3.701   6.043
 6008SOL     OW18922   2.557   4.537   5.292
 6008SOL    HW118923   2.620   4.477   5.341
 6008SOL    HW218924   2.507   4.484   5.223
 6009SOL     OW18925   2.250   0.978   3.472
 6009SOL    HW118926   2.310   0.906   3.437
 6009SOL    HW218927   2.296   1.066   3.465
 6010SOL     OW18928   1.072   5.052   4.222
 6010SOL    HW118929   1.062   5.030   4.319
 6010SOL    HW218930   1.007   5.124   4.197
 6011SOL     OW18931   5.413   2.886   2.869
 6011SOL    HW118932   5.360   2.803   2.886
 6011SOL    HW218933   5.510   2.863   2.857
 6012SOL     OW18934   5.769   0.974   0.769
 6012SOL    HW118935   5.868   0.958   0.766
 6012SOL    HW218936   5.725   0.904   0.825
 6013SOL     OW18937   5.145   1.390   2.631
 6013SOL    HW118938   5.129   1.447   2.551
 6013SOL    HW218939   5.228   1.420   2.678
 6014SOL     OW18940   4.011   3.625   2.994
 6014SOL    HW118941   4.050   3.702   2.945
 6014SOL    HW218942   4.019   3.542   2.938
 6015SOL     OW18943   6.387   3.788   4.306
 6015SOL    HW118944   6.387   3.705   4.250
 6015SOL    HW218945   6.311   3.848   4.278
 6016SOL     OW18946   6.330   1.870   5.499
 6016SOL    HW118947   6.387   1.922   5.563
 6016SOL    HW218948   6.233   1.892   5.515
 6017SOL     OW18949   5.966   4.979   3.547
 6017SOL    HW118950   5.979   4.882   3.564
 6017SOL    HW218951   5.976   5.030   3.632
 6018SOL     OW18952   3.848   0.442   6.100
 6018SOL    HW118953   3.819   0.467   6.008
 6018SOL    HW218954   3.917   0.370   6.094
 6019SOL     OW18955   0.777   2.738   4.277
 6019SOL    HW118956   0.786   2.819   4.219
 6019SOL    HW218957   0.809   2.657   4.226
 6020SOL     OW18958   0.991   4.926   1.220
 6020SOL    HW118959   1.024   4.832   1.223
 6020SOL    HW218960   1.050   4.981   1.161
 6021SOL     OW18961   4.227   0.398   2.818
 6021SOL    HW118962   4.134   0.434   2.807
 6021SOL    HW218963   4.227   0.300   2.799
 6022SOL     OW18964   5.439   1.859   3.588
 6022SOL    HW118965   5.538   1.850   3.595
 6022SOL    HW218966   5.396   1.824   3.671
 6023SOL     OW18967   5.654   1.028   1.188
 6023SOL    HW118968   5.557   1.040   1.166
 6023SOL    HW218969   5.698   1.118   1.193
 6024SOL     OW18970   2.407   4.769   2.798
 6024SOL    HW118971   2.440   4.850   2.749
 6024SOL    HW218972   2.370   4.703   2.733
 6025SOL     OW18973   3.940   1.545   3.251
 6025SOL    HW118974   4.033   1.557   3.285
 6025SOL    HW218975   3.888   1.629   3.266
 6026SOL     OW18976   6.869   4.395   5.749
 6026SOL    HW118977   6.888   4.345   5.833
 6026SOL    HW218978   6.950   4.394   5.691
 6027SOL     OW18979   1.067   3.109   5.296
 6027SOL    HW118980   1.018   3.128   5.381
 6027SOL    HW218981   1.162   3.139   5.306
 6028SOL     OW18982   6.675   4.557   0.363
 6028SOL    HW118983   6.675   4.591   0.269
 6028SOL    HW218984   6.598   4.494   0.375
 6029SOL     OW18985   2.520   0.231   4.802
 6029SOL    HW118986   2.479   0.306   4.854
 6029SOL    HW218987   2.619   0.238   4.807
 6030SOL     OW18988   3.967   5.099   2.901
 6030SOL    HW118989   3.910   5.153   2.963
 6030SOL    HW218990   3.920   5.014   2.879
 6031SOL     OW18991   3.119   5.687   4.724
 6031SOL    HW118992   3.110   5.595   4.685
 6031SOL    HW218993   3.041   5.742   4.695
 6032SOL     OW18994   2.563   4.521   2.850
 6032SOL    HW118995   2.613   4.502   2.766
 6032SOL    HW218996   2.473   4.559   2.828
 6033SOL     OW18997   2.322   2.324   3.031
 6033SOL    HW118998   2.369   2.244   3.067
 6033SOL    HW218999   2.278   2.301   2.944
 6034SOL     OW19000   1.073   0.156   5.459
 6034SOL    HW119001   1.070   0.255   5.472
 6034SOL    HW219002   1.164   0.122   5.486
 6035SOL     OW19003   0.793   1.499   2.065
 6035SOL    HW119004   0.783   1.505   2.165
 6035SOL    HW219005   0.716   1.544   2.021
 6036SOL     OW19006   5.039   4.932   3.051
 6036SOL    HW119007   4.996   4.882   3.126
 6036SOL    HW219008   4.982   4.927   2.969
 6037SOL     OW19009   4.144   6.385   0.381
 6037SOL    HW119010   4.187   6.298   0.356
 6037SOL    HW219011   4.077   6.411   0.311
 6038SOL     OW19012   1.894   2.597   5.927
 6038SOL    HW119013   1.815   2.573   5.869
 6038SOL    HW219014   1.931   2.514   5.968
 6039SOL     OW19015   3.180   3.032   2.920
 6039SOL    HW119016   3.115   3.090   2.872
 6039SOL    HW219017   3.174   3.050   3.019
 6040SOL     OW19018   1.433   1.429   0.603
 6040SOL    HW119019   1.437   1.352   0.667
 6040SOL    HW219020   1.489   1.504   0.638
 6041SOL     OW19021   3.175   0.685   5.712
 6041SOL    HW119022   3.224   0.769   5.736
 6041SOL    HW219023   3.077   0.705   5.702
 6042SOL     OW19024   4.528   0.012   2.244
 6042SOL    HW119025   4.465   6.951   2.242
 6042SOL    HW219026   4.576   0.018   2.156
 6043SOL     OW19027   1.357   5.530   5.557
 6043SOL    HW119028   1.280   5.553   5.498
 6043SOL    HW219029   1.326   5.466   5.628
 6044SOL     OW19030   1.422   2.700   1.620
 6044SOL    HW119031   1.503   2.754   1.597
 6044SOL    HW219032   1.343   2.760   1.625
 6045SOL     OW19033   6.240   4.287   2.306
 6045SOL    HW119034   6.155   4.235   2.298
 6045SOL    HW219035   6.315   4.225   2.330
 6046SOL     OW19036   3.400   2.472   1.099
 6046SOL    HW119037   3.490   2.430   1.113
 6046SOL    HW219038   3.328   2.406   1.121
 6047SOL     OW19039   5.157   1.580   1.931
 6047SOL    HW119040   5.061   1.594   1.956
 6047SOL    HW219041   5.162   1.549   1.836
 6048SOL     OW19042   4.497   5.059   5.179
 6048SOL    HW119043   4.585   5.032   5.218
 6048SOL    HW219044   4.490   5.158   5.179
 6049SOL     OW19045   4.952   3.367   0.141
 6049SOL    HW119046   4.873   3.316   0.106
 6049SOL    HW219047   4.953   3.362   0.241
 6050SOL     OW19048   3.403   5.552   6.177
 6050SOL    HW119049   3.499   5.563   6.201
 6050SOL    HW219050   3.394   5.479   6.109
 6051SOL     OW19051   1.862   6.976   4.182
 6051SOL    HW119052   1.831   6.965   4.087
 6051SOL    HW219053   1.932   0.032   4.186
 6052SOL     OW19054   5.718   1.441   0.329
 6052SOL    HW119055   5.645   1.423   0.394
 6052SOL    HW219056   5.759   1.354   0.300
 6053SOL     OW19057   4.642   1.191   6.424
 6053SOL    HW119058   4.660   1.229   6.334
 6053SOL    HW219059   4.687   1.248   6.494
 6054SOL     OW19060   2.540   3.036   0.309
 6054SOL    HW119061   2.630   3.028   0.265
 6054SOL    HW219062   2.476   3.082   0.247
 6055SOL     OW19063   4.911   6.727   5.586
 6055SOL    HW119064   4.951   6.637   5.604
 6055SOL    HW219065   4.953   6.794   5.647
 6056SOL     OW19066   4.995   3.616   4.638
 6056SOL    HW119067   4.969   3.677   4.713
 6056SOL    HW219068   4.920   3.552   4.621
 6057SOL     OW19069   6.305   2.065   3.102
 6057SOL    HW119070   6.334   1.970   3.088
 6057SOL    HW219071   6.208   2.074   3.082
 6058SOL     OW19072   4.555   3.847   1.687
 6058SOL    HW119073   4.589   3.809   1.601
 6058SOL    HW219074   4.455   3.846   1.687
 6059SOL     OW19075   5.113   4.955   5.789
 6059SOL    HW119076   5.071   5.027   5.734
 6059SOL    HW219077   5.042   4.903   5.835
 6060SOL     OW19078   2.742   3.298   6.395
 6060SOL    HW119079   2.687   3.366   6.346
 6060SOL    HW219080   2.807   3.344   6.454
 6061SOL     OW19081   3.777   2.906   1.016
 6061SOL    HW119082   3.864   2.881   1.058
 6061SOL    HW219083   3.765   2.855   0.931
 6062SOL     OW19084   2.827   1.383   5.409
 6062SOL    HW119085   2.766   1.311   5.442
 6062SOL    HW219086   2.921   1.349   5.410
 6063SOL     OW19087   4.531   2.657   6.189
 6063SOL    HW119088   4.583   2.588   6.239
 6063SOL    HW219089   4.506   2.731   6.251
 6064SOL     OW19090   1.217   6.231   1.429
 6064SOL    HW119091   1.301   6.268   1.390
 6064SOL    HW219092   1.170   6.175   1.361
 6065SOL     OW19093   0.841   6.865   2.630
 6065SOL    HW119094   0.771   6.800   2.601
 6065SOL    HW219095   0.800   6.934   2.690
 6066SOL     OW19096   4.524   1.491   5.974
 6066SOL    HW119097   4.482   1.573   6.012
 6066SOL    HW219098   4.623   1.497   5.984
 6067SOL     OW19099   5.760   0.843   5.410
 6067SOL    HW119100   5.801   0.767   5.360
 6067SOL    HW219101   5.740   0.814   5.504
 6068SOL     OW19102   5.009   3.175   4.778
 6068SOL    HW119103   5.053   3.094   4.818
 6068SOL    HW219104   4.957   3.223   4.848
 6069SOL     OW19105   6.162   3.008   4.833
 6069SOL    HW119106   6.087   3.011   4.766
 6069SOL    HW219107   6.222   3.086   4.818
 6070SOL     OW19108   2.959   1.882   0.953
 6070SOL    HW119109   2.976   1.793   0.993
 6070SOL    HW219110   3.019   1.950   0.996
 6071SOL     OW19111   5.723   6.021   4.667
 6071SOL    HW119112   5.786   6.015   4.744
 6071SOL    HW219113   5.775   6.012   4.581
 6072SOL     OW19114   6.562   6.815   1.391
 6072SOL    HW119115   6.625   6.750   1.349
 6072SOL    HW219116   6.508   6.769   1.461
 6073SOL     OW19117   5.521   3.070   0.977
 6073SOL    HW119118   5.567   3.076   0.889
 6073SOL    HW219119   5.573   3.009   1.037
 6074SOL     OW19120   1.036   6.418   2.487
 6074SOL    HW119121   1.083   6.448   2.404
 6074SOL    HW219122   1.085   6.451   2.567
 6075SOL     OW19123   5.123   0.809   5.773
 6075SOL    HW119124   5.108   0.891   5.717
 6075SOL    HW219125   5.219   0.803   5.798
 6076SOL     OW19126   3.428   5.761   4.205
 6076SOL    HW119127   3.492   5.709   4.149
 6076SOL    HW219128   3.339   5.765   4.159
 6077SOL     OW19129   6.272   5.470   0.710
 6077SOL    HW119130   6.238   5.384   0.673
 6077SOL    HW219131   6.197   5.536   0.716
 6078SOL     OW19132   4.864   5.368   0.370
 6078SOL    HW119133   4.791   5.318   0.416
 6078SOL    HW219134   4.828   5.413   0.288
 6079SOL     OW19135   4.445   3.876   5.960
 6079SOL    HW119136   4.521   3.811   5.962
 6079SOL    HW219137   4.369   3.836   5.908
 6080SOL     OW19138   0.105   6.479   1.112
 6080SOL    HW119139   0.005   6.474   1.108
 6080SOL    HW219140   0.134   6.574   1.107
 6081SOL     OW19141   6.545   2.754   5.225
 6081SOL    HW119142   6.482   2.734   5.150
 6081SOL    HW219143   6.637   2.769   5.188
 6082SOL     OW19144   1.806   1.674   3.517
 6082SOL    HW119145   1.822   1.604   3.447
 6082SOL    HW219146   1.870   1.662   3.592
 6083SOL     OW19147   6.268   5.778   0.232
 6083SOL    HW119148   6.359   5.773   0.273
 6083SOL    HW219149   6.264   5.719   0.151
 6084SOL     OW19150   0.562   6.992   3.345
 6084SOL    HW119151   0.481   6.933   3.350
 6084SOL    HW219152   0.626   6.967   3.418
 6085SOL     OW19153   0.199   6.259   0.403
 6085SOL    HW119154   0.126   6.224   0.344
 6085SOL    HW219155   0.239   6.341   0.362
 6086SOL     OW19156   3.275   0.975   5.769
 6086SOL    HW119157   3.186   1.017   5.750
 6086SOL    HW219158   3.296   0.984   5.867
 6087SOL     OW19159   3.652   5.707   1.564
 6087SOL    HW119160   3.600   5.682   1.482
 6087SOL    HW219161   3.667   5.806   1.566
 6088SOL     OW19162   5.533   6.168   4.402
 6088SOL    HW119163   5.482   6.128   4.478
 6088SOL    HW219164   5.519   6.112   4.320
 6089SOL     OW19165   5.230   3.174   2.152
 6089SOL    HW119166   5.131   3.167   2.139
 6089SOL    HW219167   5.258   3.113   2.227
 6090SOL     OW19168   2.340   5.970   5.055
 6090SOL    HW119169   2.409   6.032   5.018
 6090SOL    HW219170   2.301   6.010   5.139
 6091SOL     OW19171   1.928   1.210   0.142
 6091SOL    HW119172   1.844   1.170   0.105
 6091SOL    HW219173   1.909   1.302   0.177
 6092SOL     OW19174   4.083   6.894   2.044
 6092SOL    HW119175   4.024   6.839   1.985
 6092SOL    HW219176   4.051   6.888   2.138
 6093SOL     OW19177   1.990   3.398   1.895
 6093SOL    HW119178   1.996   3.332   1.820
 6093SOL    HW219179   2.082   3.429   1.919
 6094SOL     OW19180   1.945   6.494   2.059
 6094SOL    HW119181   1.904   6.462   1.973
 6094SOL    HW219182   1.982   6.415   2.109
 6095SOL     OW19183   5.382   4.303   0.852
 6095SOL    HW119184   5.439   4.382   0.874
 6095SOL    HW219185   5.440   4.226   0.826
 6096SOL     OW19186   5.742   6.707   4.096
 6096SOL    HW119187   5.775   6.784   4.151
 6096SOL    HW219188   5.762   6.621   4.143
 6097SOL     OW19189   2.276   5.763   2.120
 6097SOL    HW119190   2.192   5.736   2.072
 6097SOL    HW219191   2.255   5.781   2.216
 6098SOL     OW19192   0.750   1.291   4.914
 6098SOL    HW119193   0.820   1.342   4.965
 6098SOL    HW219194   0.795   1.232   4.846
 6099SOL     OW19195   5.555   6.164   0.343
 6099SOL    HW119196   5.499   6.086   0.371
 6099SOL    HW219197   5.505   6.220   0.277
 6100SOL     OW19198   5.519   6.170   0.791
 6100SOL    HW119199   5.518   6.156   0.890
 6100SOL    HW219200   5.523   6.268   0.771
 6101SOL     OW19201   6.500   3.762   3.736
 6101SOL    HW119202   6.449   3.800   3.812
 6101SOL    HW219203   6.594   3.744   3.764
 6102SOL     OW19204   3.427   6.191   3.247
 6102SOL    HW119205   3.421   6.156   3.341
 6102SOL    HW219206   3.397   6.120   3.184
 6103SOL     OW19207   6.524   1.845   1.106
 6103SOL    HW119208   6.585   1.768   1.127
 6103SOL    HW219209   6.430   1.812   1.099
 6104SOL     OW19210   5.650   0.811   5.694
 6104SOL    HW119211   5.623   0.890   5.638
 6104SOL    HW219212   5.738   0.829   5.736
 6105SOL     OW19213   3.278   6.410   0.043
 6105SOL    HW119214   3.259   6.472   6.984
 6105SOL    HW219215   3.297   6.318   0.007
 6106SOL     OW19216   1.350   3.643   6.659
 6106SOL    HW119217   1.278   3.575   6.650
 6106SOL    HW219218   1.311   3.730   6.687
 6107SOL     OW19219   4.257   5.556   4.797
 6107SOL    HW119220   4.323   5.629   4.776
 6107SOL    HW219221   4.255   5.491   4.720
 6108SOL     OW19222   1.912   3.097   1.720
 6108SOL    HW119223   1.832   3.043   1.692
 6108SOL    HW219224   1.995   3.045   1.701
 6109SOL     OW19225   5.716   1.755   4.772
 6109SOL    HW119226   5.773   1.706   4.838
 6109SOL    HW219227   5.696   1.695   4.694
 6110SOL     OW19228   3.930   4.070   0.878
 6110SOL    HW119229   3.874   4.022   0.811
 6110SOL    HW219230   4.020   4.026   0.884
 6111SOL     OW19231   1.868   3.973   2.735
 6111SOL    HW119232   1.833   3.885   2.702
 6111SOL    HW219233   1.912   3.959   2.824
 6112SOL     OW19234   3.637   0.165   2.384
 6112SOL    HW119235   3.704   0.237   2.368
 6112SOL    HW219236   3.619   0.157   2.482
 6113SOL     OW19237   2.938   1.585   6.522
 6113SOL    HW119238   3.015   1.603   6.583
 6113SOL    HW219239   2.955   1.628   6.433
 6114SOL     OW19240   5.258   4.884   1.565
 6114SOL    HW119241   5.210   4.838   1.640
 6114SOL    HW219242   5.277   4.979   1.591
 6115SOL     OW19243   5.571   7.003   4.207
 6115SOL    HW119244   5.656   7.010   4.260
 6115SOL    HW219245   5.573   0.051   4.131
 6116SOL     OW19246   4.286   1.291   5.973
 6116SOL    HW119247   4.291   1.219   5.904
 6116SOL    HW219248   4.238   1.370   5.936
 6117SOL     OW19249   1.496   1.244   3.225
 6117SOL    HW119250   1.506   1.326   3.168
 6117SOL    HW219251   1.542   1.259   3.313
 6118SOL     OW19252   0.151   0.952   1.898
 6118SOL    HW119253   0.147   1.011   1.980
 6118SOL    HW219254   0.074   0.890   1.898
 6119SOL     OW19255   0.658   4.113   6.620
 6119SOL    HW119256   0.721   4.040   6.593
 6119SOL    HW219257   0.710   4.197   6.640
 6120SOL     OW19258   3.890   6.399   5.396
 6120SOL    HW119259   3.889   6.303   5.370
 6120SOL    HW219260   3.803   6.424   5.437
 6121SOL     OW19261   0.557   3.151   5.542
 6121SOL    HW119262   0.490   3.195   5.601
 6121SOL    HW219263   0.513   3.123   5.456
 6122SOL     OW19264   4.450   5.431   0.450
 6122SOL    HW119265   4.410   5.366   0.514
 6122SOL    HW219266   4.519   5.386   0.394
 6123SOL     OW19267   5.188   6.598   6.438
 6123SOL    HW119268   5.099   6.607   6.393
 6123SOL    HW219269   5.208   6.501   6.454
 6124SOL     OW19270   1.579   6.900   5.953
 6124SOL    HW119271   1.566   6.923   5.857
 6124SOL    HW219272   1.590   6.985   6.006
 6125SOL     OW19273   2.059   4.348   0.854
 6125SOL    HW119274   2.043   4.412   0.779
 6125SOL    HW219275   2.156   4.323   0.856
 6126SOL     OW19276   0.959   6.738   4.448
 6126SOL    HW119277   0.973   6.726   4.547
 6126SOL    HW219278   0.919   6.828   4.432
 6127SOL     OW19279   3.211   0.463   1.064
 6127SOL    HW119280   3.310   0.470   1.053
 6127SOL    HW219281   3.178   0.381   1.018
 6128SOL     OW19282   5.892   3.842   0.370
 6128SOL    HW119283   5.797   3.833   0.401
 6128SOL    HW219284   5.910   3.776   0.296
 6129SOL     OW19285   6.911   3.055   3.004
 6129SOL    HW119286   6.841   3.018   2.943
 6129SOL    HW219287   6.989   3.085   2.950
 6130SOL     OW19288   5.901   2.315   2.682
 6130SOL    HW119289   5.980   2.264   2.714
 6130SOL    HW219290   5.880   2.288   2.588
 6131SOL     OW19291   0.233   1.521   4.870
 6131SOL    HW119292   0.317   1.560   4.908
 6131SOL    HW219293   0.256   1.441   4.814
 6132SOL     OW19294   4.953   1.996   0.334
 6132SOL    HW119295   4.937   2.094   0.339
 6132SOL    HW219296   4.982   1.971   0.242
 6133SOL     OW19297   1.803   3.344   2.062
 6133SOL    HW119298   1.814   3.251   2.098
 6133SOL    HW219299   1.889   3.374   2.022
 6134SOL     OW19300   3.997   4.769   6.823
 6134SOL    HW119301   3.949   4.695   6.776
 6134SOL    HW219302   4.019   4.841   6.757
 6135SOL     OW19303   0.259   0.747   0.671
 6135SOL    HW119304   0.339   0.714   0.722
 6135SOL    HW219305   0.202   0.803   0.731
 6136SOL     OW19306   1.243   3.078   2.070
 6136SOL    HW119307   1.331   3.125   2.068
 6136SOL    HW219308   1.243   3.008   2.142
 6137SOL     OW19309   6.659   3.453   2.790
 6137SOL    HW119310   6.672   3.407   2.702
 6137SOL    HW219311   6.688   3.549   2.782
 6138SOL     OW19312   3.842   6.443   2.719
 6138SOL    HW119313   3.843   6.343   2.727
 6138SOL    HW219314   3.912   6.482   2.779
 6139SOL     OW19315   1.849   6.606   6.184
 6139SOL    HW119316   1.933   6.580   6.135
 6139SOL    HW219317   1.819   6.529   6.241
 6140SOL     OW19318   1.030   6.369   1.593
 6140SOL    HW119319   0.969   6.295   1.620
 6140SOL    HW219320   1.114   6.331   1.555
 6141SOL     OW19321   0.123   6.813   6.906
 6141SOL    HW119322   0.069   6.733   6.931
 6141SOL    HW219323   0.080   6.895   6.944
 6142SOL     OW19324   1.239   6.942   0.127
 6142SOL    HW119325   1.149   6.901   0.119
 6142SOL    HW219326   1.299   6.907   0.055
 6143SOL     OW19327   6.991   3.472   1.380
 6143SOL    HW119328   6.927   3.420   1.438
 6143SOL    HW219329   6.949   3.489   1.291
 6144SOL     OW19330   5.290   4.556   3.346
 6144SOL    HW119331   5.289   4.612   3.263
 6144SOL    HW219332   5.277   4.615   3.426
 6145SOL     OW19333   5.024   5.169   3.218
 6145SOL    HW119334   5.055   5.094   3.159
 6145SOL    HW219335   5.098   5.235   3.229
 6146SOL     OW19336   3.218   5.707   4.014
 6146SOL    HW119337   3.228   5.802   3.986
 6146SOL    HW219338   3.124   5.690   4.043
 6147SOL     OW19339   2.142   1.797   3.969
 6147SOL    HW119340   2.116   1.734   4.043
 6147SOL    HW219341   2.187   1.745   3.896
 6148SOL     OW19342   5.012   6.816   5.096
 6148SOL    HW119343   5.096   6.815   5.151
 6148SOL    HW219344   4.951   6.743   5.127
 6149SOL     OW19345   2.431   6.116   1.037
 6149SOL    HW119346   2.400   6.202   1.078
 6149SOL    HW219347   2.358   6.048   1.043
 6150SOL     OW19348   4.928   5.283   6.788
 6150SOL    HW119349   5.024   5.282   6.819
 6150SOL    HW219350   4.871   5.322   6.860
 6151SOL     OW19351   6.207   4.935   6.430
 6151SOL    HW119352   6.260   5.013   6.397
 6151SOL    HW219353   6.206   4.863   6.360
 6152SOL     OW19354   6.228   5.148   4.414
 6152SOL    HW119355   6.136   5.113   4.432
 6152SOL    HW219356   6.223   5.239   4.373
 6153SOL     OW19357   5.342   4.319   1.263
 6153SOL    HW119358   5.390   4.370   1.192
 6153SOL    HW219359   5.377   4.225   1.266
 6154SOL     OW19360   5.719   2.097   2.875
 6154SOL    HW119361   5.626   2.105   2.909
 6154SOL    HW219362   5.772   2.177   2.902
 6155SOL     OW19363   1.517   1.727   3.491
 6155SOL    HW119364   1.481   1.681   3.572
 6155SOL    HW219365   1.617   1.720   3.490
 6156SOL     OW19366   4.291   4.353   1.478
 6156SOL    HW119367   4.192   4.352   1.488
 6156SOL    HW219368   4.329   4.429   1.531
 6157SOL     OW19369   6.852   1.313   4.482
 6157SOL    HW119370   6.808   1.228   4.453
 6157SOL    HW219371   6.895   1.299   4.572
 6158SOL     OW19372   3.980   2.148   6.087
 6158SOL    HW119373   4.035   2.206   6.025
 6158SOL    HW219374   3.887   2.184   6.091
 6159SOL     OW19375   5.013   2.286   2.149
 6159SOL    HW119376   5.028   2.302   2.246
 6159SOL    HW219377   5.041   2.193   2.125
 6160SOL     OW19378   5.354   1.091   6.595
 6160SOL    HW119379   5.327   0.995   6.588
 6160SOL    HW219380   5.417   1.103   6.671
 6161SOL     OW19381   4.828   2.049   5.261
 6161SOL    HW119382   4.871   2.127   5.306
 6161SOL    HW219383   4.785   1.990   5.329
 6162SOL     OW19384   0.758   5.989   3.183
 6162SOL    HW119385   0.831   6.031   3.237
 6162SOL    HW219386   0.704   6.060   3.139
 6163SOL     OW19387   6.445   6.838   1.150
 6163SOL    HW119388   6.465   6.833   1.248
 6163SOL    HW219389   6.529   6.817   1.098
 6164SOL     OW19390   3.887   3.943   3.014
 6164SOL    HW119391   3.800   3.894   3.003
 6164SOL    HW219392   3.943   3.929   2.933
 6165SOL     OW19393   5.053   1.932   0.075
 6165SOL    HW119394   5.083   2.010   0.020
 6165SOL    HW219395   5.062   1.848   0.022
 6166SOL     OW19396   5.696   1.279   6.703
 6166SOL    HW119397   5.682   1.332   6.787
 6166SOL    HW219398   5.680   1.182   6.722
 6167SOL     OW19399   0.850   5.396   3.058
 6167SOL    HW119400   0.931   5.345   3.085
 6167SOL    HW219401   0.860   5.427   2.963
 6168SOL     OW19402   1.868   3.750   2.057
 6168SOL    HW119403   1.961   3.723   2.082
 6168SOL    HW219404   1.854   3.736   1.959
 6169SOL     OW19405   0.983   2.143   0.155
 6169SOL    HW119406   1.017   2.198   0.232
 6169SOL    HW219407   1.001   2.046   0.173
 6170SOL     OW19408   1.340   4.162   5.285
 6170SOL    HW119409   1.424   4.184   5.334
 6170SOL    HW219410   1.267   4.145   5.351
 6171SOL     OW19411   0.897   3.347   1.292
 6171SOL    HW119412   0.901   3.254   1.255
 6171SOL    HW219413   0.990   3.379   1.312
 6172SOL     OW19414   1.307   2.761   2.642
 6172SOL    HW119415   1.261   2.709   2.569
 6172SOL    HW219416   1.333   2.851   2.608
 6173SOL     OW19417   6.414   5.565   1.917
 6173SOL    HW119418   6.451   5.541   1.827
 6173SOL    HW219419   6.359   5.488   1.951
 6174SOL     OW19420   5.460   4.582   3.643
 6174SOL    HW119421   5.367   4.588   3.606
 6174SOL    HW219422   5.460   4.522   3.723
 6175SOL     OW19423   4.811   0.469   3.486
 6175SOL    HW119424   4.865   0.554   3.488
 6175SOL    HW219425   4.770   0.458   3.396
 6176SOL     OW19426   4.814   3.856   6.226
 6176SOL    HW119427   4.909   3.842   6.199
 6176SOL    HW219428   4.795   3.805   6.310
 6177SOL     OW19429   5.731   0.811   1.412
 6177SOL    HW119430   5.702   0.883   1.349
 6177SOL    HW219431   5.687   0.725   1.388
 6178SOL     OW19432   4.744   5.339   2.807
 6178SOL    HW119433   4.676   5.319   2.737
 6178SOL    HW219434   4.836   5.323   2.770
 6179SOL     OW19435   6.943   4.286   3.630
 6179SOL    HW119436   6.958   4.259   3.726
 6179SOL    HW219437   6.967   4.382   3.618
 6180SOL     OW19438   3.834   4.378   0.178
 6180SOL    HW119439   3.835   4.367   0.079
 6180SOL    HW219440   3.820   4.288   0.221
 6181SOL     OW19441   3.929   6.969   0.829
 6181SOL    HW119442   3.961   6.969   0.923
 6181SOL    HW219443   3.922   6.875   0.796
 6182SOL     OW19444   5.474   3.095   5.017
 6182SOL    HW119445   5.388   3.134   4.987
 6182SOL    HW219446   5.549   3.131   4.960
 6183SOL     OW19447   1.466   2.369   2.913
 6183SOL    HW119448   1.466   2.469   2.923
 6183SOL    HW219449   1.423   2.344   2.827
 6184SOL     OW19450   2.017   6.974   6.490
 6184SOL    HW119451   2.109   6.934   6.490
 6184SOL    HW219452   1.959   6.924   6.425
 6185SOL     OW19453   0.608   3.780   6.114
 6185SOL    HW119454   0.657   3.832   6.184
 6185SOL    HW219455   0.577   3.841   6.042
 6186SOL     OW19456   0.180   0.211   0.091
 6186SOL    HW119457   0.271   0.179   0.064
 6186SOL    HW219458   0.145   0.154   0.165
 6187SOL     OW19459   4.717   4.967   3.555
 6187SOL    HW119460   4.728   4.888   3.494
 6187SOL    HW219461   4.662   5.037   3.510
 6188SOL     OW19462   2.284   0.492   0.812
 6188SOL    HW119463   2.376   0.480   0.850
 6188SOL    HW219464   2.224   0.420   0.848
 6189SOL     OW19465   4.698   4.255   3.251
 6189SOL    HW119466   4.753   4.179   3.216
 6189SOL    HW219467   4.634   4.284   3.180
 6190SOL     OW19468   0.649   4.044   5.741
 6190SOL    HW119469   0.730   4.037   5.682
 6190SOL    HW219470   0.632   4.140   5.764
 6191SOL     OW19471   3.102   2.194   0.071
 6191SOL    HW119472   3.012   2.237   0.084
 6191SOL    HW219473   3.097   2.098   0.096
 6192SOL     OW19474   3.418   2.354   5.995
 6192SOL    HW119475   3.331   2.400   6.015
 6192SOL    HW219476   3.402   2.279   5.932
 6193SOL     OW19477   5.221   0.809   2.072
 6193SOL    HW119478   5.177   0.724   2.042
 6193SOL    HW219479   5.315   0.790   2.099
 6194SOL     OW19480   1.364   7.010   1.828
 6194SOL    HW119481   1.421   0.071   1.857
 6194SOL    HW219482   1.361   6.942   1.901
 6195SOL     OW19483   3.854   6.396   6.396
 6195SOL    HW119484   3.926   6.460   6.423
 6195SOL    HW219485   3.765   6.430   6.427
 6196SOL     OW19486   5.427   3.043   1.428
 6196SOL    HW119487   5.383   3.017   1.514
 6196SOL    HW219488   5.434   2.963   1.369
 6197SOL     OW19489   4.291   4.625   0.288
 6197SOL    HW119490   4.361   4.557   0.309
 6197SOL    HW219491   4.244   4.600   0.204
 6198SOL     OW19492   4.109   6.451   2.435
 6198SOL    HW119493   4.103   6.378   2.502
 6198SOL    HW219494   4.059   6.531   2.469
 6199SOL     OW19495   1.121   1.244   0.693
 6199SOL    HW119496   1.022   1.255   0.687
 6199SOL    HW219497   1.157   1.305   0.764
 6200SOL     OW19498   1.409   1.397   5.877
 6200SOL    HW119499   1.499   1.362   5.904
 6200SOL    HW219500   1.421   1.479   5.822
 6201SOL     OW19501   0.727   3.424   5.159
 6201SOL    HW119502   0.820   3.415   5.195
 6201SOL    HW219503   0.670   3.349   5.192
 6202SOL     OW19504   3.646   1.545   2.358
 6202SOL    HW119505   3.665   1.629   2.409
 6202SOL    HW219506   3.568   1.499   2.400
 6203SOL     OW19507   6.859   6.443   2.463
 6203SOL    HW119508   6.890   6.382   2.535
 6203SOL    HW219509   6.892   6.536   2.480
 6204SOL     OW19510   0.636   5.140   4.618
 6204SOL    HW119511   0.658   5.107   4.709
 6204SOL    HW219512   0.553   5.196   4.622
 6205SOL     OW19513   6.443   5.912   0.473
 6205SOL    HW119514   6.534   5.930   0.434
 6205SOL    HW219515   6.430   5.814   0.483
 6206SOL     OW19516   6.400   1.708   3.660
 6206SOL    HW119517   6.322   1.649   3.678
 6206SOL    HW219518   6.411   1.721   3.562
 6207SOL     OW19519   0.946   4.870   4.974
 6207SOL    HW119520   0.862   4.909   4.937
 6207SOL    HW219521   1.016   4.941   4.979
 6208SOL     OW19522   5.203   2.515   6.002
 6208SOL    HW119523   5.104   2.512   5.999
 6208SOL    HW219524   5.240   2.484   5.915
 6209SOL     OW19525   4.153   5.548   6.552
 6209SOL    HW119526   4.230   5.611   6.551
 6209SOL    HW219527   4.154   5.492   6.470
 6210SOL     OW19528   5.169   2.998   3.477
 6210SOL    HW119529   5.137   2.981   3.384
 6210SOL    HW219530   5.264   2.969   3.486
 6211SOL     OW19531   2.739   6.464   5.676
 6211SOL    HW119532   2.696   6.514   5.601
 6211SOL    HW219533   2.818   6.516   5.709
 6212SOL     OW19534   2.012   5.350   4.440
 6212SOL    HW119535   1.921   5.390   4.432
 6212SOL    HW219536   2.014   5.288   4.519
 6213SOL     OW19537   6.196   0.097   0.533
 6213SOL    HW119538   6.231   0.190   0.544
 6213SOL    HW219539   6.226   0.040   0.610
 6214SOL     OW19540   4.908   4.953   4.162
 6214SOL    HW119541   4.993   4.970   4.211
 6214SOL    HW219542   4.909   4.860   4.125
 6215SOL     OW19543   4.116   1.699   0.364
 6215SOL    HW119544   4.169   1.767   0.414
 6215SOL    HW219545   4.101   1.619   0.422
 6216SOL     OW19546   6.446   1.652   2.363
 6216SOL    HW119547   6.445   1.593   2.283
 6216SOL    HW219548   6.359   1.645   2.411
 6217SOL     OW19549   0.248   3.724   3.119
 6217SOL    HW119550   0.256   3.625   3.133
 6217SOL    HW219551   0.208   3.766   3.200
 6218SOL     OW19552   3.789   5.955   6.966
 6218SOL    HW119553   3.836   6.037   7.001
 6218SOL    HW219554   3.810   5.878   0.010
 6219SOL     OW19555   1.643   2.057   4.491
 6219SOL    HW119556   1.655   2.043   4.393
 6219SOL    HW219557   1.545   2.061   4.513
 6220SOL     OW19558   1.900   1.507   4.628
 6220SOL    HW119559   1.946   1.498   4.717
 6220SOL    HW219560   1.829   1.577   4.635
 6221SOL     OW19561   5.547   5.834   6.661
 6221SOL    HW119562   5.578   5.820   6.755
 6221SOL    HW219563   5.527   5.932   6.647
 6222SOL     OW19564   1.322   6.000   1.570
 6222SOL    HW119565   1.389   6.015   1.643
 6222SOL    HW219566   1.291   6.088   1.534
 6223SOL     OW19567   1.293   5.133   4.100
 6223SOL    HW119568   1.211   5.094   4.142
 6223SOL    HW219569   1.373   5.113   4.156
 6224SOL     OW19570   2.859   1.612   6.030
 6224SOL    HW119571   2.866   1.514   6.014
 6224SOL    HW219572   2.908   1.636   6.114
 6225SOL     OW19573   3.845   3.808   0.040
 6225SOL    HW119574   3.886   3.876   6.995
 6225SOL    HW219575   3.747   3.800   0.019
 6226SOL     OW19576   7.001   1.667   5.380
 6226SOL    HW119577   6.916   1.618   5.361
 6226SOL    HW219578   0.010   1.722   5.301
 6227SOL     OW19579   3.190   6.207   5.129
 6227SOL    HW119580   3.162   6.111   5.133
 6227SOL    HW219581   3.273   6.216   5.073
 6228SOL     OW19582   0.992   2.802   2.350
 6228SOL    HW119583   0.944   2.833   2.432
 6228SOL    HW219584   0.931   2.808   2.271
 6229SOL     OW19585   0.617   2.213   3.683
 6229SOL    HW119586   0.623   2.120   3.721
 6229SOL    HW219587   0.707   2.256   3.686
 6230SOL     OW19588   0.590   1.418   3.373
 6230SOL    HW119589   0.500   1.461   3.361
 6230SOL    HW219590   0.594   1.335   3.318
 6231SOL     OW19591   5.939   6.061   0.477
 6231SOL    HW119592   5.978   6.140   0.525
 6231SOL    HW219593   5.841   6.056   0.497
 6232SOL     OW19594   6.825   0.829   0.615
 6232SOL    HW119595   6.903   0.784   0.571
 6232SOL    HW219596   6.807   0.916   0.568
 6233SOL     OW19597   0.092   1.664   1.168
 6233SOL    HW119598   0.111   1.748   1.219
 6233SOL    HW219599   0.014   1.617   1.209
 6234SOL     OW19600   6.672   1.393   5.810
 6234SOL    HW119601   6.646   1.453   5.734
 6234SOL    HW219602   6.763   1.420   5.844
 6235SOL     OW19603   0.530   6.688   0.971
 6235SOL    HW119604   0.609   6.718   1.024
 6235SOL    HW219605   0.513   6.753   0.897
 6236SOL     OW19606   0.766   3.927   0.924
 6236SOL    HW119607   0.764   3.861   0.999
 6236SOL    HW219608   0.857   3.928   0.882
 6237SOL     OW19609   3.634   0.528   6.235
 6237SOL    HW119610   3.660   0.582   6.315
 6237SOL    HW219611   3.714   0.514   6.177
 6238SOL     OW19612   3.826   4.854   2.864
 6238SOL    HW119613   3.734   4.878   2.831
 6238SOL    HW219614   3.825   4.850   2.964
 6239SOL     OW19615   3.024   0.744   1.802
 6239SOL    HW119616   3.031   0.703   1.712
 6239SOL    HW219617   2.928   0.767   1.821
 6240SOL     OW19618   1.971   3.056   5.131
 6240SOL    HW119619   1.872   3.067   5.139
 6240SOL    HW219620   2.010   3.139   5.091
 6241SOL     OW19621   3.150   0.136   1.334
 6241SOL    HW119622   3.097   0.064   1.378
 6241SOL    HW219623   3.243   0.137   1.370
 6242SOL     OW19624   4.631   0.457   3.933
 6242SOL    HW119625   4.582   0.506   3.861
 6242SOL    HW219626   4.569   0.390   3.975
 6243SOL     OW19627   6.042   6.483   4.501
 6243SOL    HW119628   6.042   6.497   4.402
 6243SOL    HW219629   6.133   6.502   4.537
 6244SOL     OW19630   6.535   2.698   2.125
 6244SOL    HW119631   6.521   2.619   2.065
 6244SOL    HW219632   6.518   2.671   2.220
 6245SOL     OW19633   1.843   4.107   0.189
 6245SOL    HW119634   1.743   4.114   0.196
 6245SOL    HW219635   1.874   4.026   0.238
 6246SOL     OW19636   1.597   1.870   5.570
 6246SOL    HW119637   1.686   1.885   5.611
 6246SOL    HW219638   1.538   1.949   5.587
 6247SOL     OW19639   0.003   5.070   4.224
 6247SOL    HW119640   6.957   5.144   4.199
 6247SOL    HW219641   6.983   4.983   4.190
 6248SOL     OW19642   3.213   3.470   0.338
 6248SOL    HW119643   3.139   3.404   0.325
 6248SOL    HW219644   3.272   3.440   0.413
 6249SOL     OW19645   6.982   3.883   0.549
 6249SOL    HW119646   0.032   3.914   0.617
 6249SOL    HW219647   0.014   3.841   0.472
 6250SOL     OW19648   6.680   0.551   0.008
 6250SOL    HW119649   6.740   0.518   0.080
 6250SOL    HW219650   6.602   0.488   7.015
 6251SOL     OW19651   3.977   5.913   6.500
 6251SOL    HW119652   3.923   5.996   6.485
 6251SOL    HW219653   3.964   5.882   6.594
 6252SOL     OW19654   2.362   6.020   5.506
 6252SOL    HW119655   2.314   6.000   5.592
 6252SOL    HW219656   2.437   5.956   5.494
 6253SOL     OW19657   2.196   4.796   3.868
 6253SOL    HW119658   2.291   4.809   3.898
 6253SOL    HW219659   2.178   4.854   3.788
 6254SOL     OW19660   5.961   1.232   1.223
 6254SOL    HW119661   5.980   1.134   1.212
 6254SOL    HW219662   6.029   1.272   1.284
 6255SOL     OW19663   3.268   0.514   0.576
 6255SOL    HW119664   3.194   0.473   0.629
 6255SOL    HW219665   3.323   0.572   0.636
 6256SOL     OW19666   3.684   5.351   1.874
 6256SOL    HW119667   3.750   5.406   1.823
 6256SOL    HW219668   3.648   5.404   1.951
 6257SOL     OW19669   5.378   2.047   0.754
 6257SOL    HW119670   5.363   2.144   0.735
 6257SOL    HW219671   5.294   1.996   0.736
 6258SOL     OW19672   3.432   0.800   3.806
 6258SOL    HW119673   3.341   0.801   3.764
 6258SOL    HW219674   3.496   0.850   3.749
 6259SOL     OW19675   1.831   2.506   6.816
 6259SOL    HW119676   1.767   2.438   6.851
 6259SOL    HW219677   1.919   2.496   6.863
 6260SOL     OW19678   3.404   5.687   0.050
 6260SOL    HW119679   3.429   5.594   0.026
 6260SOL    HW219680   3.305   5.691   0.069
 6261SOL     OW19681   3.964   1.323   6.871
 6261SOL    HW119682   4.007   1.239   6.838
 6261SOL    HW219683   3.966   1.392   6.799
 6262SOL     OW19684   2.479   6.470   1.573
 6262SOL    HW119685   2.386   6.478   1.537
 6262SOL    HW219686   2.534   6.548   1.542
 6263SOL     OW19687   0.094   0.729   5.415
 6263SOL    HW119688   0.087   0.715   5.316
 6263SOL    HW219689   0.050   0.816   5.439
 6264SOL     OW19690   1.606   0.110   1.990
 6264SOL    HW119691   1.705   0.098   2.001
 6264SOL    HW219692   1.573   0.177   2.056
 6265SOL     OW19693   4.123   3.346   0.230
 6265SOL    HW119694   4.117   3.307   0.322
 6265SOL    HW219695   4.051   3.308   0.173
 6266SOL     OW19696   4.234   0.975   4.000
 6266SOL    HW119697   4.270   0.882   4.011
 6266SOL    HW219698   4.222   1.017   4.089
 6267SOL     OW19699   2.488   6.815   5.716
 6267SOL    HW119700   2.483   6.877   5.637
 6267SOL    HW219701   2.446   6.859   5.795
 6268SOL     OW19702   2.745   0.093   3.226
 6268SOL    HW119703   2.807   0.168   3.249
 6268SOL    HW219704   2.651   0.119   3.249
 6269SOL     OW19705   0.510   6.621   1.742
 6269SOL    HW119706   0.477   6.536   1.703
 6269SOL    HW219707   0.551   6.603   1.832
 6270SOL     OW19708   1.447   0.236   6.136
 6270SOL    HW119709   1.457   0.270   6.230
 6270SOL    HW219710   1.377   0.289   6.088
 6271SOL     OW19711   6.107   2.111   6.487
 6271SOL    HW119712   6.027   2.050   6.489
 6271SOL    HW219713   6.104   2.166   6.405
 6272SOL     OW19714   0.515   2.642   0.145
 6272SOL    HW119715   0.434   2.659   0.089
 6272SOL    HW219716   0.505   2.689   0.233
 6273SOL     OW19717   0.805   6.285   2.546
 6273SOL    HW119718   0.826   6.190   2.521
 6273SOL    HW219719   0.889   6.339   2.542
 6274SOL     OW19720   3.481   6.040   5.873
 6274SOL    HW119721   3.464   6.118   5.933
 6274SOL    HW219722   3.472   5.955   5.927
 6275SOL     OW19723   2.462   6.611   6.395
 6275SOL    HW119724   2.392   6.607   6.324
 6275SOL    HW219725   2.421   6.639   6.481
 6276SOL     OW19726   1.867   4.171   3.668
 6276SOL    HW119727   1.839   4.080   3.638
 6276SOL    HW219728   1.794   4.236   3.649
 6277SOL     OW19729   4.736   3.517   1.343
 6277SOL    HW119730   4.809   3.451   1.365
 6277SOL    HW219731   4.710   3.506   1.247
 6278SOL     OW19732   5.403   6.710   4.998
 6278SOL    HW119733   5.392   6.627   5.054
 6278SOL    HW219734   5.398   6.685   4.901
 6279SOL     OW19735   3.807   6.255   6.986
 6279SOL    HW119736   3.714   6.229   6.959
 6279SOL    HW219737   3.857   6.285   6.905
 6280SOL     OW19738   1.017   1.881   4.600
 6280SOL    HW119739   0.981   1.962   4.553
 6280SOL    HW219740   1.117   1.887   4.605
 6281SOL     OW19741   0.490   4.838   3.912
 6281SOL    HW119742   0.399   4.827   3.952
 6281SOL    HW219743   0.559   4.816   3.980
 6282SOL     OW19744   0.417   5.826   5.771
 6282SOL    HW119745   0.440   5.924   5.771
 6282SOL    HW219746   0.317   5.816   5.769
 6283SOL     OW19747   6.897   3.380   5.133
 6283SOL    HW119748   6.806   3.415   5.108
 6283SOL    HW219749   6.964   3.413   5.067
 6284SOL     OW19750   0.771   5.408   4.650
 6284SOL    HW119751   0.824   5.327   4.624
 6284SOL    HW219752   0.833   5.485   4.668
 6285SOL     OW19753   0.156   3.816   4.607
 6285SOL    HW119754   0.124   3.830   4.701
 6285SOL    HW219755   0.130   3.895   4.552
 6286SOL     OW19756   6.093   1.967   4.233
 6286SOL    HW119757   6.093   1.870   4.206
 6286SOL    HW219758   5.999   2.001   4.235
 6287SOL     OW19759   3.520   5.224   4.660
 6287SOL    HW119760   3.473   5.284   4.724
 6287SOL    HW219761   3.545   5.275   4.578
 6288SOL     OW19762   4.858   4.643   2.470
 6288SOL    HW119763   4.845   4.575   2.542
 6288SOL    HW219764   4.951   4.681   2.476
 6289SOL     OW19765   1.895   5.014   0.941
 6289SOL    HW119766   1.934   5.036   1.031
 6289SOL    HW219767   1.899   4.915   0.927
 6290SOL     OW19768   6.267   4.923   5.177
 6290SOL    HW119769   6.302   4.951   5.266
 6290SOL    HW219770   6.258   5.003   5.118
 6291SOL     OW19771   4.041   3.171   4.417
 6291SOL    HW119772   3.948   3.209   4.418
 6291SOL    HW219773   4.046   3.097   4.350
 6292SOL     OW19774   1.315   1.851   4.584
 6292SOL    HW119775   1.311   1.851   4.684
 6292SOL    HW219776   1.353   1.938   4.552
 6293SOL     OW19777   3.956   1.111   0.781
 6293SOL    HW119778   3.999   1.169   0.850
 6293SOL    HW219779   3.947   1.162   0.695
 6294SOL     OW19780   3.636   6.867   3.836
 6294SOL    HW119781   3.616   6.773   3.808
 6294SOL    HW219782   3.696   6.866   3.916
 6295SOL     OW19783   5.631   4.788   5.932
 6295SOL    HW119784   5.648   4.710   5.993
 6295SOL    HW219785   5.615   4.755   5.839
 6296SOL     OW19786   0.856   6.427   5.949
 6296SOL    HW119787   0.941   6.477   5.933
 6296SOL    HW219788   0.786   6.490   5.981
 6297SOL     OW19789   5.309   0.958   4.403
 6297SOL    HW119790   5.401   0.939   4.369
 6297SOL    HW219791   5.294   0.909   4.489
 6298SOL     OW19792   1.547   3.122   6.826
 6298SOL    HW119793   1.538   3.062   6.906
 6298SOL    HW219794   1.464   3.115   6.770
 6299SOL     OW19795   6.189   2.126   0.823
 6299SOL    HW119796   6.091   2.144   0.811
 6299SOL    HW219797   6.205   2.088   0.914
 6300SOL     OW19798   6.328   1.021   6.975
 6300SOL    HW119799   6.395   0.965   0.009
 6300SOL    HW219800   6.303   1.100   0.014
 6301SOL     OW19801   3.863   6.641   0.412
 6301SOL    HW119802   3.851   6.679   0.504
 6301SOL    HW219803   3.942   6.579   0.412
 6302SOL     OW19804   1.777   0.321   3.530
 6302SOL    HW119805   1.692   0.268   3.528
 6302SOL    HW219806   1.757   0.414   3.562
 6303SOL     OW19807   1.898   1.238   3.670
 6303SOL    HW119808   1.964   1.252   3.596
 6303SOL    HW219809   1.878   1.141   3.679
 6304SOL     OW19810   2.336   1.063   1.309
 6304SOL    HW119811   2.239   1.057   1.332
 6304SOL    HW219812   2.355   1.152   1.268
 6305SOL     OW19813   6.440   6.789   0.585
 6305SOL    HW119814   6.405   6.808   0.493
 6305SOL    HW219815   6.436   6.691   0.602
 6306SOL     OW19816   0.484   4.216   3.826
 6306SOL    HW119817   0.469   4.129   3.779
 6306SOL    HW219818   0.418   4.283   3.792
 6307SOL     OW19819   3.199   4.080   4.913
 6307SOL    HW119820   3.118   4.099   4.968
 6307SOL    HW219821   3.181   4.099   4.817
 6308SOL     OW19822   2.332   1.789   4.678
 6308SOL    HW119823   2.419   1.832   4.699
 6308SOL    HW219824   2.257   1.847   4.710
 6309SOL     OW19825   5.749   4.612   5.029
 6309SOL    HW119826   5.826   4.612   5.093
 6309SOL    HW219827   5.668   4.574   5.075
 6310SOL     OW19828   2.275   5.902   2.942
 6310SOL    HW119829   2.213   5.824   2.950
 6310SOL    HW219830   2.353   5.876   2.885
 6311SOL     OW19831   5.123   1.644   5.909
 6311SOL    HW119832   5.051   1.696   5.954
 6311SOL    HW219833   5.131   1.553   5.951
 6312SOL     OW19834   6.655   6.206   5.391
 6312SOL    HW119835   6.697   6.258   5.316
 6312SOL    HW219836   6.726   6.180   5.457
 6313SOL     OW19837   6.714   5.858   4.500
 6313SOL    HW119838   6.708   5.899   4.409
 6313SOL    HW219839   6.809   5.833   4.519
 6314SOL     OW19840   4.049   6.551   1.413
 6314SOL    HW119841   4.025   6.455   1.400
 6314SOL    HW219842   3.990   6.590   1.484
 6315SOL     OW19843   2.258   2.536   5.410
 6315SOL    HW119844   2.302   2.602   5.471
 6315SOL    HW219845   2.217   2.462   5.464
 6316SOL     OW19846   5.068   2.234   6.747
 6316SOL    HW119847   5.131   2.184   6.807
 6316SOL    HW219848   5.024   2.170   6.685
 6317SOL     OW19849   4.595   4.980   1.397
 6317SOL    HW119850   4.506   4.936   1.385
 6317SOL    HW219851   4.648   4.972   1.312
 6318SOL     OW19852   3.615   0.492   5.616
 6318SOL    HW119853   3.670   0.507   5.699
 6318SOL    HW219854   3.669   0.441   5.550
 6319SOL     OW19855   6.528   1.927   4.796
 6319SOL    HW119856   6.582   1.890   4.871
 6319SOL    HW219857   6.542   1.871   4.714
 6320SOL     OW19858   6.277   6.734   5.553
 6320SOL    HW119859   6.210   6.726   5.626
 6320SOL    HW219860   6.274   6.652   5.495
 6321SOL     OW19861   4.177   3.986   0.867
 6321SOL    HW119862   4.229   4.003   0.951
 6321SOL    HW219863   4.196   3.894   0.834
 6322SOL     OW19864   2.232   2.285   0.831
 6322SOL    HW119865   2.292   2.364   0.825
 6322SOL    HW219866   2.286   2.202   0.841
 6323SOL     OW19867   2.886   2.745   1.525
 6323SOL    HW119868   2.945   2.706   1.596
 6323SOL    HW219869   2.941   2.772   1.446
 6324SOL     OW19870   5.491   0.303   0.278
 6324SOL    HW119871   5.564   0.297   0.346
 6324SOL    HW219872   5.410   0.254   0.311
 6325SOL     OW19873   1.770   3.138   2.662
 6325SOL    HW119874   1.797   3.057   2.611
 6325SOL    HW219875   1.763   3.216   2.599
 6326SOL     OW19876   4.903   5.031   1.702
 6326SOL    HW119877   4.945   5.008   1.790
 6326SOL    HW219878   4.875   4.946   1.656
 6327SOL     OW19879   0.123   0.697   4.889
 6327SOL    HW119880   0.216   0.691   4.855
 6327SOL    HW219881   0.094   0.793   4.891
 6328SOL     OW19882   2.958   3.738   0.577
 6328SOL    HW119883   2.973   3.731   0.675
 6328SOL    HW219884   2.949   3.646   0.538
 6329SOL     OW19885   1.866   2.573   2.994
 6329SOL    HW119886   1.841   2.537   3.084
 6329SOL    HW219887   1.909   2.663   3.005
 6330SOL     OW19888   5.380   0.536   1.559
 6330SOL    HW119889   5.365   0.463   1.624
 6330SOL    HW219890   5.398   0.622   1.608
 6331SOL     OW19891   6.239   2.449   5.603
 6331SOL    HW119892   6.324   2.465   5.554
 6331SOL    HW219893   6.164   2.499   5.559
 6332SOL     OW19894   0.512   3.274   0.706
 6332SOL    HW119895   0.439   3.251   0.770
 6332SOL    HW219896   0.498   3.367   0.672
 6333SOL     OW19897   4.549   5.705   4.949
 6333SOL    HW119898   4.513   5.729   4.859
 6333SOL    HW219899   4.502   5.760   5.019
 6334SOL     OW19900   2.752   1.107   2.397
 6334SOL    HW119901   2.732   1.132   2.302
 6334SOL    HW219902   2.774   1.010   2.402
 6335SOL     OW19903   4.197   0.279   0.363
 6335SOL    HW119904   4.187   0.203   0.298
 6335SOL    HW219905   4.118   0.281   0.424
 6336SOL     OW19906   0.962   2.686   6.041
 6336SOL    HW119907   0.941   2.651   6.132
 6336SOL    HW219908   0.884   2.739   6.007
 6337SOL     OW19909   5.096   4.998   5.387
 6337SOL    HW119910   5.146   5.007   5.301
 6337SOL    HW219911   5.160   5.004   5.464
 6338SOL     OW19912   3.516   2.124   4.117
 6338SOL    HW119913   3.499   2.103   4.021
 6338SOL    HW219914   3.430   2.151   4.161
 6339SOL     OW19915   0.807   3.663   3.586
 6339SOL    HW119916   0.770   3.750   3.619
 6339SOL    HW219917   0.907   3.666   3.587
 6340SOL     OW19918   2.171   5.037   2.262
 6340SOL    HW119919   2.174   5.133   2.290
 6340SOL    HW219920   2.076   5.008   2.251
 6341SOL     OW19921   0.134   3.983   4.394
 6341SOL    HW119922   0.218   4.035   4.410
 6341SOL    HW219923   0.147   3.925   4.313
 6342SOL     OW19924   1.823   0.929   2.614
 6342SOL    HW119925   1.740   0.979   2.587
 6342SOL    HW219926   1.902   0.965   2.564
 6343SOL     OW19927   4.959   1.804   6.470
 6343SOL    HW119928   5.017   1.762   6.399
 6343SOL    HW219929   4.911   1.733   6.520
 6344SOL     OW19930   5.449   2.192   4.603
 6344SOL    HW119931   5.537   2.241   4.606
 6344SOL    HW219932   5.390   2.235   4.534
 6345SOL     OW19933   5.933   2.959   2.701
 6345SOL    HW119934   5.966   2.876   2.655
 6345SOL    HW219935   5.873   3.009   2.638
 6346SOL     OW19936   6.869   5.287   4.141
 6346SOL    HW119937   6.794   5.306   4.078
 6346SOL    HW219938   6.954   5.324   4.104
 6347SOL     OW19939   1.895   0.511   0.941
 6347SOL    HW119940   1.886   0.415   0.917
 6347SOL    HW219941   1.820   0.537   1.002
 6348SOL     OW19942   1.649   3.039   5.817
 6348SOL    HW119943   1.646   3.129   5.860
 6348SOL    HW219944   1.673   2.970   5.885
 6349SOL     OW19945   2.381   0.615   1.318
 6349SOL    HW119946   2.340   0.541   1.372
 6349SOL    HW219947   2.311   0.656   1.260
 6350SOL     OW19948   0.299   5.078   4.268
 6350SOL    HW119949   0.207   5.071   4.228
 6350SOL    HW219950   0.366   5.086   4.195
 6351SOL     OW19951   6.387   3.564   4.118
 6351SOL    HW119952   6.470   3.508   4.118
 6351SOL    HW219953   6.388   3.626   4.039
 6352SOL     OW19954   3.706   6.337   4.788
 6352SOL    HW119955   3.623   6.386   4.813
 6352SOL    HW219956   3.779   6.403   4.769
 6353SOL     OW19957   0.969   6.880   6.215
 6353SOL    HW119958   0.875   6.868   6.249
 6353SOL    HW219959   1.002   6.793   6.179
 6354SOL     OW19960   2.545   5.231   3.126
 6354SOL    HW119961   2.508   5.304   3.184
 6354SOL    HW219962   2.628   5.195   3.167
 6355SOL     OW19963   0.847   5.305   0.216
 6355SOL    HW119964   0.923   5.368   0.226
 6355SOL    HW219965   0.764   5.356   0.191
 6356SOL     OW19966   5.210   5.694   1.764
 6356SOL    HW119967   5.190   5.626   1.834
 6356SOL    HW219968   5.278   5.758   1.798
 6357SOL     OW19969   6.247   3.336   2.573
 6357SOL    HW119970   6.294   3.386   2.645
 6357SOL    HW219971   6.305   3.261   2.541
 6358SOL     OW19972   0.470   2.277   6.336
 6358SOL    HW119973   0.467   2.362   6.389
 6358SOL    HW219974   0.506   2.204   6.394
 6359SOL     OW19975   6.110   0.532   6.902
 6359SOL    HW119976   6.189   0.593   6.900
 6359SOL    HW219977   6.125   0.459   6.968
 6360SOL     OW19978   1.377   4.760   4.074
 6360SOL    HW119979   1.358   4.706   4.156
 6360SOL    HW219980   1.445   4.830   4.096
 6361SOL     OW19981   1.212   6.544   1.270
 6361SOL    HW119982   1.262   6.593   1.198
 6361SOL    HW219983   1.243   6.449   1.273
 6362SOL     OW19984   6.883   6.222   6.894
 6362SOL    HW119985   6.963   6.245   6.949
 6362SOL    HW219986   6.807   6.281   6.919
 6363SOL     OW19987   1.931   5.253   3.856
 6363SOL    HW119988   1.949   5.346   3.824
 6363SOL    HW219989   1.861   5.254   3.926
 6364SOL     OW19990   2.302   1.594   5.588
 6364SOL    HW119991   2.366   1.636   5.653
 6364SOL    HW219992   2.209   1.600   5.625
 6365SOL     OW19993   5.915   0.250   3.745
 6365SOL    HW119994   6.006   0.265   3.785
 6365SOL    HW219995   5.887   0.156   3.759
 6366SOL     OW19996   1.132   5.729   5.696
 6366SOL    HW119997   1.228   5.726   5.726
 6366SOL    HW219998   1.125   5.687   5.605
 6367SOL     OW19999   3.827   1.400   4.496
 6367SOL    HW120000   3.831   1.490   4.540
 6367SOL    HW220001   3.764   1.404   4.418
 6368SOL     OW20002   3.704   5.056   3.340
 6368SOL    HW120003   3.638   5.003   3.393
 6368SOL    HW220004   3.777   5.089   3.399
 6369SOL     OW20005   2.191   5.986   4.444
 6369SOL    HW120006   2.229   5.894   4.434
 6369SOL    HW220007   2.091   5.982   4.442
 6370SOL     OW20008   6.970   3.289   3.676
 6370SOL    HW120009   6.959   3.324   3.769
 6370SOL    HW220010   6.880   3.273   3.636
 6371SOL     OW20011   4.629   4.872   2.957
 6371SOL    HW120012   4.635   4.784   3.003
 6371SOL    HW220013   4.601   4.942   3.023
 6372SOL     OW20014   2.018   0.896   1.896
 6372SOL    HW120015   2.039   0.949   1.815
 6372SOL    HW220016   2.074   0.928   1.973
 6373SOL     OW20017   4.781   4.231   2.412
 6373SOL    HW120018   4.880   4.237   2.425
 6373SOL    HW220019   4.761   4.177   2.331
 6374SOL     OW20020   3.971   3.873   3.274
 6374SOL    HW120021   3.983   3.890   3.176
 6374SOL    HW220022   3.892   3.925   3.307
 6375SOL     OW20023   0.131   1.780   3.281
 6375SOL    HW120024   0.188   1.862   3.272
 6375SOL    HW220025   0.165   1.709   3.219
 6376SOL     OW20026   5.385   2.532   4.835
 6376SOL    HW120027   5.297   2.544   4.788
 6376SOL    HW220028   5.369   2.512   4.931
 6377SOL     OW20029   6.905   2.034   5.440
 6377SOL    HW120030   6.872   1.992   5.525
 6377SOL    HW220031   6.993   1.994   5.416
 6378SOL     OW20032   4.640   4.665   4.154
 6378SOL    HW120033   4.691   4.656   4.240
 6378SOL    HW220034   4.589   4.581   4.137
 6379SOL     OW20035   1.408   4.108   4.883
 6379SOL    HW120036   1.323   4.106   4.937
 6379SOL    HW220037   1.424   4.201   4.851
 6380SOL     OW20038   0.210   1.526   5.409
 6380SOL    HW120039   0.134   1.590   5.414
 6380SOL    HW220040   0.177   1.438   5.374
 6381SOL     OW20041   4.080   2.999   1.880
 6381SOL    HW120042   4.088   2.997   1.979
 6381SOL    HW220043   4.010   2.934   1.851
 6382SOL     OW20044   2.567   1.988   0.446
 6382SOL    HW120045   2.482   1.993   0.393
 6382SOL    HW220046   2.613   1.901   0.426
 6383SOL     OW20047   1.681   2.617   2.796
 6383SOL    HW120048   1.764   2.596   2.848
 6383SOL    HW220049   1.681   2.564   2.711
 6384SOL     OW20050   6.432   3.943   2.767
 6384SOL    HW120051   6.387   3.870   2.818
 6384SOL    HW220052   6.424   3.925   2.669
 6385SOL     OW20053   0.332   3.856   3.530
 6385SOL    HW120054   0.359   3.882   3.623
 6385SOL    HW220055   0.281   3.770   3.533
 6386SOL     OW20056   2.752   4.572   5.520
 6386SOL    HW120057   2.841   4.599   5.483
 6386SOL    HW220058   2.692   4.652   5.524
 6387SOL     OW20059   6.785   1.673   6.084
 6387SOL    HW120060   6.730   1.595   6.113
 6387SOL    HW220061   6.731   1.756   6.090
 6388SOL     OW20062   4.131   6.142   1.847
 6388SOL    HW120063   4.084   6.227   1.823
 6388SOL    HW220064   4.226   6.163   1.873
 6389SOL     OW20065   0.131   5.684   2.036
 6389SOL    HW120066   0.133   5.589   2.067
 6389SOL    HW220067   0.087   5.740   2.106
 6390SOL     OW20068   0.508   0.647   6.179
 6390SOL    HW120069   0.565   0.729   6.187
 6390SOL    HW220070   0.518   0.609   6.087
 6391SOL     OW20071   2.939   0.027   6.264
 6391SOL    HW120072   2.944   0.117   6.308
 6391SOL    HW220073   2.877   0.033   6.185
 6392SOL     OW20074   2.587   5.529   2.753
 6392SOL    HW120075   2.640   5.456   2.797
 6392SOL    HW220076   2.497   5.535   2.797
 6393SOL     OW20077   0.103   6.661   2.238
 6393SOL    HW120078   0.107   6.668   2.337
 6393SOL    HW220079   0.043   6.732   2.201
 6394SOL     OW20080   2.204   5.341   0.875
 6394SOL    HW120081   2.140   5.281   0.828
 6394SOL    HW220082   2.243   5.406   0.809
 6395SOL     OW20083   0.546   2.694   1.871
 6395SOL    HW120084   0.589   2.604   1.880
 6395SOL    HW220085   0.447   2.684   1.862
 6396SOL     OW20086   5.073   3.674   6.666
 6396SOL    HW120087   5.114   3.643   6.580
 6396SOL    HW220088   4.998   3.612   6.692
 6397SOL     OW20089   6.108   1.741   0.920
 6397SOL    HW120090   6.020   1.707   0.886
 6397SOL    HW220091   6.169   1.758   0.842
 6398SOL     OW20092   2.930   6.909   1.838
 6398SOL    HW120093   2.896   6.897   1.745
 6398SOL    HW220094   2.874   6.978   1.885
 6399SOL     OW20095   1.531   6.284   6.415
 6399SOL    HW120096   1.595   6.330   6.353
 6399SOL    HW220097   1.582   6.234   6.485
 6400SOL     OW20098   2.642   5.965   2.425
 6400SOL    HW120099   2.594   5.898   2.482
 6400SOL    HW220100   2.576   6.013   2.367
 6401SOL     OW20101   5.517   5.505   3.270
 6401SOL    HW120102   5.531   5.406   3.270
 6401SOL    HW220103   5.493   5.535   3.178
 6402SOL     OW20104   3.431   2.140   3.540
 6402SOL    HW120105   3.392   2.192   3.464
 6402SOL    HW220106   3.516   2.098   3.511
 6403SOL     OW20107   6.948   6.135   6.499
 6403SOL    HW120108   6.958   6.234   6.512
 6403SOL    HW220109   0.021   6.091   6.504
 6404SOL     OW20110   4.356   0.731   2.700
 6404SOL    HW120111   4.348   0.820   2.656
 6404SOL    HW220112   4.398   0.741   2.790
 6405SOL     OW20113   2.860   0.515   3.779
 6405SOL    HW120114   2.939   0.455   3.788
 6405SOL    HW220115   2.890   0.611   3.780
 6406SOL     OW20116   0.657   2.867   2.510
 6406SOL    HW120117   0.742   2.891   2.558
 6406SOL    HW220118   0.630   2.774   2.535
 6407SOL     OW20119   2.598   6.519   3.867
 6407SOL    HW120120   2.551   6.442   3.824
 6407SOL    HW220121   2.531   6.576   3.914
 6408SOL     OW20122   5.389   1.324   0.094
 6408SOL    HW120123   5.481   1.351   0.065
 6408SOL    HW220124   5.323   1.394   0.066
 6409SOL     OW20125   6.792   4.351   3.397
 6409SOL    HW120126   6.830   4.345   3.489
 6409SOL    HW220127   6.753   4.263   3.371
 6410SOL     OW20128   2.174   1.522   6.688
 6410SOL    HW120129   2.133   1.432   6.683
 6410SOL    HW220130   2.267   1.519   6.651
 6411SOL     OW20131   0.911   3.305   3.000
 6411SOL    HW120132   0.989   3.365   3.018
 6411SOL    HW220133   0.914   3.227   3.062
 6412SOL     OW20134   0.731   2.053   4.550
 6412SOL    HW120135   0.688   2.080   4.637
 6412SOL    HW220136   0.723   1.954   4.539
 6413SOL     OW20137   3.811   4.905   3.785
 6413SOL    HW120138   3.857   4.994   3.786
 6413SOL    HW220139   3.817   4.864   3.876
 6414SOL     OW20140   5.866   1.031   0.512
 6414SOL    HW120141   5.883   0.936   0.486
 6414SOL    HW220142   5.820   1.035   0.601
 6415SOL     OW20143   1.776   3.511   2.804
 6415SOL    HW120144   1.681   3.479   2.801
 6415SOL    HW220145   1.807   3.514   2.899
 6416SOL     OW20146   0.768   1.379   6.792
 6416SOL    HW120147   0.861   1.393   6.826
 6416SOL    HW220148   0.709   1.454   6.822
 6417SOL     OW20149   6.086   5.188   0.733
 6417SOL    HW120150   6.083   5.263   0.666
 6417SOL    HW220151   6.018   5.119   0.709
 6418SOL     OW20152   4.869   3.716   2.177
 6418SOL    HW120153   4.794   3.781   2.166
 6418SOL    HW220154   4.870   3.652   2.100
 6419SOL     OW20155   2.111   4.618   3.291
 6419SOL    HW120156   2.110   4.584   3.197
 6419SOL    HW220157   2.117   4.718   3.291
 6420SOL     OW20158   2.915   5.841   4.694
 6420SOL    HW120159   2.826   5.862   4.736
 6420SOL    HW220160   2.956   5.924   4.658
 6421SOL     OW20161   5.031   0.083   3.029
 6421SOL    HW120162   4.999   0.010   3.089
 6421SOL    HW220163   4.958   0.111   2.967
 6422SOL     OW20164   6.861   1.023   3.978
 6422SOL    HW120165   6.927   1.016   3.903
 6422SOL    HW220166   6.901   1.075   4.053
 6423SOL     OW20167   4.788   5.316   3.273
 6423SOL    HW120168   4.712   5.280   3.327
 6423SOL    HW220169   4.864   5.251   3.275
 6424SOL     OW20170   0.094   5.388   6.068
 6424SOL    HW120171   0.032   5.315   6.097
 6424SOL    HW220172   0.187   5.351   6.064
 6425SOL     OW20173   6.371   6.065   3.111
 6425SOL    HW120174   6.417   6.142   3.069
 6425SOL    HW220175   6.418   5.980   3.086
 6426SOL     OW20176   1.615   5.265   2.846
 6426SOL    HW120177   1.542   5.263   2.778
 6426SOL    HW220178   1.685   5.199   2.821
 6427SOL     OW20179   3.553   3.733   4.742
 6427SOL    HW120180   3.528   3.825   4.713
 6427SOL    HW220181   3.520   3.667   4.675
 6428SOL     OW20182   5.768   3.289   5.954
 6428SOL    HW120183   5.797   3.364   5.895
 6428SOL    HW220184   5.733   3.214   5.897
 6429SOL     OW20185   1.520   1.616   5.724
 6429SOL    HW120186   1.610   1.583   5.754
 6429SOL    HW220187   1.528   1.651   5.631
 6430SOL     OW20188   6.397   1.145   2.949
 6430SOL    HW120189   6.315   1.189   2.986
 6430SOL    HW220190   6.455   1.214   2.906
 6431SOL     OW20191   5.253   6.511   3.890
 6431SOL    HW120192   5.227   6.607   3.888
 6431SOL    HW220193   5.203   6.465   3.964
 6432SOL     OW20194   4.366   4.390   5.907
 6432SOL    HW120195   4.379   4.327   5.831
 6432SOL    HW220196   4.399   4.480   5.883
 6433SOL     OW20197   1.946   5.300   6.385
 6433SOL    HW120198   1.995   5.302   6.472
 6433SOL    HW220199   1.874   5.369   6.387
 6434SOL     OW20200   2.387   4.300   6.453
 6434SOL    HW120201   2.412   4.378   6.510
 6434SOL    HW220202   2.340   4.232   6.508
 6435SOL     OW20203   4.846   6.774   0.719
 6435SOL    HW120204   4.910   6.737   0.652
 6435SOL    HW220205   4.886   6.855   0.762
 6436SOL     OW20206   1.316   3.139   2.873
 6436SOL    HW120207   1.401   3.112   2.826
 6436SOL    HW220208   1.248   3.066   2.862
 6437SOL     OW20209   2.441   1.337   0.355
 6437SOL    HW120210   2.523   1.317   0.409
 6437SOL    HW220211   2.420   1.435   0.362
 6438SOL     OW20212   6.015   4.259   5.839
 6438SOL    HW120213   6.021   4.311   5.924
 6438SOL    HW220214   6.097   4.276   5.784
 6439SOL     OW20215   5.766   1.243   1.729
 6439SOL    HW120216   5.741   1.227   1.824
 6439SOL    HW220217   5.710   1.317   1.691
 6440SOL     OW20218   2.271   1.759   5.851
 6440SOL    HW120219   2.318   1.822   5.790
 6440SOL    HW220220   2.336   1.721   5.917
 6441SOL     OW20221   6.685   6.551   1.866
 6441SOL    HW120222   6.606   6.510   1.822
 6441SOL    HW220223   6.656   6.631   1.919
 6442SOL     OW20224   2.685   1.452   4.541
 6442SOL    HW120225   2.706   1.372   4.484
 6442SOL    HW220226   2.672   1.532   4.483
 6443SOL     OW20227   4.001   2.164   5.782
 6443SOL    HW120228   4.012   2.128   5.689
 6443SOL    HW220229   4.090   2.183   5.822
 6444SOL     OW20230   5.450   2.578   4.047
 6444SOL    HW120231   5.422   2.662   4.094
 6444SOL    HW220232   5.549   2.573   4.044
 6445SOL     OW20233   4.061   3.291   4.762
 6445SOL    HW120234   4.098   3.283   4.855
 6445SOL    HW220235   4.121   3.244   4.698
 6446SOL     OW20236   1.163   1.385   6.375
 6446SOL    HW120237   1.139   1.351   6.466
 6446SOL    HW220238   1.103   1.345   6.307
 6447SOL     OW20239   5.224   5.051   3.621
 6447SOL    HW120240   5.145   5.113   3.620
 6447SOL    HW220241   5.214   4.987   3.698
 6448SOL     OW20242   4.013   5.858   2.412
 6448SOL    HW120243   3.971   5.769   2.430
 6448SOL    HW220244   3.983   5.891   2.322
 6449SOL     OW20245   3.432   5.932   1.374
 6449SOL    HW120246   3.422   5.834   1.359
 6449SOL    HW220247   3.500   5.949   1.445
 6450SOL     OW20248   0.600   3.972   0.590
 6450SOL    HW120249   0.667   3.998   0.659
 6450SOL    HW220250   0.512   4.014   0.611
 6451SOL     OW20251   1.926   0.762   4.606
 6451SOL    HW120252   2.026   0.766   4.606
 6451SOL    HW220253   1.895   0.713   4.524
 6452SOL     OW20254   4.350   5.792   4.191
 6452SOL    HW120255   4.420   5.846   4.239
 6452SOL    HW220256   4.355   5.697   4.220
 6453SOL     OW20257   2.032   6.238   1.648
 6453SOL    HW120258   2.048   6.144   1.618
 6453SOL    HW220259   1.949   6.274   1.605
 6454SOL     OW20260   1.221   2.490   2.768
 6454SOL    HW120261   1.268   2.566   2.814
 6454SOL    HW220262   1.277   2.457   2.692
 6455SOL     OW20263   6.782   2.955   3.642
 6455SOL    HW120264   6.700   3.007   3.618
 6455SOL    HW220265   6.809   2.976   3.735
 6456SOL     OW20266   0.813   0.501   3.814
 6456SOL    HW120267   0.769   0.429   3.867
 6456SOL    HW220268   0.746   0.543   3.753
 6457SOL     OW20269   4.842   1.770   1.146
 6457SOL    HW120270   4.904   1.770   1.067
 6457SOL    HW220271   4.747   1.779   1.114
 6458SOL     OW20272   1.165   6.379   4.242
 6458SOL    HW120273   1.133   6.304   4.300
 6458SOL    HW220274   1.089   6.413   4.186
 6459SOL     OW20275   6.110   3.218   1.223
 6459SOL    HW120276   6.096   3.123   1.253
 6459SOL    HW220277   6.094   3.224   1.124
 6460SOL     OW20278   6.052   6.175   5.899
 6460SOL    HW120279   5.986   6.216   5.962
 6460SOL    HW220280   6.067   6.080   5.924
 6461SOL     OW20281   2.490   4.666   5.822
 6461SOL    HW120282   2.487   4.637   5.917
 6461SOL    HW220283   2.550   4.605   5.770
 6462SOL     OW20284   2.135   2.366   4.284
 6462SOL    HW120285   2.228   2.389   4.256
 6462SOL    HW220286   2.071   2.433   4.245
 6463SOL     OW20287   6.085   3.063   6.833
 6463SOL    HW120288   6.037   3.001   6.895
 6463SOL    HW220289   6.181   3.068   6.858
 6464SOL     OW20290   0.618   5.470   4.926
 6464SOL    HW120291   0.652   5.448   4.835
 6464SOL    HW220292   0.610   5.570   4.935
 6465SOL     OW20293   0.259   3.110   2.997
 6465SOL    HW120294   0.198   3.187   2.975
 6465SOL    HW220295   0.337   3.144   3.049
 6466SOL     OW20296   1.254   1.030   6.404
 6466SOL    HW120297   1.163   1.059   6.434
 6466SOL    HW220298   1.247   0.943   6.355
 6467SOL     OW20299   3.347   1.577   0.484
 6467SOL    HW120300   3.291   1.514   0.537
 6467SOL    HW220301   3.290   1.624   0.417
 6468SOL     OW20302   3.078   6.441   0.447
 6468SOL    HW120303   3.154   6.378   0.458
 6468SOL    HW220304   3.087   6.489   0.360
 6469SOL     OW20305   4.726   1.188   4.526
 6469SOL    HW120306   4.627   1.194   4.536
 6469SOL    HW220307   4.770   1.253   4.589
 6470SOL     OW20308   6.028   3.342   0.375
 6470SOL    HW120309   6.044   3.322   0.278
 6470SOL    HW220310   5.937   3.309   0.400
 6471SOL     OW20311   6.658   6.733   5.706
 6471SOL    HW120312   6.652   6.731   5.607
 6471SOL    HW220313   6.589   6.794   5.744
 6472SOL     OW20314   0.435   5.826   1.599
 6472SOL    HW120315   0.366   5.885   1.558
 6472SOL    HW220316   0.393   5.770   1.671
 6473SOL     OW20317   3.294   1.111   4.112
 6473SOL    HW120318   3.268   1.131   4.206
 6473SOL    HW220319   3.360   1.180   4.080
 6474SOL     OW20320   2.753   4.252   6.121
 6474SOL    HW120321   2.774   4.343   6.086
 6474SOL    HW220322   2.736   4.258   6.220
 6475SOL     OW20323   5.970   5.192   3.721
 6475SOL    HW120324   5.920   5.199   3.808
 6475SOL    HW220325   5.909   5.219   3.646
 6476SOL     OW20326   3.977   3.437   1.472
 6476SOL    HW120327   3.980   3.366   1.403
 6476SOL    HW220328   4.039   3.511   1.447
 6477SOL     OW20329   6.080   5.113   1.226
 6477SOL    HW120330   5.997   5.077   1.183
 6477SOL    HW220331   6.159   5.061   1.194
 6478SOL     OW20332   3.577   0.692   1.534
 6478SOL    HW120333   3.642   0.616   1.540
 6478SOL    HW220334   3.588   0.738   1.446
 6479SOL     OW20335   4.426   5.303   4.120
 6479SOL    HW120336   4.454   5.281   4.027
 6479SOL    HW220337   4.507   5.306   4.179
 6480SOL     OW20338   2.683   1.729   6.603
 6480SOL    HW120339   2.659   1.802   6.667
 6480SOL    HW220340   2.758   1.675   6.640
 6481SOL     OW20341   3.486   2.065   2.244
 6481SOL    HW120342   3.486   2.090   2.340
 6481SOL    HW220343   3.512   2.144   2.188
 6482SOL     OW20344   6.719   0.701   6.516
 6482SOL    HW120345   6.804   0.754   6.524
 6482SOL    HW220346   6.727   0.616   6.568
 6483SOL     OW20347   1.117   6.385   2.012
 6483SOL    HW120348   1.120   6.426   2.103
 6483SOL    HW220349   1.021   6.372   1.985
 6484SOL     OW20350   3.362   6.878   1.015
 6484SOL    HW120351   3.412   6.941   0.955
 6484SOL    HW220352   3.275   6.920   1.043
 6485SOL     OW20353   1.760   5.084   3.671
 6485SOL    HW120354   1.827   5.019   3.635
 6485SOL    HW220355   1.807   5.151   3.729
 6486SOL     OW20356   2.636   4.668   3.791
 6486SOL    HW120357   2.728   4.681   3.755
 6486SOL    HW220358   2.639   4.607   3.870
 6487SOL     OW20359   0.477   6.429   5.076
 6487SOL    HW120360   0.572   6.428   5.045
 6487SOL    HW220361   0.435   6.515   5.048
 6488SOL     OW20362   3.509   6.530   4.700
 6488SOL    HW120363   3.464   6.446   4.670
 6488SOL    HW220364   3.441   6.602   4.711
 6489SOL     OW20365   3.337   2.571   6.481
 6489SOL    HW120366   3.288   2.515   6.413
 6489SOL    HW220367   3.373   2.512   6.553
 6490SOL     OW20368   4.276   0.475   6.826
 6490SOL    HW120369   4.230   0.545   6.771
 6490SOL    HW220370   4.346   0.430   6.771
 6491SOL     OW20371   3.997   0.884   0.644
 6491SOL    HW120372   4.061   0.830   0.697
 6491SOL    HW220373   3.980   0.971   0.691
 6492SOL     OW20374   3.921   5.152   0.063
 6492SOL    HW120375   3.956   5.152   0.157
 6492SOL    HW220376   3.837   5.098   0.059
 6493SOL     OW20377   1.056   4.761   5.372
 6493SOL    HW120378   1.086   4.847   5.331
 6493SOL    HW220379   1.038   4.775   5.469
 6494SOL     OW20380   6.819   0.553   3.683
 6494SOL    HW120381   6.865   0.533   3.596
 6494SOL    HW220382   6.888   0.576   3.752
 6495SOL     OW20383   5.267   0.238   4.478
 6495SOL    HW120384   5.330   0.308   4.443
 6495SOL    HW220385   5.297   0.210   4.569
 6496SOL     OW20386   6.431   0.728   2.891
 6496SOL    HW120387   6.512   0.778   2.859
 6496SOL    HW220388   6.415   0.749   2.988
 6497SOL     OW20389   1.576   1.670   0.956
 6497SOL    HW120390   1.609   1.587   1.001
 6497SOL    HW220391   1.510   1.716   1.016
 6498SOL     OW20392   1.917   3.597   3.665
 6498SOL    HW120393   1.972   3.615   3.747
 6498SOL    HW220394   1.905   3.499   3.653
 6499SOL     OW20395   5.204   2.847   5.242
 6499SOL    HW120396   5.302   2.865   5.237
 6499SOL    HW220397   5.167   2.836   5.149
 6500SOL     OW20398   6.761   4.325   4.259
 6500SOL    HW120399   6.814   4.254   4.304
 6500SOL    HW220400   6.724   4.388   4.327
 6501SOL     OW20401   6.239   1.704   6.701
 6501SOL    HW120402   6.179   1.665   6.771
 6501SOL    HW220403   6.229   1.803   6.700
 6502SOL     OW20404   6.795   2.047   1.499
 6502SOL    HW120405   6.704   2.037   1.459
 6502SOL    HW220406   6.822   2.143   1.498
 6503SOL     OW20407   5.051   1.075   3.162
 6503SOL    HW120408   4.954   1.050   3.155
 6503SOL    HW220409   5.101   1.039   3.083
 6504SOL     OW20410   3.955   6.164   5.278
 6504SOL    HW120411   3.947   6.072   5.317
 6504SOL    HW220412   4.052   6.189   5.272
 6505SOL     OW20413   5.446   5.902   0.433
 6505SOL    HW120414   5.409   5.871   0.521
 6505SOL    HW220415   5.539   5.867   0.423
 6506SOL     OW20416   6.436   2.482   2.692
 6506SOL    HW120417   6.436   2.402   2.752
 6506SOL    HW220418   6.525   2.527   2.698
 6507SOL     OW20419   2.025   4.981   5.568
 6507SOL    HW120420   1.998   4.966   5.473
 6507SOL    HW220421   1.952   5.029   5.616
 6508SOL     OW20422   1.409   0.705   2.833
 6508SOL    HW120423   1.331   0.717   2.772
 6508SOL    HW220424   1.418   0.609   2.857
 6509SOL     OW20425   3.674   1.976   4.515
 6509SOL    HW120426   3.585   2.018   4.495
 6509SOL    HW220427   3.722   2.031   4.583
 6510SOL     OW20428   6.616   5.612   6.930
 6510SOL    HW120429   6.584   5.699   6.893
 6510SOL    HW220430   6.538   5.556   6.956
 6511SOL     OW20431   4.478   1.541   4.205
 6511SOL    HW120432   4.479   1.629   4.252
 6511SOL    HW220433   4.565   1.527   4.158
 6512SOL     OW20434   4.526   6.314   1.594
 6512SOL    HW120435   4.608   6.369   1.609
 6512SOL    HW220436   4.533   6.267   1.506
 6513SOL     OW20437   2.700   5.303   2.888
 6513SOL    HW120438   2.742   5.221   2.849
 6513SOL    HW220439   2.639   5.277   2.963
 6514SOL     OW20440   6.197   1.319   3.978
 6514SOL    HW120441   6.189   1.411   4.015
 6514SOL    HW220442   6.278   1.274   4.017
 6515SOL     OW20443   0.088   4.381   4.296
 6515SOL    HW120444   0.053   4.315   4.362
 6515SOL    HW220445   0.182   4.407   4.321
 6516SOL     OW20446   0.403   3.278   1.671
 6516SOL    HW120447   0.339   3.238   1.605
 6516SOL    HW220448   0.473   3.331   1.621
 6517SOL     OW20449   6.437   0.570   0.867
 6517SOL    HW120450   6.482   0.605   0.785
 6517SOL    HW220451   6.434   0.470   0.863
 6518SOL     OW20452   0.082   0.571   6.971
 6518SOL    HW120453   0.161   0.552   0.013
 6518SOL    HW220454   0.053   0.487   6.925
 6519SOL     OW20455   1.249   2.193   2.993
 6519SOL    HW120456   1.275   2.148   3.079
 6519SOL    HW220457   1.312   2.268   2.974
 6520SOL     OW20458   5.530   5.561   2.225
 6520SOL    HW120459   5.498   5.510   2.305
 6520SOL    HW220460   5.629   5.576   2.233
 6521SOL     OW20461   1.958   2.527   4.111
 6521SOL    HW120462   1.945   2.617   4.153
 6521SOL    HW220463   2.037   2.530   4.049
 6522SOL     OW20464   3.348   5.326   6.483
 6522SOL    HW120465   3.330   5.316   6.581
 6522SOL    HW220466   3.415   5.257   6.455
 6523SOL     OW20467   4.086   1.111   6.339
 6523SOL    HW120468   4.121   1.204   6.334
 6523SOL    HW220469   4.125   1.056   6.265
 6524SOL     OW20470   2.881   4.019   1.555
 6524SOL    HW120471   2.940   3.942   1.576
 6524SOL    HW220472   2.927   4.081   1.492
 6525SOL     OW20473   2.621   5.001   2.839
 6525SOL    HW120474   2.719   5.006   2.859
 6525SOL    HW220475   2.572   4.969   2.921
 6526SOL     OW20476   1.900   0.109   6.735
 6526SOL    HW120477   1.849   0.194   6.720
 6526SOL    HW220478   1.917   0.064   6.648
 6527SOL     OW20479   0.970   2.206   4.524
 6527SOL    HW120480   0.884   2.165   4.556
 6527SOL    HW220481   1.000   2.159   4.440
 6528SOL     OW20482   6.947   0.897   5.561
 6528SOL    HW120483   6.917   0.831   5.630
 6528SOL    HW220484   7.007   0.965   5.604
 6529SOL     OW20485   1.191   1.202   2.617
 6529SOL    HW120486   1.185   1.147   2.534
 6529SOL    HW220487   1.216   1.144   2.694
 6530SOL     OW20488   6.534   3.933   0.202
 6530SOL    HW120489   6.513   3.912   0.298
 6530SOL    HW220490   6.449   3.947   0.152
 6531SOL     OW20491   5.475   2.874   5.315
 6531SOL    HW120492   5.469   2.778   5.344
 6531SOL    HW220493   5.571   2.901   5.311
 6532SOL     OW20494   7.008   1.070   0.473
 6532SOL    HW120495   6.998   1.168   0.460
 6532SOL    HW220496   7.000   1.048   0.570
 6533SOL     OW20497   4.590   6.930   1.244
 6533SOL    HW120498   4.501   6.900   1.280
 6533SOL    HW220499   4.587   0.011   1.223
 6534SOL     OW20500   3.372   4.573   1.434
 6534SOL    HW120501   3.334   4.570   1.527
 6534SOL    HW220502   3.298   4.563   1.367
 6535SOL     OW20503   5.873   4.221   4.077
 6535SOL    HW120504   5.836   4.290   4.015
 6535SOL    HW220505   5.859   4.251   4.172
 6536SOL     OW20506   1.288   1.257   5.514
 6536SOL    HW120507   1.254   1.350   5.531
 6536SOL    HW220508   1.323   1.251   5.420
 6537SOL     OW20509   6.621   5.553   0.313
 6537SOL    HW120510   6.703   5.591   0.270
 6537SOL    HW220511   6.593   5.470   0.266
 6538SOL     OW20512   2.817   4.103   6.756
 6538SOL    HW120513   2.735   4.076   6.706
 6538SOL    HW220514   2.898   4.078   6.703
 6539SOL     OW20515   3.939   0.546   5.805
 6539SOL    HW120516   4.001   0.573   5.878
 6539SOL    HW220517   3.913   0.450   5.817
 6540SOL     OW20518   4.227   1.861   5.929
 6540SOL    HW120519   4.144   1.854   5.983
 6540SOL    HW220520   4.205   1.897   5.839
 6541SOL     OW20521   4.771   2.165   4.988
 6541SOL    HW120522   4.855   2.212   4.961
 6541SOL    HW220523   4.776   2.140   5.084
 6542SOL     OW20524   5.836   3.958   3.980
 6542SOL    HW120525   5.870   3.982   3.889
 6542SOL    HW220526   5.847   4.037   4.041
 6543SOL     OW20527   5.672   3.115   5.794
 6543SOL    HW120528   5.627   3.177   5.729
 6543SOL    HW220529   5.714   3.040   5.744
 6544SOL     OW20530   0.641   6.036   2.805
 6544SOL    HW120531   0.629   5.972   2.881
 6544SOL    HW220532   0.680   5.988   2.726
 6545SOL     OW20533   4.105   2.397   0.783
 6545SOL    HW120534   4.190   2.385   0.730
 6545SOL    HW220535   4.052   2.472   0.743
 6546SOL     OW20536   2.863   4.629   0.200
 6546SOL    HW120537   2.840   4.539   0.236
 6546SOL    HW220538   2.921   4.677   0.265
 6547SOL     OW20539   4.701   1.255   5.528
 6547SOL    HW120540   4.695   1.194   5.449
 6547SOL    HW220541   4.741   1.205   5.605
 6548SOL     OW20542   1.220   3.880   0.222
 6548SOL    HW120543   1.199   3.790   0.259
 6548SOL    HW220544   1.250   3.870   0.127
 6549SOL     OW20545   4.724   0.801   1.727
 6549SOL    HW120546   4.761   0.759   1.644
 6549SOL    HW220547   4.730   0.901   1.719
 6550SOL     OW20548   0.210   6.689   4.183
 6550SOL    HW120549   0.186   6.634   4.103
 6550SOL    HW220550   0.149   6.768   4.189
 6551SOL     OW20551   2.196   4.932   2.600
 6551SOL    HW120552   2.198   4.892   2.508
 6551SOL    HW220553   2.118   4.897   2.650
 6552SOL     OW20554   1.832   6.865   6.300
 6552SOL    HW120555   1.754   6.874   6.362
 6552SOL    HW220556   1.820   6.785   6.241
 6553SOL     OW20557   0.325   2.624   3.751
 6553SOL    HW120558   0.367   2.544   3.796
 6553SOL    HW220559   0.296   2.599   3.659
 6554SOL     OW20560   7.008   1.189   4.907
 6554SOL    HW120561   6.915   1.191   4.942
 6554SOL    HW220562   0.041   1.111   4.948
 6555SOL     OW20563   6.157   2.239   2.748
 6555SOL    HW120564   6.253   2.255   2.768
 6555SOL    HW220565   6.135   2.143   2.762
 6556SOL     OW20566   5.459   4.734   4.843
 6556SOL    HW120567   5.502   4.697   4.761
 6556SOL    HW220568   5.518   4.805   4.882
 6557SOL     OW20569   3.235   6.552   2.037
 6557SOL    HW120570   3.151   6.607   2.044
 6557SOL    HW220571   3.304   6.589   2.099
 6558SOL     OW20572   6.932   4.738   6.587
 6558SOL    HW120573   6.890   4.828   6.597
 6558SOL    HW220574   6.974   4.730   6.497
 6559SOL     OW20575   1.041   3.822   6.217
 6559SOL    HW120576   1.129   3.803   6.261
 6559SOL    HW220577   0.976   3.749   6.239
 6560SOL     OW20578   4.383   5.254   1.234
 6560SOL    HW120579   4.343   5.316   1.301
 6560SOL    HW220580   4.476   5.231   1.261
 6561SOL     OW20581   3.874   3.946   1.457
 6561SOL    HW120582   3.907   4.005   1.530
 6561SOL    HW220583   3.856   3.854   1.493
 6562SOL     OW20584   6.006   3.909   1.001
 6562SOL    HW120585   5.995   4.006   1.024
 6562SOL    HW220586   6.101   3.882   1.015
 6563SOL     OW20587   5.702   6.419   0.433
 6563SOL    HW120588   5.648   6.493   0.391
 6563SOL    HW220589   5.653   6.332   0.423
 6564SOL     OW20590   6.782   4.506   3.177
 6564SOL    HW120591   6.791   4.452   3.261
 6564SOL    HW220592   6.793   4.603   3.199
 6565SOL     OW20593   6.404   2.342   3.704
 6565SOL    HW120594   6.328   2.282   3.680
 6565SOL    HW220595   6.486   2.288   3.721
 6566SOL     OW20596   3.612   6.422   2.400
 6566SOL    HW120597   3.597   6.399   2.303
 6566SOL    HW220598   3.660   6.347   2.445
 6567SOL     OW20599   4.163   1.211   1.955
 6567SOL    HW120600   4.107   1.250   1.882
 6567SOL    HW220601   4.112   1.139   2.002
 6568SOL     OW20602   3.910   1.268   3.372
 6568SOL    HW120603   3.954   1.182   3.344
 6568SOL    HW220604   3.911   1.332   3.296
 6569SOL     OW20605   2.973   3.687   6.381
 6569SOL    HW120606   3.065   3.679   6.342
 6569SOL    HW220607   2.918   3.747   6.324
 6570SOL     OW20608   3.679   0.452   2.242
 6570SOL    HW120609   3.598   0.445   2.300
 6570SOL    HW220610   3.757   0.409   2.288
 6571SOL     OW20611   2.526   6.098   1.914
 6571SOL    HW120612   2.507   6.008   1.874
 6571SOL    HW220613   2.616   6.097   1.956
 6572SOL     OW20614   6.523   4.934   6.069
 6572SOL    HW120615   6.536   5.021   6.116
 6572SOL    HW220616   6.502   4.863   6.136
 6573SOL     OW20617   2.237   1.253   2.294
 6573SOL    HW120618   2.305   1.320   2.265
 6573SOL    HW220619   2.150   1.273   2.249
 6574SOL     OW20620   3.066   5.941   2.884
 6574SOL    HW120621   3.042   5.864   2.825
 6574SOL    HW220622   3.121   6.007   2.834
 6575SOL     OW20623   1.200   0.253   2.792
 6575SOL    HW120624   1.300   0.246   2.787
 6575SOL    HW220625   1.173   0.284   2.883
 6576SOL     OW20626   2.742   5.624   6.159
 6576SOL    HW120627   2.812   5.598   6.226
 6576SOL    HW220628   2.695   5.542   6.127
 6577SOL     OW20629   0.445   1.197   4.498
 6577SOL    HW120630   0.423   1.122   4.436
 6577SOL    HW220631   0.494   1.162   4.578
 6578SOL     OW20632   1.350   5.044   3.261
 6578SOL    HW120633   1.381   5.134   3.231
 6578SOL    HW220634   1.363   5.035   3.360
 6579SOL     OW20635   6.724   3.649   5.258
 6579SOL    HW120636   6.685   3.581   5.195
 6579SOL    HW220637   6.730   3.737   5.213
 6580SOL     OW20638   0.307   2.090   0.403
 6580SOL    HW120639   0.264   2.076   0.492
 6580SOL    HW220640   0.403   2.115   0.416
 6581SOL     OW20641   2.675   0.775   6.896
 6581SOL    HW120642   2.694   0.872   6.886
 6581SOL    HW220643   2.596   0.762   6.956
 6582SOL     OW20644   1.038   1.416   1.988
 6582SOL    HW120645   1.081   1.499   1.954
 6582SOL    HW220646   0.960   1.440   2.046
 6583SOL     OW20647   4.260   0.842   4.910
 6583SOL    HW120648   4.174   0.791   4.900
 6583SOL    HW220649   4.244   0.923   4.967
 6584SOL     OW20650   4.852   2.051   0.771
 6584SOL    HW120651   4.793   1.970   0.772
 6584SOL    HW220652   4.860   2.087   0.863
 6585SOL     OW20653   6.319   6.918   0.355
 6585SOL    HW120654   6.243   6.901   0.292
 6585SOL    HW220655   6.310   7.010   0.393
 6586SOL     OW20656   0.561   1.637   5.771
 6586SOL    HW120657   0.467   1.612   5.747
 6586SOL    HW220658   0.594   1.578   5.844
 6587SOL     OW20659   2.227   6.714   4.971
 6587SOL    HW120660   2.232   6.634   5.031
 6587SOL    HW220661   2.253   6.688   4.878
 6588SOL     OW20662   0.649   4.069   1.660
 6588SOL    HW120663   0.616   3.978   1.632
 6588SOL    HW220664   0.738   4.060   1.704
 6589SOL     OW20665   4.897   0.696   0.424
 6589SOL    HW120666   4.856   0.775   0.379
 6589SOL    HW220667   4.888   0.705   0.523
 6590SOL     OW20668   0.932   0.639   5.552
 6590SOL    HW120669   0.932   0.540   5.566
 6590SOL    HW220670   0.839   0.674   5.554
 6591SOL     OW20671   5.503   5.520   1.963
 6591SOL    HW120672   5.520   5.544   2.059
 6591SOL    HW220673   5.579   5.465   1.929
 6592SOL     OW20674   6.322   0.192   3.901
 6592SOL    HW120675   6.314   0.127   3.826
 6592SOL    HW220676   6.415   0.228   3.904
 6593SOL     OW20677   2.459   2.229   2.124
 6593SOL    HW120678   2.403   2.158   2.166
 6593SOL    HW220679   2.490   2.294   2.194
 6594SOL     OW20680   3.377   2.271   6.958
 6594SOL    HW120681   3.390   2.351   0.001
 6594SOL    HW220682   3.293   2.223   6.985
 6595SOL     OW20683   0.595   3.853   6.780
 6595SOL    HW120684   0.634   3.790   6.713
 6595SOL    HW220685   0.637   3.943   6.770
 6596SOL     OW20686   3.041   6.316   4.541
 6596SOL    HW120687   2.945   6.310   4.514
 6596SOL    HW220688   3.061   6.410   4.569
 6597SOL     OW20689   1.853   5.365   1.469
 6597SOL    HW120690   1.851   5.463   1.491
 6597SOL    HW220691   1.943   5.328   1.492
 6598SOL     OW20692   1.490   6.130   4.630
 6598SOL    HW120693   1.493   6.145   4.728
 6598SOL    HW220694   1.462   6.214   4.583
 6599SOL     OW20695   4.737   6.288   5.790
 6599SOL    HW120696   4.669   6.248   5.728
 6599SOL    HW220697   4.697   6.300   5.880
 6600SOL     OW20698   5.318   5.017   5.555
 6600SOL    HW120699   5.328   5.063   5.643
 6600SOL    HW220700   5.360   4.926   5.559
 6601SOL     OW20701   0.906   1.520   4.983
 6601SOL    HW120702   0.952   1.608   4.994
 6601SOL    HW220703   0.861   1.496   5.069
 6602SOL     OW20704   0.504   0.987   2.384
 6602SOL    HW120705   0.568   0.998   2.308
 6602SOL    HW220706   0.432   0.923   2.357
 6603SOL     OW20707   6.762   2.619   4.029
 6603SOL    HW120708   6.706   2.541   4.001
 6603SOL    HW220709   6.748   2.636   4.127
 6604SOL     OW20710   2.122   0.029   1.849
 6604SOL    HW120711   2.160   6.968   1.901
 6604SOL    HW220712   2.197   0.090   1.822
 6605SOL     OW20713   5.771   3.888   1.228
 6605SOL    HW120714   5.790   3.796   1.264
 6605SOL    HW220715   5.696   3.882   1.162
 6606SOL     OW20716   6.987   5.855   1.623
 6606SOL    HW120717   0.019   5.872   1.537
 6606SOL    HW220718   0.018   5.900   1.698
 6607SOL     OW20719   1.731   3.093   2.291
 6607SOL    HW120720   1.798   3.020   2.281
 6607SOL    HW220721   1.649   3.057   2.336
 6608SOL     OW20722   6.198   6.209   1.050
 6608SOL    HW120723   6.118   6.264   1.075
 6608SOL    HW220724   6.175   6.152   0.971
 6609SOL     OW20725   4.259   0.894   5.649
 6609SOL    HW120726   4.331   0.926   5.588
 6609SOL    HW220727   4.284   0.804   5.686
 6610SOL     OW20728   3.059   0.367   6.792
 6610SOL    HW120729   2.970   0.368   6.745
 6610SOL    HW220730   3.092   0.460   6.803
 6611SOL     OW20731   5.877   3.136   3.586
 6611SOL    HW120732   5.926   3.103   3.667
 6611SOL    HW220733   5.803   3.073   3.564
 6612SOL     OW20734   6.093   2.334   6.306
 6612SOL    HW120735   6.156   2.404   6.338
 6612SOL    HW220736   6.091   2.334   6.206
 6613SOL     OW20737   6.658   5.956   4.968
 6613SOL    HW120738   6.729   6.021   4.996
 6613SOL    HW220739   6.700   5.877   4.924
 6614SOL     OW20740   5.209   6.624   1.050
 6614SOL    HW120741   5.200   6.529   1.022
 6614SOL    HW220742   5.281   6.669   0.996
 6615SOL     OW20743   1.420   5.001   2.651
 6615SOL    HW120744   1.330   5.043   2.636
 6615SOL    HW220745   1.421   4.957   2.740
 6616SOL     OW20746   4.170   1.361   5.678
 6616SOL    HW120747   4.163   1.460   5.666
 6616SOL    HW220748   4.082   1.325   5.710
 6617SOL     OW20749   4.242   4.949   3.387
 6617SOL    HW120750   4.245   4.987   3.294
 6617SOL    HW220751   4.245   5.024   3.453
 6618SOL     OW20752   1.481   2.863   2.338
 6618SOL    HW120753   1.384   2.860   2.315
 6618SOL    HW220754   1.497   2.933   2.408
 6619SOL     OW20755   6.255   0.028   3.669
 6619SOL    HW120756   6.181   0.058   3.609
 6619SOL    HW220757   6.314   6.980   3.620
 6620SOL     OW20758   1.736   2.917   5.130
 6620SOL    HW120759   1.752   2.825   5.094
 6620SOL    HW220760   1.640   2.941   5.118
 6621SOL     OW20761   2.684   2.676   6.025
 6621SOL    HW120762   2.710   2.768   6.054
 6621SOL    HW220763   2.691   2.669   5.926
 6622SOL     OW20764   5.935   6.725   1.387
 6622SOL    HW120765   5.850   6.751   1.432
 6622SOL    HW220766   5.935   6.758   1.292
 6623SOL     OW20767   2.935   2.955   5.891
 6623SOL    HW120768   2.938   2.903   5.806
 6623SOL    HW220769   3.024   2.999   5.907
 6624SOL     OW20770   1.220   5.282   5.627
 6624SOL    HW120771   1.200   5.219   5.703
 6624SOL    HW220772   1.245   5.229   5.546
 6625SOL     OW20773   4.882   2.183   5.751
 6625SOL    HW120774   4.870   2.237   5.834
 6625SOL    HW220775   4.826   2.222   5.677
 6626SOL     OW20776   5.012   5.166   5.617
 6626SOL    HW120777   5.014   5.249   5.672
 6626SOL    HW220778   5.067   5.178   5.535
 6627SOL     OW20779   2.191   6.596   4.723
 6627SOL    HW120780   2.091   6.597   4.717
 6627SOL    HW220781   2.230   6.613   4.633
 6628SOL     OW20782   4.618   4.406   4.996
 6628SOL    HW120783   4.617   4.410   4.896
 6628SOL    HW220784   4.532   4.442   5.032
 6629SOL     OW20785   4.472   5.866   0.151
 6629SOL    HW120786   4.569   5.884   0.163
 6629SOL    HW220787   4.444   5.792   0.212
 6630SOL     OW20788   4.109   0.917   1.874
 6630SOL    HW120789   4.120   0.825   1.837
 6630SOL    HW220790   4.149   0.922   1.965
 6631SOL     OW20791   2.797   5.760   3.517
 6631SOL    HW120792   2.715   5.792   3.565
 6631SOL    HW220793   2.769   5.710   3.435
 6632SOL     OW20794   0.306   6.435   1.452
 6632SOL    HW120795   0.344   6.505   1.392
 6632SOL    HW220796   0.219   6.466   1.489
 6633SOL     OW20797   0.427   4.214   6.572
 6633SOL    HW120798   0.504   4.153   6.589
 6633SOL    HW220799   0.457   4.309   6.584
 6634SOL     OW20800   5.413   2.240   3.815
 6634SOL    HW120801   5.397   2.192   3.902
 6634SOL    HW220802   5.382   2.335   3.824
 6635SOL     OW20803   4.682   4.787   3.316
 6635SOL    HW120804   4.608   4.720   3.307
 6635SOL    HW220805   4.655   4.872   3.272
 6636SOL     OW20806   4.556   2.773   5.619
 6636SOL    HW120807   4.573   2.872   5.621
 6636SOL    HW220808   4.498   2.748   5.696
 6637SOL     OW20809   1.478   0.105   6.525
 6637SOL    HW120810   1.435   0.036   6.468
 6637SOL    HW220811   1.499   0.186   6.470
 6638SOL     OW20812   3.321   3.607   4.072
 6638SOL    HW120813   3.251   3.550   4.114
 6638SOL    HW220814   3.411   3.567   4.087
 6639SOL     OW20815   5.436   4.733   6.643
 6639SOL    HW120816   5.445   4.824   6.684
 6639SOL    HW220817   5.415   4.743   6.546
 6640SOL     OW20818   1.397   1.306   4.948
 6640SOL    HW120819   1.394   1.389   5.004
 6640SOL    HW220820   1.489   1.267   4.951
 6641SOL     OW20821   1.920   1.606   6.943
 6641SOL    HW120822   1.833   1.571   6.978
 6641SOL    HW220823   1.994   1.544   6.969
 6642SOL     OW20824   2.855   5.478   6.646
 6642SOL    HW120825   2.920   5.434   6.708
 6642SOL    HW220826   2.894   5.564   6.613
 6643SOL     OW20827   5.938   5.096   0.029
 6643SOL    HW120828   5.924   5.189   7.011
 6643SOL    HW220829   5.977   5.100   0.121
 6644SOL     OW20830   2.215   5.419   2.056
 6644SOL    HW120831   2.178   5.376   2.139
 6644SOL    HW220832   2.228   5.516   2.072
 6645SOL     OW20833   6.554   5.135   0.422
 6645SOL    HW120834   6.591   5.147   0.514
 6645SOL    HW220835   6.589   5.049   0.383
 6646SOL     OW20836   4.413   0.022   4.980
 6646SOL    HW120837   4.502   0.003   5.022
 6646SOL    HW220838   4.353   6.959   4.991
 6647SOL     OW20839   4.539   0.875   2.099
 6647SOL    HW120840   4.503   0.856   2.007
 6647SOL    HW220841   4.581   0.966   2.100
 6648SOL     OW20842   4.264   6.582   3.041
 6648SOL    HW120843   4.194   6.560   2.973
 6648SOL    HW220844   4.351   6.541   3.014
 6649SOL     OW20845   5.049   0.913   6.714
 6649SOL    HW120846   5.132   0.893   6.661
 6649SOL    HW220847   5.047   0.855   6.795
 6650SOL     OW20848   3.333   1.538   5.421
 6650SOL    HW120849   3.245   1.542   5.469
 6650SOL    HW220850   3.329   1.468   5.350
 6651SOL     OW20851   2.134   1.819   5.449
 6651SOL    HW120852   2.065   1.881   5.411
 6651SOL    HW220853   2.088   1.742   5.494
 6652SOL     OW20854   0.728   4.296   0.779
 6652SOL    HW120855   0.808   4.240   0.803
 6652SOL    HW220856   0.678   4.319   0.862
 6653SOL     OW20857   3.011   3.112   2.541
 6653SOL    HW120858   3.020   3.019   2.506
 6653SOL    HW220859   2.972   3.171   2.470
 6654SOL     OW20860   1.269   3.884   1.395
 6654SOL    HW120861   1.326   3.934   1.460
 6654SOL    HW220862   1.320   3.867   1.311
 6655SOL     OW20863   0.886   0.160   3.298
 6655SOL    HW120864   0.972   0.108   3.295
 6655SOL    HW220865   0.809   0.096   3.296
 6656SOL     OW20866   5.709   1.770   3.565
 6656SOL    HW120867   5.747   1.703   3.501
 6656SOL    HW220868   5.751   1.757   3.655
 6657SOL     OW20869   5.835   5.828   6.249
 6657SOL    HW120870   5.805   5.921   6.270
 6657SOL    HW220871   5.788   5.764   6.309
 6658SOL     OW20872   6.857   1.039   4.468
 6658SOL    HW120873   6.784   0.972   4.480
 6658SOL    HW220874   6.904   1.023   4.381
 6659SOL     OW20875   2.106   2.226   0.461
 6659SOL    HW120876   2.170   2.156   0.428
 6659SOL    HW220877   2.147   2.316   0.448
 6660SOL     OW20878   1.223   5.221   1.213
 6660SOL    HW120879   1.255   5.159   1.284
 6660SOL    HW220880   1.124   5.232   1.221
 6661SOL     OW20881   0.953   6.555   5.072
 6661SOL    HW120882   1.037   6.546   5.020
 6661SOL    HW220883   0.969   6.526   5.167
 6662SOL     OW20884   1.225   0.896   0.152
 6662SOL    HW120885   1.301   0.923   0.092
 6662SOL    HW220886   1.219   0.797   0.155
 6663SOL     OW20887   6.818   4.483   3.898
 6663SOL    HW120888   6.880   4.518   3.828
 6663SOL    HW220889   6.755   4.556   3.926
 6664SOL     OW20890   2.275   6.269   0.122
 6664SOL    HW120891   2.193   6.310   0.163
 6664SOL    HW220892   2.260   6.171   0.111
 6665SOL     OW20893   1.846   6.607   4.282
 6665SOL    HW120894   1.880   6.622   4.189
 6665SOL    HW220895   1.779   6.677   4.305
 6666SOL     OW20896   6.282   6.889   5.149
 6666SOL    HW120897   6.196   6.849   5.117
 6666SOL    HW220898   6.278   6.902   5.248
 6667SOL     OW20899   6.491   6.067   6.969
 6667SOL    HW120900   6.571   6.055   0.010
 6667SOL    HW220901   6.434   5.985   6.973
 6668SOL     OW20902   6.941   5.515   1.331
 6668SOL    HW120903   0.011   5.559   1.356
 6668SOL    HW220904   6.957   5.450   1.257
 6669SOL     OW20905   1.626   3.248   3.495
 6669SOL    HW120906   1.630   3.334   3.547
 6669SOL    HW220907   1.655   3.172   3.553
 6670SOL     OW20908   3.480   2.023   5.379
 6670SOL    HW120909   3.424   2.102   5.356
 6670SOL    HW220910   3.457   1.991   5.470
 6671SOL     OW20911   6.132   5.829   0.540
 6671SOL    HW120912   6.070   5.907   0.529
 6671SOL    HW220913   6.219   5.848   0.493
 6672SOL     OW20914   6.515   1.831   6.384
 6672SOL    HW120915   6.491   1.734   6.386
 6672SOL    HW220916   6.446   1.884   6.435
 6673SOL     OW20917   5.738   5.520   4.284
 6673SOL    HW120918   5.643   5.546   4.268
 6673SOL    HW220919   5.798   5.595   4.258
 6674SOL     OW20920   0.775   5.085   6.031
 6674SOL    HW120921   0.800   5.158   6.094
 6674SOL    HW220922   0.826   5.002   6.053
 6675SOL     OW20923   4.811   3.744   1.767
 6675SOL    HW120924   4.717   3.774   1.750
 6675SOL    HW220925   4.867   3.823   1.790
 6676SOL     OW20926   6.915   3.285   5.388
 6676SOL    HW120927   6.938   3.339   5.308
 6676SOL    HW220928   6.999   3.254   5.433
 6677SOL     OW20929   1.110   1.632   6.718
 6677SOL    HW120930   1.031   1.602   6.664
 6677SOL    HW220931   1.093   1.723   6.755
 6678SOL     OW20932   3.066   3.185   6.714
 6678SOL    HW120933   2.972   3.204   6.740
 6678SOL    HW220934   3.087   3.233   6.629
 6679SOL     OW20935   2.632   1.383   3.827
 6679SOL    HW120936   2.675   1.327   3.897
 6679SOL    HW220937   2.680   1.471   3.820
 6680SOL     OW20938   4.550   6.707   6.754
 6680SOL    HW120939   4.549   6.613   6.787
 6680SOL    HW220940   4.459   6.747   6.764
 6681SOL     OW20941   4.364   5.851   1.625
 6681SOL    HW120942   4.324   5.877   1.537
 6681SOL    HW220943   4.309   5.889   1.699
 6682SOL     OW20944   0.294   4.452   2.484
 6682SOL    HW120945   0.345   4.466   2.569
 6682SOL    HW220946   0.335   4.376   2.433
 6683SOL     OW20947   5.747   2.683   5.516
 6683SOL    HW120948   5.796   2.596   5.516
 6683SOL    HW220949   5.654   2.668   5.480
 6684SOL     OW20950   2.838   0.250   1.863
 6684SOL    HW120951   2.937   0.255   1.859
 6684SOL    HW220952   2.803   0.323   1.923
 6685SOL     OW20953   6.334   3.535   5.742
 6685SOL    HW120954   6.343   3.601   5.667
 6685SOL    HW220955   6.369   3.446   5.712
 6686SOL     OW20956   5.433   5.872   4.330
 6686SOL    HW120957   5.351   5.915   4.368
 6686SOL    HW220958   5.462   5.921   4.248
 6687SOL     OW20959   1.158   3.228   0.155
 6687SOL    HW120960   1.186   3.269   0.242
 6687SOL    HW220961   1.200   3.278   0.079
 6688SOL     OW20962   0.180   4.011   2.573
 6688SOL    HW120963   0.234   3.929   2.596
 6688SOL    HW220964   0.200   4.038   2.479
 6689SOL     OW20965   4.791   2.980   0.324
 6689SOL    HW120966   4.850   2.941   0.253
 6689SOL    HW220967   4.799   2.927   0.408
 6690SOL     OW20968   2.108   0.716   0.843
 6690SOL    HW120969   2.172   0.645   0.817
 6690SOL    HW220970   2.039   0.679   0.905
 6691SOL     OW20971   2.625   6.482   1.041
 6691SOL    HW120972   2.708   6.432   1.068
 6691SOL    HW220973   2.592   6.535   1.118
 6692SOL     OW20974   3.821   4.083   4.759
 6692SOL    HW120975   3.865   4.097   4.670
 6692SOL    HW220976   3.727   4.117   4.755
 6693SOL     OW20977   4.047   3.789   5.186
 6693SOL    HW120978   4.070   3.696   5.157
 6693SOL    HW220979   3.993   3.833   5.114
 6694SOL     OW20980   4.046   5.927   1.013
 6694SOL    HW120981   4.138   5.944   0.977
 6694SOL    HW220982   3.999   6.015   1.027
 6695SOL     OW20983   3.376   1.320   0.330
 6695SOL    HW120984   3.447   1.362   0.274
 6695SOL    HW220985   3.316   1.390   0.367
 6696SOL     OW20986   2.051   3.063   5.377
 6696SOL    HW120987   2.066   2.970   5.409
 6696SOL    HW220988   2.022   3.062   5.281
 6697SOL     OW20989   4.278   2.191   2.342
 6697SOL    HW120990   4.292   2.094   2.363
 6697SOL    HW220991   4.191   2.203   2.295
 6698SOL     OW20992   3.000   2.821   1.299
 6698SOL    HW120993   3.035   2.731   1.273
 6698SOL    HW220994   2.962   2.867   1.219
 6699SOL     OW20995   2.615   4.988   6.402
 6699SOL    HW120996   2.642   4.892   6.393
 6699SOL    HW220997   2.679   5.035   6.463
 6700SOL     OW20998   0.022   6.793   0.996
 6700SOL    HW120999   6.982   6.758   0.921
 6700SOL    HW221000   0.089   6.859   0.960
 6701SOL     OW21001   5.621   2.804   1.654
 6701SOL    HW121002   5.712   2.841   1.672
 6701SOL    HW221003   5.606   2.722   1.710
 6702SOL     OW21004   3.014   1.587   1.833
 6702SOL    HW121005   2.978   1.528   1.760
 6702SOL    HW221006   3.003   1.683   1.807
 6703SOL     OW21007   6.401   2.426   6.687
 6703SOL    HW121008   6.394   2.431   6.587
 6703SOL    HW221009   6.480   2.478   6.718
 6704SOL     OW21010   3.660   2.112   3.018
 6704SOL    HW121011   3.733   2.106   2.950
 6704SOL    HW221012   3.700   2.110   3.110
 6705SOL     OW21013   6.424   2.696   1.361
 6705SOL    HW121014   6.466   2.651   1.282
 6705SOL    HW221015   6.457   2.654   1.445
 6706SOL     OW21016   1.187   3.942   2.145
 6706SOL    HW121017   1.258   4.006   2.176
 6706SOL    HW221018   1.142   3.901   2.224
 6707SOL     OW21019   6.599   6.092   3.722
 6707SOL    HW121020   6.661   6.121   3.796
 6707SOL    HW221021   6.609   6.154   3.645
 6708SOL     OW21022   6.885   5.191   1.704
 6708SOL    HW121023   6.848   5.105   1.668
 6708SOL    HW221024   6.837   5.268   1.661
 6709SOL     OW21025   2.949   6.983   2.781
 6709SOL    HW121026   2.978   6.888   2.776
 6709SOL    HW221027   2.939   7.010   2.877
 6710SOL     OW21028   3.804   1.161   6.211
 6710SOL    HW121029   3.792   1.106   6.128
 6710SOL    HW221030   3.870   1.117   6.271
 6711SOL     OW21031   4.805   5.347   6.329
 6711SOL    HW121032   4.850   5.341   6.240
 6711SOL    HW221033   4.816   5.440   6.366
 6712SOL     OW21034   4.784   4.740   0.018
 6712SOL    HW121035   4.716   4.737   0.091
 6712SOL    HW221036   4.749   4.795   6.959
 6713SOL     OW21037   2.225   0.802   2.359
 6713SOL    HW121038   2.313   0.809   2.405
 6713SOL    HW221039   2.152   0.802   2.428
 6714SOL     OW21040   5.916   1.532   6.215
 6714SOL    HW121041   5.931   1.482   6.130
 6714SOL    HW221042   5.841   1.490   6.266
 6715SOL     OW21043   6.878   6.918   6.595
 6715SOL    HW121044   6.799   6.980   6.599
 6715SOL    HW221045   6.962   6.970   6.614
 6716SOL     OW21046   0.590   6.136   1.472
 6716SOL    HW121047   0.686   6.149   1.446
 6716SOL    HW221048   0.555   6.052   1.430
 6717SOL     OW21049   4.353   2.883   6.696
 6717SOL    HW121050   4.284   2.855   6.629
 6717SOL    HW221051   4.443   2.877   6.654
 6718SOL     OW21052   5.449   6.741   6.887
 6718SOL    HW121053   5.480   6.646   6.892
 6718SOL    HW221054   5.380   6.750   6.816
 6719SOL     OW21055   2.015   0.097   6.967
 6719SOL    HW121056   1.970   0.096   6.877
 6719SOL    HW221057   2.114   0.098   6.955
 6720SOL     OW21058   0.673   6.718   3.815
 6720SOL    HW121059   0.584   6.727   3.771
 6720SOL    HW221060   0.735   6.668   3.755
 6721SOL     OW21061   6.418   0.428   6.203
 6721SOL    HW121062   6.454   0.517   6.233
 6721SOL    HW221063   6.354   0.442   6.127
 6722SOL     OW21064   0.113   3.155   1.139
 6722SOL    HW121065   0.032   3.173   1.084
 6722SOL    HW221066   0.177   3.232   1.129
 6723SOL     OW21067   2.473   6.659   3.106
 6723SOL    HW121068   2.554   6.715   3.127
 6723SOL    HW221069   2.398   6.687   3.165
 6724SOL     OW21070   1.582   3.792   6.068
 6724SOL    HW121071   1.676   3.822   6.047
 6724SOL    HW221072   1.585   3.703   6.112
 6725SOL     OW21073   0.413   3.490   1.409
 6725SOL    HW121074   0.432   3.537   1.323
 6725SOL    HW221075   0.344   3.542   1.461
 6726SOL     OW21076   0.796   1.941   5.279
 6726SOL    HW121077   0.829   1.972   5.191
 6726SOL    HW221078   0.707   1.981   5.298
 6727SOL     OW21079   6.195   3.775   5.606
 6727SOL    HW121080   6.170   3.745   5.699
 6727SOL    HW221081   6.125   3.836   5.571
 6728SOL     OW21082   4.176   1.319   3.186
 6728SOL    HW121083   4.155   1.244   3.249
 6728SOL    HW221084   4.205   1.282   3.098
 6729SOL     OW21085   0.219   1.564   2.610
 6729SOL    HW121086   0.202   1.533   2.517
 6729SOL    HW221087   0.287   1.505   2.654
 6730SOL     OW21088   2.497   6.337   6.948
 6730SOL    HW121089   2.552   6.254   6.952
 6730SOL    HW221090   2.408   6.320   6.991
 6731SOL     OW21091   0.901   6.138   1.669
 6731SOL    HW121092   0.805   6.111   1.656
 6731SOL    HW221093   0.958   6.056   1.673
 6732SOL     OW21094   5.460   4.792   5.574
 6732SOL    HW121095   5.535   4.844   5.534
 6732SOL    HW221096   5.496   4.725   5.639
 6733SOL     OW21097   3.887   4.769   0.092
 6733SOL    HW121098   3.822   4.745   0.019
 6733SOL    HW221099   3.978   4.781   0.052
 6734SOL     OW21100   6.381   2.142   5.099
 6734SOL    HW121101   6.354   2.131   5.004
 6734SOL    HW221102   6.302   2.168   5.154
 6735SOL     OW21103   6.921   4.142   4.367
 6735SOL    HW121104   6.867   4.094   4.436
 6735SOL    HW221105   7.001   4.087   4.343
 6736SOL     OW21106   3.325   3.772   6.956
 6736SOL    HW121107   3.260   3.835   6.999
 6736SOL    HW221108   3.287   3.680   6.955
 6737SOL     OW21109   2.052   2.575   0.744
 6737SOL    HW121110   2.032   2.612   0.834
 6737SOL    HW221111   2.003   2.489   0.731
 6738SOL     OW21112   1.888   4.960   2.729
 6738SOL    HW121113   1.832   5.015   2.667
 6738SOL    HW221114   1.923   4.880   2.679
 6739SOL     OW21115   3.807   5.838   5.806
 6739SOL    HW121116   3.777   5.777   5.880
 6739SOL    HW221117   3.899   5.872   5.826
 6740SOL     OW21118   1.714   1.000   4.239
 6740SOL    HW121119   1.635   0.997   4.301
 6740SOL    HW221120   1.700   1.073   4.172
 6741SOL     OW21121   4.126   1.106   5.543
 6741SOL    HW121122   4.174   1.190   5.570
 6741SOL    HW221123   4.155   1.031   5.602
 6742SOL     OW21124   6.461   6.091   2.772
 6742SOL    HW121125   6.545   6.140   2.797
 6742SOL    HW221126   6.481   5.994   2.761
 6743SOL     OW21127   3.992   5.134   0.340
 6743SOL    HW121128   3.913   5.186   0.372
 6743SOL    HW221129   4.011   5.059   0.404
 6744SOL     OW21130   5.570   5.321   5.949
 6744SOL    HW121131   5.627   5.239   5.962
 6744SOL    HW221132   5.483   5.310   5.997
 6745SOL     OW21133   0.189   0.459   2.891
 6745SOL    HW121134   0.179   0.497   2.982
 6745SOL    HW221135   0.276   0.409   2.885
 6746SOL     OW21136   1.265   1.163   3.063
 6746SOL    HW121137   1.341   1.182   3.126
 6746SOL    HW221138   1.200   1.100   3.107
 6747SOL     OW21139   5.351   0.779   5.398
 6747SOL    HW121140   5.277   0.727   5.355
 6747SOL    HW221141   5.402   0.720   5.460
 6748SOL     OW21142   1.419   0.560   3.625
 6748SOL    HW121143   1.349   0.529   3.689
 6748SOL    HW221144   1.509   0.537   3.661
 6749SOL     OW21145   2.693   6.000   0.156
 6749SOL    HW121146   2.717   6.001   0.253
 6749SOL    HW221147   2.614   5.940   0.142
 6750SOL     OW21148   4.262   2.104   5.578
 6750SOL    HW121149   4.282   2.152   5.493
 6750SOL    HW221150   4.288   2.161   5.656
 6751SOL     OW21151   4.578   0.623   3.518
 6751SOL    HW121152   4.505   0.682   3.484
 6751SOL    HW221153   4.621   0.575   3.441
 6752SOL     OW21154   0.373   2.525   2.993
 6752SOL    HW121155   0.325   2.605   3.030
 6752SOL    HW221156   0.374   2.452   3.062
 6753SOL     OW21157   4.359   0.732   6.110
 6753SOL    HW121158   4.452   0.766   6.095
 6753SOL    HW221159   4.338   0.737   6.208
 6754SOL     OW21160   0.116   1.553   6.678
 6754SOL    HW121161   0.084   1.459   6.690
 6754SOL    HW221162   0.100   1.606   6.761
 6755SOL     OW21163   4.153   0.548   3.462
 6755SOL    HW121164   4.180   0.479   3.529
 6755SOL    HW221165   4.199   0.635   3.483
 6756SOL     OW21166   4.044   5.294   5.079
 6756SOL    HW121167   3.973   5.275   5.011
 6756SOL    HW221168   4.134   5.273   5.041
 6757SOL     OW21169   4.446   0.561   1.218
 6757SOL    HW121170   4.361   0.612   1.203
 6757SOL    HW221171   4.446   0.479   1.162
 6758SOL     OW21172   0.114   2.929   0.828
 6758SOL    HW121173   0.173   2.876   0.767
 6758SOL    HW221174   0.138   2.910   0.923
 6759SOL     OW21175   0.882   5.226   4.108
 6759SOL    HW121176   0.833   5.138   4.110
 6759SOL    HW221177   0.849   5.281   4.032
 6760SOL     OW21178   6.672   4.960   3.223
 6760SOL    HW121179   6.699   4.998   3.311
 6760SOL    HW221180   6.657   5.035   3.158
 6761SOL     OW21181   6.162   1.877   6.205
 6761SOL    HW121182   6.133   1.793   6.250
 6761SOL    HW221183   6.261   1.887   6.213
 6762SOL     OW21184   6.956   5.489   3.166
 6762SOL    HW121185   7.007   5.463   3.248
 6762SOL    HW221186   6.973   5.585   3.145
 6763SOL     OW21187   0.255   5.336   3.700
 6763SOL    HW121188   0.157   5.348   3.680
 6763SOL    HW221189   0.265   5.285   3.786
 6764SOL     OW21190   2.810   4.954   6.703
 6764SOL    HW121191   2.783   5.040   6.660
 6764SOL    HW221192   2.730   4.910   6.743
 6765SOL     OW21193   4.859   4.662   4.333
 6765SOL    HW121194   4.827   4.663   4.428
 6765SOL    HW221195   4.952   4.699   4.329
 6766SOL     OW21196   4.869   6.322   6.272
 6766SOL    HW121197   4.963   6.334   6.241
 6766SOL    HW221198   4.806   6.356   6.203
 6767SOL     OW21199   0.750   2.479   0.175
 6767SOL    HW121200   0.689   2.400   0.177
 6767SOL    HW221201   0.696   2.563   0.167
 6768SOL     OW21202   0.535   6.528   3.318
 6768SOL    HW121203   0.541   6.468   3.398
 6768SOL    HW221204   0.626   6.566   3.298
 6769SOL     OW21205   2.831   0.035   5.717
 6769SOL    HW121206   2.763   7.011   5.656
 6769SOL    HW221207   2.916   0.051   5.666
 6770SOL     OW21208   6.033   2.037   3.078
 6770SOL    HW121209   6.008   1.946   3.111
 6770SOL    HW221210   5.951   2.091   3.064
 6771SOL     OW21211   3.495   1.204   2.353
 6771SOL    HW121212   3.447   1.288   2.379
 6771SOL    HW221213   3.455   1.127   2.403
 6772SOL     OW21214   4.586   2.021   2.400
 6772SOL    HW121215   4.571   2.056   2.308
 6772SOL    HW221216   4.499   2.018   2.449
 6773SOL     OW21217   0.280   6.319   1.825
 6773SOL    HW121218   0.338   6.327   1.744
 6773SOL    HW221219   0.212   6.392   1.824
 6774SOL     OW21220   1.925   2.701   4.299
 6774SOL    HW121221   1.859   2.673   4.369
 6774SOL    HW221222   1.927   2.801   4.293
 6775SOL     OW21223   0.876   2.060   3.364
 6775SOL    HW121224   0.852   2.041   3.460
 6775SOL    HW221225   0.956   2.119   3.361
 6776SOL     OW21226   4.367   3.582   1.501
 6776SOL    HW121227   4.269   3.574   1.523
 6776SOL    HW221228   4.378   3.609   1.406
 6777SOL     OW21229   4.451   5.677   0.628
 6777SOL    HW121230   4.455   5.599   0.566
 6777SOL    HW221231   4.518   5.746   0.601
 6778SOL     OW21232   5.969   3.958   2.057
 6778SOL    HW121233   5.898   3.892   2.032
 6778SOL    HW221234   5.997   4.010   1.976
 6779SOL     OW21235   5.372   4.593   5.982
 6779SOL    HW121236   5.349   4.680   5.939
 6779SOL    HW221237   5.410   4.531   5.914
 6780SOL     OW21238   1.211   3.684   2.683
 6780SOL    HW121239   1.249   3.660   2.594
 6780SOL    HW221240   1.116   3.654   2.689
 6781SOL     OW21241   6.761   1.937   3.885
 6781SOL    HW121242   6.758   2.019   3.828
 6781SOL    HW221243   6.780   1.963   3.979
 6782SOL     OW21244   0.883   1.391   2.964
 6782SOL    HW121245   0.791   1.369   2.998
 6782SOL    HW221246   0.936   1.433   3.036
 6783SOL     OW21247   1.054   3.374   5.645
 6783SOL    HW121248   1.128   3.418   5.696
 6783SOL    HW221249   1.028   3.431   5.568
 6784SOL     OW21250   2.197   4.306   1.188
 6784SOL    HW121251   2.160   4.397   1.206
 6784SOL    HW221252   2.241   4.272   1.271
 6785SOL     OW21253   5.883   4.879   5.609
 6785SOL    HW121254   5.926   4.966   5.589
 6785SOL    HW221255   5.903   4.852   5.704
 6786SOL     OW21256   0.311   3.254   6.364
 6786SOL    HW121257   0.405   3.233   6.339
 6786SOL    HW221258   0.278   3.331   6.309
 6787SOL     OW21259   3.333   1.939   1.300
 6787SOL    HW121260   3.390   2.004   1.349
 6787SOL    HW221261   3.385   1.856   1.282
 6788SOL     OW21262   0.473   4.135   2.564
 6788SOL    HW121263   0.514   4.204   2.624
 6788SOL    HW221264   0.419   4.071   2.619
 6789SOL     OW21265   6.833   4.182   3.888
 6789SOL    HW121266   6.774   4.150   3.962
 6789SOL    HW221267   6.794   4.266   3.849
 6790SOL     OW21268   0.411   4.612   6.957
 6790SOL    HW121269   0.439   4.523   6.991
 6790SOL    HW221270   0.341   4.601   6.887
 6791SOL     OW21271   4.346   1.943   2.464
 6791SOL    HW121272   4.392   1.854   2.459
 6791SOL    HW221273   4.259   1.933   2.512
 6792SOL     OW21274   4.871   0.009   5.234
 6792SOL    HW121275   4.921   0.024   5.320
 6792SOL    HW221276   4.908   6.944   5.189
 6793SOL     OW21277   3.464   0.691   6.903
 6793SOL    HW121278   3.516   0.618   6.948
 6793SOL    HW221279   3.514   0.725   6.825
 6794SOL     OW21280   5.114   1.128   5.127
 6794SOL    HW121281   5.062   1.140   5.211
 6794SOL    HW221282   5.053   1.096   5.054
 6795SOL     OW21283   0.848   6.719   0.393
 6795SOL    HW121284   0.847   6.728   0.493
 6795SOL    HW221285   0.776   6.655   0.366
 6796SOL     OW21286   5.684   0.219   2.427
 6796SOL    HW121287   5.663   0.316   2.412
 6796SOL    HW221288   5.779   0.201   2.402
 6797SOL     OW21289   6.411   1.493   0.574
 6797SOL    HW121290   6.336   1.449   0.527
 6797SOL    HW221291   6.381   1.582   0.610
 6798SOL     OW21292   6.271   0.383   1.304
 6798SOL    HW121293   6.233   0.337   1.384
 6798SOL    HW221294   6.297   0.315   1.235
 6799SOL     OW21295   5.420   0.102   2.442
 6799SOL    HW121296   5.504   0.152   2.461
 6799SOL    HW221297   5.376   0.139   2.360
 6800SOL     OW21298   2.455   2.527   1.664
 6800SOL    HW121299   2.554   2.511   1.670
 6800SOL    HW221300   2.409   2.478   1.738
 6801SOL     OW21301   0.837   6.585   3.639
 6801SOL    HW121302   0.850   6.488   3.658
 6801SOL    HW221303   0.809   6.596   3.543
 6802SOL     OW21304   3.636   5.972   1.562
 6802SOL    HW121305   3.593   5.978   1.652
 6802SOL    HW221306   3.667   6.064   1.534
 6803SOL     OW21307   4.059   4.361   6.647
 6803SOL    HW121308   3.972   4.368   6.598
 6803SOL    HW221309   4.126   4.423   6.604
 6804SOL     OW21310   3.523   5.000   3.105
 6804SOL    HW121311   3.528   5.073   3.038
 6804SOL    HW221312   3.581   4.924   3.077
 6805SOL     OW21313   0.738   5.158   6.691
 6805SOL    HW121314   0.664   5.163   6.624
 6805SOL    HW221315   0.701   5.128   6.779
 6806SOL     OW21316   6.700   0.886   4.176
 6806SOL    HW121317   6.624   0.853   4.120
 6806SOL    HW221318   6.757   0.948   4.121
 6807SOL     OW21319   3.756   4.061   3.235
 6807SOL    HW121320   3.820   4.077   3.160
 6807SOL    HW221321   3.675   4.117   3.223
 6808SOL     OW21322   6.159   1.299   5.228
 6808SOL    HW121323   6.196   1.248   5.151
 6808SOL    HW221324   6.232   1.353   5.270
 6809SOL     OW21325   6.448   3.544   0.674
 6809SOL    HW121326   6.518   3.561   0.604
 6809SOL    HW221327   6.367   3.504   0.631
 6810SOL     OW21328   3.252   0.980   2.352
 6810SOL    HW121329   3.257   0.909   2.421
 6810SOL    HW221330   3.234   1.068   2.396
 6811SOL     OW21331   6.171   2.909   2.519
 6811SOL    HW121332   6.145   2.823   2.563
 6811SOL    HW221333   6.111   2.925   2.440
 6812SOL     OW21334   3.419   4.129   5.083
 6812SOL    HW121335   3.338   4.118   5.024
 6812SOL    HW221336   3.407   4.075   5.166
 6813SOL     OW21337   5.697   3.425   2.629
 6813SOL    HW121338   5.721   3.368   2.707
 6813SOL    HW221339   5.600   3.448   2.633
 6814SOL     OW21340   4.659   1.630   6.568
 6814SOL    HW121341   4.700   1.602   6.655
 6814SOL    HW221342   4.560   1.618   6.572
 6815SOL     OW21343   2.455   6.186   6.599
 6815SOL    HW121344   2.406   6.172   6.685
 6815SOL    HW221345   2.554   6.185   6.617
 6816SOL     OW21346   6.741   1.524   5.323
 6816SOL    HW121347   6.751   1.585   5.244
 6816SOL    HW221348   6.719   1.432   5.290
 6817SOL     OW21349   2.338   2.533   4.113
 6817SOL    HW121350   2.318   2.461   4.046
 6817SOL    HW221351   2.294   2.618   4.084
 6818SOL     OW21352   1.904   6.983   0.167
 6818SOL    HW121353   1.945   6.894   0.187
 6818SOL    HW221354   1.939   0.001   0.080
 6819SOL     OW21355   4.746   1.062   2.909
 6819SOL    HW121356   4.831   1.112   2.898
 6819SOL    HW221357   4.683   1.085   2.835
 6820SOL     OW21358   0.946   5.725   1.448
 6820SOL    HW121359   0.947   5.816   1.491
 6820SOL    HW221360   0.897   5.729   1.362
 6821SOL     OW21361   4.688   3.063   5.661
 6821SOL    HW121362   4.648   3.108   5.740
 6821SOL    HW221363   4.768   3.011   5.689
 6822SOL     OW21364   6.276   2.831   6.050
 6822SOL    HW121365   6.318   2.892   5.982
 6822SOL    HW221366   6.246   2.885   6.128
 6823SOL     OW21367   5.565   4.139   6.608
 6823SOL    HW121368   5.466   4.136   6.597
 6823SOL    HW221369   5.595   4.234   6.616
 6824SOL     OW21370   1.669   1.546   0.436
 6824SOL    HW121371   1.610   1.626   0.446
 6824SOL    HW221372   1.721   1.533   0.520
 6825SOL     OW21373   6.508   6.950   0.150
 6825SOL    HW121374   6.472   6.877   0.091
 6825SOL    HW221375   6.455   6.953   0.235
 6826SOL     OW21376   1.062   3.889   3.755
 6826SOL    HW121377   1.013   3.946   3.821
 6826SOL    HW221378   1.118   3.947   3.696
 6827SOL     OW21379   4.913   5.660   5.767
 6827SOL    HW121380   4.960   5.730   5.820
 6827SOL    HW221381   4.824   5.695   5.736
 6828SOL     OW21382   3.802   1.516   2.636
 6828SOL    HW121383   3.719   1.481   2.679
 6828SOL    HW221384   3.787   1.609   2.602
 6829SOL     OW21385   5.184   6.743   5.308
 6829SOL    HW121386   5.251   6.815   5.290
 6829SOL    HW221387   5.133   6.765   5.391
 6830SOL     OW21388   5.731   0.566   3.384
 6830SOL    HW121389   5.762   0.520   3.301
 6830SOL    HW221390   5.797   0.552   3.457
 6831SOL     OW21391   1.664   1.197   5.664
 6831SOL    HW121392   1.668   1.101   5.691
 6831SOL    HW221393   1.569   1.228   5.668
 6832SOL     OW21394   2.466   3.938   0.520
 6832SOL    HW121395   2.377   3.975   0.494
 6832SOL    HW221396   2.526   4.013   0.549
 6833SOL     OW21397   2.506   4.736   6.662
 6833SOL    HW121398   2.560   4.768   6.740
 6833SOL    HW221399   2.564   4.731   6.581
 6834SOL     OW21400   5.970   0.020   1.230
 6834SOL    HW121401   5.981   0.005   1.329
 6834SOL    HW221402   5.903   0.093   1.215
 6835SOL     OW21403   3.628   1.471   4.266
 6835SOL    HW121404   3.621   1.382   4.220
 6835SOL    HW221405   3.674   1.536   4.205
 6836SOL     OW21406   2.273   4.009   6.305
 6836SOL    HW121407   2.281   4.087   6.243
 6836SOL    HW221408   2.290   4.040   6.399
 6837SOL     OW21409   0.661   2.118   2.695
 6837SOL    HW121410   0.663   2.063   2.612
 6837SOL    HW221411   0.755   2.137   2.725
 6838SOL     OW21412   2.862   3.893   6.238
 6838SOL    HW121413   2.809   3.938   6.310
 6838SOL    HW221414   2.939   3.952   6.212
 6839SOL     OW21415   5.150   1.433   4.505
 6839SOL    HW121416   5.153   1.333   4.507
 6839SOL    HW221417   5.160   1.468   4.598
 6840SOL     OW21418   2.919   6.482   5.434
 6840SOL    HW121419   2.849   6.553   5.440
 6840SOL    HW221420   2.896   6.418   5.361
 6841SOL     OW21421   4.136   5.091   0.709
 6841SOL    HW121422   4.119   5.020   0.641
 6841SOL    HW221423   4.075   5.078   0.787
 6842SOL     OW21424   2.167   2.586   6.881
 6842SOL    HW121425   2.209   2.503   6.919
 6842SOL    HW221426   2.200   2.666   6.932
 6843SOL     OW21427   5.302   0.435   2.399
 6843SOL    HW121428   5.236   0.412   2.471
 6843SOL    HW221429   5.314   0.357   2.338
 6844SOL     OW21430   6.129   6.047   4.187
 6844SOL    HW121431   6.115   6.108   4.264
 6844SOL    HW221432   6.162   6.100   4.108
 6845SOL     OW21433   5.112   4.518   2.518
 6845SOL    HW121434   5.208   4.496   2.506
 6845SOL    HW221435   5.102   4.582   2.594
 6846SOL     OW21436   4.149   3.149   1.508
 6846SOL    HW121437   4.234   3.197   1.487
 6846SOL    HW221438   4.126   3.087   1.433
 6847SOL     OW21439   6.933   3.921   2.036
 6847SOL    HW121440   6.940   3.923   2.136
 6847SOL    HW221441   7.005   3.862   1.998
 6848SOL     OW21442   2.774   6.329   3.446
 6848SOL    HW121443   2.724   6.275   3.379
 6848SOL    HW221444   2.807   6.269   3.519
 6849SOL     OW21445   2.808   5.583   4.661
 6849SOL    HW121446   2.838   5.678   4.654
 6849SOL    HW221447   2.832   5.547   4.750
 6850SOL     OW21448   5.259   3.304   2.454
 6850SOL    HW121449   5.352   3.316   2.489
 6850SOL    HW221450   5.239   3.377   2.388
 6851SOL     OW21451   1.583   2.906   4.198
 6851SOL    HW121452   1.603   2.913   4.296
 6851SOL    HW221453   1.544   2.816   4.178
 6852SOL     OW21454   1.128   4.504   1.075
 6852SOL    HW121455   1.035   4.528   1.104
 6852SOL    HW221456   1.178   4.588   1.051
 6853SOL     OW21457   6.543   3.379   6.473
 6853SOL    HW121458   6.536   3.289   6.517
 6853SOL    HW221459   6.507   3.448   6.535
 6854SOL     OW21460   6.026   2.051   5.902
 6854SOL    HW121461   5.939   2.060   5.951
 6854SOL    HW221462   6.024   1.966   5.849
 6855SOL     OW21463   3.419   6.201   2.510
 6855SOL    HW121464   3.509   6.218   2.551
 6855SOL    HW221465   3.409   6.104   2.488
 6856SOL     OW21466   5.382   4.648   5.354
 6856SOL    HW121467   5.420   4.692   5.435
 6856SOL    HW221468   5.288   4.680   5.341
 6857SOL     OW21469   3.533   1.903   6.952
 6857SOL    HW121470   3.551   1.992   6.909
 6857SOL    HW221471   3.619   1.853   6.963
 6858SOL     OW21472   4.024   3.498   4.155
 6858SOL    HW121473   4.082   3.518   4.234
 6858SOL    HW221474   3.966   3.419   4.175
 6859SOL     OW21475   1.562   6.703   1.400
 6859SOL    HW121476   1.482   6.643   1.408
 6859SOL    HW221477   1.620   6.692   1.481
 6860SOL     OW21478   5.689   5.422   1.555
 6860SOL    HW121479   5.741   5.344   1.590
 6860SOL    HW221480   5.594   5.415   1.584
 6861SOL     OW21481   5.930   4.397   0.873
 6861SOL    HW121482   5.849   4.374   0.819
 6861SOL    HW221483   6.012   4.369   0.823
 6862SOL     OW21484   2.013   4.457   4.563
 6862SOL    HW121485   2.025   4.461   4.663
 6862SOL    HW221486   2.068   4.382   4.527
 6863SOL     OW21487   5.527   1.334   4.754
 6863SOL    HW121488   5.518   1.288   4.842
 6863SOL    HW221489   5.487   1.277   4.682
 6864SOL     OW21490   3.579   6.144   3.820
 6864SOL    HW121491   3.679   6.151   3.823
 6864SOL    HW221492   3.553   6.062   3.768
 6865SOL     OW21493   6.443   5.406   2.625
 6865SOL    HW121494   6.519   5.468   2.608
 6865SOL    HW221495   6.378   5.449   2.688
 6866SOL     OW21496   6.329   4.548   2.222
 6866SOL    HW121497   6.317   4.461   2.269
 6866SOL    HW221498   6.418   4.587   2.246
 6867SOL     OW21499   1.215   4.307   1.460
 6867SOL    HW121500   1.127   4.335   1.498
 6867SOL    HW221501   1.205   4.292   1.361
 6868SOL     OW21502   1.756   5.301   5.788
 6868SOL    HW121503   1.827   5.231   5.802
 6868SOL    HW221504   1.695   5.303   5.867
 6869SOL     OW21505   5.964   1.694   5.526
 6869SOL    HW121506   6.014   1.619   5.570
 6869SOL    HW221507   5.898   1.656   5.461
 6870SOL     OW21508   0.078   4.904   2.261
 6870SOL    HW121509   0.043   4.829   2.317
 6870SOL    HW221510   0.086   4.874   2.166
 6871SOL     OW21511   5.621   5.190   2.241
 6871SOL    HW121512   5.663   5.132   2.171
 6871SOL    HW221513   5.522   5.181   2.237
 6872SOL     OW21514   1.121   3.520   0.685
 6872SOL    HW121515   1.117   3.463   0.767
 6872SOL    HW221516   1.055   3.594   0.692
 6873SOL     OW21517   6.054   3.837   5.028
 6873SOL    HW121518   5.958   3.856   5.044
 6873SOL    HW221519   6.110   3.894   5.089
 6874SOL     OW21520   0.896   5.033   2.855
 6874SOL    HW121521   0.932   5.000   2.769
 6874SOL    HW221522   0.970   5.069   2.912
 6875SOL     OW21523   1.079   2.726   3.606
 6875SOL    HW121524   1.001   2.785   3.584
 6875SOL    HW221525   1.065   2.685   3.696
 6876SOL     OW21526   4.424   5.855   5.143
 6876SOL    HW121527   4.344   5.903   5.109
 6876SOL    HW221528   4.399   5.800   5.223
 6877SOL     OW21529   2.602   4.448   6.636
 6877SOL    HW121530   2.550   4.525   6.673
 6877SOL    HW221531   2.631   4.388   6.710
 6878SOL     OW21532   2.805   2.702   5.379
 6878SOL    HW121533   2.762   2.792   5.370
 6878SOL    HW221534   2.761   2.638   5.316
 6879SOL     OW21535   0.707   2.151   0.059
 6879SOL    HW121536   0.651   2.196   0.129
 6879SOL    HW221537   0.796   2.128   0.097
 6880SOL     OW21538   1.947   3.676   5.199
 6880SOL    HW121539   1.902   3.589   5.181
 6880SOL    HW221540   2.040   3.673   5.163
 6881SOL     OW21541   0.252   3.963   2.313
 6881SOL    HW121542   0.200   3.895   2.262
 6881SOL    HW221543   0.350   3.944   2.304
 6882SOL     OW21544   3.271   0.283   5.929
 6882SOL    HW121545   3.340   0.226   5.974
 6882SOL    HW221546   3.317   0.345   5.865
 6883SOL     OW21547   4.100   1.728   0.741
 6883SOL    HW121548   4.120   1.633   0.765
 6883SOL    HW221549   4.149   1.751   0.656
 6884SOL     OW21550   1.454   3.649   4.665
 6884SOL    HW121551   1.544   3.606   4.656
 6884SOL    HW221552   1.386   3.595   4.615
 6885SOL     OW21553   4.161   5.869   4.795
 6885SOL    HW121554   4.131   5.787   4.748
 6885SOL    HW221555   4.152   5.856   4.894
 6886SOL     OW21556   0.004   0.859   3.449
 6886SOL    HW121557   6.963   0.914   3.389
 6886SOL    HW221558   6.961   0.808   3.513
 6887SOL     OW21559   5.177   6.478   5.940
 6887SOL    HW121560   5.108   6.469   5.868
 6887SOL    HW221561   5.208   6.573   5.946
 6888SOL     OW21562   5.280   6.483   6.935
 6888SOL    HW121563   5.225   6.525   7.008
 6888SOL    HW221564   5.221   6.464   6.856
 6889SOL     OW21565   1.811   2.215   5.135
 6889SOL    HW121566   1.791   2.262   5.221
 6889SOL    HW221567   1.903   2.238   5.105
 6890SOL     OW21568   3.454   6.418   1.382
 6890SOL    HW121569   3.404   6.331   1.378
 6890SOL    HW221570   3.541   6.409   1.334
 6891SOL     OW21571   2.123   4.006   4.154
 6891SOL    HW121572   2.122   3.986   4.253
 6891SOL    HW221573   2.034   3.984   4.115
 6892SOL     OW21574   3.666   1.081   3.206
 6892SOL    HW121575   3.716   1.005   3.246
 6892SOL    HW221576   3.713   1.113   3.124
 6893SOL     OW21577   5.251   5.558   0.170
 6893SOL    HW121578   5.180   5.511   0.118
 6893SOL    HW221579   5.340   5.515   0.152
 6894SOL     OW21580   6.266   5.153   0.015
 6894SOL    HW121581   6.172   5.120   0.008
 6894SOL    HW221582   6.326   5.078   0.045
 6895SOL     OW21583   2.703   5.352   6.358
 6895SOL    HW121584   2.794   5.372   6.323
 6895SOL    HW221585   2.656   5.438   6.380
 6896SOL     OW21586   2.187   6.993   3.806
 6896SOL    HW121587   2.197   6.984   3.905
 6896SOL    HW221588   2.236   0.059   3.775
 6897SOL     OW21589   2.906   3.399   0.080
 6897SOL    HW121590   2.945   3.381   7.006
 6897SOL    HW221591   2.836   3.330   0.101
 6898SOL     OW21592   3.915   1.477   2.281
 6898SOL    HW121593   3.987   1.522   2.334
 6898SOL    HW221594   3.828   1.523   2.298
 6899SOL     OW21595   5.147   6.845   0.783
 6899SOL    HW121596   5.084   6.800   0.847
 6899SOL    HW221597   5.240   6.839   0.818
 6900SOL     OW21598   6.405   0.891   5.837
 6900SOL    HW121599   6.364   0.894   5.746
 6900SOL    HW221600   6.460   0.974   5.852
 6901SOL     OW21601   0.500   6.912   6.353
 6901SOL    HW121602   0.557   6.994   6.361
 6901SOL    HW221603   0.406   6.934   6.377
 6902SOL     OW21604   6.177   6.777   0.751
 6902SOL    HW121605   6.147   6.822   0.835
 6902SOL    HW221606   6.262   6.820   0.719
 6903SOL     OW21607   4.280   5.397   4.552
 6903SOL    HW121608   4.188   5.361   4.532
 6903SOL    HW221609   4.313   5.449   4.474
 6904SOL     OW21610   5.663   1.980   3.921
 6904SOL    HW121611   5.623   1.889   3.929
 6904SOL    HW221612   5.625   2.040   3.991
 6905SOL     OW21613   5.696   6.772   7.011
 6905SOL    HW121614   5.605   6.785   6.972
 6905SOL    HW221615   5.735   6.861   0.019
 6906SOL     OW21616   4.358   0.627   4.164
 6906SOL    HW121617   4.342   0.543   4.216
 6906SOL    HW221618   4.295   0.698   4.195
 6907SOL     OW21619   4.864   1.806   1.451
 6907SOL    HW121620   4.867   1.752   1.367
 6907SOL    HW221621   4.769   1.823   1.476
 6908SOL     OW21622   1.080   6.247   5.768
 6908SOL    HW121623   1.168   6.294   5.763
 6908SOL    HW221624   1.054   6.235   5.864
 6909SOL     OW21625   5.636   4.241   1.622
 6909SOL    HW121626   5.713   4.269   1.679
 6909SOL    HW221627   5.669   4.205   1.535
 6910SOL     OW21628   6.897   2.135   3.746
 6910SOL    HW121629   6.940   2.046   3.756
 6910SOL    HW221630   6.942   2.186   3.674
 6911SOL     OW21631   4.566   6.441   3.417
 6911SOL    HW121632   4.645   6.425   3.358
 6911SOL    HW221633   4.492   6.482   3.365
 6912SOL     OW21634   4.378   5.202   0.170
 6912SOL    HW121635   4.301   5.226   0.110
 6912SOL    HW221636   4.343   5.161   0.254
 6913SOL     OW21637   5.611   4.580   6.144
 6913SOL    HW121638   5.660   4.502   6.105
 6913SOL    HW221639   5.521   4.587   6.102
 6914SOL     OW21640   5.729   4.950   6.958
 6914SOL    HW121641   5.821   4.981   6.983
 6914SOL    HW221642   5.722   4.851   6.972
 6915SOL     OW21643   5.886   4.377   1.673
 6915SOL    HW121644   5.952   4.351   1.744
 6915SOL    HW221645   5.936   4.398   1.589
 6916SOL     OW21646   5.965   3.613   0.218
 6916SOL    HW121647   6.039   3.545   0.209
 6916SOL    HW221648   5.879   3.565   0.236
 6917SOL     OW21649   3.294   5.834   0.649
 6917SOL    HW121650   3.285   5.754   0.709
 6917SOL    HW221651   3.269   5.916   0.700
 6918SOL     OW21652   1.161   3.091   4.276
 6918SOL    HW121653   1.177   3.023   4.204
 6918SOL    HW221654   1.124   3.174   4.235
 6919SOL     OW21655   0.547   6.628   2.967
 6919SOL    HW121656   0.516   6.691   2.896
 6919SOL    HW221657   0.468   6.579   3.005
 6920SOL     OW21658   4.279   5.403   5.438
 6920SOL    HW121659   4.239   5.312   5.440
 6920SOL    HW221660   4.209   5.469   5.409
 6921SOL     OW21661   5.003   6.183   3.137
 6921SOL    HW121662   5.018   6.157   3.232
 6921SOL    HW221663   4.931   6.125   3.098
 6922SOL     OW21664   2.529   5.616   6.395
 6922SOL    HW121665   2.562   5.710   6.404
 6922SOL    HW221666   2.526   5.591   6.298
 6923SOL     OW21667   4.856   5.506   3.678
 6923SOL    HW121668   4.944   5.459   3.671
 6923SOL    HW221669   4.843   5.537   3.772
 6924SOL     OW21670   1.062   4.277   0.048
 6924SOL    HW121671   1.160   4.268   0.069
 6924SOL    HW221672   1.036   4.373   0.055
 6925SOL     OW21673   4.293   5.782   4.493
 6925SOL    HW121674   4.222   5.851   4.507
 6925SOL    HW221675   4.291   5.753   4.397
 6926SOL     OW21676   3.140   3.049   2.276
 6926SOL    HW121677   3.160   2.976   2.212
 6926SOL    HW221678   3.109   3.130   2.227
 6927SOL     OW21679   5.194   3.704   5.493
 6927SOL    HW121680   5.150   3.703   5.403
 6927SOL    HW221681   5.146   3.642   5.554
 6928SOL     OW21682   6.858   6.376   1.103
 6928SOL    HW121683   6.777   6.318   1.110
 6928SOL    HW221684   6.865   6.410   1.009
 6929SOL     OW21685   4.648   5.260   1.224
 6929SOL    HW121686   4.721   5.249   1.292
 6929SOL    HW221687   4.637   5.357   1.203
 6930SOL     OW21688   0.064   0.182   2.261
 6930SOL    HW121689   6.990   0.194   2.220
 6930SOL    HW221690   0.134   0.219   2.200
 6931SOL     OW21691   1.300   0.738   2.363
 6931SOL    HW121692   1.262   0.659   2.315
 6931SOL    HW221693   1.394   0.754   2.331
 6932SOL     OW21694   4.028   0.275   0.876
 6932SOL    HW121695   4.023   0.369   0.908
 6932SOL    HW221696   4.083   0.271   0.792
 6933SOL     OW21697   3.223   6.030   5.387
 6933SOL    HW121698   3.220   6.001   5.291
 6933SOL    HW221699   3.156   6.101   5.404
 6934SOL     OW21700   5.121   4.104   6.176
 6934SOL    HW121701   5.050   4.171   6.196
 6934SOL    HW221702   5.211   4.146   6.190
 6935SOL     OW21703   4.691   5.891   3.807
 6935SOL    HW121704   4.687   5.844   3.895
 6935SOL    HW221705   4.780   5.876   3.764
 6936SOL     OW21706   6.510   2.888   3.218
 6936SOL    HW121707   6.520   2.795   3.183
 6936SOL    HW221708   6.496   2.885   3.317
 6937SOL     OW21709   6.612   6.312   0.361
 6937SOL    HW121710   6.540   6.266   0.309
 6937SOL    HW221711   6.571   6.380   0.422
 6938SOL     OW21712   4.788   3.475   5.519
 6938SOL    HW121713   4.781   3.548   5.586
 6938SOL    HW221714   4.864   3.494   5.457
 6939SOL     OW21715   6.951   4.280   1.252
 6939SOL    HW121716   6.913   4.240   1.168
 6939SOL    HW221717   0.034   4.270   1.251
 6940SOL     OW21718   5.072   0.962   0.426
 6940SOL    HW121719   5.110   0.938   0.516
 6940SOL    HW221720   5.130   1.031   0.383
 6941SOL     OW21721   3.441   2.935   3.244
 6941SOL    HW121722   3.500   2.891   3.312
 6941SOL    HW221723   3.450   2.888   3.156
 6942SOL     OW21724   6.492   2.714   0.819
 6942SOL    HW121725   6.451   2.796   0.858
 6942SOL    HW221726   6.585   2.735   0.789
 6943SOL     OW21727   5.068   6.585   0.134
 6943SOL    HW121728   5.021   6.559   0.218
 6943SOL    HW221729   5.004   6.580   0.057
 6944SOL     OW21730   1.719   4.332   5.964
 6944SOL    HW121731   1.805   4.348   5.917
 6944SOL    HW221732   1.723   4.370   6.056
 6945SOL     OW21733   5.795   3.418   6.186
 6945SOL    HW121734   5.709   3.416   6.236
 6945SOL    HW221735   5.785   3.369   6.099
 6946SOL     OW21736   6.471   6.496   1.671
 6946SOL    HW121737   6.498   6.421   1.611
 6946SOL    HW221738   6.386   6.473   1.719
 6947SOL     OW21739   3.353   6.627   5.694
 6947SOL    HW121740   3.320   6.549   5.641
 6947SOL    HW221741   3.277   6.692   5.709
 6948SOL     OW21742   5.493   0.765   6.359
 6948SOL    HW121743   5.584   0.779   6.320
 6948SOL    HW221744   5.490   0.677   6.405
 6949SOL     OW21745   5.178   6.773   3.939
 6949SOL    HW121746   5.133   6.810   3.857
 6949SOL    HW221747   5.263   6.824   3.956
 6950SOL     OW21748   1.839   0.520   4.012
 6950SOL    HW121749   1.918   0.569   3.976
 6950SOL    HW221750   1.758   0.579   4.007
 6951SOL     OW21751   6.485   6.196   6.243
 6951SOL    HW121752   6.413   6.225   6.179
 6951SOL    HW221753   6.547   6.273   6.259
 6952SOL     OW21754   6.795   5.437   4.401
 6952SOL    HW121755   6.867   5.403   4.341
 6952SOL    HW221756   6.817   5.530   4.431
 6953SOL     OW21757   4.770   0.032   6.644
 6953SOL    HW121758   4.767   6.980   6.717
 6953SOL    HW221759   4.728   0.117   6.676
 6954SOL     OW21760   0.204   4.058   3.988
 6954SOL    HW121761   0.291   4.061   4.038
 6954SOL    HW221762   0.161   4.148   3.991
 6955SOL     OW21763   6.665   0.774   2.519
 6955SOL    HW121764   6.662   0.698   2.454
 6955SOL    HW221765   6.721   0.749   2.598
 6956SOL     OW21766   4.736   6.021   3.031
 6956SOL    HW121767   4.800   5.989   3.102
 6956SOL    HW221768   4.746   5.965   2.949
 6957SOL     OW21769   5.958   4.841   0.593
 6957SOL    HW121770   5.920   4.751   0.611
 6957SOL    HW221771   5.894   4.911   0.624
 6958SOL     OW21772   2.849   3.769   5.209
 6958SOL    HW121773   2.809   3.773   5.301
 6958SOL    HW221774   2.857   3.673   5.181
 6959SOL     OW21775   2.873   1.350   4.737
 6959SOL    HW121776   2.819   1.356   4.653
 6959SOL    HW221777   2.812   1.326   4.813
 6960SOL     OW21778   1.364   5.463   1.453
 6960SOL    HW121779   1.278   5.412   1.461
 6960SOL    HW221780   1.345   5.554   1.415
 6961SOL     OW21781   6.601   2.668   4.270
 6961SOL    HW121782   6.632   2.656   4.364
 6961SOL    HW221783   6.509   2.629   4.259
 6962SOL     OW21784   5.558   6.284   2.129
 6962SOL    HW121785   5.514   6.196   2.146
 6962SOL    HW221786   5.488   6.350   2.101
 6963SOL     OW21787   6.795   5.202   0.903
 6963SOL    HW121788   6.808   5.143   0.982
 6963SOL    HW221789   6.768   5.293   0.934
 6964SOL     OW21790   3.677   5.920   4.849
 6964SOL    HW121791   3.739   5.881   4.780
 6964SOL    HW221792   3.731   5.956   4.925
 6965SOL     OW21793   0.434   3.534   6.768
 6965SOL    HW121794   0.375   3.549   6.846
 6965SOL    HW221795   0.395   3.464   6.709
 6966SOL     OW21796   6.993   2.291   3.553
 6966SOL    HW121797   0.053   2.356   3.554
 6966SOL    HW221798   6.907   2.341   3.557
 6967SOL     OW21799   1.626   0.559   5.357
 6967SOL    HW121800   1.574   0.627   5.305
 6967SOL    HW221801   1.721   0.589   5.363
 6968SOL     OW21802   4.067   6.507   2.829
 6968SOL    HW121803   4.130   6.440   2.789
 6968SOL    HW221804   4.011   6.462   2.899
 6969SOL     OW21805   2.798   2.285   0.852
 6969SOL    HW121806   2.775   2.337   0.934
 6969SOL    HW221807   2.773   2.189   0.866
 6970SOL     OW21808   3.782   4.105   6.749
 6970SOL    HW121809   3.745   4.131   6.660
 6970SOL    HW221810   3.810   4.009   6.746
 6971SOL     OW21811   6.746   4.454   1.312
 6971SOL    HW121812   6.819   4.385   1.312
 6971SOL    HW221813   6.786   4.544   1.289
 6972SOL     OW21814   5.467   4.338   3.441
 6972SOL    HW121815   5.421   4.250   3.451
 6972SOL    HW221816   5.400   4.411   3.434
 6973SOL     OW21817   1.213   3.734   5.420
 6973SOL    HW121818   1.237   3.735   5.517
 6973SOL    HW221819   1.296   3.735   5.365
 6974SOL     OW21820   3.555   2.938   2.950
 6974SOL    HW121821   3.637   2.898   2.909
 6974SOL    HW221822   3.507   2.994   2.883
 6975SOL     OW21823   1.841   6.110   6.034
 6975SOL    HW121824   1.771   6.080   6.098
 6975SOL    HW221825   1.931   6.108   6.079
 6976SOL     OW21826   4.288   5.266   4.963
 6976SOL    HW121827   4.373   5.280   5.014
 6976SOL    HW221828   4.258   5.353   4.923
 6977SOL     OW21829   4.330   2.415   1.942
 6977SOL    HW121830   4.349   2.513   1.934
 6977SOL    HW221831   4.385   2.376   2.015
 6978SOL     OW21832   4.873   1.587   1.973
 6978SOL    HW121833   4.878   1.592   2.072
 6978SOL    HW221834   4.819   1.508   1.945
 6979SOL     OW21835   1.370   4.548   0.775
 6979SOL    HW121836   1.456   4.553   0.724
 6979SOL    HW221837   1.358   4.456   0.812
 6980SOL     OW21838   0.993   1.262   3.409
 6980SOL    HW121839   1.038   1.226   3.490
 6980SOL    HW221840   1.049   1.335   3.370
 6981SOL     OW21841   3.171   3.170   6.271
 6981SOL    HW121842   3.201   3.093   6.216
 6981SOL    HW221843   3.133   3.242   6.212
 6982SOL     OW21844   1.428   0.760   4.438
 6982SOL    HW121845   1.484   0.686   4.401
 6982SOL    HW221846   1.440   0.842   4.382
 6983SOL     OW21847   4.695   2.144   3.977
 6983SOL    HW121848   4.626   2.134   4.049
 6983SOL    HW221849   4.710   2.056   3.933
 6984SOL     OW21850   1.906   1.939   3.998
 6984SOL    HW121851   1.981   1.883   3.966
 6984SOL    HW221852   1.937   2.033   4.010
 6985SOL     OW21853   4.063   5.318   1.397
 6985SOL    HW121854   4.144   5.376   1.397
 6985SOL    HW221855   3.989   5.364   1.348
 6986SOL     OW21856   2.304   6.683   6.162
 6986SOL    HW121857   2.220   6.728   6.190
 6986SOL    HW221858   2.317   6.694   6.063
 6987SOL     OW21859   0.539   2.022   6.041
 6987SOL    HW121860   0.479   2.097   6.011
 6987SOL    HW221861   0.506   1.987   6.129
 6988SOL     OW21862   6.729   1.022   5.429
 6988SOL    HW121863   6.805   0.982   5.481
 6988SOL    HW221864   6.702   1.108   5.473
 6989SOL     OW21865   0.650   3.696   4.292
 6989SOL    HW121866   0.691   3.609   4.316
 6989SOL    HW221867   0.567   3.711   4.345
 6990SOL     OW21868   5.000   2.440   1.606
 6990SOL    HW121869   4.997   2.367   1.674
 6990SOL    HW221870   4.962   2.524   1.645
 6991SOL     OW21871   3.069   4.889   4.294
 6991SOL    HW121872   2.982   4.859   4.333
 6991SOL    HW221873   3.128   4.924   4.367
 6992SOL     OW21874   5.112   6.896   5.724
 6992SOL    HW121875   5.124   6.852   5.813
 6992SOL    HW221876   5.155   6.986   5.725
 6993SOL     OW21877   7.007   1.152   3.303
 6993SOL    HW121878   0.050   1.163   3.223
 6993SOL    HW221879   6.935   1.086   3.283
 6994SOL     OW21880   0.534   3.083   4.511
 6994SOL    HW121881   0.454   3.027   4.491
 6994SOL    HW221882   0.577   3.112   4.426
 6995SOL     OW21883   6.701   4.792   5.874
 6995SOL    HW121884   6.628   4.849   5.914
 6995SOL    HW221885   6.734   4.836   5.791
 6996SOL     OW21886   2.530   0.385   6.795
 6996SOL    HW121887   2.568   0.477   6.781
 6996SOL    HW221888   2.600   0.326   6.836
 6997SOL     OW21889   5.951   6.448   5.671
 6997SOL    HW121890   6.029   6.454   5.733
 6997SOL    HW221891   5.981   6.463   5.577
 6998SOL     OW21892   1.865   2.121   0.942
 6998SOL    HW121893   1.885   2.179   0.863
 6998SOL    HW221894   1.950   2.102   0.991
 6999SOL     OW21895   2.761   2.665   5.743
 6999SOL    HW121896   2.849   2.622   5.763
 6999SOL    HW221897   2.718   2.618   5.666
 7000SOL     OW21898   6.502   6.091   1.374
 7000SOL    HW121899   6.449   6.007   1.363
 7000SOL    HW221900   6.447   6.169   1.345
 7001SOL     OW21901   2.312   3.167   5.344
 7001SOL    HW121902   2.377   3.114   5.289
 7001SOL    HW221903   2.231   3.111   5.363
 7002SOL     OW21904   2.678   5.040   3.637
 7002SOL    HW121905   2.591   5.081   3.661
 7002SOL    HW221906   2.670   4.994   3.548
 7003SOL     OW21907   3.973   5.569   6.793
 7003SOL    HW121908   4.020   5.541   6.710
 7003SOL    HW221909   4.039   5.575   6.868
 7004SOL     OW21910   2.089   4.754   2.012
 7004SOL    HW121911   2.149   4.808   1.953
 7004SOL    HW221912   2.028   4.815   2.063
 7005SOL     OW21913   1.751   6.586   0.023
 7005SOL    HW121914   1.664   6.634   0.021
 7005SOL    HW221915   1.818   6.639   0.076
 7006SOL     OW21916   4.843   4.593   4.594
 7006SOL    HW121917   4.905   4.515   4.594
 7006SOL    HW221918   4.889   4.673   4.634
 7007SOL     OW21919   4.559   6.731   4.121
 7007SOL    HW121920   4.601   6.786   4.049
 7007SOL    HW221921   4.587   6.635   4.111
 7008SOL     OW21922   1.145   4.533   4.942
 7008SOL    HW121923   1.120   4.450   4.992
 7008SOL    HW221924   1.073   4.556   4.877
 7009SOL     OW21925   6.358   5.498   2.245
 7009SOL    HW121926   6.396   5.435   2.312
 7009SOL    HW221927   6.411   5.583   2.246
 7010SOL     OW21928   5.282   4.755   5.786
 7010SOL    HW121929   5.212   4.826   5.782
 7010SOL    HW221930   5.335   4.755   5.701
 7011SOL     OW21931   3.701   6.637   5.801
 7011SOL    HW121932   3.690   6.662   5.705
 7011SOL    HW221933   3.636   6.690   5.856
 7012SOL     OW21934   1.836   1.272   2.360
 7012SOL    HW121935   1.803   1.296   2.451
 7012SOL    HW221936   1.894   1.191   2.365
 7013SOL     OW21937   0.619   0.732   0.781
 7013SOL    HW121938   0.630   0.758   0.877
 7013SOL    HW221939   0.569   0.646   0.775
 7014SOL     OW21940   4.369   3.310   1.480
 7014SOL    HW121941   4.462   3.282   1.454
 7014SOL    HW221942   4.368   3.408   1.498
 7015SOL     OW21943   5.802   4.805   1.922
 7015SOL    HW121944   5.836   4.765   1.837
 7015SOL    HW221945   5.816   4.741   1.997
 7016SOL     OW21946   3.605   4.813   1.622
 7016SOL    HW121947   3.568   4.759   1.698
 7016SOL    HW221948   3.595   4.911   1.643
 7017SOL     OW21949   2.320   6.461   2.663
 7017SOL    HW121950   2.360   6.527   2.727
 7017SOL    HW221951   2.393   6.406   2.622
 7018SOL     OW21952   6.109   4.409   3.894
 7018SOL    HW121953   6.167   4.387   3.973
 7018SOL    HW221954   6.088   4.507   3.895
 7019SOL     OW21955   2.530   3.684   6.621
 7019SOL    HW121956   2.623   3.674   6.655
 7019SOL    HW221957   2.504   3.781   6.624
 7020SOL     OW21958   6.097   6.983   0.190
 7020SOL    HW121959   6.005   0.002   0.178
 7020SOL    HW221960   6.105   6.894   0.145
 7021SOL     OW21961   1.651   1.341   6.005
 7021SOL    HW121962   1.646   1.354   6.104
 7021SOL    HW221963   1.744   1.312   5.980
 7022SOL     OW21964   4.646   5.877   0.552
 7022SOL    HW121965   4.737   5.918   0.549
 7022SOL    HW221966   4.577   5.949   0.563
 7023SOL     OW21967   0.701   1.863   3.247
 7023SOL    HW121968   0.743   1.949   3.276
 7023SOL    HW221969   0.753   1.787   3.285
 7024SOL     OW21970   1.558   4.262   5.389
 7024SOL    HW121971   1.639   4.320   5.387
 7024SOL    HW221972   1.576   4.180   5.444
 7025SOL     OW21973   2.480   0.717   0.041
 7025SOL    HW121974   2.405   0.653   0.055
 7025SOL    HW221975   2.474   0.791   0.108
 7026SOL     OW21976   3.169   1.931   2.053
 7026SOL    HW121977   3.103   1.858   2.071
 7026SOL    HW221978   3.257   1.906   2.092
 7027SOL     OW21979   2.380   4.862   4.174
 7027SOL    HW121980   2.379   4.962   4.171
 7027SOL    HW221981   2.417   4.827   4.088
 7028SOL     OW21982   5.019   7.001   4.210
 7028SOL    HW121983   4.980   6.949   4.134
 7028SOL    HW221984   4.993   0.081   4.201
 7029SOL     OW21985   5.251   5.330   5.970
 7029SOL    HW121986   5.294   5.324   6.060
 7029SOL    HW221987   5.152   5.318   5.981
 7030SOL     OW21988   0.240   1.846   4.971
 7030SOL    HW121989   0.334   1.825   4.995
 7030SOL    HW221990   0.234   1.872   4.875
 7031SOL     OW21991   1.855   6.180   5.009
 7031SOL    HW121992   1.816   6.251   4.951
 7031SOL    HW221993   1.809   6.182   5.098
 7032SOL     OW21994   3.413   0.442   3.569
 7032SOL    HW121995   3.395   0.344   3.570
 7032SOL    HW221996   3.339   0.489   3.522
 7033SOL     OW21997   1.510   2.269   3.408
 7033SOL    HW121998   1.417   2.235   3.423
 7033SOL    HW221999   1.534   2.257   3.311
 7034SOL     OW22000   6.524   0.146   3.155
 7034SOL    HW122001   6.504   0.103   3.243
 7034SOL    HW222002   6.530   0.076   3.084
 7035SOL     OW22003   1.674   6.098   1.536
 7035SOL    HW122004   1.637   6.174   1.590
 7035SOL    HW222005   1.621   6.089   1.452
 7036SOL     OW22006   0.310   0.615   2.671
 7036SOL    HW122007   0.239   0.567   2.721
 7036SOL    HW222008   0.345   0.690   2.727
 7037SOL     OW22009   1.806   0.529   6.321
 7037SOL    HW122010   1.723   0.585   6.322
 7037SOL    HW222011   1.864   0.557   6.244
 7038SOL     OW22012   1.408   3.084   4.398
 7038SOL    HW122013   1.319   3.091   4.354
 7038SOL    HW222014   1.403   3.020   4.474
 7039SOL     OW22015   2.738   4.830   1.342
 7039SOL    HW122016   2.745   4.737   1.305
 7039SOL    HW222017   2.687   4.828   1.428
 7040SOL     OW22018   6.335   2.104   4.795
 7040SOL    HW122019   6.246   2.067   4.822
 7040SOL    HW222020   6.402   2.030   4.791
 7041SOL     OW22021   0.913   2.335   1.612
 7041SOL    HW122022   0.906   2.416   1.670
 7041SOL    HW222023   0.849   2.265   1.643
 7042SOL     OW22024   5.481   5.625   6.140
 7042SOL    HW122025   5.442   5.582   6.221
 7042SOL    HW222026   5.573   5.591   6.125
 7043SOL     OW22027   2.062   3.630   2.493
 7043SOL    HW122028   2.037   3.561   2.560
 7043SOL    HW222029   2.009   3.617   2.410
 7044SOL     OW22030   4.585   5.188   3.442
 7044SOL    HW122031   4.580   5.254   3.517
 7044SOL    HW222032   4.497   5.184   3.395
 7045SOL     OW22033   5.186   5.757   2.971
 7045SOL    HW122034   5.142   5.736   2.884
 7045SOL    HW222035   5.224   5.850   2.968
 7046SOL     OW22036   3.418   1.648   2.990
 7046SOL    HW122037   3.333   1.683   2.950
 7046SOL    HW222038   3.482   1.723   3.005
 7047SOL     OW22039   0.961   2.513   1.924
 7047SOL    HW122040   0.910   2.530   2.009
 7047SOL    HW222041   0.913   2.555   1.848
 7048SOL     OW22042   6.702   6.155   2.912
 7048SOL    HW122043   6.742   6.233   2.864
 7048SOL    HW222044   6.651   6.187   2.992
 7049SOL     OW22045   3.164   1.413   0.630
 7049SOL    HW122046   3.095   1.349   0.597
 7049SOL    HW222047   3.218   1.369   0.702
 7050SOL     OW22048   3.794   4.010   2.337
 7050SOL    HW122049   3.696   3.990   2.345
 7050SOL    HW222050   3.806   4.097   2.289
 7051SOL     OW22051   6.984   0.464   1.062
 7051SOL    HW122052   6.889   0.483   1.038
 7051SOL    HW222053   0.028   0.506   0.994
 7052SOL     OW22054   5.627   3.000   3.626
 7052SOL    HW122055   5.660   3.042   3.710
 7052SOL    HW222056   5.644   2.902   3.629
 7053SOL     OW22057   0.755   3.652   5.000
 7053SOL    HW122058   0.719   3.597   5.075
 7053SOL    HW222059   0.764   3.747   5.029
 7054SOL     OW22060   0.516   6.206   0.738
 7054SOL    HW122061   0.590   6.146   0.767
 7054SOL    HW222062   0.544   6.302   0.749
 7055SOL     OW22063   3.619   5.928   5.359
 7055SOL    HW122064   3.539   5.874   5.334
 7055SOL    HW222065   3.611   5.957   5.454
 7056SOL     OW22066   6.138   5.813   2.301
 7056SOL    HW122067   6.166   5.759   2.381
 7056SOL    HW222068   6.210   5.809   2.232
 7057SOL     OW22069   0.936   6.116   3.340
 7057SOL    HW122070   0.956   6.214   3.349
 7057SOL    HW222071   0.922   6.077   3.431
 7058SOL     OW22072   6.802   5.732   6.200
 7058SOL    HW122073   6.716   5.693   6.232
 7058SOL    HW222074   6.798   5.832   6.209
 7059SOL     OW22075   6.377   1.008   4.154
 7059SOL    HW122076   6.417   0.927   4.111
 7059SOL    HW222077   6.422   1.090   4.120
 7060SOL     OW22078   4.154   0.127   1.714
 7060SOL    HW122079   4.103   0.164   1.792
 7060SOL    HW222080   4.093   0.122   1.634
 7061SOL     OW22081   1.155   3.233   3.849
 7061SOL    HW122082   1.056   3.226   3.864
 7061SOL    HW222083   1.173   3.297   3.774
 7062SOL     OW22084   4.980   1.234   5.351
 7062SOL    HW122085   4.895   1.230   5.404
 7062SOL    HW222086   5.056   1.257   5.411
 7063SOL     OW22087   0.546   0.617   1.529
 7063SOL    HW122088   0.537   0.693   1.594
 7063SOL    HW222089   0.621   0.636   1.466
 7064SOL     OW22090   4.014   2.216   1.490
 7064SOL    HW122091   4.093   2.192   1.434
 7064SOL    HW222092   3.938   2.155   1.469
 7065SOL     OW22093   3.854   3.920   6.187
 7065SOL    HW122094   3.929   3.967   6.142
 7065SOL    HW222095   3.773   3.980   6.188
 7066SOL     OW22096   4.400   6.894   0.514
 7066SOL    HW122097   4.314   6.845   0.524
 7066SOL    HW222098   4.475   6.839   0.550
 7067SOL     OW22099   1.816   1.866   5.149
 7067SOL    HW122100   1.744   1.872   5.217
 7067SOL    HW222101   1.848   1.958   5.126
 7068SOL     OW22102   0.059   4.317   4.001
 7068SOL    HW122103   6.989   4.272   3.980
 7068SOL    HW222104   0.050   4.367   4.088
 7069SOL     OW22105   5.673   1.711   4.446
 7069SOL    HW122106   5.686   1.810   4.441
 7069SOL    HW222107   5.700   1.669   4.359
 7070SOL     OW22108   6.445   6.480   4.839
 7070SOL    HW122109   6.468   6.576   4.819
 7070SOL    HW222110   6.431   6.469   4.938
 7071SOL     OW22111   1.943   6.127   6.455
 7071SOL    HW122112   1.969   6.037   6.488
 7071SOL    HW222113   1.933   6.190   6.532
 7072SOL     OW22114   1.080   6.571   6.840
 7072SOL    HW122115   0.983   6.554   6.857
 7072SOL    HW222116   1.129   6.484   6.838
 7073SOL     OW22117   4.893   0.004   4.452
 7073SOL    HW122118   4.882   0.098   4.484
 7073SOL    HW222119   4.934   0.004   4.361
 7074SOL     OW22120   4.621   2.074   2.127
 7074SOL    HW122121   4.704   2.099   2.078
 7074SOL    HW222122   4.551   2.046   2.061
 7075SOL     OW22123   1.846   5.184   5.132
 7075SOL    HW122124   1.892   5.261   5.177
 7075SOL    HW222125   1.889   5.167   5.044
 7076SOL     OW22126   5.465   2.296   6.997
 7076SOL    HW122127   5.437   2.369   0.043
 7076SOL    HW222128   5.460   2.208   0.029
 7077SOL     OW22129   2.237   4.242   4.177
 7077SOL    HW122130   2.202   4.149   4.189
 7077SOL    HW222131   2.237   4.266   4.080
 7078SOL     OW22132   0.269   0.091   1.549
 7078SOL    HW122133   0.330   0.020   1.585
 7078SOL    HW222134   0.179   0.051   1.530
 7079SOL     OW22135   6.549   6.186   4.763
 7079SOL    HW122136   6.509   6.145   4.845
 7079SOL    HW222137   6.536   6.285   4.766
 7080SOL     OW22138   2.778   2.365   4.305
 7080SOL    HW122139   2.741   2.397   4.218
 7080SOL    HW222140   2.869   2.327   4.290
 7081SOL     OW22141   3.156   0.737   6.799
 7081SOL    HW122142   3.176   0.834   6.786
 7081SOL    HW222143   3.070   0.713   6.752
 7082SOL     OW22144   6.056   4.653   6.630
 7082SOL    HW122145   5.964   4.685   6.607
 7082SOL    HW222146   6.091   4.706   6.708
 7083SOL     OW22147   2.715   0.640   0.716
 7083SOL    HW122148   2.633   0.697   0.716
 7083SOL    HW222149   2.692   0.549   0.680
 7084SOL     OW22150   0.418   6.423   5.879
 7084SOL    HW122151   0.353   6.361   5.835
 7084SOL    HW222152   0.497   6.436   5.820
 7085SOL     OW22153   1.113   2.217   1.824
 7085SOL    HW122154   1.031   2.249   1.776
 7085SOL    HW222155   1.195   2.251   1.778
 7086SOL     OW22156   5.389   1.050   5.086
 7086SOL    HW122157   5.291   1.067   5.102
 7086SOL    HW222158   5.434   1.034   5.174
 7087SOL     OW22159   6.141   3.135   3.956
 7087SOL    HW122160   6.091   3.217   3.985
 7087SOL    HW222161   6.082   3.079   3.897
 7088SOL     OW22162   5.295   2.651   3.006
 7088SOL    HW122163   5.215   2.637   3.064
 7088SOL    HW222164   5.328   2.562   2.974
 7089SOL     OW22165   3.127   2.145   4.830
 7089SOL    HW122166   3.125   2.197   4.915
 7089SOL    HW222167   3.062   2.184   4.765
 7090SOL     OW22168   2.575   0.644   6.675
 7090SOL    HW122169   2.596   0.703   6.753
 7090SOL    HW222170   2.645   0.656   6.604
 7091SOL     OW22171   0.686   1.612   6.899
 7091SOL    HW122172   0.613   1.669   6.860
 7091SOL    HW222173   0.725   1.659   6.978
 7092SOL     OW22174   4.689   2.810   5.969
 7092SOL    HW122175   4.633   2.863   6.033
 7092SOL    HW222176   4.644   2.723   5.950
 7093SOL     OW22177   2.968   3.770   3.358
 7093SOL    HW122178   2.914   3.778   3.442
 7093SOL    HW222179   3.020   3.854   3.344
 7094SOL     OW22180   0.619   5.856   6.076
 7094SOL    HW122181   0.604   5.788   6.004
 7094SOL    HW222182   0.717   5.868   6.091
 7095SOL     OW22183   3.194   3.704   6.214
 7095SOL    HW122184   3.239   3.616   6.230
 7095SOL    HW222185   3.161   3.708   6.120
 7096SOL     OW22186   6.248   0.773   3.731
 7096SOL    HW122187   6.304   0.707   3.679
 7096SOL    HW222188   6.174   0.725   3.777
 7097SOL     OW22189   6.208   1.345   0.474
 7097SOL    HW122190   6.129   1.351   0.535
 7097SOL    HW222191   6.191   1.400   0.392
 7098SOL     OW22192   1.257   0.011   5.029
 7098SOL    HW122193   1.241   0.098   5.077
 7098SOL    HW222194   1.343   0.016   4.980
 7099SOL     OW22195   2.941   1.015   5.158
 7099SOL    HW122196   2.981   0.996   5.248
 7099SOL    HW222197   2.960   1.109   5.132
 7100SOL     OW22198   5.546   2.257   1.107
 7100SOL    HW122199   5.461   2.224   1.148
 7100SOL    HW222200   5.531   2.279   1.011
 7101SOL     OW22201   2.203   0.978   4.612
 7101SOL    HW122202   2.172   1.041   4.541
 7101SOL    HW222203   2.257   1.028   4.680
 7102SOL     OW22204   4.647   0.206   0.732
 7102SOL    HW122205   4.651   0.210   0.633
 7102SOL    HW222206   4.554   0.227   0.763
 7103SOL     OW22207   4.672   4.885   1.792
 7103SOL    HW122208   4.719   4.823   1.729
 7103SOL    HW222209   4.681   4.851   1.886
 7104SOL     OW22210   0.533   2.659   4.347
 7104SOL    HW122211   0.505   2.714   4.426
 7104SOL    HW222212   0.621   2.691   4.313
 7105SOL     OW22213   3.058   3.044   5.438
 7105SOL    HW122214   3.096   3.136   5.437
 7105SOL    HW222215   2.983   3.038   5.372
 7106SOL     OW22216   3.166   4.068   2.736
 7106SOL    HW122217   3.144   3.977   2.701
 7106SOL    HW222218   3.183   4.063   2.834
 7107SOL     OW22219   3.793   1.450   0.393
 7107SOL    HW122220   3.821   1.437   0.298
 7107SOL    HW222221   3.700   1.487   0.396
 7108SOL     OW22222   4.883   5.994   2.590
 7108SOL    HW122223   4.831   5.956   2.514
 7108SOL    HW222224   4.864   5.942   2.674
 7109SOL     OW22225   2.507   0.624   5.746
 7109SOL    HW122226   2.513   0.572   5.832
 7109SOL    HW222227   2.411   0.642   5.725
 7110SOL     OW22228   3.318   5.882   4.686
 7110SOL    HW122229   3.283   5.789   4.695
 7110SOL    HW222230   3.356   5.912   4.774
 7111SOL     OW22231   1.209   1.835   4.076
 7111SOL    HW122232   1.119   1.818   4.115
 7111SOL    HW222233   1.279   1.796   4.136
 7112SOL     OW22234   0.749   5.703   4.491
 7112SOL    HW122235   0.744   5.659   4.581
 7112SOL    HW222236   0.845   5.718   4.467
 7113SOL     OW22237   3.556   4.183   4.846
 7113SOL    HW122238   3.493   4.131   4.904
 7113SOL    HW222239   3.582   4.268   4.892
 7114SOL     OW22240   3.880   6.783   1.576
 7114SOL    HW122241   3.892   6.847   1.500
 7114SOL    HW222242   3.782   6.769   1.591
 7115SOL     OW22243   5.374   3.310   1.439
 7115SOL    HW122244   5.277   3.326   1.457
 7115SOL    HW222245   5.399   3.219   1.470
 7116SOL     OW22246   6.231   4.114   2.868
 7116SOL    HW122247   6.250   4.192   2.809
 7116SOL    HW222248   6.255   4.029   2.819
 7117SOL     OW22249   6.904   6.143   4.996
 7117SOL    HW122250   6.992   6.114   4.959
 7117SOL    HW222251   6.910   6.153   5.095
 7118SOL     OW22252   2.905   3.701   1.095
 7118SOL    HW122253   2.968   3.718   1.171
 7118SOL    HW222254   2.882   3.604   1.093
 7119SOL     OW22255   5.416   2.080   2.939
 7119SOL    HW122256   5.363   2.056   3.020
 7119SOL    HW222257   5.353   2.103   2.864
 7120SOL     OW22258   3.443   1.853   2.538
 7120SOL    HW122259   3.395   1.809   2.462
 7120SOL    HW222260   3.495   1.785   2.589
 7121SOL     OW22261   1.781   6.828   3.079
 7121SOL    HW122262   1.787   6.887   2.999
 7121SOL    HW222263   1.850   6.755   3.071
 7122SOL     OW22264   0.771   6.941   5.820
 7122SOL    HW122265   0.756   6.960   5.917
 7122SOL    HW222266   0.775   0.011   5.769
 7123SOL     OW22267   2.215   4.512   2.902
 7123SOL    HW122268   2.164   4.459   2.970
 7123SOL    HW222269   2.246   4.597   2.943
 7124SOL     OW22270   0.097   2.303   0.792
 7124SOL    HW122271   0.121   2.213   0.757
 7124SOL    HW222272   0.123   2.310   0.888
 7125SOL     OW22273   0.235   6.944   0.980
 7125SOL    HW122274   0.327   6.965   0.946
 7125SOL    HW222275   0.202   0.004   1.035
 7126SOL     OW22276   3.268   5.427   0.283
 7126SOL    HW122277   3.318   5.383   0.209
 7126SOL    HW222278   3.226   5.357   0.341
 7127SOL     OW22279   1.320   5.381   5.326
 7127SOL    HW122280   1.285   5.290   5.344
 7127SOL    HW222281   1.374   5.412   5.405
 7128SOL     OW22282   2.902   4.790   0.762
 7128SOL    HW122283   2.888   4.883   0.729
 7128SOL    HW222284   2.904   4.790   0.862
 7129SOL     OW22285   2.138   1.425   6.981
 7129SOL    HW122286   2.105   1.430   0.059
 7129SOL    HW222287   2.198   1.503   6.963
 7130SOL     OW22288   3.895   5.917   5.380
 7130SOL    HW122289   3.800   5.947   5.379
 7130SOL    HW222290   3.915   5.864   5.297
 7131SOL     OW22291   2.558   0.548   0.916
 7131SOL    HW122292   2.576   0.538   1.014
 7131SOL    HW222293   2.643   0.573   0.869
 7132SOL     OW22294   3.813   4.346   6.907
 7132SOL    HW122295   3.828   4.266   6.850
 7132SOL    HW222296   3.743   4.404   6.866
 7133SOL     OW22297   5.682   5.661   5.678
 7133SOL    HW122298   5.690   5.758   5.699
 7133SOL    HW222299   5.591   5.629   5.705
 7134SOL     OW22300   5.757   6.577   1.863
 7134SOL    HW122301   5.677   6.604   1.916
 7134SOL    HW222302   5.729   6.561   1.768
 7135SOL     OW22303   1.376   3.430   3.275
 7135SOL    HW122304   1.380   3.360   3.203
 7135SOL    HW222305   1.356   3.386   3.363
 7136SOL     OW22306   2.415   2.911   1.109
 7136SOL    HW122307   2.421   2.851   1.030
 7136SOL    HW222308   2.435   2.858   1.192
 7137SOL     OW22309   3.689   6.884   0.123
 7137SOL    HW122310   3.768   6.836   0.162
 7137SOL    HW222311   3.624   6.817   0.086
 7138SOL     OW22312   1.561   2.678   7.005
 7138SOL    HW122313   1.501   2.663   0.068
 7138SOL    HW222314   1.512   2.653   6.921
 7139SOL     OW22315   5.600   3.673   1.615
 7139SOL    HW122316   5.565   3.583   1.640
 7139SOL    HW222317   5.650   3.667   1.529
 7140SOL     OW22318   5.525   4.399   3.866
 7140SOL    HW122319   5.484   4.468   3.924
 7140SOL    HW222320   5.623   4.394   3.884
 7141SOL     OW22321   3.619   6.283   1.853
 7141SOL    HW122322   3.603   6.326   1.942
 7141SOL    HW222323   3.599   6.349   1.780
 7142SOL     OW22324   4.493   0.262   3.562
 7142SOL    HW122325   4.414   0.295   3.614
 7142SOL    HW222326   4.517   0.329   3.493
 7143SOL     OW22327   1.480   2.209   6.041
 7143SOL    HW122328   1.485   2.196   6.140
 7143SOL    HW222329   1.482   2.120   5.995
 7144SOL     OW22330   2.024   2.453   1.984
 7144SOL    HW122331   2.057   2.400   2.062
 7144SOL    HW222332   2.103   2.484   1.929
 7145SOL     OW22333   4.309   6.816   0.132
 7145SOL    HW122334   4.392   6.870   0.114
 7145SOL    HW222335   4.328   6.748   0.203
 7146SOL     OW22336   2.143   0.263   1.610
 7146SOL    HW122337   2.220   0.200   1.610
 7146SOL    HW222338   2.059   0.213   1.587
 7147SOL     OW22339   6.980   0.461   3.494
 7147SOL    HW122340   0.045   0.492   3.542
 7147SOL    HW222341   6.989   0.364   3.472
 7148SOL     OW22342   1.102   5.958   0.680
 7148SOL    HW122343   1.133   6.000   0.766
 7148SOL    HW222344   1.106   5.859   0.688
 7149SOL     OW22345   6.245   6.875   2.928
 7149SOL    HW122346   6.236   6.779   2.954
 7149SOL    HW222347   6.200   6.889   2.839
 7150SOL     OW22348   3.217   2.120   2.434
 7150SOL    HW122349   3.204   2.021   2.425
 7150SOL    HW222350   3.154   2.167   2.371
 7151SOL     OW22351   1.876   6.189   0.632
 7151SOL    HW122352   1.799   6.141   0.588
 7151SOL    HW222353   1.925   6.125   0.691
 7152SOL     OW22354   0.873   0.808   5.104
 7152SOL    HW122355   0.924   0.797   5.190
 7152SOL    HW222356   0.926   0.865   5.041
 7153SOL     OW22357   3.467   5.146   1.979
 7153SOL    HW122358   3.525   5.201   2.039
 7153SOL    HW222359   3.506   5.144   1.887
 7154SOL     OW22360   3.529   0.539   3.786
 7154SOL    HW122361   3.529   0.638   3.790
 7154SOL    HW222362   3.495   0.508   3.697
 7155SOL     OW22363   1.639   3.657   1.269
 7155SOL    HW122364   1.605   3.701   1.186
 7155SOL    HW222365   1.706   3.717   1.313
 7156SOL     OW22366   0.552   3.181   3.872
 7156SOL    HW122367   0.508   3.235   3.800
 7156SOL    HW222368   0.537   3.224   3.961
 7157SOL     OW22369   6.736   3.909   1.571
 7157SOL    HW122370   6.660   3.970   1.592
 7157SOL    HW222371   6.722   3.821   1.616
 7158SOL     OW22372   1.051   6.956   3.342
 7158SOL    HW122373   1.018   6.927   3.431
 7158SOL    HW222374   1.079   6.875   3.289
 7159SOL     OW22375   0.506   5.040   2.635
 7159SOL    HW122376   0.520   5.033   2.734
 7159SOL    HW222377   0.412   5.068   2.616
 7160SOL     OW22378   5.748   6.959   2.790
 7160SOL    HW122379   5.718   6.898   2.717
 7160SOL    HW222380   5.692   6.944   2.871
 7161SOL     OW22381   3.093   3.757   4.114
 7161SOL    HW122382   3.076   3.797   4.204
 7161SOL    HW222383   3.183   3.714   4.113
 7162SOL     OW22384   1.455   5.323   6.573
 7162SOL    HW122385   1.381   5.257   6.570
 7162SOL    HW222386   1.493   5.334   6.481
 7163SOL     OW22387   2.551   6.170   3.346
 7163SOL    HW122388   2.504   6.106   3.285
 7163SOL    HW222389   2.509   6.260   3.338
 7164SOL     OW22390   1.645   0.839   3.582
 7164SOL    HW122391   1.554   0.870   3.557
 7164SOL    HW222392   1.700   0.827   3.499
 7165SOL     OW22393   6.796   1.359   2.047
 7165SOL    HW122394   6.889   1.354   2.011
 7165SOL    HW222395   6.797   1.340   2.145
 7166SOL     OW22396   6.292   2.729   0.314
 7166SOL    HW122397   6.352   2.657   0.350
 7166SOL    HW222398   6.344   2.813   0.302
 7167SOL     OW22399   5.279   3.561   3.723
 7167SOL    HW122400   5.284   3.570   3.822
 7167SOL    HW222401   5.339   3.628   3.680
 7168SOL     OW22402   1.666   2.532   3.429
 7168SOL    HW122403   1.622   2.442   3.434
 7168SOL    HW222404   1.763   2.522   3.449
 7169SOL     OW22405   6.956   2.491   4.920
 7169SOL    HW122406   0.016   2.435   4.886
 7169SOL    HW222407   6.917   2.543   4.845
 7170SOL     OW22408   5.148   6.053   3.853
 7170SOL    HW122409   5.157   6.071   3.951
 7170SOL    HW222410   5.057   6.080   3.823
 7171SOL     OW22411   5.139   3.482   6.982
 7171SOL    HW122412   5.159   3.424   6.903
 7171SOL    HW222413   5.051   3.456   0.005
 7172SOL     OW22414   1.330   0.325   5.096
 7172SOL    HW122415   1.430   0.333   5.104
 7172SOL    HW222416   1.290   0.324   5.187
 7173SOL     OW22417   7.001   4.309   5.980
 7173SOL    HW122418   0.045   4.365   6.038
 7173SOL    HW222419   0.001   4.212   5.999
 7174SOL     OW22420   0.612   4.503   0.323
 7174SOL    HW122421   0.682   4.433   0.338
 7174SOL    HW222422   0.652   4.594   0.334
 7175SOL     OW22423   5.305   2.478   6.798
 7175SOL    HW122424   5.240   2.464   6.724
 7175SOL    HW222425   5.361   2.396   6.810
 7176SOL     OW22426   0.375   0.210   2.885
 7176SOL    HW122427   0.466   0.251   2.892
 7176SOL    HW222428   0.384   0.113   2.859
 7177SOL     OW22429   1.413   5.652   4.800
 7177SOL    HW122430   1.474   5.577   4.826
 7177SOL    HW222431   1.462   5.717   4.742
 7178SOL     OW22432   2.350   2.182   5.693
 7178SOL    HW122433   2.311   2.235   5.618
 7178SOL    HW222434   2.433   2.227   5.726
 7179SOL     OW22435   1.985   3.831   4.574
 7179SOL    HW122436   1.898   3.791   4.545
 7179SOL    HW222437   1.969   3.900   4.644
 7180SOL     OW22438   2.732   5.344   0.268
 7180SOL    HW122439   2.789   5.397   0.206
 7180SOL    HW222440   2.771   5.252   0.278
 7181SOL     OW22441   2.025   6.335   0.217
 7181SOL    HW122442   1.945   6.292   0.260
 7181SOL    HW222443   2.004   6.355   0.122
 7182SOL     OW22444   1.312   2.622   4.877
 7182SOL    HW122445   1.407   2.600   4.854
 7182SOL    HW222446   1.253   2.598   4.801
 7183SOL     OW22447   2.426   6.184   0.370
 7183SOL    HW122448   2.409   6.124   0.292
 7183SOL    HW222449   2.341   6.229   0.397
 7184SOL     OW22450   6.620   1.284   3.372
 7184SOL    HW122451   6.546   1.286   3.440
 7184SOL    HW222452   6.693   1.346   3.401
 7185SOL     OW22453   5.398   0.472   5.197
 7185SOL    HW122454   5.312   0.519   5.219
 7185SOL    HW222455   5.390   0.376   5.222
 7186SOL     OW22456   6.752   1.204   6.831
 7186SOL    HW122457   6.789   1.225   6.921
 7186SOL    HW222458   6.780   1.112   6.804
 7187SOL     OW22459   3.611   4.929   6.195
 7187SOL    HW122460   3.538   4.933   6.263
 7187SOL    HW222461   3.655   4.839   6.199
 7188SOL     OW22462   6.306   0.342   0.637
 7188SOL    HW122463   6.346   0.274   0.699
 7188SOL    HW222464   6.378   0.384   0.583
 7189SOL     OW22465   0.371   1.349   5.878
 7189SOL    HW122466   0.361   1.257   5.917
 7189SOL    HW222467   0.410   1.410   5.947
 7190SOL     OW22468   0.096   3.557   2.932
 7190SOL    HW122469   0.023   3.519   2.990
 7190SOL    HW222470   0.062   3.638   2.885
 7191SOL     OW22471   0.549   4.107   2.975
 7191SOL    HW122472   0.551   4.018   3.021
 7191SOL    HW222473   0.527   4.178   3.041
 7192SOL     OW22474   3.309   4.528   5.744
 7192SOL    HW122475   3.217   4.503   5.714
 7192SOL    HW222476   3.303   4.592   5.821
 7193SOL     OW22477   1.580   2.872   2.011
 7193SOL    HW122478   1.592   2.798   1.944
 7193SOL    HW222479   1.522   2.840   2.086
 7194SOL     OW22480   2.774   1.980   0.220
 7194SOL    HW122481   2.859   1.967   0.169
 7194SOL    HW222482   2.774   2.071   0.261
 7195SOL     OW22483   0.099   4.214   6.970
 7195SOL    HW122484   0.161   4.245   6.898
 7195SOL    HW222485   0.150   4.160   0.021
 7196SOL     OW22486   3.727   4.427   1.078
 7196SOL    HW122487   3.768   4.336   1.076
 7196SOL    HW222488   3.632   4.420   1.107
 7197SOL     OW22489   0.887   2.501   5.559
 7197SOL    HW122490   0.918   2.421   5.611
 7197SOL    HW222491   0.836   2.470   5.479
 7198SOL     OW22492   0.481   0.479   0.230
 7198SOL    HW122493   0.543   0.557   0.219
 7198SOL    HW222494   0.422   0.493   0.309
 7199SOL     OW22495   2.197   0.714   3.016
 7199SOL    HW122496   2.203   0.673   2.925
 7199SOL    HW222497   2.289   0.729   3.051
 7200SOL     OW22498   2.718   2.229   6.931
 7200SOL    HW122499   2.637   2.233   6.872
 7200SOL    HW222500   2.789   2.173   6.887
 7201SOL     OW22501   0.830   5.867   4.118
 7201SOL    HW122502   0.864   5.900   4.206
 7201SOL    HW222503   0.790   5.776   4.131
 7202SOL     OW22504   4.444   0.444   5.977
 7202SOL    HW122505   4.384   0.506   6.029
 7202SOL    HW222506   4.539   0.461   6.002
 7203SOL     OW22507   0.425   1.878   1.154
 7203SOL    HW122508   0.442   1.781   1.172
 7203SOL    HW222509   0.379   1.919   1.232
 7204SOL     OW22510   0.632   6.944   5.405
 7204SOL    HW122511   0.687   6.891   5.340
 7204SOL    HW222512   0.654   0.024   5.396
 7205SOL     OW22513   1.039   5.775   3.759
 7205SOL    HW122514   0.970   5.727   3.813
 7205SOL    HW222515   1.073   5.714   3.687
 7206SOL     OW22516   1.531   0.293   1.536
 7206SOL    HW122517   1.564   0.315   1.628
 7206SOL    HW222518   1.431   0.291   1.536
 7207SOL     OW22519   3.595   0.136   2.646
 7207SOL    HW122520   3.507   0.100   2.675
 7207SOL    HW222521   3.616   0.219   2.698
 7208SOL     OW22522   3.785   6.832   3.260
 7208SOL    HW122523   3.832   6.918   3.244
 7208SOL    HW222524   3.713   6.820   3.191
 7209SOL     OW22525   3.134   3.464   2.296
 7209SOL    HW122526   3.089   3.553   2.302
 7209SOL    HW222527   3.218   3.472   2.243
 7210SOL     OW22528   4.733   0.742   3.736
 7210SOL    HW122529   4.805   0.677   3.759
 7210SOL    HW222530   4.679   0.707   3.660
 7211SOL     OW22531   2.854   6.083   4.016
 7211SOL    HW122532   2.938   6.132   4.041
 7211SOL    HW222533   2.780   6.110   4.077
 7212SOL     OW22534   0.328   6.244   4.919
 7212SOL    HW122535   0.312   6.272   4.825
 7212SOL    HW222536   0.374   6.318   4.968
 7213SOL     OW22537   5.320   6.623   0.690
 7213SOL    HW122538   5.371   6.651   0.771
 7213SOL    HW222539   5.307   6.524   0.692
 7214SOL     OW22540   6.807   5.230   5.323
 7214SOL    HW122541   6.873   5.192   5.258
 7214SOL    HW222542   6.854   5.293   5.386
 7215SOL     OW22543   0.018   3.636   5.241
 7215SOL    HW122544   6.948   3.589   5.261
 7215SOL    HW222545   0.061   3.594   5.161
 7216SOL     OW22546   3.527   6.474   6.826
 7216SOL    HW122547   3.438   6.452   6.787
 7216SOL    HW222548   3.570   6.391   6.860
 7217SOL     OW22549   2.921   4.900   3.124
 7217SOL    HW122550   2.848   4.832   3.135
 7217SOL    HW222551   2.991   4.885   3.193
 7218SOL     OW22552   4.977   2.536   5.312
 7218SOL    HW122553   4.958   2.568   5.219
 7218SOL    HW222554   4.942   2.602   5.378
 7219SOL     OW22555   4.722   0.341   4.295
 7219SOL    HW122556   4.717   0.427   4.245
 7219SOL    HW222557   4.632   0.298   4.298
 7220SOL     OW22558   0.385   5.123   5.189
 7220SOL    HW122559   0.342   5.087   5.107
 7220SOL    HW222560   0.480   5.146   5.170
 7221SOL     OW22561   4.077   5.960   4.464
 7221SOL    HW122562   4.049   6.019   4.540
 7221SOL    HW222563   4.055   6.004   4.377
 7222SOL     OW22564   5.941   0.508   2.904
 7222SOL    HW122565   6.003   0.452   2.850
 7222SOL    HW222566   5.851   0.511   2.860
 7223SOL     OW22567   2.743   1.840   1.674
 7223SOL    HW122568   2.717   1.817   1.768
 7223SOL    HW222569   2.842   1.831   1.663
 7224SOL     OW22570   5.245   2.114   3.630
 7224SOL    HW122571   5.305   2.046   3.587
 7224SOL    HW222572   5.289   2.150   3.712
 7225SOL     OW22573   0.724   5.677   0.675
 7225SOL    HW122574   0.769   5.738   0.610
 7225SOL    HW222575   0.786   5.660   0.753
 7226SOL     OW22576   6.897   1.007   1.066
 7226SOL    HW122577   6.838   0.974   0.992
 7226SOL    HW222578   6.944   1.090   1.038
 7227SOL     OW22579   1.504   1.914   1.210
 7227SOL    HW122580   1.427   1.962   1.168
 7227SOL    HW222581   1.470   1.856   1.285
 7228SOL     OW22582   0.718   1.649   2.315
 7228SOL    HW122583   0.758   1.740   2.308
 7228SOL    HW222584   0.619   1.654   2.302
 7229SOL     OW22585   1.551   5.975   5.718
 7229SOL    HW122586   1.494   5.905   5.761
 7229SOL    HW222587   1.647   5.951   5.730
 7230SOL     OW22588   4.692   5.110   4.213
 7230SOL    HW122589   4.619   5.043   4.225
 7230SOL    HW222590   4.780   5.063   4.205
 7231SOL     OW22591   5.075   0.314   0.071
 7231SOL    HW122592   5.016   0.305   0.151
 7231SOL    HW222593   5.153   0.252   0.079
 7232SOL     OW22594   5.380   5.610   3.077
 7232SOL    HW122595   5.460   5.669   3.063
 7232SOL    HW222596   5.298   5.659   3.045
 7233SOL     OW22597   0.515   2.420   4.485
 7233SOL    HW122598   0.613   2.406   4.498
 7233SOL    HW222599   0.498   2.511   4.448
 7234SOL     OW22600   5.346   3.006   3.211
 7234SOL    HW122601   5.376   2.913   3.231
 7234SOL    HW222602   5.246   3.010   3.207
 7235SOL     OW22603   6.510   3.987   2.130
 7235SOL    HW122604   6.528   4.078   2.091
 7235SOL    HW222605   6.458   3.997   2.214
 7236SOL     OW22606   2.290   2.025   2.163
 7236SOL    HW122607   2.191   2.014   2.159
 7236SOL    HW222608   2.334   1.935   2.163
 7237SOL     OW22609   5.097   1.172   4.477
 7237SOL    HW122610   5.081   1.073   4.486
 7237SOL    HW222611   5.021   1.221   4.520
 7238SOL     OW22612   2.966   1.604   0.819
 7238SOL    HW122613   2.962   1.599   0.919
 7238SOL    HW222614   3.056   1.638   0.791
 7239SOL     OW22615   1.924   2.474   2.442
 7239SOL    HW122616   1.983   2.438   2.514
 7239SOL    HW222617   1.977   2.532   2.381
 7240SOL     OW22618   2.654   4.751   6.203
 7240SOL    HW122619   2.631   4.839   6.161
 7240SOL    HW222620   2.706   4.696   6.137
 7241SOL     OW22621   2.374   0.799   0.463
 7241SOL    HW122622   2.297   0.859   0.483
 7241SOL    HW222623   2.423   0.833   0.382
 7242SOL     OW22624   6.770   6.118   0.492
 7242SOL    HW122625   6.716   6.183   0.439
 7242SOL    HW222626   6.741   6.025   0.471
 7243SOL     OW22627   6.268   4.750   5.880
 7243SOL    HW122628   6.272   4.737   5.979
 7243SOL    HW222629   6.344   4.808   5.850
 7244SOL     OW22630   5.970   0.642   1.378
 7244SOL    HW122631   6.052   0.697   1.360
 7244SOL    HW222632   5.893   0.702   1.400
 7245SOL     OW22633   0.863   1.972   5.010
 7245SOL    HW122634   0.811   1.973   4.925
 7245SOL    HW222635   0.935   2.041   5.006
 7246SOL     OW22636   6.109   0.686   4.076
 7246SOL    HW122637   6.026   0.633   4.061
 7246SOL    HW222638   6.187   0.624   4.084
 7247SOL     OW22639   2.872   0.046   4.190
 7247SOL    HW122640   2.946   0.029   4.125
 7247SOL    HW222641   2.886   0.135   4.234
 7248SOL     OW22642   3.302   1.470   3.738
 7248SOL    HW122643   3.346   1.386   3.767
 7248SOL    HW222644   3.371   1.539   3.717
 7249SOL     OW22645   6.082   4.471   2.123
 7249SOL    HW122646   6.166   4.515   2.154
 7249SOL    HW222647   6.082   4.375   2.152
 7250SOL     OW22648   3.785   6.585   6.597
 7250SOL    HW122649   3.812   6.670   6.641
 7250SOL    HW222650   3.762   6.516   6.666
 7251SOL     OW22651   0.412   6.985   5.564
 7251SOL    HW122652   0.336   6.991   5.498
 7251SOL    HW222653   0.499   6.980   5.514
 7252SOL     OW22654   2.976   3.170   2.785
 7252SOL    HW122655   2.997   3.139   2.692
 7252SOL    HW222656   2.882   3.205   2.788
 7253SOL     OW22657   2.893   6.179   6.266
 7253SOL    HW122658   2.831   6.244   6.310
 7253SOL    HW222659   2.850   6.143   6.183
 7254SOL     OW22660   4.362   5.536   4.324
 7254SOL    HW122661   4.460   5.520   4.310
 7254SOL    HW222662   4.312   5.509   4.242
 7255SOL     OW22663   3.824   3.907   1.166
 7255SOL    HW122664   3.823   3.910   1.266
 7255SOL    HW222665   3.761   3.976   1.130
 7256SOL     OW22666   4.151   4.777   4.433
 7256SOL    HW122667   4.138   4.876   4.444
 7256SOL    HW222668   4.065   4.730   4.453
 7257SOL     OW22669   4.916   3.500   3.915
 7257SOL    HW122670   4.938   3.402   3.918
 7257SOL    HW222671   4.888   3.530   4.006
 7258SOL     OW22672   4.075   0.744   2.695
 7258SOL    HW122673   4.166   0.707   2.715
 7258SOL    HW222674   4.069   0.837   2.732
 7259SOL     OW22675   3.200   3.353   1.097
 7259SOL    HW122676   3.210   3.411   1.016
 7259SOL    HW222677   3.276   3.372   1.160
 7260SOL     OW22678   2.923   2.051   2.630
 7260SOL    HW122679   2.996   2.106   2.669
 7260SOL    HW222680   2.870   2.107   2.566
 7261SOL     OW22681   1.684   3.180   1.449
 7261SOL    HW122682   1.696   3.161   1.546
 7261SOL    HW222683   1.704   3.277   1.431
 7262SOL     OW22684   5.241   1.784   5.071
 7262SOL    HW122685   5.304   1.809   4.997
 7262SOL    HW222686   5.202   1.867   5.111
 7263SOL     OW22687   0.989   6.787   1.907
 7263SOL    HW122688   1.005   6.882   1.880
 7263SOL    HW222689   0.995   6.728   1.826
 7264SOL     OW22690   5.973   1.274   6.680
 7264SOL    HW122691   5.873   1.271   6.687
 7264SOL    HW222692   6.003   1.211   6.608
 7265SOL     OW22693   5.248   5.605   6.002
 7265SOL    HW122694   5.229   5.514   5.963
 7265SOL    HW222695   5.344   5.608   6.031
 7266SOL     OW22696   5.028   0.423   1.260
 7266SOL    HW122697   4.981   0.464   1.182
 7266SOL    HW222698   4.969   0.427   1.340
 7267SOL     OW22699   6.914   5.949   5.283
 7267SOL    HW122700   6.836   5.889   5.299
 7267SOL    HW222701   6.970   5.953   5.366
 7268SOL     OW22702   4.202   4.900   3.001
 7268SOL    HW122703   4.147   4.896   2.918
 7268SOL    HW222704   4.167   4.973   3.060
 7269SOL     OW22705   6.980   6.185   1.242
 7269SOL    HW122706   6.901   6.124   1.252
 7269SOL    HW222707   6.950   6.271   1.199
 7270SOL     OW22708   1.065   3.250   4.919
 7270SOL    HW122709   0.981   3.218   4.962
 7270SOL    HW222710   1.102   3.178   4.861
 7271SOL     OW22711   0.354   5.439   4.334
 7271SOL    HW122712   0.305   5.522   4.307
 7271SOL    HW222713   0.292   5.360   4.327
 7272SOL     OW22714   5.437   4.771   2.248
 7272SOL    HW122715   5.342   4.780   2.219
 7272SOL    HW222716   5.497   4.781   2.168
 7273SOL     OW22717   4.924   4.715   2.025
 7273SOL    HW122718   4.896   4.642   2.087
 7273SOL    HW222719   4.872   4.708   1.940
 7274SOL     OW22720   0.810   6.351   0.135
 7274SOL    HW122721   0.902   6.340   0.171
 7274SOL    HW222722   0.773   6.261   0.110
 7275SOL     OW22723   6.904   1.021   2.480
 7275SOL    HW122724   6.995   0.986   2.502
 7275SOL    HW222725   6.892   1.023   2.380
 7276SOL     OW22726   3.786   1.255   2.923
 7276SOL    HW122727   3.864   1.197   2.948
 7276SOL    HW222728   3.812   1.351   2.928
 7277SOL     OW22729   4.863   1.143   4.279
 7277SOL    HW122730   4.895   1.227   4.235
 7277SOL    HW222731   4.809   1.166   4.360
 7278SOL     OW22732   3.322   2.132   1.787
 7278SOL    HW122733   3.383   2.079   1.845
 7278SOL    HW222734   3.227   2.119   1.817
 7279SOL     OW22735   4.022   2.877   6.149
 7279SOL    HW122736   3.980   2.968   6.150
 7279SOL    HW222737   4.083   2.869   6.070
 7280SOL     OW22738   6.897   2.014   4.121
 7280SOL    HW122739   6.992   2.024   4.091
 7280SOL    HW222740   6.856   2.104   4.133
 7281SOL     OW22741   1.776   0.632   0.542
 7281SOL    HW122742   1.707   0.670   0.481
 7281SOL    HW222743   1.866   0.641   0.500
 7282SOL     OW22744   6.488   6.499   0.547
 7282SOL    HW122745   6.579   6.539   0.561
 7282SOL    HW222746   6.454   6.463   0.634
 7283SOL     OW22747   3.402   0.085   1.923
 7283SOL    HW122748   3.395   0.012   1.855
 7283SOL    HW222749   3.404   0.174   1.877
 7284SOL     OW22750   6.897   2.772   4.821
 7284SOL    HW122751   6.820   2.764   4.757
 7284SOL    HW222752   6.979   2.801   4.771
 7285SOL     OW22753   5.911   3.715   1.647
 7285SOL    HW122754   5.905   3.631   1.700
 7285SOL    HW222755   5.850   3.708   1.568
 7286SOL     OW22756   0.582   0.341   1.481
 7286SOL    HW122757   0.564   0.430   1.524
 7286SOL    HW222758   0.644   0.354   1.404
 7287SOL     OW22759   6.664   2.993   4.563
 7287SOL    HW122760   6.597   2.987   4.489
 7287SOL    HW222761   6.754   3.009   4.525
 7288SOL     OW22762   0.848   1.730   1.770
 7288SOL    HW122763   0.769   1.750   1.711
 7288SOL    HW222764   0.903   1.657   1.729
 7289SOL     OW22765   6.410   1.821   3.063
 7289SOL    HW122766   6.330   1.763   3.079
 7289SOL    HW222767   6.484   1.765   3.026
 7290SOL     OW22768   3.017   1.045   5.724
 7290SOL    HW122769   2.950   1.116   5.743
 7290SOL    HW222770   2.977   0.955   5.744
 7291SOL     OW22771   2.374   6.846   1.454
 7291SOL    HW122772   2.401   6.795   1.372
 7291SOL    HW222773   2.344   6.938   1.428
 7292SOL     OW22774   2.870   0.129   2.560
 7292SOL    HW122775   2.916   0.108   2.647
 7292SOL    HW222776   2.823   0.047   2.527
 7293SOL     OW22777   1.723   0.914   6.021
 7293SOL    HW122778   1.817   0.881   6.017
 7293SOL    HW222779   1.690   0.932   5.928
 7294SOL     OW22780   2.956   4.235   0.674
 7294SOL    HW122781   2.939   4.206   0.768
 7294SOL    HW222782   2.906   4.174   0.611
 7295SOL     OW22783   6.862   4.696   1.254
 7295SOL    HW122784   6.844   4.780   1.202
 7295SOL    HW222785   6.918   4.717   1.334
 7296SOL     OW22786   4.638   5.272   3.046
 7296SOL    HW122787   4.682   5.320   3.121
 7296SOL    HW222788   4.685   5.292   2.960
 7297SOL     OW22789   2.759   0.020   1.989
 7297SOL    HW122790   2.794   0.111   1.968
 7297SOL    HW222791   2.659   0.022   1.988
 7298SOL     OW22792   5.036   5.784   6.816
 7298SOL    HW122793   4.978   5.706   6.793
 7298SOL    HW222794   5.129   5.753   6.835
 7299SOL     OW22795   0.417   1.664   0.513
 7299SOL    HW122796   0.480   1.737   0.487
 7299SOL    HW222797   0.362   1.638   0.434
 7300SOL     OW22798   0.355   5.969   2.626
 7300SOL    HW122799   0.434   5.942   2.571
 7300SOL    HW222800   0.321   5.890   2.677
 7301SOL     OW22801   6.318   2.442   5.861
 7301SOL    HW122802   6.405   2.399   5.835
 7301SOL    HW222803   6.251   2.426   5.789
 7302SOL     OW22804   0.499   2.286   5.803
 7302SOL    HW122805   0.509   2.341   5.720
 7302SOL    HW222806   0.403   2.283   5.829
 7303SOL     OW22807   3.648   0.531   0.026
 7303SOL    HW122808   3.699   0.479   6.973
 7303SOL    HW222809   3.660   0.488   0.116
 7304SOL     OW22810   2.508   5.507   1.733
 7304SOL    HW122811   2.544   5.480   1.822
 7304SOL    HW222812   2.440   5.441   1.703
 7305SOL     OW22813   5.837   1.669   1.413
 7305SOL    HW122814   5.821   1.767   1.424
 7305SOL    HW222815   5.870   1.651   1.320
 7306SOL     OW22816   3.515   1.563   1.513
 7306SOL    HW122817   3.500   1.628   1.588
 7306SOL    HW222818   3.608   1.574   1.478
 7307SOL     OW22819   4.111   0.125   2.222
 7307SOL    HW122820   4.190   0.185   2.235
 7307SOL    HW222821   4.115   0.050   2.287
 7308SOL     OW22822   6.229   1.497   3.725
 7308SOL    HW122823   6.194   1.522   3.815
 7308SOL    HW222824   6.185   1.412   3.694
 7309SOL     OW22825   3.051   6.934   1.493
 7309SOL    HW122826   3.135   6.912   1.543
 7309SOL    HW222827   3.008   6.850   1.462
 7310SOL     OW22828   2.102   3.237   6.626
 7310SOL    HW122829   2.165   3.273   6.558
 7310SOL    HW222830   2.048   3.162   6.585
 7311SOL     OW22831   1.308   0.450   0.401
 7311SOL    HW122832   1.222   0.499   0.413
 7311SOL    HW222833   1.334   0.407   0.487
 7312SOL     OW22834   0.858   1.626   4.718
 7312SOL    HW122835   0.880   1.569   4.797
 7312SOL    HW222836   0.936   1.686   4.697
 7313SOL     OW22837   2.173   1.397   1.126
 7313SOL    HW122838   2.272   1.392   1.137
 7313SOL    HW222839   2.147   1.491   1.105
 7314SOL     OW22840   0.060   4.037   6.040
 7314SOL    HW122841   0.043   4.020   5.943
 7314SOL    HW222842   7.011   3.985   6.095
 7315SOL     OW22843   5.429   5.794   2.132
 7315SOL    HW122844   5.333   5.792   2.161
 7315SOL    HW222845   5.479   5.721   2.178
 7316SOL     OW22846   3.355   2.827   6.585
 7316SOL    HW122847   3.452   2.841   6.606
 7316SOL    HW222848   3.343   2.737   6.543
 7317SOL     OW22849   3.705   1.656   2.090
 7317SOL    HW122850   3.688   1.742   2.140
 7317SOL    HW222851   3.656   1.582   2.136
 7318SOL     OW22852   3.292   6.496   3.446
 7318SOL    HW122853   3.193   6.486   3.447
 7318SOL    HW222854   3.322   6.533   3.358
 7319SOL     OW22855   5.746   3.065   6.530
 7319SOL    HW122856   5.713   2.989   6.586
 7319SOL    HW222857   5.695   3.067   6.444
 7320SOL     OW22858   0.433   3.567   0.184
 7320SOL    HW122859   0.390   3.591   0.097
 7320SOL    HW222860   0.424   3.468   0.199
 7321SOL     OW22861   2.380   6.881   5.943
 7321SOL    HW122862   2.427   6.900   6.029
 7321SOL    HW222863   2.309   6.951   5.928
 7322SOL     OW22864   0.160   2.775   2.722
 7322SOL    HW122865   0.078   2.736   2.679
 7322SOL    HW222866   0.148   2.779   2.821
 7323SOL     OW22867   2.501   3.109   1.641
 7323SOL    HW122868   2.405   3.092   1.617
 7323SOL    HW222869   2.550   3.022   1.646
 7324SOL     OW22870   6.024   4.954   2.567
 7324SOL    HW122871   5.949   4.915   2.512
 7324SOL    HW222872   5.986   5.014   2.637
 7325SOL     OW22873   3.080   6.882   5.166
 7325SOL    HW122874   3.157   6.821   5.181
 7325SOL    HW222875   3.103   6.950   5.097
 7326SOL     OW22876   3.440   0.159   6.191
 7326SOL    HW122877   3.412   0.237   6.247
 7326SOL    HW222878   3.452   0.078   6.249
 7327SOL     OW22879   5.738   2.858   3.850
 7327SOL    HW122880   5.679   2.828   3.775
 7327SOL    HW222881   5.730   2.793   3.926
 7328SOL     OW22882   4.428   6.310   5.478
 7328SOL    HW122883   4.446   6.321   5.576
 7328SOL    HW222884   4.473   6.383   5.427
 7329SOL     OW22885   1.279   2.976   0.451
 7329SOL    HW122886   1.333   3.057   0.475
 7329SOL    HW222887   1.341   2.898   0.438
 7330SOL     OW22888   2.272   3.140   1.080
 7330SOL    HW122889   2.303   3.198   1.005
 7330SOL    HW222890   2.328   3.057   1.084
 7331SOL     OW22891   5.290   6.285   1.921
 7331SOL    HW122892   5.332   6.325   1.840
 7331SOL    HW222893   5.269   6.357   1.987
 7332SOL     OW22894   3.563   4.436   6.707
 7332SOL    HW122895   3.565   4.360   6.642
 7332SOL    HW222896   3.507   4.411   6.786
 7333SOL     OW22897   6.017   3.227   2.440
 7333SOL    HW122898   5.959   3.177   2.505
 7333SOL    HW222899   6.100   3.256   2.486
 7334SOL     OW22900   2.570   5.502   5.797
 7334SOL    HW122901   2.499   5.468   5.734
 7334SOL    HW222902   2.633   5.428   5.818
 7335SOL     OW22903   0.219   2.752   3.478
 7335SOL    HW122904   0.293   2.814   3.506
 7335SOL    HW222905   0.135   2.803   3.465
 7336SOL     OW22906   2.233   6.435   1.449
 7336SOL    HW122907   2.199   6.352   1.494
 7336SOL    HW222908   2.157   6.483   1.405
 7337SOL     OW22909   2.022   3.148   1.187
 7337SOL    HW122910   2.036   3.190   1.277
 7337SOL    HW222911   2.110   3.137   1.140
 7338SOL     OW22912   5.159   1.515   1.679
 7338SOL    HW122913   5.084   1.482   1.621
 7338SOL    HW222914   5.237   1.540   1.621
 7339SOL     OW22915   6.801   0.574   5.238
 7339SOL    HW122916   6.813   0.650   5.301
 7339SOL    HW222917   6.876   0.509   5.248
 7340SOL     OW22918   3.572   2.146   6.807
 7340SOL    HW122919   3.663   2.185   6.821
 7340SOL    HW222920   3.505   2.200   6.858
 7341SOL     OW22921   1.279   5.120   5.403
 7341SOL    HW122922   1.263   5.063   5.322
 7341SOL    HW222923   1.335   5.069   5.469
 7342SOL     OW22924   6.052   6.493   6.881
 7342SOL    HW122925   6.116   6.527   6.813
 7342SOL    HW222926   5.964   6.473   6.837
 7343SOL     OW22927   5.563   3.483   1.887
 7343SOL    HW122928   5.475   3.467   1.842
 7343SOL    HW222929   5.638   3.455   1.827
 7344SOL     OW22930   2.266   0.019   6.178
 7344SOL    HW122931   2.310   0.109   6.181
 7344SOL    HW222932   2.298   6.980   6.255
 7345SOL     OW22933   5.464   5.982   5.501
 7345SOL    HW122934   5.531   5.974   5.574
 7345SOL    HW222935   5.396   6.051   5.525
 7346SOL     OW22936   3.506   4.328   1.240
 7346SOL    HW122937   3.418   4.340   1.284
 7346SOL    HW222938   3.577   4.312   1.309
 7347SOL     OW22939   6.303   2.905   1.206
 7347SOL    HW122940   6.205   2.921   1.216
 7347SOL    HW222941   6.333   2.838   1.274
 7348SOL     OW22942   1.593   3.644   3.866
 7348SOL    HW122943   1.675   3.692   3.898
 7348SOL    HW222944   1.513   3.702   3.879
 7349SOL     OW22945   4.157   1.702   1.058
 7349SOL    HW122946   4.206   1.646   1.125
 7349SOL    HW222947   4.100   1.643   1.001
 7350SOL     OW22948   1.624   3.563   4.263
 7350SOL    HW122949   1.688   3.566   4.185
 7350SOL    HW222950   1.585   3.471   4.269
 7351SOL     OW22951   4.424   5.481   5.659
 7351SOL    HW122952   4.465   5.390   5.656
 7351SOL    HW222953   4.340   5.482   5.606
 7352SOL     OW22954   1.515   3.490   2.868
 7352SOL    HW122955   1.473   3.475   2.958
 7352SOL    HW222956   1.449   3.466   2.797
 7353SOL     OW22957   0.329   0.255   5.675
 7353SOL    HW122958   0.328   0.175   5.735
 7353SOL    HW222959   0.408   0.313   5.697
 7354SOL     OW22960   0.980   1.608   6.306
 7354SOL    HW122961   1.039   1.650   6.237
 7354SOL    HW222962   1.027   1.531   6.348
 7355SOL     OW22963   1.628   1.095   0.396
 7355SOL    HW122964   1.546   1.147   0.372
 7355SOL    HW222965   1.702   1.157   0.419
 7356SOL     OW22966   4.955   2.705   6.626
 7356SOL    HW122967   5.015   2.630   6.655
 7356SOL    HW222968   4.883   2.718   6.693
 7357SOL     OW22969   4.238   0.705   1.754
 7357SOL    HW122970   4.243   0.608   1.778
 7357SOL    HW222971   4.327   0.748   1.770
 7358SOL     OW22972   1.791   2.492   2.185
 7358SOL    HW122973   1.836   2.455   2.266
 7358SOL    HW222974   1.860   2.518   2.117
 7359SOL     OW22975   2.915   2.700   0.753
 7359SOL    HW122976   2.978   2.726   0.681
 7359SOL    HW222977   2.966   2.686   0.838
 7360SOL     OW22978   3.445   2.640   5.746
 7360SOL    HW122979   3.497   2.658   5.662
 7360SOL    HW222980   3.505   2.598   5.814
 7361SOL     OW22981   4.396   0.131   1.530
 7361SOL    HW122982   4.328   0.109   1.600
 7361SOL    HW222983   4.350   0.162   1.447
 7362SOL     OW22984   0.552   6.595   4.616
 7362SOL    HW122985   0.568   6.500   4.590
 7362SOL    HW222986   0.618   6.622   4.686
 7363SOL     OW22987   3.916   1.821   1.121
 7363SOL    HW122988   3.871   1.822   1.032
 7363SOL    HW222989   4.012   1.796   1.110
 7364SOL     OW22990   4.282   0.256   1.322
 7364SOL    HW122991   4.312   0.291   1.233
 7364SOL    HW222992   4.250   0.332   1.379
 7365SOL     OW22993   1.372   5.976   2.058
 7365SOL    HW122994   1.371   5.931   2.147
 7365SOL    HW222995   1.323   6.064   2.064
 7366SOL     OW22996   1.998   5.192   0.764
 7366SOL    HW122997   1.959   5.130   0.832
 7366SOL    HW222998   2.047   5.138   0.694
 7367SOL     OW22999   4.872   4.211   1.184
 7367SOL    HW123000   4.918   4.277   1.125
 7367SOL    HW223001   4.816   4.259   1.251
 7368SOL     OW23002   3.847   2.960   3.873
 7368SOL    HW123003   3.764   2.943   3.927
 7368SOL    HW223004   3.893   3.041   3.909
 7369SOL     OW23005   4.402   3.032   0.742
 7369SOL    HW123006   4.326   3.033   0.807
 7369SOL    HW223007   4.439   2.939   0.735
 7370SOL     OW23008   2.100   0.481   5.144
 7370SOL    HW123009   2.123   0.480   5.047
 7370SOL    HW223010   2.034   0.409   5.164
 7371SOL     OW23011   2.121   6.404   3.905
 7371SOL    HW123012   2.156   6.363   3.989
 7371SOL    HW223013   2.174   6.487   3.884
 7372SOL     OW23014   2.580   1.339   5.629
 7372SOL    HW123015   2.579   1.439   5.626
 7372SOL    HW223016   2.577   1.303   5.535
 7373SOL     OW23017   5.703   1.539   4.232
 7373SOL    HW123018   5.679   1.450   4.271
 7373SOL    HW223019   5.706   1.531   4.132
 7374SOL     OW23020   2.976   2.465   5.357
 7374SOL    HW123021   3.067   2.463   5.316
 7374SOL    HW223022   2.958   2.556   5.394
 7375SOL     OW23023   1.703   2.778   3.252
 7375SOL    HW123024   1.673   2.698   3.303
 7375SOL    HW223025   1.792   2.808   3.286
 7376SOL     OW23026   4.026   1.668   0.118
 7376SOL    HW123027   4.053   1.676   0.214
 7376SOL    HW223028   4.104   1.636   0.065
 7377SOL     OW23029   5.530   5.695   1.755
 7377SOL    HW123030   5.514   5.652   1.844
 7377SOL    HW223031   5.496   5.635   1.683
 7378SOL     OW23032   6.994   1.652   5.086
 7378SOL    HW123033   0.070   1.627   5.056
 7378SOL    HW223034   6.928   1.589   5.046
 7379SOL     OW23035   3.973   2.014   3.142
 7379SOL    HW123036   4.041   1.961   3.192
 7379SOL    HW223037   4.009   2.038   3.052
 7380SOL     OW23038   6.565   3.044   5.038
 7380SOL    HW123039   6.661   3.052   5.015
 7380SOL    HW223040   6.533   2.952   5.017
 7381SOL     OW23041   5.146   4.170   2.105
 7381SOL    HW123042   5.199   4.254   2.090
 7381SOL    HW223043   5.067   4.170   2.045
 7382SOL     OW23044   0.040   5.645   6.096
 7382SOL    HW123045   0.049   5.549   6.072
 7382SOL    HW223046   6.959   5.669   6.106
 7383SOL     OW23047   0.818   6.489   1.428
 7383SOL    HW123048   0.737   6.454   1.380
 7383SOL    HW223049   0.867   6.413   1.470
 7384SOL     OW23050   6.078   0.745   2.067
 7384SOL    HW123051   6.025   0.770   1.986
 7384SOL    HW223052   6.157   0.690   2.039
 7385SOL     OW23053   4.039   5.917   2.127
 7385SOL    HW123054   4.117   5.974   2.104
 7385SOL    HW223055   3.955   5.960   2.093
 7386SOL     OW23056   0.044   2.296   5.529
 7386SOL    HW123057   0.065   2.364   5.458
 7386SOL    HW223058   6.992   2.232   5.495
 7387SOL     OW23059   4.375   6.774   4.351
 7387SOL    HW123060   4.464   6.786   4.307
 7387SOL    HW223061   4.362   6.678   4.376
 7388SOL     OW23062   0.654   4.781   3.237
 7388SOL    HW123063   0.749   4.791   3.207
 7388SOL    HW223064   0.621   4.868   3.273
 7389SOL     OW23065   0.755   4.359   6.688
 7389SOL    HW123066   0.840   4.411   6.690
 7389SOL    HW223067   0.684   4.411   6.640
 7390SOL     OW23068   1.977   1.291   6.791
 7390SOL    HW123069   2.017   1.311   6.881
 7390SOL    HW223070   2.008   1.201   6.760
 7391SOL     OW23071   5.344   4.259   4.727
 7391SOL    HW123072   5.393   4.181   4.767
 7391SOL    HW223073   5.351   4.338   4.789
 7392SOL     OW23074   2.903   6.103   0.015
 7392SOL    HW123075   2.881   6.199   7.012
 7392SOL    HW223076   2.831   6.063   0.072
 7393SOL     OW23077   5.484   4.773   1.347
 7393SOL    HW123078   5.520   4.692   1.394
 7393SOL    HW223079   5.432   4.829   1.412
 7394SOL     OW23080   3.109   2.408   6.011
 7394SOL    HW123081   3.094   2.331   5.949
 7394SOL    HW223082   3.066   2.490   5.973
 7395SOL     OW23083   2.346   1.600   0.046
 7395SOL    HW123084   2.439   1.637   0.043
 7395SOL    HW223085   2.323   1.573   0.140
 7396SOL     OW23086   1.093   6.846   0.537
 7396SOL    HW123087   1.002   6.886   0.530
 7396SOL    HW223088   1.085   6.748   0.557
 7397SOL     OW23089   5.309   5.287   5.448
 7397SOL    HW123090   5.320   5.196   5.486
 7397SOL    HW223091   5.397   5.321   5.414
 7398SOL     OW23092   3.033   5.346   4.337
 7398SOL    HW123093   3.088   5.426   4.362
 7398SOL    HW223094   2.939   5.359   4.371
 7399SOL     OW23095   1.255   3.090   5.662
 7399SOL    HW123096   1.177   3.129   5.613
 7399SOL    HW223097   1.225   3.058   5.752
 7400SOL     OW23098   3.070   3.370   6.093
 7400SOL    HW123099   3.029   3.461   6.095
 7400SOL    HW223100   3.016   3.310   6.035
 7401SOL     OW23101   0.725   1.032   3.803
 7401SOL    HW123102   0.797   0.977   3.759
 7401SOL    HW223103   0.749   1.047   3.899
 7402SOL     OW23104   2.746   5.238   5.752
 7402SOL    HW123105   2.812   5.255   5.825
 7402SOL    HW223106   2.673   5.179   5.786
 7403SOL     OW23107   1.609   4.050   2.929
 7403SOL    HW123108   1.686   4.013   2.876
 7403SOL    HW223109   1.561   3.975   2.974
 7404SOL     OW23110   3.012   5.433   1.221
 7404SOL    HW123111   3.038   5.456   1.127
 7404SOL    HW223112   3.038   5.508   1.282
 7405SOL     OW23113   2.804   4.776   4.397
 7405SOL    HW123114   2.805   4.854   4.459
 7405SOL    HW223115   2.741   4.707   4.431
 7406SOL     OW23116   1.194   3.062   3.573
 7406SOL    HW123117   1.095   3.057   3.584
 7406SOL    HW223118   1.234   2.971   3.585
 7407SOL     OW23119   0.114   6.076   4.884
 7407SOL    HW123120   0.103   5.996   4.943
 7407SOL    HW223121   0.193   6.130   4.915
 7408SOL     OW23122   1.277   3.464   5.806
 7408SOL    HW123123   1.359   3.493   5.758
 7408SOL    HW223124   1.302   3.397   5.876
 7409SOL     OW23125   0.497   1.250   5.241
 7409SOL    HW123126   0.573   1.205   5.288
 7409SOL    HW223127   0.468   1.330   5.294
 7410SOL     OW23128   0.382   4.933   1.559
 7410SOL    HW123129   0.305   4.885   1.602
 7410SOL    HW223130   0.457   4.940   1.624
 7411SOL     OW23131   2.787   6.762   4.231
 7411SOL    HW123132   2.835   6.714   4.158
 7411SOL    HW223133   2.825   6.854   4.241
 7412SOL     OW23134   3.965   0.162   2.795
 7412SOL    HW123135   4.060   0.149   2.767
 7412SOL    HW223136   3.947   0.260   2.806
 7413SOL     OW23137   4.782   5.002   4.826
 7413SOL    HW123138   4.830   5.006   4.914
 7413SOL    HW223139   4.702   4.942   4.834
 7414SOL     OW23140   6.947   6.643   4.044
 7414SOL    HW123141   6.884   6.619   3.971
 7414SOL    HW223142   6.985   6.560   4.085
 7415SOL     OW23143   1.471   3.821   2.723
 7415SOL    HW123144   1.490   3.819   2.821
 7415SOL    HW223145   1.389   3.767   2.704
 7416SOL     OW23146   3.071   1.067   3.688
 7416SOL    HW123147   3.081   1.152   3.739
 7416SOL    HW223148   3.019   1.084   3.604
 7417SOL     OW23149   2.078   0.391   5.761
 7417SOL    HW123150   2.014   0.358   5.831
 7417SOL    HW223151   2.029   0.401   5.674
 7418SOL     OW23152   3.463   5.470   0.477
 7418SOL    HW123153   3.521   5.525   0.417
 7418SOL    HW223154   3.373   5.459   0.436
 7419SOL     OW23155   6.101   2.273   5.376
 7419SOL    HW123156   6.159   2.288   5.456
 7419SOL    HW223157   6.111   2.179   5.344
 7420SOL     OW23158   0.095   6.523   1.844
 7420SOL    HW123159   0.025   6.518   1.914
 7420SOL    HW223160   0.158   6.598   1.865
 7421SOL     OW23161   3.526   3.410   1.176
 7421SOL    HW123162   3.614   3.453   1.154
 7421SOL    HW223163   3.462   3.480   1.208
 7422SOL     OW23164   0.067   3.164   2.257
 7422SOL    HW123165   0.160   3.160   2.221
 7422SOL    HW223166   0.070   3.189   2.354
 7423SOL     OW23167   6.912   4.875   5.674
 7423SOL    HW123168   6.976   4.799   5.661
 7423SOL    HW223169   6.961   4.956   5.705
 7424SOL     OW23170   6.961   0.140   4.923
 7424SOL    HW123171   6.888   0.158   4.990
 7424SOL    HW223172   6.990   0.226   4.881
 7425SOL     OW23173   4.673   5.911   6.508
 7425SOL    HW123174   4.576   5.903   6.534
 7425SOL    HW223175   4.729   5.924   6.590
 7426SOL     OW23176   1.492   1.320   6.644
 7426SOL    HW123177   1.436   1.403   6.636
 7426SOL    HW223178   1.586   1.345   6.667
 7427SOL     OW23179   3.466   6.301   4.067
 7427SOL    HW123180   3.391   6.280   4.004
 7427SOL    HW223181   3.552   6.273   4.025
 7428SOL     OW23182   3.936   1.388   6.241
 7428SOL    HW123183   3.957   1.425   6.150
 7428SOL    HW223184   3.867   1.317   6.231
 7429SOL     OW23185   5.778   6.989   3.738
 7429SOL    HW123186   5.779   6.891   3.759
 7429SOL    HW223187   5.738   7.003   3.648
 7430SOL     OW23188   0.290   3.854   6.129
 7430SOL    HW123189   0.217   3.911   6.166
 7430SOL    HW223190   0.330   3.900   6.049
 7431SOL     OW23191   0.210   3.053   2.727
 7431SOL    HW123192   0.178   2.962   2.699
 7431SOL    HW223193   0.231   3.052   2.824
 7432SOL     OW23194   6.911   0.054   3.620
 7432SOL    HW123195   6.937   6.980   3.653
 7432SOL    HW223196   6.877   0.048   3.527
 7433SOL     OW23197   5.758   5.332   0.132
 7433SOL    HW123198   5.688   5.290   0.189
 7433SOL    HW223199   5.737   5.429   0.119
 7434SOL     OW23200   4.697   0.509   6.064
 7434SOL    HW123201   4.677   0.605   6.045
 7434SOL    HW223202   4.712   0.496   6.162
 7435SOL     OW23203   3.910   5.863   0.779
 7435SOL    HW123204   3.961   5.875   0.864
 7435SOL    HW223205   3.906   5.949   0.729
 7436SOL     OW23206   5.560   3.368   6.290
 7436SOL    HW123207   5.576   3.269   6.297
 7436SOL    HW223208   5.463   3.385   6.272
 7437SOL     OW23209   0.407   6.105   0.513
 7437SOL    HW123210   0.347   6.175   0.474
 7437SOL    HW223211   0.447   6.140   0.598
 7438SOL     OW23212   0.794   5.293   0.874
 7438SOL    HW123213   0.749   5.365   0.926
 7438SOL    HW223214   0.812   5.215   0.934
 7439SOL     OW23215   1.477   6.249   4.900
 7439SOL    HW123216   1.535   6.328   4.885
 7439SOL    HW223217   1.492   6.213   4.992
 7440SOL     OW23218   0.890   3.422   4.546
 7440SOL    HW123219   0.863   3.424   4.643
 7440SOL    HW223220   0.943   3.340   4.528
 7441SOL     OW23221   4.450   5.721   4.706
 7441SOL    HW123222   4.541   5.683   4.691
 7441SOL    HW223223   4.411   5.748   4.618
 7442SOL     OW23224   0.726   0.938   6.547
 7442SOL    HW123225   0.646   0.917   6.490
 7442SOL    HW223226   0.784   0.857   6.555
 7443SOL     OW23227   0.447   0.918   1.904
 7443SOL    HW123228   0.375   0.984   1.884
 7443SOL    HW223229   0.408   0.837   1.947
 7444SOL     OW23230   6.718   3.190   4.764
 7444SOL    HW123231   6.692   3.111   4.708
 7444SOL    HW223232   6.639   3.219   4.819
 7445SOL     OW23233   3.365   1.191   1.188
 7445SOL    HW123234   3.373   1.289   1.210
 7445SOL    HW223235   3.450   1.145   1.214
 7446SOL     OW23236   5.514   4.058   0.822
 7446SOL    HW123237   5.593   4.014   0.863
 7446SOL    HW223238   5.432   4.003   0.839
 7447SOL     OW23239   1.307   3.237   5.265
 7447SOL    HW123240   1.372   3.208   5.336
 7447SOL    HW223241   1.330   3.329   5.234
 7448SOL     OW23242   5.959   6.704   5.305
 7448SOL    HW123243   5.965   6.802   5.319
 7448SOL    HW223244   5.866   6.680   5.277
 7449SOL     OW23245   6.622   2.617   1.803
 7449SOL    HW123246   6.649   2.590   1.710
 7449SOL    HW223247   6.623   2.716   1.811
 7450SOL     OW23248   5.278   1.894   4.363
 7450SOL    HW123249   5.330   1.834   4.424
 7450SOL    HW223250   5.328   1.905   4.277
 7451SOL     OW23251   0.978   6.704   2.829
 7451SOL    HW123252   0.918   6.762   2.774
 7451SOL    HW223253   1.039   6.652   2.769
 7452SOL     OW23254   0.367   6.297   5.327
 7452SOL    HW123255   0.412   6.358   5.262
 7452SOL    HW223256   0.431   6.273   5.400
 7453SOL     OW23257   4.585   6.068   5.495
 7453SOL    HW123258   4.538   6.151   5.464
 7453SOL    HW223259   4.653   6.041   5.426
 7454SOL     OW23260   0.973   2.008   1.518
 7454SOL    HW123261   1.048   2.074   1.525
 7454SOL    HW223262   0.942   1.983   1.610
 7455SOL     OW23263   0.162   2.053   1.890
 7455SOL    HW123264   0.109   1.973   1.919
 7455SOL    HW223265   0.203   2.095   1.971
 7456SOL     OW23266   0.735   2.132   4.284
 7456SOL    HW123267   0.739   2.125   4.383
 7456SOL    HW223268   0.797   2.205   4.253
 7457SOL     OW23269   3.763   0.804   5.222
 7457SOL    HW123270   3.776   0.881   5.285
 7457SOL    HW223271   3.777   0.719   5.272
 7458SOL     OW23272   2.482   0.173   6.518
 7458SOL    HW123273   2.548   0.165   6.594
 7458SOL    HW223274   2.440   0.264   6.521
 7459SOL     OW23275   4.596   0.857   1.277
 7459SOL    HW123276   4.613   0.919   1.200
 7459SOL    HW223277   4.655   0.777   1.269
 7460SOL     OW23278   1.563   4.133   1.269
 7460SOL    HW123279   1.585   4.229   1.248
 7460SOL    HW223280   1.511   4.129   1.354
 7461SOL     OW23281   6.162   1.637   6.313
 7461SOL    HW123282   6.076   1.586   6.300
 7461SOL    HW223283   6.198   1.618   6.404
 7462SOL     OW23284   1.231   3.999   2.840
 7462SOL    HW123285   1.137   4.007   2.872
 7462SOL    HW223286   1.236   3.930   2.767
 7463SOL     OW23287   2.890   4.758   1.056
 7463SOL    HW123288   2.846   4.692   1.117
 7463SOL    HW223289   2.823   4.824   1.023
 7464SOL     OW23290   4.064   0.456   6.483
 7464SOL    HW123291   4.013   0.379   6.523
 7464SOL    HW223292   4.092   0.518   6.556
 7465SOL     OW23293   1.537   6.733   0.004
 7465SOL    HW123294   1.445   6.732   6.981
 7465SOL    HW223295   1.564   6.828   0.022
 7466SOL     OW23296   7.016   0.480   6.392
 7466SOL    HW123297   6.964   0.474   6.477
 7466SOL    HW223298   6.953   0.491   6.315
 7467SOL     OW23299   6.725   1.728   0.169
 7467SOL    HW123300   6.782   1.810   0.175
 7467SOL    HW223301   6.647   1.738   0.231
 7468SOL     OW23302   6.573   2.788   2.608
 7468SOL    HW123303   6.532   2.879   2.617
 7468SOL    HW223304   6.577   2.744   2.698
 7469SOL     OW23305   6.837   0.489   0.229
 7469SOL    HW123306   6.815   0.403   0.276
 7469SOL    HW223307   6.893   0.546   0.289
 7470SOL     OW23308   0.002   2.999   3.937
 7470SOL    HW123309   6.924   3.025   3.916
 7470SOL    HW223310   0.016   2.902   3.915
 7471SOL     OW23311   6.553   6.435   5.510
 7471SOL    HW123312   6.471   6.482   5.477
 7471SOL    HW223313   6.567   6.352   5.456
 7472SOL     OW23314   5.954   6.863   4.284
 7472SOL    HW123315   5.938   6.764   4.285
 7472SOL    HW223316   5.905   6.905   4.360
 7473SOL     OW23317   6.831   4.779   2.684
 7473SOL    HW123318   6.763   4.733   2.626
 7473SOL    HW223319   6.893   4.711   2.723
 7474SOL     OW23320   2.519   1.459   5.160
 7474SOL    HW123321   2.486   1.426   5.248
 7474SOL    HW223322   2.533   1.557   5.165
 7475SOL     OW23323   3.689   0.890   2.476
 7475SOL    HW123324   3.764   0.833   2.443
 7475SOL    HW223325   3.667   0.961   2.408
 7476SOL     OW23326   3.638   5.202   4.056
 7476SOL    HW123327   3.691   5.228   4.137
 7476SOL    HW223328   3.666   5.260   3.979
 7477SOL     OW23329   6.560   1.607   4.743
 7477SOL    HW123330   6.627   1.626   4.671
 7477SOL    HW223331   6.581   1.519   4.785
 7478SOL     OW23332   4.363   5.130   6.775
 7478SOL    HW123333   4.422   5.083   6.841
 7478SOL    HW223334   4.269   5.130   6.808
 7479SOL     OW23335   4.025   2.566   1.725
 7479SOL    HW123336   4.022   2.543   1.628
 7479SOL    HW223337   3.976   2.497   1.778
 7480SOL     OW23338   6.908   3.553   1.750
 7480SOL    HW123339   6.831   3.617   1.744
 7480SOL    HW223340   6.923   3.530   1.846
 7481SOL     OW23341   6.047   5.840   1.742
 7481SOL    HW123342   5.968   5.898   1.719
 7481SOL    HW223343   6.015   5.751   1.773
 7482SOL     OW23344   4.827   2.147   3.406
 7482SOL    HW123345   4.798   2.239   3.379
 7482SOL    HW223346   4.804   2.131   3.502
 7483SOL     OW23347   4.332   2.357   5.328
 7483SOL    HW123348   4.401   2.298   5.370
 7483SOL    HW223349   4.356   2.453   5.343
 7484SOL     OW23350   0.499   1.245   3.682
 7484SOL    HW123351   0.590   1.251   3.642
 7484SOL    HW223352   0.469   1.335   3.713
 7485SOL     OW23353   3.169   0.219   4.215
 7485SOL    HW123354   3.226   0.298   4.238
 7485SOL    HW223355   3.088   0.250   4.166
 7486SOL     OW23356   2.753   0.503   5.689
 7486SOL    HW123357   2.812   0.558   5.629
 7486SOL    HW223358   2.675   0.558   5.719
 7487SOL     OW23359   2.513   5.922   2.810
 7487SOL    HW123360   2.476   6.010   2.779
 7487SOL    HW223361   2.609   5.933   2.835
 7488SOL     OW23362   2.061   6.826   4.403
 7488SOL    HW123363   2.036   6.895   4.471
 7488SOL    HW223364   1.996   6.829   4.327
 7489SOL     OW23365   5.344   2.075   4.820
 7489SOL    HW123366   5.416   2.087   4.888
 7489SOL    HW223367   5.374   2.112   4.732
 7490SOL     OW23368   0.608   1.039   1.283
 7490SOL    HW123369   0.513   1.027   1.255
 7490SOL    HW223370   0.643   1.126   1.246
 7491SOL     OW23371   6.047   3.550   6.146
 7491SOL    HW123372   5.985   3.490   6.198
 7491SOL    HW223373   6.070   3.506   6.060
 7492SOL     OW23374   2.032   0.694   3.906
 7492SOL    HW123375   2.064   0.700   3.812
 7492SOL    HW223376   2.097   0.739   3.967
 7493SOL     OW23377   6.341   3.936   6.718
 7493SOL    HW123378   6.329   3.999   6.795
 7493SOL    HW223379   6.304   3.846   6.743
 7494SOL     OW23380   5.686   0.629   2.624
 7494SOL    HW123381   5.737   0.708   2.658
 7494SOL    HW223382   5.692   0.555   2.691
 7495SOL     OW23383   2.032   0.704   0.443
 7495SOL    HW123384   2.105   0.637   0.432
 7495SOL    HW223385   2.066   0.783   0.494
 7496SOL     OW23386   0.363   3.368   5.989
 7496SOL    HW123387   0.453   3.326   6.001
 7496SOL    HW223388   0.292   3.304   6.018
 7497SOL     OW23389   2.244   4.737   0.827
 7497SOL    HW123390   2.332   4.691   0.812
 7497SOL    HW223391   2.256   4.835   0.817
 7498SOL     OW23392   2.265   1.149   5.504
 7498SOL    HW123393   2.309   1.060   5.512
 7498SOL    HW223394   2.303   1.198   5.425
 7499SOL     OW23395   4.118   2.071   2.922
 7499SOL    HW123396   4.135   2.072   2.823
 7499SOL    HW223397   4.160   2.152   2.964
 7500SOL     OW23398   3.843   5.515   4.549
 7500SOL    HW123399   3.757   5.466   4.538
 7500SOL    HW223400   3.843   5.597   4.490
 7501SOL     OW23401   6.158   4.010   3.664
 7501SOL    HW123402   6.112   4.098   3.676
 7501SOL    HW223403   6.257   4.024   3.661
 7502SOL     OW23404   1.490   6.991   4.529
 7502SOL    HW123405   1.585   7.003   4.501
 7502SOL    HW223406   1.475   6.895   4.553
 7503SOL     OW23407   2.730   1.693   0.659
 7503SOL    HW123408   2.670   1.619   0.690
 7503SOL    HW223409   2.821   1.680   0.698
 7504SOL     OW23410   2.191   6.801   2.950
 7504SOL    HW123411   2.144   6.719   2.982
 7504SOL    HW223412   2.203   6.796   2.851
 7505SOL     OW23413   2.353   1.885   5.621
 7505SOL    HW123414   2.349   1.982   5.645
 7505SOL    HW223415   2.280   1.865   5.556
 7506SOL     OW23416   4.697   0.049   3.189
 7506SOL    HW123417   4.617   7.010   3.167
 7506SOL    HW223418   4.777   7.007   3.197
 7507SOL     OW23419   0.645   0.687   2.663
 7507SOL    HW123420   0.660   0.624   2.587
 7507SOL    HW223421   0.590   0.641   2.734
 7508SOL     OW23422   0.323   6.734   2.019
 7508SOL    HW123423   0.402   6.678   2.045
 7508SOL    HW223424   0.249   6.719   2.084
 7509SOL     OW23425   5.814   4.367   0.405
 7509SOL    HW123426   5.839   4.296   0.339
 7509SOL    HW223427   5.771   4.444   0.357
 7510SOL     OW23428   3.491   4.645   5.281
 7510SOL    HW123429   3.522   4.739   5.274
 7510SOL    HW223430   3.525   4.592   5.203
 7511SOL     OW23431   1.892   6.642   3.683
 7511SOL    HW123432   1.895   6.734   3.722
 7511SOL    HW223433   1.799   6.607   3.688
 7512SOL     OW23434   2.512   5.279   7.007
 7512SOL    HW123435   2.504   5.271   6.908
 7512SOL    HW223436   2.499   5.374   0.018
 7513SOL     OW23437   2.265   1.160   1.807
 7513SOL    HW123438   2.356   1.136   1.841
 7513SOL    HW223439   2.238   1.095   1.735
 7514SOL     OW23440   2.168   5.455   1.779
 7514SOL    HW123441   2.137   5.369   1.738
 7514SOL    HW223442   2.192   5.440   1.875
 7515SOL     OW23443   0.190   5.085   1.745
 7515SOL    HW123444   0.169   4.987   1.740
 7515SOL    HW223445   0.182   5.125   1.653
 7516SOL     OW23446   6.518   5.779   5.119
 7516SOL    HW123447   6.586   5.837   5.074
 7516SOL    HW223448   6.563   5.720   5.186
 7517SOL     OW23449   0.147   3.220   0.638
 7517SOL    HW123450   0.133   3.150   0.568
 7517SOL    HW223451   0.069   3.282   0.639
 7518SOL     OW23452   4.384   5.180   3.229
 7518SOL    HW123453   4.309   5.159   3.167
 7518SOL    HW223454   4.422   5.270   3.206
 7519SOL     OW23455   6.254   6.937   4.251
 7519SOL    HW123456   6.169   6.901   4.290
 7519SOL    HW223457   6.294   6.869   4.190
 7520SOL     OW23458   3.505   0.057   2.182
 7520SOL    HW123459   3.503   0.115   2.100
 7520SOL    HW223460   3.563   0.099   2.251
 7521SOL     OW23461   4.828   4.339   5.932
 7521SOL    HW123462   4.862   4.342   5.839
 7521SOL    HW223463   4.735   4.302   5.932
 7522SOL     OW23464   2.598   0.113   6.271
 7522SOL    HW123465   2.550   0.147   6.352
 7522SOL    HW223466   2.589   0.014   6.266
 7523SOL     OW23467   5.459   0.206   5.839
 7523SOL    HW123468   5.437   0.295   5.799
 7523SOL    HW223469   5.447   0.210   5.938
 7524SOL     OW23470   1.817   1.868   5.991
 7524SOL    HW123471   1.833   1.800   6.063
 7524SOL    HW223472   1.869   1.951   6.011
 7525SOL     OW23473   3.007   0.762   6.029
 7525SOL    HW123474   3.033   0.838   6.089
 7525SOL    HW223475   3.088   0.707   6.009
 7526SOL     OW23476   2.959   3.303   1.797
 7526SOL    HW123477   2.879   3.247   1.773
 7526SOL    HW223478   2.930   3.395   1.822
 7527SOL     OW23479   4.396   5.942   2.955
 7527SOL    HW123480   4.413   5.988   3.043
 7527SOL    HW223481   4.338   5.999   2.898
 7528SOL     OW23482   5.250   1.617   6.982
 7528SOL    HW123483   5.252   1.535   6.925
 7528SOL    HW223484   5.244   1.698   6.923
 7529SOL     OW23485   5.740   0.307   4.144
 7529SOL    HW123486   5.765   0.211   4.126
 7529SOL    HW223487   5.642   0.319   4.128
 7530SOL     OW23488   0.170   3.697   1.871
 7530SOL    HW123489   0.162   3.601   1.845
 7530SOL    HW223490   0.173   3.754   1.788
 7531SOL     OW23491   4.526   2.495   4.239
 7531SOL    HW123492   4.616   2.452   4.236
 7531SOL    HW223493   4.490   2.504   4.146
 7532SOL     OW23494   5.420   4.373   1.539
 7532SOL    HW123495   5.391   4.351   1.446
 7532SOL    HW223496   5.490   4.308   1.569
 7533SOL     OW23497   2.457   2.136   2.479
 7533SOL    HW123498   2.424   2.067   2.415
 7533SOL    HW223499   2.472   2.094   2.569
 7534SOL     OW23500   4.728   5.794   5.368
 7534SOL    HW123501   4.745   5.706   5.413
 7534SOL    HW223502   4.706   5.778   5.272
 7535SOL     OW23503   2.819   0.287   5.839
 7535SOL    HW123504   2.795   0.365   5.782
 7535SOL    HW223505   2.843   0.209   5.782
 7536SOL     OW23506   4.641   4.457   4.726
 7536SOL    HW123507   4.554   4.500   4.701
 7536SOL    HW223508   4.715   4.499   4.673
 7537SOL     OW23509   3.017   5.516   3.381
 7537SOL    HW123510   3.011   5.417   3.368
 7537SOL    HW223511   3.059   5.535   3.470
 7538SOL     OW23512   3.033   2.897   1.766
 7538SOL    HW123513   3.052   2.799   1.755
 7538SOL    HW223514   3.062   2.945   1.683
 7539SOL     OW23515   1.218   2.641   4.131
 7539SOL    HW123516   1.196   2.735   4.106
 7539SOL    HW223517   1.302   2.613   4.085
 7540SOL     OW23518   4.052   6.869   5.272
 7540SOL    HW123519   4.105   6.932   5.330
 7540SOL    HW223520   3.959   6.903   5.263
 7541SOL     OW23521   6.738   4.513   4.438
 7541SOL    HW123522   6.647   4.550   4.462
 7541SOL    HW223523   6.805   4.587   4.439
 7542SOL     OW23524   0.839   5.858   0.088
 7542SOL    HW123525   0.927   5.879   0.131
 7542SOL    HW223526   0.792   5.788   0.143
 7543SOL     OW23527   3.384   2.262   0.580
 7543SOL    HW123528   3.310   2.322   0.550
 7543SOL    HW223529   3.469   2.289   0.534
 7544SOL     OW23530   0.338   2.355   3.239
 7544SOL    HW123531   0.421   2.318   3.281
 7544SOL    HW223532   0.278   2.390   3.311
 7545SOL     OW23533   6.292   5.863   1.583
 7545SOL    HW123534   6.203   5.848   1.627
 7545SOL    HW223535   6.309   5.788   1.518
 7546SOL     OW23536   3.085   1.274   2.081
 7546SOL    HW123537   3.157   1.281   2.012
 7546SOL    HW223538   3.066   1.178   2.100
 7547SOL     OW23539   4.653   1.127   0.100
 7547SOL    HW123540   4.666   1.136   0.199
 7547SOL    HW223541   4.710   1.052   0.065
 7548SOL     OW23542   3.594   2.346   0.448
 7548SOL    HW123543   3.591   2.311   0.354
 7548SOL    HW223544   3.658   2.290   0.502
 7549SOL     OW23545   6.174   2.003   1.096
 7549SOL    HW123546   6.145   1.922   1.047
 7549SOL    HW223547   6.096   2.046   1.140
 7550SOL     OW23548   2.620   4.612   2.553
 7550SOL    HW123549   2.653   4.563   2.472
 7550SOL    HW223550   2.522   4.598   2.563
 7551SOL     OW23551   5.056   3.939   6.768
 7551SOL    HW123552   5.124   3.984   6.826
 7551SOL    HW223553   5.089   3.849   6.742
 7552SOL     OW23554   1.262   5.380   3.375
 7552SOL    HW123555   1.304   5.291   3.393
 7552SOL    HW223556   1.320   5.452   3.412
 7553SOL     OW23557   4.539   5.439   5.301
 7553SOL    HW123558   4.456   5.394   5.334
 7553SOL    HW223559   4.580   5.492   5.376
 7554SOL     OW23560   4.327   1.696   1.551
 7554SOL    HW123561   4.327   1.724   1.648
 7554SOL    HW223562   4.285   1.606   1.543
 7555SOL     OW23563   1.533   4.814   5.394
 7555SOL    HW123564   1.596   4.858   5.329
 7555SOL    HW223565   1.484   4.740   5.348
 7556SOL     OW23566   1.072   3.193   6.094
 7556SOL    HW123567   1.156   3.235   6.061
 7556SOL    HW223568   0.995   3.255   6.075
 7557SOL     OW23569   5.058   2.171   6.321
 7557SOL    HW123570   5.081   2.268   6.328
 7557SOL    HW223571   5.142   2.118   6.308
 7558SOL     OW23572   1.593   2.364   4.524
 7558SOL    HW123573   1.591   2.264   4.528
 7558SOL    HW223574   1.501   2.399   4.509
 7559SOL     OW23575   6.201   4.640   6.960
 7559SOL    HW123576   6.263   4.564   6.940
 7559SOL    HW223577   6.205   4.662   0.041
 7560SOL     OW23578   4.905   6.673   1.110
 7560SOL    HW123579   4.879   6.708   1.201
 7560SOL    HW223580   5.003   6.655   1.108
 7561SOL     OW23581   1.123   3.211   6.742
 7561SOL    HW123582   1.145   3.267   6.822
 7561SOL    HW223583   1.207   3.176   6.702
 7562SOL     OW23584   6.236   5.932   4.659
 7562SOL    HW123585   6.329   5.896   4.659
 7562SOL    HW223586   6.175   5.866   4.616
 7563SOL     OW23587   2.076   6.482   0.726
 7563SOL    HW123588   2.077   6.382   0.722
 7563SOL    HW223589   1.986   6.515   0.697
 7564SOL     OW23590   4.890   1.390   3.139
 7564SOL    HW123591   4.798   1.375   3.103
 7564SOL    HW223592   4.958   1.364   3.070
 7565SOL     OW23593   5.941   3.076   0.692
 7565SOL    HW123594   5.885   3.122   0.623
 7565SOL    HW223595   5.898   2.988   0.715
 7566SOL     OW23596   0.048   4.751   2.977
 7566SOL    HW123597   0.109   4.810   2.923
 7566SOL    HW223598   0.009   4.680   2.918
 7567SOL     OW23599   1.616   1.888   5.318
 7567SOL    HW123600   1.573   1.977   5.302
 7567SOL    HW223601   1.598   1.858   5.411
 7568SOL     OW23602   5.383   6.743   2.940
 7568SOL    HW123603   5.375   6.644   2.928
 7568SOL    HW223604   5.299   6.788   2.910
 7569SOL     OW23605   3.824   6.122   6.461
 7569SOL    HW123606   3.748   6.116   6.526
 7569SOL    HW223607   3.831   6.216   6.427
 7570SOL     OW23608   5.713   4.353   4.920
 7570SOL    HW123609   5.734   4.441   4.964
 7570SOL    HW223610   5.782   4.286   4.946
 7571SOL     OW23611   5.236   5.491   3.446
 7571SOL    HW123612   5.139   5.496   3.421
 7571SOL    HW223613   5.287   5.443   3.374
 7572SOL     OW23614   4.033   0.763   2.175
 7572SOL    HW123615   4.116   0.708   2.163
 7572SOL    HW223616   3.958   0.721   2.124
 7573SOL     OW23617   0.196   6.319   4.672
 7573SOL    HW123618   0.254   6.394   4.643
 7573SOL    HW223619   0.102   6.352   4.685
 7574SOL     OW23620   6.222   1.044   4.788
 7574SOL    HW123621   6.232   0.997   4.701
 7574SOL    HW223622   6.141   1.103   4.785
 7575SOL     OW23623   3.819   0.204   5.757
 7575SOL    HW123624   3.873   0.123   5.739
 7575SOL    HW223625   3.767   0.192   5.842
 7576SOL     OW23626   5.195   4.725   6.787
 7576SOL    HW123627   5.134   4.704   6.711
 7576SOL    HW223628   5.288   4.740   6.753
 7577SOL     OW23629   6.974   7.000   6.205
 7577SOL    HW123630   0.003   0.048   6.267
 7577SOL    HW223631   6.990   6.906   6.237
 7578SOL     OW23632   2.451   6.100   2.288
 7578SOL    HW123633   2.398   6.024   2.251
 7578SOL    HW223634   2.445   6.179   2.226
 7579SOL     OW23635   6.651   1.644   2.092
 7579SOL    HW123636   6.602   1.559   2.110
 7579SOL    HW223637   6.586   1.717   2.072
 7580SOL     OW23638   1.121   4.144   4.105
 7580SOL    HW123639   1.090   4.239   4.114
 7580SOL    HW223640   1.044   4.082   4.118
 7581SOL     OW23641   6.767   0.626   1.404
 7581SOL    HW123642   6.852   0.574   1.396
 7581SOL    HW223643   6.735   0.652   1.313
 7582SOL     OW23644   2.817   0.984   0.357
 7582SOL    HW123645   2.811   0.914   0.286
 7582SOL    HW223646   2.900   0.970   0.411
 7583SOL     OW23647   6.345   2.910   0.925
 7583SOL    HW123648   6.313   2.901   1.020
 7583SOL    HW223649   6.339   3.006   0.898
 7584SOL     OW23650   2.348   0.099   1.574
 7584SOL    HW123651   2.362   0.116   1.477
 7584SOL    HW223652   2.390   0.013   1.600
 7585SOL     OW23653   1.875   2.321   6.228
 7585SOL    HW123654   1.791   2.375   6.228
 7585SOL    HW223655   1.894   2.289   6.321
 7586SOL     OW23656   3.580   1.209   3.572
 7586SOL    HW123657   3.605   1.285   3.513
 7586SOL    HW223658   3.663   1.161   3.601
 7587SOL     OW23659   2.623   1.939   6.769
 7587SOL    HW123660   2.559   2.002   6.725
 7587SOL    HW223661   2.614   1.945   6.868
 7588SOL     OW23662   1.472   3.237   2.346
 7588SOL    HW123663   1.414   3.255   2.267
 7588SOL    HW223664   1.509   3.323   2.381
 7589SOL     OW23665   0.651   0.190   2.147
 7589SOL    HW123666   0.720   0.172   2.077
 7589SOL    HW223667   0.631   0.105   2.197
 7590SOL     OW23668   4.520   1.864   6.522
 7590SOL    HW123669   4.590   1.797   6.548
 7590SOL    HW223670   4.472   1.895   6.604
 7591SOL     OW23671   0.116   3.796   0.327
 7591SOL    HW123672   0.175   3.829   0.252
 7591SOL    HW223673   0.126   3.697   0.335
 7592SOL     OW23674   6.684   3.804   5.937
 7592SOL    HW123675   6.590   3.800   5.903
 7592SOL    HW223676   6.742   3.743   5.883
 7593SOL     OW23677   5.981   2.779   1.491
 7593SOL    HW123678   6.024   2.690   1.506
 7593SOL    HW223679   5.890   2.766   1.452
 7594SOL     OW23680   0.904   5.064   2.444
 7594SOL    HW123681   0.960   5.015   2.510
 7594SOL    HW223682   0.827   5.006   2.416
 7595SOL     OW23683   0.276   2.519   5.658
 7595SOL    HW123684   0.208   2.454   5.692
 7595SOL    HW223685   0.232   2.609   5.647
 7596SOL     OW23686   4.768   5.504   3.986
 7596SOL    HW123687   4.691   5.568   3.979
 7596SOL    HW223688   4.736   5.412   3.966
 7597SOL     OW23689   3.875   6.145   2.719
 7597SOL    HW123690   3.858   6.047   2.706
 7597SOL    HW223691   3.974   6.160   2.731
 7598SOL     OW23692   6.783   1.840   3.170
 7598SOL    HW123693   6.831   1.890   3.098
 7598SOL    HW223694   6.784   1.742   3.151
 7599SOL     OW23695   5.896   1.648   2.454
 7599SOL    HW123696   5.924   1.563   2.410
 7599SOL    HW223697   5.910   1.641   2.553
 7600SOL     OW23698   2.114   1.583   2.580
 7600SOL    HW123699   2.061   1.512   2.534
 7600SOL    HW223700   2.158   1.640   2.511
 7601SOL     OW23701   2.317   5.356   3.317
 7601SOL    HW123702   2.254   5.358   3.395
 7601SOL    HW223703   2.284   5.419   3.246
 7602SOL     OW23704   0.495   4.697   6.364
 7602SOL    HW123705   0.403   4.658   6.375
 7602SOL    HW223706   0.519   4.748   6.446
 7603SOL     OW23707   1.964   5.119   6.158
 7603SOL    HW123708   1.923   5.183   6.224
 7603SOL    HW223709   2.047   5.080   6.198
 7604SOL     OW23710   1.629   4.824   4.184
 7604SOL    HW123711   1.647   4.733   4.222
 7604SOL    HW223712   1.714   4.862   4.147
 7605SOL     OW23713   0.542   6.897   1.393
 7605SOL    HW123714   0.621   6.905   1.455
 7605SOL    HW223715   0.458   6.891   1.447
 7606SOL     OW23716   6.208   3.503   4.334
 7606SOL    HW123717   6.158   3.589   4.336
 7606SOL    HW223718   6.286   3.512   4.271
 7607SOL     OW23719   3.752   4.951   0.304
 7607SOL    HW123720   3.819   4.911   0.241
 7607SOL    HW223721   3.714   4.879   0.363
 7608SOL     OW23722   4.008   3.836   2.769
 7608SOL    HW123723   4.007   3.761   2.703
 7608SOL    HW223724   3.959   3.915   2.732
 7609SOL     OW23725   1.053   3.349   4.161
 7609SOL    HW123726   0.967   3.399   4.168
 7609SOL    HW223727   1.105   3.383   4.083
 7610SOL     OW23728   5.582   6.210   6.841
 7610SOL    HW123729   5.541   6.301   6.834
 7610SOL    HW223730   5.682   6.218   6.834
 7611SOL     OW23731   0.146   2.046   0.704
 7611SOL    HW123732   0.214   1.974   0.686
 7611SOL    HW223733   0.066   2.006   0.749
 7612SOL     OW23734   5.268   3.183   4.515
 7612SOL    HW123735   5.321   3.182   4.600
 7612SOL    HW223736   5.267   3.276   4.478
 7613SOL     OW23737   6.621   3.413   1.486
 7613SOL    HW123738   6.678   3.378   1.412
 7613SOL    HW223739   6.540   3.458   1.448
 7614SOL     OW23740   4.878   3.612   0.880
 7614SOL    HW123741   4.969   3.615   0.839
 7614SOL    HW223742   4.814   3.569   0.816
 7615SOL     OW23743   3.246   4.363   6.719
 7615SOL    HW123744   3.290   4.440   6.766
 7615SOL    HW223745   3.243   4.284   6.781
 7616SOL     OW23746   6.228   5.001   5.432
 7616SOL    HW123747   6.191   5.061   5.362
 7616SOL    HW223748   6.157   4.978   5.498
 7617SOL     OW23749   3.494   5.180   2.909
 7617SOL    HW123750   3.412   5.234   2.892
 7617SOL    HW223751   3.566   5.206   2.844
 7618SOL     OW23752   0.298   1.569   5.687
 7618SOL    HW123753   0.269   1.538   5.597
 7618SOL    HW223754   0.311   1.490   5.747
 7619SOL     OW23755   5.526   2.537   5.175
 7619SOL    HW123756   5.433   2.531   5.140
 7619SOL    HW223757   5.578   2.604   5.122
 7620SOL     OW23758   4.243   5.735   0.791
 7620SOL    HW123759   4.188   5.667   0.840
 7620SOL    HW223760   4.310   5.688   0.733
 7621SOL     OW23761   0.042   1.657   0.887
 7621SOL    HW123762   0.078   1.647   0.980
 7621SOL    HW223763   0.098   1.603   0.824
 7622SOL     OW23764   4.954   5.531   1.339
 7622SOL    HW123765   5.034   5.542   1.281
 7622SOL    HW223766   4.932   5.433   1.347
 7623SOL     OW23767   4.689   4.378   6.651
 7623SOL    HW123768   4.783   4.351   6.674
 7623SOL    HW223769   4.644   4.413   6.733
 7624SOL     OW23770   0.598   3.205   5.250
 7624SOL    HW123771   0.617   3.184   5.346
 7624SOL    HW223772   0.504   3.179   5.228
 7625SOL     OW23773   4.469   0.841   1.798
 7625SOL    HW123774   4.557   0.799   1.776
 7625SOL    HW223775   4.468   0.935   1.766
 7626SOL     OW23776   5.901   0.079   4.159
 7626SOL    HW123777   5.933   0.002   4.213
 7626SOL    HW223778   5.947   0.079   4.070
 7627SOL     OW23779   5.369   2.478   0.246
 7627SOL    HW123780   5.445   2.473   0.310
 7627SOL    HW223781   5.395   2.535   0.168
 7628SOL     OW23782   3.436   1.442   2.518
 7628SOL    HW123783   3.473   1.390   2.595
 7628SOL    HW223784   3.337   1.450   2.528
 7629SOL     OW23785   6.465   6.304   3.036
 7629SOL    HW123786   6.520   6.365   3.093
 7629SOL    HW223787   6.439   6.352   2.952
 7630SOL     OW23788   6.711   6.541   1.305
 7630SOL    HW123789   6.727   6.486   1.224
 7630SOL    HW223790   6.687   6.481   1.382
 7631SOL     OW23791   1.050   1.247   6.169
 7631SOL    HW123792   1.077   1.322   6.110
 7631SOL    HW223793   1.119   1.175   6.166
 7632SOL     OW23794   3.191   2.865   2.067
 7632SOL    HW123795   3.117   2.851   2.001
 7632SOL    HW223796   3.229   2.777   2.093
 7633SOL     OW23797   5.055   1.203   1.361
 7633SOL    HW123798   5.062   1.251   1.448
 7633SOL    HW223799   5.127   1.134   1.354
 7634SOL     OW23800   1.204   1.797   2.752
 7634SOL    HW123801   1.148   1.780   2.671
 7634SOL    HW223802   1.291   1.749   2.743
 7635SOL     OW23803   3.715   4.930   5.001
 7635SOL    HW123804   3.629   4.943   4.951
 7635SOL    HW223805   3.792   4.940   4.937
 7636SOL     OW23806   1.171   2.221   4.046
 7636SOL    HW123807   1.206   2.216   3.952
 7636SOL    HW223808   1.240   2.186   4.109
 7637SOL     OW23809   2.507   5.190   2.422
 7637SOL    HW123810   2.533   5.099   2.454
 7637SOL    HW223811   2.419   5.215   2.461
 7638SOL     OW23812   2.822   6.378   0.810
 7638SOL    HW123813   2.791   6.299   0.863
 7638SOL    HW223814   2.744   6.438   0.792
 7639SOL     OW23815   1.368   2.217   0.780
 7639SOL    HW123816   1.360   2.155   0.702
 7639SOL    HW223817   1.281   2.221   0.829
 7640SOL     OW23818   3.325   2.214   6.470
 7640SOL    HW123819   3.424   2.218   6.458
 7640SOL    HW223820   3.281   2.284   6.413
 7641SOL     OW23821   1.492   4.641   1.921
 7641SOL    HW123822   1.479   4.739   1.905
 7641SOL    HW223823   1.422   4.590   1.870
 7642SOL     OW23824   3.665   0.622   2.797
 7642SOL    HW123825   3.702   0.595   2.709
 7642SOL    HW223826   3.698   0.713   2.822
 7643SOL     OW23827   4.894   3.548   4.187
 7643SOL    HW123828   4.899   3.612   4.263
 7643SOL    HW223829   4.923   3.457   4.217
 7644SOL     OW23830   5.794   2.449   2.156
 7644SOL    HW123831   5.805   2.541   2.119
 7644SOL    HW223832   5.879   2.397   2.143
 7645SOL     OW23833   4.006   4.142   5.477
 7645SOL    HW123834   4.061   4.063   5.448
 7645SOL    HW223835   3.991   4.202   5.399
 7646SOL     OW23836   1.248   4.185   3.063
 7646SOL    HW123837   1.229   4.111   3.127
 7646SOL    HW223838   1.238   4.151   2.969
 7647SOL     OW23839   6.420   3.792   3.187
 7647SOL    HW123840   6.423   3.872   3.246
 7647SOL    HW223841   6.393   3.712   3.241
 7648SOL     OW23842   2.247   1.513   3.105
 7648SOL    HW123843   2.322   1.579   3.112
 7648SOL    HW223844   2.254   1.448   3.181
 7649SOL     OW23845   1.009   0.655   3.035
 7649SOL    HW123846   1.026   0.631   3.131
 7649SOL    HW223847   1.084   0.620   2.979
 7650SOL     OW23848   5.036   2.040   1.100
 7650SOL    HW123849   4.947   2.038   1.053
 7650SOL    HW223850   5.081   1.952   1.090
 7651SOL     OW23851   2.524   1.081   4.222
 7651SOL    HW123852   2.427   1.106   4.224
 7651SOL    HW223853   2.560   1.082   4.316
 7652SOL     OW23854   5.882   3.437   4.540
 7652SOL    HW123855   5.883   3.399   4.447
 7652SOL    HW223856   5.896   3.536   4.535
 7653SOL     OW23857   1.679   2.327   6.993
 7653SOL    HW123858   1.589   2.290   6.972
 7653SOL    HW223859   1.685   2.349   0.074
 7654SOL     OW23860   4.838   3.021   3.580
 7654SOL    HW123861   4.896   2.940   3.594
 7654SOL    HW223862   4.895   3.103   3.584
 7655SOL     OW23863   4.490   0.292   3.204
 7655SOL    HW123864   4.463   0.225   3.272
 7655SOL    HW223865   4.544   0.248   3.133
 7656SOL     OW23866   2.194   4.638   5.908
 7656SOL    HW123867   2.188   4.731   5.943
 7656SOL    HW223868   2.283   4.600   5.931
 7657SOL     OW23869   1.929   2.980   4.361
 7657SOL    HW123870   1.966   2.964   4.453
 7657SOL    HW223871   1.858   3.050   4.366
 7658SOL     OW23872   3.542   6.829   5.903
 7658SOL    HW123873   3.517   6.865   5.813
 7658SOL    HW223874   3.458   6.806   5.954
 7659SOL     OW23875   5.680   5.528   6.371
 7659SOL    HW123876   5.607   5.564   6.429
 7659SOL    HW223877   5.678   5.428   6.373
 7660SOL     OW23878   0.307   5.768   3.712
 7660SOL    HW123879   0.360   5.817   3.781
 7660SOL    HW223880   0.228   5.724   3.755
 7661SOL     OW23881   6.144   2.579   4.513
 7661SOL    HW123882   6.156   2.628   4.427
 7661SOL    HW223883   6.149   2.480   4.495
 7662SOL     OW23884   1.103   3.082   2.595
 7662SOL    HW123885   1.117   3.164   2.540
 7662SOL    HW223886   1.190   3.033   2.605
 7663SOL     OW23887   1.322   5.572   6.383
 7663SOL    HW123888   1.228   5.601   6.405
 7663SOL    HW223889   1.319   5.482   6.342
 7664SOL     OW23890   3.614   0.127   1.320
 7664SOL    HW123891   3.578   0.036   1.304
 7664SOL    HW223892   3.595   0.185   1.241
 7665SOL     OW23893   5.144   0.147   5.265
 7665SOL    HW123894   5.113   0.197   5.185
 7665SOL    HW223895   5.071   0.145   5.333
 7666SOL     OW23896   0.235   5.988   1.514
 7666SOL    HW123897   0.202   6.045   1.589
 7666SOL    HW223898   0.254   6.045   1.435
 7667SOL     OW23899   5.073   6.158   2.656
 7667SOL    HW123900   4.994   6.101   2.631
 7667SOL    HW223901   5.145   6.100   2.694
 7668SOL     OW23902   3.394   4.744   0.546
 7668SOL    HW123903   3.320   4.680   0.569
 7668SOL    HW223904   3.372   4.834   0.584
 7669SOL     OW23905   4.970   1.947   5.651
 7669SOL    HW123906   4.960   2.030   5.706
 7669SOL    HW223907   4.917   1.955   5.567
 7670SOL     OW23908   0.880   5.389   6.703
 7670SOL    HW123909   0.872   5.473   6.757
 7670SOL    HW223910   0.806   5.326   6.728
 7671SOL     OW23911   4.398   0.868   2.952
 7671SOL    HW123912   4.439   0.945   2.904
 7671SOL    HW223913   4.468   0.818   3.001
 7672SOL     OW23914   0.380   6.940   2.872
 7672SOL    HW123915   0.316   6.894   2.934
 7672SOL    HW223916   0.344   6.936   2.779
 7673SOL     OW23917   1.626   5.797   0.066
 7673SOL    HW123918   1.569   5.801   7.001
 7673SOL    HW223919   1.665   5.887   0.084
 7674SOL     OW23920   5.604   1.413   3.348
 7674SOL    HW123921   5.671   1.487   3.356
 7674SOL    HW223922   5.646   1.334   3.303
 7675SOL     OW23923   6.299   7.011   2.080
 7675SOL    HW123924   6.205   6.986   2.059
 7675SOL    HW223925   6.362   6.953   2.028
 7676SOL     OW23926   1.839   1.722   0.849
 7676SOL    HW123927   1.897   1.753   0.925
 7676SOL    HW223928   1.744   1.722   0.877
 7677SOL     OW23929   0.347   5.087   2.103
 7677SOL    HW123930   0.260   5.057   2.063
 7677SOL    HW223931   0.394   5.009   2.143
 7678SOL     OW23932   1.845   2.118   4.671
 7678SOL    HW123933   1.790   2.114   4.588
 7678SOL    HW223934   1.803   2.060   4.741
 7679SOL     OW23935   2.568   5.569   6.685
 7679SOL    HW123936   2.532   5.598   6.597
 7679SOL    HW223937   2.652   5.516   6.671
 7680SOL     OW23938   1.860   1.512   0.663
 7680SOL    HW123939   1.846   1.421   0.702
 7680SOL    HW223940   1.880   1.577   0.737
 7681SOL     OW23941   1.896   0.169   1.497
 7681SOL    HW123942   1.866   0.080   1.532
 7681SOL    HW223943   1.933   0.157   1.405
 7682SOL     OW23944   3.399   6.776   2.688
 7682SOL    HW123945   3.355   6.696   2.647
 7682SOL    HW223946   3.478   6.746   2.740
 7683SOL     OW23947   5.462   1.382   3.776
 7683SOL    HW123948   5.381   1.426   3.815
 7683SOL    HW223949   5.439   1.341   3.688
 7684SOL     OW23950   3.664   2.109   1.676
 7684SOL    HW123951   3.647   2.175   1.749
 7684SOL    HW223952   3.603   2.030   1.687
 7685SOL     OW23953   3.350   2.511   6.777
 7685SOL    HW123954   3.356   2.412   6.786
 7685SOL    HW223955   3.442   2.551   6.772
 7686SOL     OW23956   6.832   6.689   3.118
 7686SOL    HW123957   6.737   6.696   3.088
 7686SOL    HW223958   6.846   6.744   3.200
 7687SOL     OW23959   5.800   4.898   4.011
 7687SOL    HW123960   5.835   4.905   4.105
 7687SOL    HW223961   5.705   4.868   4.013
 7688SOL     OW23962   1.438   5.891   6.136
 7688SOL    HW123963   1.398   5.980   6.112
 7688SOL    HW223964   1.371   5.819   6.121
 7689SOL     OW23965   5.874   6.510   3.112
 7689SOL    HW123966   5.805   6.566   3.066
 7689SOL    HW223967   5.928   6.460   3.044
 7690SOL     OW23968   5.602   4.891   0.715
 7690SOL    HW123969   5.560   4.890   0.624
 7690SOL    HW223970   5.636   4.800   0.737
 7691SOL     OW23971   5.253   2.518   5.089
 7691SOL    HW123972   5.166   2.535   5.041
 7691SOL    HW223973   5.235   2.470   5.174
 7692SOL     OW23974   0.528   6.552   2.079
 7692SOL    HW123975   0.521   6.459   2.044
 7692SOL    HW223976   0.604   6.599   2.034
 7693SOL     OW23977   4.067   0.129   1.112
 7693SOL    HW123978   4.138   0.060   1.102
 7693SOL    HW223979   4.034   0.158   1.022
 7694SOL     OW23980   0.264   4.733   5.096
 7694SOL    HW123981   0.190   4.700   5.154
 7694SOL    HW223982   0.239   4.720   5.000
 7695SOL     OW23983   4.413   0.464   0.686
 7695SOL    HW123984   4.384   0.502   0.598
 7695SOL    HW223985   4.419   0.537   0.753
 7696SOL     OW23986   6.633   0.733   4.784
 7696SOL    HW123987   6.583   0.754   4.700
 7696SOL    HW223988   6.731   0.747   4.770
 7697SOL     OW23989   3.308   6.641   2.467
 7697SOL    HW123990   3.226   6.685   2.431
 7697SOL    HW223991   3.387   6.668   2.411
 7698SOL     OW23992   6.342   1.892   3.851
 7698SOL    HW123993   6.251   1.921   3.820
 7698SOL    HW223994   6.379   1.823   3.789
 7699SOL     OW23995   3.532   5.943   0.063
 7699SOL    HW123996   3.606   5.944   7.013
 7699SOL    HW223997   3.496   5.850   0.070
 7700SOL     OW23998   5.315   6.293   4.280
 7700SOL    HW123999   5.322   6.384   4.239
 7700SOL    HW224000   5.401   6.271   4.326
 7701SOL     OW24001   6.530   1.378   6.891
 7701SOL    HW124002   6.581   1.463   6.904
 7701SOL    HW224003   6.590   1.307   6.857
 7702SOL     OW24004   3.729   6.696   5.302
 7702SOL    HW124005   3.674   6.712   5.384
 7702SOL    HW224006   3.668   6.680   5.224
 7703SOL     OW24007   6.094   0.241   6.277
 7703SOL    HW124008   6.106   0.278   6.369
 7703SOL    HW224009   6.121   0.309   6.210
 7704SOL     OW24010   5.710   5.248   5.022
 7704SOL    HW124011   5.749   5.186   4.954
 7704SOL    HW224012   5.625   5.287   4.986
 7705SOL     OW24013   3.642   5.444   6.578
 7705SOL    HW124014   3.671   5.538   6.597
 7705SOL    HW224015   3.550   5.446   6.537
 7706SOL     OW24016   4.132   3.160   5.304
 7706SOL    HW124017   4.230   3.158   5.325
 7706SOL    HW224018   4.084   3.096   5.365
 7707SOL     OW24019   0.368   5.746   6.371
 7707SOL    HW124020   0.399   5.660   6.331
 7707SOL    HW224021   0.319   5.799   6.302
 7708SOL     OW24022   0.213   0.021   5.298
 7708SOL    HW124023   0.138   0.059   5.351
 7708SOL    HW224024   0.216   0.066   5.208
 7709SOL     OW24025   6.318   4.495   1.657
 7709SOL    HW124026   6.398   4.439   1.680
 7709SOL    HW224027   6.310   4.502   1.558
 7710SOL     OW24028   2.772   0.798   0.143
 7710SOL    HW124029   2.760   0.699   0.148
 7710SOL    HW224030   2.843   0.821   0.077
 7711SOL     OW24031   6.415   6.526   5.813
 7711SOL    HW124032   6.402   6.553   5.908
 7711SOL    HW224033   6.460   6.600   5.763
 7712SOL     OW24034   5.904   5.903   2.212
 7712SOL    HW124035   5.988   5.884   2.262
 7712SOL    HW224036   5.925   5.926   2.117
 7713SOL     OW24037   1.293   4.257   0.405
 7713SOL    HW124038   1.368   4.229   0.466
 7713SOL    HW224039   1.228   4.182   0.395
 7714SOL     OW24040   5.980   3.999   5.902
 7714SOL    HW124041   6.000   4.097   5.893
 7714SOL    HW224042   6.064   3.947   5.884
 7715SOL     OW24043   4.165   2.107   0.446
 7715SOL    HW124044   4.226   2.177   0.409
 7715SOL    HW224045   4.092   2.088   0.381
 7716SOL     OW24046   6.057   4.453   2.960
 7716SOL    HW124047   6.080   4.520   2.889
 7716SOL    HW224048   6.136   4.394   2.977
 7717SOL     OW24049   1.737   0.979   4.835
 7717SOL    HW124050   1.753   1.056   4.897
 7717SOL    HW224051   1.642   0.981   4.804
 7718SOL     OW24052   1.463   2.906   3.300
 7718SOL    HW124053   1.550   2.857   3.300
 7718SOL    HW224054   1.433   2.920   3.205
 7719SOL     OW24055   6.699   4.490   5.073
 7719SOL    HW124056   6.679   4.431   4.995
 7719SOL    HW224057   6.614   4.512   5.121
 7720SOL     OW24058   0.573   1.411   0.074
 7720SOL    HW124059   0.667   1.411   0.110
 7720SOL    HW224060   0.573   1.451   6.999
 7721SOL     OW24061   0.386   5.403   2.708
 7721SOL    HW124062   0.341   5.439   2.790
 7721SOL    HW224063   0.427   5.479   2.656
 7722SOL     OW24064   1.127   5.080   3.818
 7722SOL    HW124065   1.187   5.058   3.741
 7722SOL    HW224066   1.182   5.093   3.901
 7723SOL     OW24067   4.701   3.146   6.907
 7723SOL    HW124068   4.711   3.158   7.006
 7723SOL    HW224069   4.774   3.195   6.860
 7724SOL     OW24070   2.934   4.131   0.926
 7724SOL    HW124071   2.841   4.108   0.953
 7724SOL    HW224072   2.998   4.067   0.967
 7725SOL     OW24073   6.568   2.086   3.439
 7725SOL    HW124074   6.586   2.129   3.527
 7725SOL    HW224075   6.471   2.064   3.431
 7726SOL     OW24076   1.906   5.749   5.431
 7726SOL    HW124077   1.903   5.662   5.478
 7726SOL    HW224078   1.841   5.748   5.354
 7727SOL     OW24079   0.118   0.851   2.853
 7727SOL    HW124080   0.197   0.795   2.878
 7727SOL    HW224081   0.035   0.807   2.885
 7728SOL     OW24082   1.215   4.679   3.451
 7728SOL    HW124083   1.278   4.639   3.518
 7728SOL    HW224084   1.182   4.608   3.389
 7729SOL     OW24085   5.700   2.804   1.388
 7729SOL    HW124086   5.658   2.836   1.303
 7729SOL    HW224087   5.655   2.847   1.466
 7730SOL     OW24088   5.831   5.841   0.947
 7730SOL    HW124089   5.827   5.940   0.947
 7730SOL    HW224090   5.771   5.805   1.019
 7731SOL     OW24091   6.348   0.709   6.873
 7731SOL    HW124092   6.425   0.694   6.811
 7731SOL    HW224093   6.335   0.807   6.887
 7732SOL     OW24094   4.354   6.563   0.660
 7732SOL    HW124095   4.430   6.614   0.700
 7732SOL    HW224096   4.313   6.504   0.730
 7733SOL     OW24097   4.685   6.169   2.233
 7733SOL    HW124098   4.744   6.153   2.154
 7733SOL    HW224099   4.740   6.173   2.316
 7734SOL     OW24100   2.622   4.936   3.375
 7734SOL    HW124101   2.658   5.014   3.324
 7734SOL    HW224102   2.698   4.876   3.401
 7735SOL     OW24103   4.568   6.415   6.835
 7735SOL    HW124104   4.595   6.394   6.929
 7735SOL    HW224105   4.470   6.434   6.831
 7736SOL     OW24106   3.445   3.427   0.173
 7736SOL    HW124107   3.406   3.473   0.253
 7736SOL    HW224108   3.544   3.439   0.173
 7737SOL     OW24109   3.308   0.121   2.375
 7737SOL    HW124110   3.382   0.102   2.311
 7737SOL    HW224111   3.226   0.073   2.347
 7738SOL     OW24112   2.609   6.021   6.885
 7738SOL    HW124113   2.677   6.040   6.813
 7738SOL    HW224114   2.653   6.026   6.974
 7739SOL     OW24115   0.697   2.423   1.059
 7739SOL    HW124116   0.603   2.396   1.079
 7739SOL    HW224117   0.750   2.424   1.144
 7740SOL     OW24118   2.336   1.295   2.567
 7740SOL    HW124119   2.299   1.287   2.475
 7740SOL    HW224120   2.302   1.219   2.623
 7741SOL     OW24121   1.296   4.812   6.147
 7741SOL    HW124122   1.369   4.775   6.204
 7741SOL    HW224123   1.310   4.784   6.052
 7742SOL     OW24124   4.639   2.184   3.630
 7742SOL    HW124125   4.548   2.145   3.615
 7742SOL    HW224126   4.630   2.279   3.660
 7743SOL     OW24127   6.135   1.439   0.228
 7743SOL    HW124128   6.208   1.444   0.160
 7743SOL    HW224129   6.067   1.371   0.200
 7744SOL     OW24130   1.097   6.560   3.438
 7744SOL    HW124131   1.075   6.591   3.530
 7744SOL    HW224132   1.105   6.639   3.377
 7745SOL     OW24133   3.676   1.324   6.638
 7745SOL    HW124134   3.763   1.356   6.675
 7745SOL    HW224135   3.605   1.333   6.709
 7746SOL     OW24136   2.046   6.773   0.251
 7746SOL    HW124137   2.036   6.728   0.339
 7746SOL    HW224138   2.069   6.705   0.181
 7747SOL     OW24139   5.391   5.681   1.281
 7747SOL    HW124140   5.350   5.736   1.209
 7747SOL    HW224141   5.357   5.711   1.370
 7748SOL     OW24142   3.015   3.884   4.613
 7748SOL    HW124143   3.066   3.871   4.698
 7748SOL    HW224144   2.955   3.806   4.598
 7749SOL     OW24145   2.518   2.382   5.799
 7749SOL    HW124146   2.471   2.458   5.844
 7749SOL    HW224147   2.607   2.368   5.842
 7750SOL     OW24148   0.093   6.139   1.738
 7750SOL    HW124149   0.152   6.197   1.795
 7750SOL    HW224150   0.005   6.125   1.785
 7751SOL     OW24151   1.226   2.607   1.898
 7751SOL    HW124152   1.270   2.547   1.832
 7751SOL    HW224153   1.127   2.588   1.899
 7752SOL     OW24154   5.441   6.938   5.922
 7752SOL    HW124155   5.537   6.909   5.924
 7752SOL    HW224156   5.433   0.009   5.875
 7753SOL     OW24157   2.686   1.647   3.761
 7753SOL    HW124158   2.652   1.681   3.673
 7753SOL    HW224159   2.775   1.687   3.780
 7754SOL     OW24160   3.180   6.252   1.198
 7754SOL    HW124161   3.242   6.225   1.272
 7754SOL    HW224162   3.145   6.170   1.152
 7755SOL     OW24163   2.302   2.144   5.382
 7755SOL    HW124164   2.351   2.064   5.347
 7755SOL    HW224165   2.317   2.222   5.320
 7756SOL     OW24166   2.797   5.952   2.818
 7756SOL    HW124167   2.795   6.019   2.745
 7756SOL    HW224168   2.880   5.964   2.872
 7757SOL     OW24169   5.550   4.868   0.444
 7757SOL    HW124170   5.579   4.773   0.451
 7757SOL    HW224171   5.610   4.917   0.380
 7758SOL     OW24172   2.340   0.276   5.807
 7758SOL    HW124173   2.300   0.186   5.822
 7758SOL    HW224174   2.266   0.342   5.790
 7759SOL     OW24175   1.980   2.155   5.659
 7759SOL    HW124176   1.940   2.082   5.713
 7759SOL    HW224177   2.008   2.119   5.570
 7760SOL     OW24178   6.175   3.641   2.508
 7760SOL    HW124179   6.255   3.594   2.545
 7760SOL    HW224180   6.092   3.607   2.552
 7761SOL     OW24181   6.311   6.991   4.763
 7761SOL    HW124182   6.275   0.032   4.836
 7761SOL    HW224183   6.317   6.897   4.794
 7762SOL     OW24184   2.063   0.179   4.216
 7762SOL    HW124185   1.994   0.251   4.230
 7762SOL    HW224186   2.154   0.219   4.221
 7763SOL     OW24187   2.290   0.126   7.006
 7763SOL    HW124188   2.292   0.066   0.070
 7763SOL    HW224189   2.291   0.221   0.019
 7764SOL     OW24190   3.589   3.463   5.073
 7764SOL    HW124191   3.666   3.428   5.127
 7764SOL    HW224192   3.624   3.502   4.988
 7765SOL     OW24193   5.896   3.757   4.563
 7765SOL    HW124194   5.979   3.777   4.615
 7765SOL    HW224195   5.843   3.841   4.553
 7766SOL     OW24196   6.675   3.997   6.845
 7766SOL    HW124197   6.595   4.050   6.819
 7766SOL    HW224198   6.738   4.055   6.897
 7767SOL     OW24199   5.128   5.776   2.455
 7767SOL    HW124200   5.096   5.828   2.376
 7767SOL    HW224201   5.120   5.678   2.436
 7768SOL     OW24202   4.489   4.607   3.247
 7768SOL    HW124203   4.403   4.644   3.213
 7768SOL    HW224204   4.472   4.540   3.319
 7769SOL     OW24205   4.487   1.688   3.493
 7769SOL    HW124206   4.432   1.614   3.532
 7769SOL    HW224207   4.442   1.724   3.412
 7770SOL     OW24208   1.602   3.916   4.638
 7770SOL    HW124209   1.523   3.960   4.679
 7770SOL    HW224210   1.583   3.819   4.624
 7771SOL     OW24211   3.454   1.772   5.264
 7771SOL    HW124212   3.419   1.699   5.323
 7771SOL    HW224213   3.462   1.856   5.317
 7772SOL     OW24214   4.866   6.962   1.703
 7772SOL    HW124215   4.795   6.945   1.636
 7772SOL    HW224216   4.826   6.963   1.795
 7773SOL     OW24217   2.187   5.158   5.281
 7773SOL    HW124218   2.269   5.143   5.336
 7773SOL    HW224219   2.193   5.107   5.196
 7774SOL     OW24220   4.931   2.109   4.644
 7774SOL    HW124221   4.948   2.105   4.742
 7774SOL    HW224222   4.964   2.025   4.600
 7775SOL     OW24223   4.500   6.384   0.519
 7775SOL    HW124224   4.593   6.401   0.550
 7775SOL    HW224225   4.438   6.453   0.557
 7776SOL     OW24226   0.612   6.037   6.733
 7776SOL    HW124227   0.559   6.004   6.655
 7776SOL    HW224228   0.555   6.037   6.815
 7777SOL     OW24229   6.058   5.452   3.836
 7777SOL    HW124230   6.077   5.473   3.740
 7777SOL    HW224231   5.992   5.517   3.873
 7778SOL     OW24232   5.621   3.591   0.898
 7778SOL    HW124233   5.710   3.549   0.917
 7778SOL    HW224234   5.633   3.668   0.835
 7779SOL     OW24235   2.458   1.941   1.353
 7779SOL    HW124236   2.427   1.846   1.351
 7779SOL    HW224237   2.532   1.951   1.419
 7780SOL     OW24238   0.562   4.924   5.932
 7780SOL    HW124239   0.620   4.998   5.967
 7780SOL    HW224240   0.483   4.913   5.991
 7781SOL     OW24241   2.085   4.527   1.557
 7781SOL    HW124242   2.089   4.428   1.573
 7781SOL    HW224243   1.992   4.559   1.569
 7782SOL     OW24244   5.270   4.919   4.667
 7782SOL    HW124245   5.300   4.986   4.736
 7782SOL    HW224246   5.246   4.833   4.713
 7783SOL     OW24247   0.716   6.742   5.626
 7783SOL    HW124248   0.670   6.796   5.556
 7783SOL    HW224249   0.739   6.800   5.704
 7784SOL     OW24250   3.407   2.781   1.821
 7784SOL    HW124251   3.482   2.737   1.772
 7784SOL    HW224252   3.443   2.830   1.900
 7785SOL     OW24253   1.925   5.956   4.835
 7785SOL    HW124254   2.010   5.993   4.795
 7785SOL    HW224255   1.879   6.028   4.887
 7786SOL     OW24256   3.439   0.171   0.563
 7786SOL    HW124257   3.350   0.138   0.594
 7786SOL    HW224258   3.427   0.243   0.496
 7787SOL     OW24259   2.275   3.082   0.023
 7787SOL    HW124260   2.225   3.078   6.952
 7787SOL    HW224261   2.279   3.177   0.054
 7788SOL     OW24262   1.930   5.010   1.221
 7788SOL    HW124263   1.973   4.927   1.257
 7788SOL    HW224264   1.965   5.089   1.270
 7789SOL     OW24265   2.826   0.375   6.661
 7789SOL    HW124266   2.780   0.447   6.608
 7789SOL    HW224267   2.757   0.323   6.712
 7790SOL     OW24268   5.549   5.604   2.650
 7790SOL    HW124269   5.642   5.637   2.634
 7790SOL    HW224270   5.530   5.526   2.591
 7791SOL     OW24271   2.137   5.271   3.000
 7791SOL    HW124272   2.046   5.229   2.995
 7791SOL    HW224273   2.132   5.355   3.053
 7792SOL     OW24274   2.031   5.646   4.538
 7792SOL    HW124275   1.967   5.658   4.614
 7792SOL    HW224276   2.014   5.558   4.494
 7793SOL     OW24277   3.953   0.862   0.171
 7793SOL    HW124278   3.862   0.842   0.134
 7793SOL    HW224279   4.001   0.924   0.109
 7794SOL     OW24280   6.930   3.938   2.303
 7794SOL    HW124281   6.865   3.876   2.346
 7794SOL    HW224282   6.929   4.026   2.351
 7795SOL     OW24283   2.269   4.652   5.362
 7795SOL    HW124284   2.235   4.558   5.364
 7795SOL    HW224285   2.312   4.674   5.450
 7796SOL     OW24286   3.599   3.001   4.972
 7796SOL    HW124287   3.610   2.926   4.908
 7796SOL    HW224288   3.565   3.082   4.923
 7797SOL     OW24289   1.070   5.926   1.640
 7797SOL    HW124290   1.161   5.955   1.610
 7797SOL    HW224291   1.075   5.833   1.677
 7798SOL     OW24292   1.176   2.988   3.249
 7798SOL    HW124293   1.210   2.911   3.195
 7798SOL    HW224294   1.201   2.976   3.345
 7799SOL     OW24295   1.832   5.414   2.655
 7799SOL    HW124296   1.928   5.404   2.683
 7799SOL    HW224297   1.772   5.383   2.729
 7800SOL     OW24298   0.846   5.449   2.798
 7800SOL    HW124299   0.776   5.387   2.762
 7800SOL    HW224300   0.888   5.499   2.722
 7801SOL     OW24301   2.009   2.009   2.144
 7801SOL    HW124302   2.016   2.055   2.056
 7801SOL    HW224303   1.913   1.999   2.170
 7802SOL     OW24304   6.854   2.533   0.592
 7802SOL    HW124305   6.755   2.541   0.596
 7802SOL    HW224306   6.893   2.619   0.560
 7803SOL     OW24307   4.328   2.254   6.973
 7803SOL    HW124308   4.395   2.311   6.925
 7803SOL    HW224309   4.303   2.298   0.043
 7804SOL     OW24310   4.441   2.124   5.108
 7804SOL    HW124311   4.457   2.223   5.104
 7804SOL    HW224312   4.528   2.076   5.112
 7805SOL     OW24313   5.195   3.222   1.857
 7805SOL    HW124314   5.107   3.188   1.825
 7805SOL    HW224315   5.200   3.211   1.957
 7806SOL     OW24316   5.753   1.841   5.653
 7806SOL    HW124317   5.790   1.808   5.740
 7806SOL    HW224318   5.816   1.818   5.579
 7807SOL     OW24319   1.161   4.458   6.304
 7807SOL    HW124320   1.150   4.497   6.395
 7807SOL    HW224321   1.211   4.371   6.311
 7808SOL     OW24322   5.927   3.375   3.728
 7808SOL    HW124323   5.899   3.304   3.664
 7808SOL    HW224324   5.959   3.455   3.676
 7809SOL     OW24325   5.277   5.050   5.171
 7809SOL    HW124326   5.304   4.956   5.149
 7809SOL    HW224327   5.354   5.112   5.151
 7810SOL     OW24328   3.600   6.632   5.067
 7810SOL    HW124329   3.577   6.536   5.049
 7810SOL    HW224330   3.678   6.658   5.011
 7811SOL     OW24331   1.447   4.976   1.900
 7811SOL    HW124332   1.473   5.024   1.983
 7811SOL    HW224333   1.365   4.921   1.917
 7812SOL     OW24334   0.920   2.310   4.218
 7812SOL    HW124335   0.998   2.270   4.170
 7812SOL    HW224336   0.909   2.406   4.190
 7813SOL     OW24337   4.287   1.921   0.927
 7813SOL    HW124338   4.231   1.987   0.977
 7813SOL    HW224339   4.247   1.830   0.935
 7814SOL     OW24340   6.668   3.274   3.629
 7814SOL    HW124341   6.614   3.206   3.680
 7814SOL    HW224342   6.621   3.362   3.633
 7815SOL     OW24343   5.676   2.173   3.744
 7815SOL    HW124344   5.590   2.220   3.764
 7815SOL    HW224345   5.681   2.089   3.799
 7816SOL     OW24346   1.409   2.179   6.634
 7816SOL    HW124347   1.417   2.082   6.657
 7816SOL    HW224348   1.320   2.214   6.664
 7817SOL     OW24349   4.605   4.357   4.381
 7817SOL    HW124350   4.600   4.281   4.446
 7817SOL    HW224351   4.622   4.442   4.430
 7818SOL     OW24352   4.913   0.317   2.863
 7818SOL    HW124353   4.949   0.332   2.955
 7818SOL    HW224354   4.828   0.369   2.851
 7819SOL     OW24355   0.409   3.495   3.969
 7819SOL    HW124356   0.382   3.502   3.873
 7819SOL    HW224357   0.424   3.587   4.005
 7820SOL     OW24358   1.754   1.376   5.505
 7820SOL    HW124359   1.722   1.297   5.557
 7820SOL    HW224360   1.806   1.344   5.425
 7821SOL     OW24361   5.639   5.586   0.343
 7821SOL    HW124362   5.656   5.570   0.246
 7821SOL    HW224363   5.605   5.503   0.386
 7822SOL     OW24364   1.056   1.357   6.853
 7822SOL    HW124365   1.131   1.422   6.866
 7822SOL    HW224366   1.059   1.288   6.925
 7823SOL     OW24367   2.917   3.584   6.012
 7823SOL    HW124368   2.861   3.602   5.931
 7823SOL    HW224369   2.974   3.664   6.032
 7824SOL     OW24370   5.781   1.054   3.688
 7824SOL    HW124371   5.690   1.065   3.648
 7824SOL    HW224372   5.802   1.132   3.747
 7825SOL     OW24373   1.018   3.401   0.917
 7825SOL    HW124374   1.026   3.459   0.998
 7825SOL    HW224375   0.922   3.384   0.898
 7826SOL     OW24376   5.768   1.637   6.514
 7826SOL    HW124377   5.736   1.625   6.608
 7826SOL    HW224378   5.711   1.706   6.468
 7827SOL     OW24379   2.518   4.602   1.139
 7827SOL    HW124380   2.442   4.648   1.184
 7827SOL    HW224381   2.506   4.503   1.146
 7828SOL     OW24382   0.523   5.244   1.129
 7828SOL    HW124383   0.602   5.252   1.189
 7828SOL    HW224384   0.533   5.305   1.051
 7829SOL     OW24385   2.150   2.875   0.446
 7829SOL    HW124386   2.122   2.792   0.397
 7829SOL    HW224387   2.070   2.933   0.462
 7830SOL     OW24388   4.264   3.711   5.782
 7830SOL    HW124389   4.218   3.790   5.742
 7830SOL    HW224390   4.227   3.627   5.741
 7831SOL     OW24391   1.443   5.345   1.151
 7831SOL    HW124392   1.351   5.307   1.152
 7831SOL    HW224393   1.480   5.345   1.244
 7832SOL     OW24394   3.518   1.044   4.311
 7832SOL    HW124395   3.608   1.072   4.345
 7832SOL    HW224396   3.497   0.951   4.342
 7833SOL     OW24397   0.745   0.535   0.006
 7833SOL    HW124398   0.701   0.485   0.080
 7833SOL    HW224399   0.721   0.632   0.012
 7834SOL     OW24400   0.187   1.599   3.554
 7834SOL    HW124401   0.135   1.685   3.557
 7834SOL    HW224402   0.145   1.537   3.488
 7835SOL     OW24403   2.246   2.213   4.557
 7835SOL    HW124404   2.249   2.313   4.554
 7835SOL    HW224405   2.256   2.182   4.652
 7836SOL     OW24406   3.416   2.805   5.317
 7836SOL    HW124407   3.395   2.711   5.344
 7836SOL    HW224408   3.354   2.867   5.365
 7837SOL     OW24409   6.736   5.243   1.235
 7837SOL    HW124410   6.677   5.166   1.257
 7837SOL    HW224411   6.817   5.240   1.293
 7838SOL     OW24412   4.263   6.274   0.741
 7838SOL    HW124413   4.310   6.287   0.654
 7838SOL    HW224414   4.185   6.213   0.728
 7839SOL     OW24415   6.121   4.268   5.289
 7839SOL    HW124416   6.029   4.294   5.259
 7839SOL    HW224417   6.126   4.275   5.389
 7840SOL     OW24418   5.007   3.369   4.365
 7840SOL    HW124419   5.098   3.405   4.388
 7840SOL    HW224420   4.973   3.313   4.441
 7841SOL     OW24421   4.812   1.495   6.750
 7841SOL    HW124422   4.757   1.432   6.805
 7841SOL    HW224423   4.874   1.545   6.811
 7842SOL     OW24424   2.178   1.727   2.812
 7842SOL    HW124425   2.111   1.759   2.746
 7842SOL    HW224426   2.211   1.636   2.786
 7843SOL     OW24427   4.689   4.553   2.031
 7843SOL    HW124428   4.695   4.493   1.951
 7843SOL    HW224429   4.693   4.499   2.115
 7844SOL     OW24430   4.693   0.093   3.651
 7844SOL    HW124431   4.709   0.095   3.750
 7844SOL    HW224432   4.636   0.171   3.626
 7845SOL     OW24433   5.944   1.464   4.042
 7845SOL    HW124434   5.968   1.401   4.116
 7845SOL    HW224435   5.857   1.436   4.002
 7846SOL     OW24436   1.476   1.320   2.071
 7846SOL    HW124437   1.548   1.367   2.020
 7846SOL    HW224438   1.449   1.238   2.022
 7847SOL     OW24439   6.581   1.891   2.280
 7847SOL    HW124440   6.531   1.811   2.315
 7847SOL    HW224441   6.675   1.888   2.314
 7848SOL     OW24442   3.200   3.030   1.038
 7848SOL    HW124443   3.211   3.108   1.099
 7848SOL    HW224444   3.171   3.061   0.948
 7849SOL     OW24445   5.084   3.675   3.018
 7849SOL    HW124446   5.011   3.653   2.952
 7849SOL    HW224447   5.172   3.676   2.971
 7850SOL     OW24448   0.518   1.675   3.614
 7850SOL    HW124449   0.610   1.696   3.581
 7850SOL    HW224450   0.462   1.641   3.538
 7851SOL     OW24451   6.787   6.857   1.075
 7851SOL    HW124452   6.885   6.836   1.072
 7851SOL    HW224453   6.735   6.777   1.043
 7852SOL     OW24454   2.511   0.490   5.466
 7852SOL    HW124455   2.418   0.496   5.432
 7852SOL    HW224456   2.518   0.416   5.532
 7853SOL     OW24457   3.767   1.280   1.924
 7853SOL    HW124458   3.680   1.244   1.890
 7853SOL    HW224459   3.759   1.299   2.022
 7854SOL     OW24460   2.670   3.365   0.487
 7854SOL    HW124461   2.656   3.384   0.390
 7854SOL    HW224462   2.602   3.415   0.541
 7855SOL     OW24463   2.964   5.825   5.692
 7855SOL    HW124464   2.976   5.786   5.784
 7855SOL    HW224465   2.907   5.765   5.637
 7856SOL     OW24466   5.446   5.324   4.667
 7856SOL    HW124467   5.521   5.382   4.637
 7856SOL    HW224468   5.382   5.309   4.591
 7857SOL     OW24469   5.938   2.493   5.445
 7857SOL    HW124470   5.976   2.414   5.398
 7857SOL    HW224471   5.940   2.573   5.385
 7858SOL     OW24472   5.014   5.239   3.550
 7858SOL    HW124473   5.025   5.175   3.474
 7858SOL    HW224474   5.011   5.333   3.514
 7859SOL     OW24475   6.322   3.709   5.360
 7859SOL    HW124476   6.250   3.731   5.427
 7859SOL    HW224477   6.389   3.783   5.357
 7860SOL     OW24478   4.227   0.133   2.716
 7860SOL    HW124479   4.298   0.069   2.743
 7860SOL    HW224480   4.229   0.145   2.616
 7861SOL     OW24481   3.951   5.250   1.632
 7861SOL    HW124482   3.894   5.240   1.550
 7861SOL    HW224483   4.000   5.337   1.628
 7862SOL     OW24484   2.974   4.678   1.643
 7862SOL    HW124485   2.943   4.630   1.725
 7862SOL    HW224486   2.984   4.613   1.568
 7863SOL     OW24487   6.800   6.188   4.152
 7863SOL    HW124488   6.844   6.260   4.206
 7863SOL    HW224489   6.764   6.226   4.068
 7864SOL     OW24490   0.195   6.512   5.462
 7864SOL    HW124491   0.256   6.434   5.450
 7864SOL    HW224492   0.196   6.568   5.380
 7865SOL     OW24493   5.234   6.846   4.651
 7865SOL    HW124494   5.157   6.850   4.715
 7865SOL    HW224495   5.272   6.938   4.639
 7866SOL     OW24496   2.076   2.431   0.114
 7866SOL    HW124497   2.018   2.363   0.159
 7866SOL    HW224498   2.121   2.389   0.034
 7867SOL     OW24499   5.353   6.576   2.617
 7867SOL    HW124500   5.320   6.669   2.635
 7867SOL    HW224501   5.276   6.518   2.591
 7868SOL     OW24502   5.671   6.419   2.348
 7868SOL    HW124503   5.616   6.395   2.268
 7868SOL    HW224504   5.747   6.355   2.357
 7869SOL     OW24505   5.215   3.299   6.701
 7869SOL    HW124506   5.310   3.277   6.677
 7869SOL    HW224507   5.173   3.219   6.744
 7870SOL     OW24508   4.591   4.888   4.565
 7870SOL    HW124509   4.681   4.867   4.604
 7870SOL    HW224510   4.538   4.942   4.631
 7871SOL     OW24511   5.308   3.858   2.480
 7871SOL    HW124512   5.267   3.899   2.399
 7871SOL    HW224513   5.280   3.762   2.487
 7872SOL     OW24514   2.329   4.256   2.847
 7872SOL    HW124515   2.242   4.303   2.831
 7872SOL    HW224516   2.351   4.258   2.944
 7873SOL     OW24517   5.190   0.983   5.526
 7873SOL    HW124518   5.200   1.078   5.498
 7873SOL    HW224519   5.262   0.928   5.484
 7874SOL     OW24520   5.041   1.751   0.934
 7874SOL    HW124521   5.003   1.667   0.895
 7874SOL    HW224522   5.046   1.821   0.862
 7875SOL     OW24523   4.490   2.427   6.854
 7875SOL    HW124524   4.573   2.480   6.876
 7875SOL    HW224525   4.476   2.428   6.755
 7876SOL     OW24526   6.938   6.820   5.151
 7876SOL    HW124527   6.913   6.725   5.170
 7876SOL    HW224528   6.915   6.842   5.056
 7877SOL     OW24529   6.678   3.100   3.144
 7877SOL    HW124530   6.763   3.055   3.116
 7877SOL    HW224531   6.618   3.033   3.187
 7878SOL     OW24532   5.074   5.114   3.952
 7878SOL    HW124533   5.063   5.059   4.035
 7878SOL    HW224534   4.984   5.132   3.912
 7879SOL     OW24535   4.880   5.754   3.546
 7879SOL    HW124536   4.801   5.800   3.506
 7879SOL    HW224537   4.855   5.660   3.571
 7880SOL     OW24538   1.677   5.306   1.046
 7880SOL    HW124539   1.588   5.342   1.076
 7880SOL    HW224540   1.661   5.225   0.989
 7881SOL     OW24541   5.642   3.499   4.831
 7881SOL    HW124542   5.738   3.522   4.846
 7881SOL    HW224543   5.633   3.400   4.816
 7882SOL     OW24544   1.592   3.439   2.537
 7882SOL    HW124545   1.583   3.537   2.550
 7882SOL    HW224546   1.687   3.416   2.519
 7883SOL     OW24547   1.485   6.882   1.198
 7883SOL    HW124548   1.500   6.834   1.284
 7883SOL    HW224549   1.518   6.976   1.206
 7884SOL     OW24550   2.137   3.511   4.025
 7884SOL    HW124551   2.152   3.554   4.114
 7884SOL    HW224552   2.160   3.576   3.952
 7885SOL     OW24553   6.052   6.409   1.645
 7885SOL    HW124554   6.094   6.324   1.616
 7885SOL    HW224555   6.022   6.401   1.740
 7886SOL     OW24556   3.991   5.055   0.928
 7886SOL    HW124557   4.001   5.007   1.015
 7886SOL    HW224558   3.970   5.151   0.945
 7887SOL     OW24559   3.315   2.554   5.380
 7887SOL    HW124560   3.261   2.567   5.463
 7887SOL    HW224561   3.258   2.510   5.310
 7888SOL     OW24562   0.093   0.636   5.157
 7888SOL    HW124563   0.075   0.665   5.063
 7888SOL    HW224564   0.042   0.553   5.177
 7889SOL     OW24565   0.776   4.670   6.794
 7889SOL    HW124566   0.723   4.697   6.874
 7889SOL    HW224567   0.851   4.611   6.822
 7890SOL     OW24568   0.579   2.912   3.878
 7890SOL    HW124569   0.499   2.855   3.858
 7890SOL    HW224570   0.552   3.008   3.878
 7891SOL     OW24571   1.936   4.264   5.120
 7891SOL    HW124572   1.884   4.186   5.153
 7891SOL    HW224573   1.884   4.311   5.049
 7892SOL     OW24574   1.985   2.054   3.745
 7892SOL    HW124575   1.920   2.027   3.816
 7892SOL    HW224576   2.010   2.150   3.758
 7893SOL     OW24577   6.192   0.087   1.745
 7893SOL    HW124578   6.155   0.145   1.817
 7893SOL    HW224579   6.152   7.012   1.751
 7894SOL     OW24580   3.432   0.815   1.078
 7894SOL    HW124581   3.408   0.761   0.998
 7894SOL    HW224582   3.480   0.898   1.048
 7895SOL     OW24583   4.941   0.265   4.168
 7895SOL    HW124584   5.001   0.338   4.135
 7895SOL    HW224585   4.884   0.301   4.243
 7896SOL     OW24586   4.461   2.668   1.301
 7896SOL    HW124587   4.461   2.764   1.331
 7896SOL    HW224588   4.437   2.663   1.204
 7897SOL     OW24589   3.476   2.168   1.431
 7897SOL    HW124590   3.510   2.185   1.524
 7897SOL    HW224591   3.392   2.220   1.417
 7898SOL     OW24592   3.826   0.306   3.637
 7898SOL    HW124593   3.922   0.288   3.615
 7898SOL    HW224594   3.770   0.292   3.555
 7899SOL     OW24595   5.672   6.532   1.615
 7899SOL    HW124596   5.673   6.439   1.578
 7899SOL    HW224597   5.577   6.564   1.622
 7900SOL     OW24598   1.133   5.328   1.536
 7900SOL    HW124599   1.104   5.297   1.627
 7900SOL    HW224600   1.071   5.291   1.467
 7901SOL     OW24601   4.572   0.772   6.733
 7901SOL    HW124602   4.492   0.789   6.791
 7901SOL    HW224603   4.607   0.858   6.697
 7902SOL     OW24604   6.132   6.077   2.396
 7902SOL    HW124605   6.124   6.140   2.319
 7902SOL    HW224606   6.158   5.986   2.362
 7903SOL     OW24607   4.680   1.365   2.972
 7903SOL    HW124608   4.634   1.454   2.968
 7903SOL    HW224609   4.665   1.315   2.887
 7904SOL     OW24610   5.606   6.574   2.549
 7904SOL    HW124611   5.631   6.501   2.485
 7904SOL    HW224612   5.507   6.577   2.559
 7905SOL     OW24613   6.154   2.713   0.598
 7905SOL    HW124614   6.196   2.698   0.508
 7905SOL    HW224615   6.213   2.672   0.668
 7906SOL     OW24616   0.540   4.769   0.914
 7906SOL    HW124617   0.595   4.851   0.930
 7906SOL    HW224618   0.478   4.785   0.837
 7907SOL     OW24619   6.073   1.993   3.769
 7907SOL    HW124620   6.080   1.952   3.678
 7907SOL    HW224621   6.007   1.943   3.824
 7908SOL     OW24622   1.537   0.555   5.931
 7908SOL    HW124623   1.634   0.537   5.921
 7908SOL    HW224624   1.488   0.469   5.945
 7909SOL     OW24625   5.212   4.203   3.757
 7909SOL    HW124626   5.270   4.278   3.790
 7909SOL    HW224627   5.185   4.146   3.835
 7910SOL     OW24628   2.379   3.010   0.532
 7910SOL    HW124629   2.458   3.006   0.470
 7910SOL    HW224630   2.307   2.948   0.499
 7911SOL     OW24631   1.066   4.719   0.472
 7911SOL    HW124632   1.095   4.648   0.536
 7911SOL    HW224633   1.025   4.795   0.523
 7912SOL     OW24634   5.996   4.611   1.051
 7912SOL    HW124635   5.940   4.549   0.997
 7912SOL    HW224636   5.938   4.681   1.093
 7913SOL     OW24637   1.236   3.966   1.874
 7913SOL    HW124638   1.195   3.941   1.962
 7913SOL    HW224639   1.198   3.907   1.802
 7914SOL     OW24640   0.094   4.499   0.373
 7914SOL    HW124641   0.120   4.460   0.462
 7914SOL    HW224642   0.166   4.560   0.341
 7915SOL     OW24643   5.190   2.493   2.110
 7915SOL    HW124644   5.283   2.458   2.123
 7915SOL    HW224645   5.126   2.416   2.106
 7916SOL     OW24646   6.950   6.449   5.557
 7916SOL    HW124647   0.029   6.469   5.533
 7916SOL    HW224648   6.927   6.493   5.644
 7917SOL     OW24649   3.738   3.088   5.373
 7917SOL    HW124650   3.651   3.106   5.327
 7917SOL    HW224651   3.722   3.065   5.469
 7918SOL     OW24652   6.373   1.331   4.535
 7918SOL    HW124653   6.343   1.248   4.487
 7918SOL    HW224654   6.444   1.376   4.482
 7919SOL     OW24655   1.664   4.871   3.387
 7919SOL    HW124656   1.724   4.811   3.440
 7919SOL    HW224657   1.584   4.896   3.442
 7920SOL     OW24658   6.486   0.317   0.399
 7920SOL    HW124659   6.584   0.307   0.379
 7920SOL    HW224660   6.435   0.251   0.344
 7921SOL     OW24661   6.316   6.285   1.998
 7921SOL    HW124662   6.323   6.197   1.951
 7921SOL    HW224663   6.237   6.282   2.060
 7922SOL     OW24664   0.633   6.039   0.381
 7922SOL    HW124665   0.650   6.114   0.318
 7922SOL    HW224666   0.547   6.054   0.429
 7923SOL     OW24667   3.991   0.599   6.263
 7923SOL    HW124668   3.999   0.536   6.340
 7923SOL    HW224669   3.936   0.557   6.191
 7924SOL     OW24670   5.138   0.241   2.031
 7924SOL    HW124671   5.045   0.278   2.034
 7924SOL    HW224672   5.135   0.142   2.045
 7925SOL     OW24673   0.740   6.735   0.677
 7925SOL    HW124674   0.643   6.743   0.697
 7925SOL    HW224675   0.782   6.670   0.740
 7926SOL     OW24676   4.045   1.928   6.658
 7926SOL    HW124677   4.065   2.016   6.701
 7926SOL    HW224678   4.003   1.944   6.569
 7927SOL     OW24679   4.514   5.802   2.755
 7927SOL    HW124680   4.450   5.856   2.811
 7927SOL    HW224681   4.504   5.705   2.777
 7928SOL     OW24682   1.130   1.627   3.659
 7928SOL    HW124683   1.049   1.597   3.710
 7928SOL    HW224684   1.101   1.668   3.572
 7929SOL     OW24685   4.040   3.680   5.565
 7929SOL    HW124686   4.130   3.660   5.528
 7929SOL    HW224687   3.971   3.672   5.493
 7930SOL     OW24688   4.452   5.189   5.629
 7930SOL    HW124689   4.366   5.173   5.580
 7930SOL    HW224690   4.492   5.102   5.657
 7931SOL     OW24691   3.142   3.204   6.968
 7931SOL    HW124692   3.136   3.204   6.868
 7931SOL    HW224693   3.114   3.115   7.003
 7932SOL     OW24694   1.115   6.358   6.487
 7932SOL    HW124695   1.196   6.321   6.531
 7932SOL    HW224696   1.132   6.452   6.458
 7933SOL     OW24697   6.725   0.045   6.106
 7933SOL    HW124698   6.717   0.080   6.013
 7933SOL    HW224699   6.820   0.023   6.126
 7934SOL     OW24700   1.689   5.064   6.563
 7934SOL    HW124701   1.620   5.008   6.518
 7934SOL    HW224702   1.645   5.129   6.625
 7935SOL     OW24703   5.836   6.125   1.057
 7935SOL    HW124704   5.893   6.207   1.053
 7935SOL    HW224705   5.882   6.056   1.114
 7936SOL     OW24706   2.812   6.053   1.971
 7936SOL    HW124707   2.860   6.105   2.042
 7936SOL    HW224708   2.870   5.977   1.942
 7937SOL     OW24709   6.515   5.847   3.842
 7937SOL    HW124710   6.514   5.926   3.780
 7937SOL    HW224711   6.428   5.842   3.891
 7938SOL     OW24712   6.394   6.147   4.312
 7938SOL    HW124713   6.421   6.056   4.280
 7938SOL    HW224714   6.315   6.140   4.373
 7939SOL     OW24715   2.003   2.240   4.935
 7939SOL    HW124716   1.916   2.201   4.905
 7939SOL    HW224717   2.003   2.338   4.915
 7940SOL     OW24718   1.623   3.254   1.766
 7940SOL    HW124719   1.583   3.241   1.857
 7940SOL    HW224720   1.698   3.189   1.753
 7941SOL     OW24721   6.218   6.223   1.548
 7941SOL    HW124722   6.248   6.267   1.463
 7941SOL    HW224723   6.296   6.212   1.609
 7942SOL     OW24724   0.197   4.924   2.772
 7942SOL    HW124725   0.275   4.917   2.833
 7942SOL    HW224726   0.204   4.856   2.699
 7943SOL     OW24727   0.864   3.867   6.489
 7943SOL    HW124728   0.808   3.785   6.474
 7943SOL    HW224729   0.861   3.924   6.407
 7944SOL     OW24730   0.772   2.606   0.637
 7944SOL    HW124731   0.811   2.697   0.623
 7944SOL    HW224732   0.733   2.601   0.729
 7945SOL     OW24733   6.720   5.436   1.017
 7945SOL    HW124734   6.636   5.416   0.967
 7945SOL    HW224735   6.724   5.379   1.099
 7946SOL     OW24736   3.613   0.091   5.491
 7946SOL    HW124737   3.562   0.176   5.482
 7946SOL    HW224738   3.611   0.042   5.404
 7947SOL     OW24739   3.052   1.358   5.713
 7947SOL    HW124740   3.114   1.367   5.791
 7947SOL    HW224741   2.959   1.343   5.745
 7948SOL     OW24742   1.224   6.052   1.116
 7948SOL    HW124743   1.316   6.016   1.130
 7948SOL    HW224744   1.168   5.983   1.070
 7949SOL     OW24745   5.114   4.045   5.306
 7949SOL    HW124746   5.127   4.045   5.405
 7949SOL    HW224747   5.097   3.952   5.274
 7950SOL     OW24748   5.041   5.490   4.112
 7950SOL    HW124749   4.956   5.507   4.061
 7950SOL    HW224750   5.111   5.457   4.049
 7951SOL     OW24751   2.370   4.843   2.298
 7951SOL    HW124752   2.445   4.906   2.281
 7951SOL    HW224753   2.283   4.889   2.278
 7952SOL     OW24754   6.928   3.394   6.519
 7952SOL    HW124755   6.946   3.472   6.459
 7952SOL    HW224756   6.854   3.418   6.582
 7953SOL     OW24757   3.852   2.145   2.845
 7953SOL    HW124758   3.822   2.138   2.750
 7953SOL    HW224759   3.944   2.107   2.853
 7954SOL     OW24760   3.144   4.341   6.214
 7954SOL    HW124761   3.218   4.281   6.183
 7954SOL    HW224762   3.168   4.380   6.303
 7955SOL     OW24763   2.951   1.003   6.632
 7955SOL    HW124764   2.993   1.064   6.699
 7955SOL    HW224765   3.014   0.988   6.556
 7956SOL     OW24766   4.818   6.556   2.107
 7956SOL    HW124767   4.860   6.469   2.132
 7956SOL    HW224768   4.786   6.551   2.012
 7957SOL     OW24769   0.887   0.465   1.058
 7957SOL    HW124770   0.968   0.407   1.053
 7957SOL    HW224771   0.914   0.561   1.051
 7958SOL     OW24772   4.124   5.004   5.704
 7958SOL    HW124773   4.115   5.103   5.716
 7958SOL    HW224774   4.211   4.984   5.659
 7959SOL     OW24775   5.228   5.817   0.937
 7959SOL    HW124776   5.305   5.773   0.984
 7959SOL    HW224777   5.202   5.761   0.858
 7960SOL     OW24778   2.279   1.030   5.791
 7960SOL    HW124779   2.283   1.082   5.876
 7960SOL    HW224780   2.259   1.091   5.715
 7961SOL     OW24781   0.015   0.871   0.281
 7961SOL    HW124782   7.016   0.964   0.315
 7961SOL    HW224783   0.050   0.814   0.355
 7962SOL     OW24784   1.381   0.746   6.100
 7962SOL    HW124785   1.445   0.681   6.060
 7962SOL    HW224786   1.417   0.838   6.091
 7963SOL     OW24787   6.464   6.523   4.342
 7963SOL    HW124788   6.533   6.478   4.398
 7963SOL    HW224789   6.495   6.614   4.316
 7964SOL     OW24790   6.933   4.021   3.091
 7964SOL    HW124791   6.925   4.053   2.997
 7964SOL    HW224792   6.907   3.925   3.096
 7965SOL     OW24793   4.267   2.380   6.085
 7965SOL    HW124794   4.315   2.337   6.161
 7965SOL    HW224795   4.219   2.461   6.118
 7966SOL     OW24796   2.620   2.509   5.582
 7966SOL    HW124797   2.658   2.453   5.508
 7966SOL    HW224798   2.577   2.450   5.650
 7967SOL     OW24799   3.643   6.392   2.129
 7967SOL    HW124800   3.742   6.377   2.138
 7967SOL    HW224801   3.627   6.485   2.099
 7968SOL     OW24802   0.882   2.269   3.692
 7968SOL    HW124803   0.913   2.317   3.774
 7968SOL    HW224804   0.868   2.335   3.618
 7969SOL     OW24805   5.115   6.077   0.430
 7969SOL    HW124806   5.153   6.011   0.365
 7969SOL    HW224807   5.150   6.168   0.409
 7970SOL     OW24808   6.801   2.940   2.119
 7970SOL    HW124809   6.783   2.936   2.217
 7970SOL    HW224810   6.883   2.887   2.098
 7971SOL     OW24811   3.214   1.982   1.045
 7971SOL    HW124812   3.243   1.930   1.125
 7971SOL    HW224813   3.253   1.942   0.962
 7972SOL     OW24814   2.232   2.784   0.039
 7972SOL    HW124815   2.224   2.750   0.133
 7972SOL    HW224816   2.254   2.882   0.040
 7973SOL     OW24817   4.146   4.811   4.735
 7973SOL    HW124818   4.228   4.762   4.764
 7973SOL    HW224819   4.170   4.880   4.668
 7974SOL     OW24820   5.891   0.646   5.270
 7974SOL    HW124821   5.964   0.615   5.209
 7974SOL    HW224822   5.825   0.573   5.284
 7975SOL     OW24823   6.590   0.864   1.714
 7975SOL    HW124824   6.682   0.831   1.738
 7975SOL    HW224825   6.576   0.853   1.616
 7976SOL     OW24826   0.805   0.529   6.242
 7976SOL    HW124827   0.726   0.476   6.210
 7976SOL    HW224828   0.858   0.474   6.306
 7977SOL     OW24829   4.775   5.846   2.806
 7977SOL    HW124830   4.682   5.831   2.774
 7977SOL    HW224831   4.799   5.775   2.873
 7978SOL     OW24832   5.994   2.609   6.506
 7978SOL    HW124833   5.899   2.597   6.535
 7978SOL    HW224834   6.039   2.675   6.566
 7979SOL     OW24835   3.774   5.635   5.982
 7979SOL    HW124836   3.848   5.571   5.998
 7979SOL    HW224837   3.739   5.670   6.069
 7980SOL     OW24838   2.929   5.713   6.930
 7980SOL    HW124839   2.856   5.645   6.937
 7980SOL    HW224840   2.929   5.769   7.013
 7981SOL     OW24841   0.856   4.896   1.973
 7981SOL    HW124842   0.846   4.993   1.954
 7981SOL    HW224843   0.865   4.846   1.887
 7982SOL     OW24844   1.851   1.452   0.208
 7982SOL    HW124845   1.937   1.499   0.189
 7982SOL    HW224846   1.793   1.510   0.264
 7983SOL     OW24847   6.736   2.050   1.043
 7983SOL    HW124848   6.654   1.993   1.045
 7983SOL    HW224849   6.805   2.006   0.986
 7984SOL     OW24850   1.366   1.083   0.997
 7984SOL    HW124851   1.278   1.126   1.014
 7984SOL    HW224852   1.351   0.993   0.956
 7985SOL     OW24853   3.040   0.927   4.215
 7985SOL    HW124854   3.099   1.005   4.236
 7985SOL    HW224855   3.074   0.880   4.134
 7986SOL     OW24856   3.040   0.957   6.214
 7986SOL    HW124857   3.071   1.009   6.293
 7986SOL    HW224858   2.945   0.981   6.193
 7987SOL     OW24859   2.220   2.317   6.516
 7987SOL    HW124860   2.311   2.333   6.478
 7987SOL    HW224861   2.159   2.285   6.444
 7988SOL     OW24862   0.853   2.103   3.006
 7988SOL    HW124863   0.816   2.045   3.079
 7988SOL    HW224864   0.919   2.051   2.952
 7989SOL     OW24865   2.640   3.429   6.881
 7989SOL    HW124866   2.600   3.339   6.893
 7989SOL    HW224867   2.729   3.420   6.834
 7990SOL     OW24868   1.357   4.620   4.307
 7990SOL    HW124869   1.296   4.558   4.357
 7990SOL    HW224870   1.452   4.601   4.332
 7991SOL     OW24871   5.566   0.324   3.114
 7991SOL    HW124872   5.498   0.271   3.063
 7991SOL    HW224873   5.545   0.320   3.212
 7992SOL     OW24874   1.008   0.535   0.658
 7992SOL    HW124875   0.952   0.617   0.646
 7992SOL    HW224876   0.948   0.456   0.668
 7993SOL     OW24877   0.461   6.770   0.699
 7993SOL    HW124878   0.462   6.747   0.602
 7993SOL    HW224879   0.426   6.863   0.711
 7994SOL     OW24880   3.922   6.890   3.553
 7994SOL    HW124881   3.965   6.981   3.558
 7994SOL    HW224882   3.827   6.900   3.525
 7995SOL     OW24883   6.167   5.699   3.581
 7995SOL    HW124884   6.181   5.600   3.584
 7995SOL    HW224885   6.256   5.744   3.570
 7996SOL     OW24886   2.845   0.130   4.902
 7996SOL    HW124887   2.854   0.218   4.856
 7996SOL    HW224888   2.853   0.143   5.001
 7997SOL     OW24889   0.175   1.215   1.361
 7997SOL    HW124890   0.196   1.236   1.457
 7997SOL    HW224891   0.076   1.207   1.350
 7998SOL     OW24892   2.825   0.080   0.375
 7998SOL    HW124893   2.774   0.068   0.289
 7998SOL    HW224894   2.911   0.030   0.370
 7999SOL     OW24895   1.135   0.784   5.918
 7999SOL    HW124896   1.160   0.800   5.822
 7999SOL    HW224897   1.217   0.765   5.972
 8000SOL     OW24898   4.743   6.848   6.859
 8000SOL    HW124899   4.759   6.793   6.941
 8000SOL    HW224900   4.673   6.804   6.802
 8001SOL     OW24901   4.255   6.189   1.570
 8001SOL    HW124902   4.196   6.157   1.645
 8001SOL    HW224903   4.347   6.206   1.606
 8002SOL     OW24904   2.207   0.651   6.270
 8002SOL    HW124905   2.296   0.655   6.316
 8002SOL    HW224906   2.171   0.558   6.274
 8003SOL     OW24907   2.621   5.471   1.976
 8003SOL    HW124908   2.609   5.421   2.061
 8003SOL    HW224909   2.603   5.569   1.992
 8004SOL     OW24910   2.052   2.839   2.658
 8004SOL    HW124911   2.093   2.795   2.738
 8004SOL    HW224912   2.077   2.936   2.658
 8005SOL     OW24913   3.133   1.604   3.166
 8005SOL    HW124914   3.185   1.630   3.247
 8005SOL    HW224915   3.167   1.653   3.086
 8006SOL     OW24916   2.088   6.327   5.669
 8006SOL    HW124917   1.996   6.337   5.709
 8006SOL    HW224918   2.140   6.260   5.721
 8007SOL     OW24919   6.208   1.449   5.839
 8007SOL    HW124920   6.293   1.451   5.891
 8007SOL    HW224921   6.215   1.511   5.761
 8008SOL     OW24922   4.405   5.987   6.541
 8008SOL    HW124923   4.437   6.080   6.559
 8008SOL    HW224924   4.342   5.988   6.463
 8009SOL     OW24925   5.867   0.757   1.658
 8009SOL    HW124926   5.828   0.798   1.576
 8009SOL    HW224927   5.943   0.697   1.632
 8010SOL     OW24928   1.871   1.139   5.314
 8010SOL    HW124929   1.790   1.162   5.260
 8010SOL    HW224930   1.856   1.052   5.361
 8011SOL     OW24931   3.549   2.182   1.090
 8011SOL    HW124932   3.554   2.136   1.001
 8011SOL    HW224933   3.453   2.185   1.120
 8012SOL     OW24934   2.132   3.694   0.175
 8012SOL    HW124935   2.116   3.595   0.177
 8012SOL    HW224936   2.129   3.730   0.268
 8013SOL     OW24937   1.615   5.295   3.570
 8013SOL    HW124938   1.686   5.233   3.603
 8013SOL    HW224939   1.648   5.389   3.572
 8014SOL     OW24940   0.998   6.275   4.801
 8014SOL    HW124941   1.005   6.175   4.797
 8014SOL    HW224942   1.086   6.316   4.777
 8015SOL     OW24943   3.266   0.632   6.054
 8015SOL    HW124944   3.245   0.573   5.976
 8015SOL    HW224945   3.284   0.576   6.134
 8016SOL     OW24946   4.597   0.293   5.541
 8016SOL    HW124947   4.669   0.231   5.571
 8016SOL    HW224948   4.565   0.265   5.450
 8017SOL     OW24949   5.856   6.984   0.734
 8017SOL    HW124950   5.785   6.915   0.716
 8017SOL    HW224951   5.813   0.053   0.763
 8018SOL     OW24952   3.119   2.164   6.681
 8018SOL    HW124953   3.184   2.175   6.606
 8018SOL    HW224954   3.121   2.245   6.740
 8019SOL     OW24955   2.500   4.827   0.608
 8019SOL    HW124956   2.422   4.889   0.615
 8019SOL    HW224957   2.479   4.741   0.654
 8020SOL     OW24958   6.129   0.284   0.018
 8020SOL    HW124959   6.100   0.289   0.114
 8020SOL    HW224960   6.133   0.188   7.006
 8021SOL     OW24961   1.488   2.428   0.880
 8021SOL    HW124962   1.446   2.339   0.863
 8021SOL    HW224963   1.587   2.418   0.887
 8022SOL     OW24964   5.663   0.190   2.742
 8022SOL    HW124965   5.661   0.207   2.643
 8022SOL    HW224966   5.700   0.099   2.759
 8023SOL     OW24967   5.568   5.252   2.835
 8023SOL    HW124968   5.639   5.320   2.851
 8023SOL    HW224969   5.511   5.243   2.916
 8024SOL     OW24970   1.297   4.504   6.064
 8024SOL    HW124971   1.305   4.411   6.029
 8024SOL    HW224972   1.264   4.503   6.158
 8025SOL     OW24973   1.920   6.024   6.821
 8025SOL    HW124974   1.853   6.031   6.894
 8025SOL    HW224975   1.998   6.083   6.841
 8026SOL     OW24976   6.846   4.174   6.948
 8026SOL    HW124977   6.800   4.228   6.878
 8026SOL    HW224978   6.945   4.179   6.934
 8027SOL     OW24979   4.539   0.334   4.856
 8027SOL    HW124980   4.600   0.413   4.859
 8027SOL    HW224981   4.453   0.356   4.903
 8028SOL     OW24982   4.095   5.986   5.549
 8028SOL    HW124983   4.093   6.086   5.548
 8028SOL    HW224984   4.028   5.950   5.484
 8029SOL     OW24985   4.837   3.067   1.102
 8029SOL    HW124986   4.900   2.996   1.071
 8029SOL    HW224987   4.743   3.031   1.101
 8030SOL     OW24988   4.509   4.864   0.155
 8030SOL    HW124989   4.413   4.877   0.131
 8030SOL    HW224990   4.527   4.767   0.171
 8031SOL     OW24991   6.385   6.360   2.374
 8031SOL    HW124992   6.322   6.366   2.296
 8031SOL    HW224993   6.457   6.294   2.353
 8032SOL     OW24994   6.289   4.014   1.666
 8032SOL    HW124995   6.200   3.972   1.650
 8032SOL    HW224996   6.292   4.050   1.760
 8033SOL     OW24997   4.935   2.055   6.554
 8033SOL    HW124998   4.933   2.120   6.477
 8033SOL    HW224999   4.954   1.964   6.519
 8034SOL     OW25000   4.824   0.988   4.684
 8034SOL    HW125001   4.771   1.044   4.620
 8034SOL    HW225002   4.763   0.924   4.730
 8035SOL     OW25003   5.277   1.765   3.781
 8035SOL    HW125004   5.207   1.835   3.792
 8035SOL    HW225005   5.234   1.675   3.781
 8036SOL     OW25006   6.407   4.094   3.991
 8036SOL    HW125007   6.337   4.149   4.036
 8036SOL    HW225008   6.378   4.072   3.898
 8037SOL     OW25009   1.606   3.335   6.999
 8037SOL    HW125010   1.705   3.331   6.987
 8037SOL    HW225011   1.562   3.267   6.940
 8038SOL     OW25012   4.624   7.007   2.519
 8038SOL    HW125013   4.572   0.044   2.586
 8038SOL    HW225014   4.569   6.994   2.437
 8039SOL     OW25015   0.701   1.702   5.442
 8039SOL    HW125016   0.743   1.709   5.532
 8039SOL    HW225017   0.708   1.790   5.395
 8040SOL     OW25018   1.264   5.353   0.048
 8040SOL    HW125019   1.191   5.396   0.102
 8040SOL    HW225020   1.268   5.255   0.068
 8041SOL     OW25021   2.858   1.352   2.753
 8041SOL    HW125022   2.809   1.348   2.666
 8041SOL    HW225023   2.796   1.385   2.825
 8042SOL     OW25024   3.166   3.024   4.629
 8042SOL    HW125025   3.104   3.097   4.600
 8042SOL    HW225026   3.187   3.036   4.726
 8043SOL     OW25027   3.611   6.279   0.984
 8043SOL    HW125028   3.560   6.341   0.924
 8043SOL    HW225029   3.564   6.191   0.988
 8044SOL     OW25030   4.135   2.564   1.330
 8044SOL    HW125031   4.040   2.551   1.355
 8044SOL    HW225032   4.190   2.489   1.367
 8045SOL     OW25033   5.737   2.696   3.075
 8045SOL    HW125034   5.700   2.755   3.004
 8045SOL    HW225035   5.662   2.645   3.117
 8046SOL     OW25036   0.725   4.382   1.696
 8046SOL    HW125037   0.760   4.472   1.671
 8046SOL    HW225038   0.698   4.333   1.613
 8047SOL     OW25039   4.208   5.712   5.542
 8047SOL    HW125040   4.183   5.809   5.540
 8047SOL    HW225041   4.131   5.658   5.577
 8048SOL     OW25042   4.730   2.182   6.740
 8048SOL    HW125043   4.784   2.120   6.683
 8048SOL    HW225044   4.755   2.276   6.718
 8049SOL     OW25045   0.791   0.129   0.043
 8049SOL    HW125046   0.725   0.177   0.102
 8049SOL    HW225047   0.860   0.086   0.100
 8050SOL     OW25048   2.048   3.372   3.559
 8050SOL    HW125049   2.101   3.303   3.607
 8050SOL    HW225050   2.011   3.333   3.475
 8051SOL     OW25051   4.644   5.523   4.238
 8051SOL    HW125052   4.668   5.460   4.312
 8051SOL    HW225053   4.696   5.500   4.156
 8052SOL     OW25054   3.329   1.053   0.388
 8052SOL    HW125055   3.418   1.007   0.382
 8052SOL    HW225056   3.341   1.151   0.369
 8053SOL     OW25057   3.184   3.061   4.173
 8053SOL    HW125058   3.142   2.970   4.172
 8053SOL    HW225059   3.195   3.093   4.079
 8054SOL     OW25060   6.291   4.851   4.825
 8054SOL    HW125061   6.313   4.754   4.824
 8054SOL    HW225062   6.213   4.867   4.886
 8055SOL     OW25063   0.657   0.171   5.262
 8055SOL    HW125064   0.747   0.137   5.235
 8055SOL    HW225065   0.625   0.238   5.195
 8056SOL     OW25066   2.108   1.220   3.509
 8056SOL    HW125067   2.143   1.127   3.499
 8056SOL    HW225068   2.185   1.285   3.505
 8057SOL     OW25069   3.183   2.013   2.970
 8057SOL    HW125070   3.179   2.040   2.874
 8057SOL    HW225071   3.143   2.085   3.027
 8058SOL     OW25072   3.757   0.162   3.389
 8058SOL    HW125073   3.697   0.088   3.420
 8058SOL    HW225074   3.710   0.216   3.320
 8059SOL     OW25075   2.754   1.841   4.466
 8059SOL    HW125076   2.710   1.798   4.386
 8059SOL    HW225077   2.786   1.769   4.528
 8060SOL     OW25078   6.577   2.120   6.039
 8060SOL    HW125079   6.506   2.190   6.027
 8060SOL    HW225080   6.666   2.159   6.018
 8061SOL     OW25081   7.015   0.324   2.751
 8061SOL    HW125082   0.056   0.269   2.689
 8061SOL    HW225083   0.058   0.374   2.814
 8062SOL     OW25084   3.308   4.978   4.581
 8062SOL    HW125085   3.244   5.040   4.535
 8062SOL    HW225086   3.299   4.987   4.680
 8063SOL     OW25087   2.206   2.278   2.458
 8063SOL    HW125088   2.192   2.362   2.511
 8063SOL    HW225089   2.253   2.211   2.515
 8064SOL     OW25090   6.496   2.590   1.095
 8064SOL    HW125091   6.482   2.623   1.002
 8064SOL    HW225092   6.589   2.554   1.105
 8065SOL     OW25093   2.682   5.760   4.286
 8065SOL    HW125094   2.632   5.816   4.219
 8065SOL    HW225095   2.679   5.664   4.257
 8066SOL     OW25096   0.502   1.479   5.387
 8066SOL    HW125097   0.558   1.562   5.396
 8066SOL    HW225098   0.407   1.500   5.409
 8067SOL     OW25099   5.049   2.537   2.756
 8067SOL    HW125100   4.998   2.472   2.700
 8067SOL    HW225101   4.987   2.608   2.789
 8068SOL     OW25102   0.023   4.490   1.416
 8068SOL    HW125103   0.032   4.417   1.349
 8068SOL    HW225104   0.069   4.463   1.501
 8069SOL     OW25105   2.368   5.710   0.820
 8069SOL    HW125106   2.322   5.795   0.793
 8069SOL    HW225107   2.341   5.636   0.758
 8070SOL     OW25108   4.210   3.603   1.071
 8070SOL    HW125109   4.206   3.515   1.119
 8070SOL    HW225110   4.148   3.668   1.115
 8071SOL     OW25111   3.354   6.759   4.725
 8071SOL    HW125112   3.276   6.821   4.710
 8071SOL    HW225113   3.387   6.771   4.819
 8072SOL     OW25114   4.225   1.451   0.754
 8072SOL    HW125115   4.197   1.389   0.828
 8072SOL    HW225116   4.319   1.429   0.726
 8073SOL     OW25117   2.887   5.110   5.328
 8073SOL    HW125118   2.950   5.055   5.273
 8073SOL    HW225119   2.933   5.141   5.411
 8074SOL     OW25120   3.109   2.633   0.954
 8074SOL    HW125121   3.186   2.594   0.903
 8074SOL    HW225122   3.143   2.704   1.016
 8075SOL     OW25123   6.922   6.815   0.469
 8075SOL    HW125124   6.975   6.755   0.409
 8075SOL    HW225125   6.934   6.910   0.441
 8076SOL     OW25126   6.244   0.740   5.344
 8076SOL    HW125127   6.166   0.803   5.340
 8076SOL    HW225128   6.311   0.766   5.275
 8077SOL     OW25129   3.170   6.511   2.659
 8077SOL    HW125130   3.111   6.432   2.642
 8077SOL    HW225131   3.235   6.521   2.584
 8078SOL     OW25132   6.944   1.903   0.262
 8078SOL    HW125133   0.019   1.909   0.301
 8078SOL    HW225134   6.921   1.989   0.216
 8079SOL     OW25135   5.963   1.531   3.611
 8079SOL    HW125136   5.976   1.440   3.651
 8079SOL    HW225137   5.946   1.597   3.684
 8080SOL     OW25138   1.176   2.901   1.849
 8080SOL    HW125139   1.228   2.821   1.878
 8080SOL    HW225140   1.178   2.971   1.921
 8081SOL     OW25141   6.327   5.605   5.682
 8081SOL    HW125142   6.391   5.597   5.758
 8081SOL    HW225143   6.355   5.543   5.609
 8082SOL     OW25144   4.118   6.892   2.375
 8082SOL    HW125145   4.059   6.900   2.455
 8082SOL    HW225146   4.211   6.867   2.404
 8083SOL     OW25147   5.007   2.718   3.046
 8083SOL    HW125148   4.952   2.749   2.969
 8083SOL    HW225149   4.998   2.619   3.056
 8084SOL     OW25150   3.581   6.623   0.374
 8084SOL    HW125151   3.552   6.588   0.285
 8084SOL    HW225152   3.680   6.621   0.380
 8085SOL     OW25153   6.486   6.480   2.103
 8085SOL    HW125154   6.440   6.394   2.079
 8085SOL    HW225155   6.571   6.460   2.150
 8086SOL     OW25156   6.207   0.777   2.314
 8086SOL    HW125157   6.203   0.874   2.336
 8086SOL    HW225158   6.145   0.757   2.238
 8087SOL     OW25159   2.266   0.549   0.364
 8087SOL    HW125160   2.270   0.479   0.434
 8087SOL    HW225161   2.323   0.626   0.389
 8088SOL     OW25162   6.155   1.300   1.488
 8088SOL    HW125163   6.119   1.214   1.524
 8088SOL    HW225164   6.147   1.371   1.558
 8089SOL     OW25165   5.799   2.842   0.648
 8089SOL    HW125166   5.708   2.838   0.607
 8089SOL    HW225167   5.835   2.749   0.657
 8090SOL     OW25168   4.523   1.942   0.134
 8090SOL    HW125169   4.428   1.921   0.157
 8090SOL    HW225170   4.526   1.988   0.045
 8091SOL     OW25171   2.134   4.144   4.830
 8091SOL    HW125172   2.047   4.095   4.834
 8091SOL    HW225173   2.206   4.088   4.872
 8092SOL     OW25174   5.587   2.144   4.923
 8092SOL    HW125175   5.676   2.136   4.969
 8092SOL    HW225176   5.597   2.201   4.842
 8093SOL     OW25177   4.249   4.690   3.169
 8093SOL    HW125178   4.153   4.681   3.193
 8093SOL    HW225179   4.259   4.755   3.094
 8094SOL     OW25180   1.011   3.171   4.521
 8094SOL    HW125181   1.077   3.137   4.455
 8094SOL    HW225182   0.957   3.095   4.557
 8095SOL     OW25183   0.214   4.843   4.375
 8095SOL    HW125184   0.267   4.817   4.456
 8095SOL    HW225185   0.258   4.922   4.331
 8096SOL     OW25186   1.750   6.942   3.312
 8096SOL    HW125187   1.802   0.011   3.310
 8096SOL    HW225188   1.737   6.909   3.218
 8097SOL     OW25189   4.257   7.014   4.277
 8097SOL    HW125190   4.191   0.015   4.351
 8097SOL    HW225191   4.292   6.921   4.285
 8098SOL     OW25192   1.807   6.326   3.027
 8098SOL    HW125193   1.711   6.336   3.052
 8098SOL    HW225194   1.863   6.377   3.093
 8099SOL     OW25195   3.907   6.172   4.878
 8099SOL    HW125196   3.946   6.158   4.787
 8099SOL    HW225197   3.831   6.236   4.871
 8100SOL     OW25198   0.202   0.645   0.194
 8100SOL    HW125199   0.251   0.615   0.275
 8100SOL    HW225200   0.129   0.708   0.220
 8101SOL     OW25201   1.797   5.948   2.232
 8101SOL    HW125202   1.864   5.934   2.304
 8101SOL    HW225203   1.816   6.034   2.185
 8102SOL     OW25204   0.726   4.186   3.670
 8102SOL    HW125205   0.662   4.177   3.746
 8102SOL    HW225206   0.820   4.184   3.705
 8103SOL     OW25207   2.760   6.927   1.587
 8103SOL    HW125208   2.673   6.934   1.636
 8103SOL    HW225209   2.804   0.001   1.584
 8104SOL     OW25210   2.230   0.628   5.719
 8104SOL    HW125211   2.230   0.674   5.808
 8104SOL    HW225212   2.178   0.543   5.726
 8105SOL     OW25213   0.751   3.096   3.323
 8105SOL    HW125214   0.751   3.140   3.413
 8105SOL    HW225215   0.659   3.064   3.302
 8106SOL     OW25216   3.041   6.180   3.060
 8106SOL    HW125217   3.128   6.213   3.023
 8106SOL    HW225218   3.057   6.099   3.116
 8107SOL     OW25219   1.098   5.021   4.583
 8107SOL    HW125220   1.115   5.046   4.679
 8107SOL    HW225221   1.001   5.036   4.562
 8108SOL     OW25222   6.027   3.044   5.480
 8108SOL    HW125223   6.072   3.105   5.545
 8108SOL    HW225224   6.096   3.005   5.418
 8109SOL     OW25225   0.474   3.913   4.626
 8109SOL    HW125226   0.432   3.915   4.717
 8109SOL    HW225227   0.458   3.823   4.585
 8110SOL     OW25228   3.923   5.948   1.639
 8110SOL    HW125229   3.859   5.986   1.705
 8110SOL    HW225230   3.908   5.991   1.550
 8111SOL     OW25231   5.281   1.306   4.938
 8111SOL    HW125232   5.348   1.356   4.992
 8111SOL    HW225233   5.241   1.233   4.993
 8112SOL     OW25234   2.750   2.009   4.022
 8112SOL    HW125235   2.692   2.086   4.049
 8112SOL    HW225236   2.703   1.923   4.043
 8113SOL     OW25237   1.849   3.869   0.298
 8113SOL    HW125238   1.806   3.831   0.216
 8113SOL    HW225239   1.854   3.799   0.369
 8114SOL     OW25240   1.507   4.149   3.151
 8114SOL    HW125241   1.555   4.124   3.067
 8114SOL    HW225242   1.414   4.179   3.128
 8115SOL     OW25243   3.745   0.223   0.233
 8115SOL    HW125244   3.735   0.314   0.273
 8115SOL    HW225245   3.776   0.231   0.138
 8116SOL     OW25246   4.407   4.844   5.931
 8116SOL    HW125247   4.376   4.774   5.867
 8116SOL    HW225248   4.496   4.819   5.968
 8117SOL     OW25249   2.254   0.089   3.249
 8117SOL    HW125250   2.269   0.052   3.157
 8117SOL    HW225251   2.155   0.100   3.265
 8118SOL     OW25252   5.193   4.332   6.474
 8118SOL    HW125253   5.132   4.350   6.397
 8118SOL    HW225254   5.288   4.342   6.445
 8119SOL     OW25255   5.170   5.806   6.206
 8119SOL    HW125256   5.074   5.779   6.206
 8119SOL    HW225257   5.222   5.746   6.145
 8120SOL     OW25258   3.105   5.064   0.721
 8120SOL    HW125259   3.135   5.156   0.748
 8120SOL    HW225260   3.057   5.070   0.633
 8121SOL     OW25261   0.059   5.162   2.338
 8121SOL    HW125262   0.058   5.070   2.298
 8121SOL    HW225263   0.153   5.189   2.359
 8122SOL     OW25264   0.481   5.545   3.360
 8122SOL    HW125265   0.569   5.519   3.321
 8122SOL    HW225266   0.409   5.538   3.291
 8123SOL     OW25267   0.259   1.688   6.507
 8123SOL    HW125268   0.217   1.644   6.586
 8123SOL    HW225269   0.188   1.716   6.442
 8124SOL     OW25270   5.689   6.294   1.475
 8124SOL    HW125271   5.678   6.198   1.451
 8124SOL    HW225272   5.770   6.331   1.430
 8125SOL     OW25273   1.521   1.504   3.148
 8125SOL    HW125274   1.610   1.494   3.194
 8125SOL    HW225275   1.507   1.600   3.124
 8126SOL     OW25276   4.429   4.614   2.399
 8126SOL    HW125277   4.442   4.520   2.366
 8126SOL    HW225278   4.429   4.615   2.499
 8127SOL     OW25279   2.681   4.285   6.386
 8127SOL    HW125280   2.591   4.310   6.421
 8127SOL    HW225281   2.751   4.307   6.454
 8128SOL     OW25282   2.463   1.329   1.580
 8128SOL    HW125283   2.399   1.402   1.558
 8128SOL    HW225284   2.504   1.347   1.670
 8129SOL     OW25285   4.278   0.205   6.337
 8129SOL    HW125286   4.241   0.197   6.429
 8129SOL    HW225287   4.247   0.128   6.281
 8130SOL     OW25288   0.329   3.322   6.639
 8130SOL    HW125289   0.377   3.261   6.702
 8130SOL    HW225290   0.361   3.306   6.546
 8131SOL     OW25291   2.677   1.857   1.000
 8131SOL    HW125292   2.774   1.862   0.979
 8131SOL    HW225293   2.624   1.878   0.917
 8132SOL     OW25294   6.016   6.789   6.061
 8132SOL    HW125295   6.113   6.786   6.034
 8132SOL    HW225296   5.988   6.883   6.076
 8133SOL     OW25297   3.012   5.331   1.744
 8133SOL    HW125298   2.917   5.301   1.747
 8133SOL    HW225299   3.067   5.275   1.805
 8134SOL     OW25300   6.508   2.954   5.925
 8134SOL    HW125301   6.570   2.878   5.944
 8134SOL    HW225302   6.463   2.939   5.837
 8135SOL     OW25303   2.649   6.699   1.471
 8135SOL    HW125304   2.736   6.660   1.440
 8135SOL    HW225305   2.666   6.786   1.516
 8136SOL     OW25306   4.410   5.492   3.230
 8136SOL    HW125307   4.411   5.568   3.165
 8136SOL    HW225308   4.488   5.500   3.292
 8137SOL     OW25309   3.141   2.034   5.176
 8137SOL    HW125310   3.202   1.968   5.131
 8137SOL    HW225311   3.161   2.126   5.143
 8138SOL     OW25312   5.391   1.419   0.454
 8138SOL    HW125313   5.303   1.466   0.455
 8138SOL    HW225314   5.399   1.365   0.370
 8139SOL     OW25315   0.204   1.692   2.202
 8139SOL    HW125316   0.148   1.713   2.121
 8139SOL    HW225317   0.149   1.706   2.284
 8140SOL     OW25318   4.980   0.457   0.345
 8140SOL    HW125319   4.937   0.542   0.375
 8140SOL    HW225320   5.057   0.436   0.405
 8141SOL     OW25321   4.728   5.946   5.015
 8141SOL    HW125322   4.678   5.860   5.006
 8141SOL    HW225323   4.682   6.017   4.961
 8142SOL     OW25324   0.874   5.659   6.810
 8142SOL    HW125325   0.970   5.645   6.787
 8142SOL    HW225326   0.857   5.757   6.822
 8143SOL     OW25327   5.989   4.223   1.325
 8143SOL    HW125328   6.038   4.142   1.356
 8143SOL    HW225329   6.010   4.300   1.386
 8144SOL     OW25330   6.125   5.903   6.322
 8144SOL    HW125331   6.028   5.916   6.302
 8144SOL    HW225332   6.137   5.885   6.419
 8145SOL     OW25333   5.784   5.666   1.527
 8145SOL    HW125334   5.708   5.731   1.532
 8145SOL    HW225335   5.754   5.578   1.563
 8146SOL     OW25336   4.890   0.243   4.572
 8146SOL    HW125337   4.869   0.294   4.488
 8146SOL    HW225338   4.949   0.299   4.631
 8147SOL     OW25339   6.302   1.681   1.128
 8147SOL    HW125340   6.242   1.701   1.051
 8147SOL    HW225341   6.303   1.582   1.145
 8148SOL     OW25342   5.125   4.399   1.132
 8148SOL    HW125343   5.150   4.401   1.035
 8148SOL    HW225344   5.207   4.381   1.187
 8149SOL     OW25345   3.216   6.266   2.043
 8149SOL    HW125346   3.130   6.238   2.087
 8149SOL    HW225347   3.226   6.365   2.048
 8150SOL     OW25348   1.493   3.751   0.748
 8150SOL    HW125349   1.450   3.689   0.683
 8150SOL    HW225350   1.555   3.813   0.700
 8151SOL     OW25351   5.697   2.508   1.427
 8151SOL    HW125352   5.675   2.598   1.389
 8151SOL    HW225353   5.713   2.516   1.525
 8152SOL     OW25354   6.849   2.296   2.516
 8152SOL    HW125355   6.813   2.290   2.423
 8152SOL    HW225356   6.938   2.340   2.515
 8153SOL     OW25357   2.262   0.592   3.531
 8153SOL    HW125358   2.287   0.661   3.463
 8153SOL    HW225359   2.163   0.578   3.530
 8154SOL     OW25360   3.013   5.116   2.140
 8154SOL    HW125361   3.069   5.034   2.132
 8154SOL    HW225362   2.942   5.115   2.070
 8155SOL     OW25363   1.597   3.777   1.884
 8155SOL    HW125364   1.575   3.753   1.979
 8155SOL    HW225365   1.689   3.745   1.862
 8156SOL     OW25366   4.959   0.186   1.138
 8156SOL    HW125367   4.941   0.193   1.040
 8156SOL    HW225368   4.990   0.275   1.172
 8157SOL     OW25369   6.876   5.371   6.388
 8157SOL    HW125370   6.939   5.435   6.433
 8157SOL    HW225371   6.928   5.300   6.341
 8158SOL     OW25372   4.899   5.234   0.669
 8158SOL    HW125373   4.996   5.210   0.660
 8158SOL    HW225374   4.859   5.244   0.578
 8159SOL     OW25375   3.018   5.741   2.180
 8159SOL    HW125376   2.979   5.652   2.203
 8159SOL    HW225377   2.958   5.789   2.117
 8160SOL     OW25378   5.283   0.842   3.550
 8160SOL    HW125379   5.283   0.755   3.598
 8160SOL    HW225380   5.285   0.825   3.451
 8161SOL     OW25381   5.251   1.674   6.498
 8161SOL    HW125382   5.296   1.585   6.505
 8161SOL    HW225383   5.160   1.668   6.540
 8162SOL     OW25384   6.116   5.876   5.883
 8162SOL    HW125385   6.145   5.876   5.787
 8162SOL    HW225386   6.194   5.855   5.941
 8163SOL     OW25387   2.550   4.013   5.377
 8163SOL    HW125388   2.609   3.934   5.391
 8163SOL    HW225389   2.505   4.007   5.288
 8164SOL     OW25390   5.007   3.308   0.720
 8164SOL    HW125391   5.047   3.399   0.717
 8164SOL    HW225392   4.951   3.298   0.802
 8165SOL     OW25393   1.252   3.997   6.576
 8165SOL    HW125394   1.166   3.979   6.625
 8165SOL    HW225395   1.263   3.928   6.505
 8166SOL     OW25396   1.592   0.456   2.470
 8166SOL    HW125397   1.638   0.538   2.437
 8166SOL    HW225398   1.505   0.481   2.513
 8167SOL     OW25399   5.925   6.895   4.676
 8167SOL    HW125400   5.868   6.926   4.600
 8167SOL    HW225401   5.890   6.809   4.712
 8168SOL     OW25402   2.258   1.782   3.444
 8168SOL    HW125403   2.213   1.774   3.355
 8168SOL    HW225404   2.238   1.701   3.499
 8169SOL     OW25405   5.314   2.128   1.221
 8169SOL    HW125406   5.302   2.118   1.319
 8169SOL    HW225407   5.236   2.087   1.173
 8170SOL     OW25408   1.419   5.369   2.678
 8170SOL    HW125409   1.398   5.455   2.632
 8170SOL    HW225410   1.402   5.293   2.616
 8171SOL     OW25411   1.346   1.788   6.918
 8171SOL    HW125412   1.369   1.871   6.969
 8171SOL    HW225413   1.349   1.807   6.820
 8172SOL     OW25414   0.728   1.995   1.911
 8172SOL    HW125415   0.636   2.025   1.937
 8172SOL    HW225416   0.728   1.897   1.893
 8173SOL     OW25417   4.744   1.244   2.207
 8173SOL    HW125418   4.723   1.164   2.150
 8173SOL    HW225419   4.712   1.227   2.300
 8174SOL     OW25420   6.002   3.155   0.951
 8174SOL    HW125421   5.932   3.107   1.004
 8174SOL    HW225422   5.993   3.130   0.855
 8175SOL     OW25423   7.013   3.259   6.253
 8175SOL    HW125424   0.036   3.300   6.335
 8175SOL    HW225425   6.914   3.247   6.265
 8176SOL     OW25426   3.104   5.400   2.133
 8176SOL    HW125427   3.108   5.300   2.141
 8176SOL    HW225428   3.024   5.434   2.183
 8177SOL     OW25429   2.623   6.070   3.859
 8177SOL    HW125430   2.706   6.078   3.915
 8177SOL    HW225431   2.617   6.149   3.798
 8178SOL     OW25432   2.917   5.744   6.650
 8178SOL    HW125433   2.926   5.728   6.748
 8178SOL    HW225434   3.000   5.789   6.616
 8179SOL     OW25435   4.834   2.299   5.997
 8179SOL    HW125436   4.741   2.306   6.032
 8179SOL    HW225437   4.880   2.387   6.006
 8180SOL     OW25438   6.203   0.215   4.951
 8180SOL    HW125439   6.123   0.190   4.897
 8180SOL    HW225440   6.251   0.291   4.907
 8181SOL     OW25441   2.133   1.375   1.634
 8181SOL    HW125442   2.181   1.456   1.601
 8181SOL    HW225443   2.197   1.316   1.684
 8182SOL     OW25444   3.953   3.148   6.150
 8182SOL    HW125445   3.866   3.196   6.140
 8182SOL    HW225446   4.003   3.152   6.064
 8183SOL     OW25447   0.234   2.603   4.751
 8183SOL    HW125448   0.150   2.583   4.700
 8183SOL    HW225449   0.210   2.628   4.845
 8184SOL     OW25450   5.257   1.992   6.025
 8184SOL    HW125451   5.163   2.020   6.041
 8184SOL    HW225452   5.281   2.012   5.929
 8185SOL     OW25453   2.369   6.522   0.246
 8185SOL    HW125454   2.369   6.426   0.217
 8185SOL    HW225455   2.353   6.526   0.345
 8186SOL     OW25456   3.483   5.795   6.439
 8186SOL    HW125457   3.552   5.800   6.511
 8186SOL    HW225458   3.392   5.789   6.480
 8187SOL     OW25459   1.469   2.131   5.616
 8187SOL    HW125460   1.551   2.179   5.647
 8187SOL    HW225461   1.392   2.156   5.675
 8188SOL     OW25462   5.802   2.723   2.008
 8188SOL    HW125463   5.897   2.733   1.977
 8188SOL    HW225464   5.793   2.762   2.099
 8189SOL     OW25465   4.403   4.891   2.805
 8189SOL    HW125466   4.333   4.887   2.877
 8189SOL    HW225467   4.493   4.874   2.845
 8190SOL     OW25468   4.148   5.083   4.012
 8190SOL    HW125469   4.074   5.132   4.059
 8190SOL    HW225470   4.223   5.068   4.075
 8191SOL     OW25471   3.345   6.380   2.864
 8191SOL    HW125472   3.288   6.453   2.826
 8191SOL    HW225473   3.427   6.370   2.808
 8192SOL     OW25474   3.585   5.784   0.790
 8192SOL    HW125475   3.597   5.735   0.705
 8192SOL    HW225476   3.569   5.881   0.771
 8193SOL     OW25477   6.580   6.759   4.262
 8193SOL    HW125478   6.571   6.839   4.321
 8193SOL    HW225479   6.674   6.754   4.228
 8194SOL     OW25480   5.877   2.518   1.007
 8194SOL    HW125481   5.975   2.536   1.013
 8194SOL    HW225482   5.851   2.452   1.078
 8195SOL     OW25483   1.111   0.335   1.027
 8195SOL    HW125484   1.159   0.320   1.114
 8195SOL    HW225485   1.078   0.247   0.992
 8196SOL     OW25486   3.670   0.311   5.163
 8196SOL    HW125487   3.589   0.347   5.117
 8196SOL    HW225488   3.706   0.380   5.226
 8197SOL     OW25489   4.318   1.284   6.250
 8197SOL    HW125490   4.305   1.291   6.151
 8197SOL    HW225491   4.333   1.188   6.275
 8198SOL     OW25492   3.245   5.949   3.432
 8198SOL    HW125493   3.187   5.976   3.509
 8198SOL    HW225494   3.191   5.894   3.368
 8199SOL     OW25495   6.279   3.131   6.451
 8199SOL    HW125496   6.358   3.146   6.511
 8199SOL    HW225497   6.196   3.134   6.506
 8200SOL     OW25498   4.268   3.888   1.631
 8200SOL    HW125499   4.269   3.987   1.648
 8200SOL    HW225500   4.184   3.848   1.669
 8201SOL     OW25501   6.004   1.241   4.234
 8201SOL    HW125502   6.001   1.159   4.178
 8201SOL    HW225503   5.914   1.257   4.274
 8202SOL     OW25504   0.599   5.349   4.234
 8202SOL    HW125505   0.591   5.391   4.143
 8202SOL    HW225506   0.542   5.398   4.299
 8203SOL     OW25507   5.020   2.335   0.922
 8203SOL    HW125508   4.924   2.312   0.903
 8203SOL    HW225509   5.071   2.250   0.936
 8204SOL     OW25510   2.962   5.432   0.892
 8204SOL    HW125511   2.937   5.337   0.910
 8204SOL    HW225512   2.907   5.467   0.816
 8205SOL     OW25513   0.168   4.899   1.283
 8205SOL    HW125514   0.234   4.946   1.223
 8205SOL    HW225515   0.096   4.962   1.310
 8206SOL     OW25516   4.198   2.909   5.956
 8206SOL    HW125517   4.138   2.863   5.891
 8206SOL    HW225518   4.199   3.007   5.937
 8207SOL     OW25519   3.854   4.222   5.082
 8207SOL    HW125520   3.847   4.140   5.139
 8207SOL    HW225521   3.893   4.197   4.993
 8208SOL     OW25522   1.785   6.821   1.725
 8208SOL    HW125523   1.827   6.860   1.643
 8208SOL    HW225524   1.855   6.807   1.795
 8209SOL     OW25525   1.179   1.461   6.050
 8209SOL    HW125526   1.191   1.556   6.080
 8209SOL    HW225527   1.260   1.430   6.000
 8210SOL     OW25528   2.936   0.911   1.314
 8210SOL    HW125529   3.029   0.884   1.340
 8210SOL    HW225530   2.872   0.882   1.385
 8211SOL     OW25531   3.417   3.746   3.341
 8211SOL    HW125532   3.367   3.675   3.391
 8211SOL    HW225533   3.515   3.738   3.360
 8212SOL     OW25534   3.381   1.721   0.908
 8212SOL    HW125535   3.315   1.706   0.834
 8212SOL    HW225536   3.474   1.716   0.870
 8213SOL     OW25537   5.154   4.789   2.161
 8213SOL    HW125538   5.081   4.734   2.122
 8213SOL    HW225539   5.119   4.880   2.185
 8214SOL     OW25540   1.430   5.752   4.272
 8214SOL    HW125541   1.447   5.845   4.302
 8214SOL    HW225542   1.337   5.725   4.298
 8215SOL     OW25543   3.770   5.220   6.659
 8215SOL    HW125544   3.865   5.251   6.652
 8215SOL    HW225545   3.708   5.295   6.636
 8216SOL     OW25546   4.789   6.191   3.340
 8216SOL    HW125547   4.811   6.104   3.296
 8216SOL    HW225548   4.833   6.265   3.291
 8217SOL     OW25549   2.196   3.887   2.377
 8217SOL    HW125550   2.168   3.810   2.320
 8217SOL    HW225551   2.214   3.855   2.470
 8218SOL     OW25552   1.178   6.734   4.279
 8218SOL    HW125553   1.223   6.645   4.283
 8218SOL    HW225554   1.091   6.730   4.328
 8219SOL     OW25555   3.839   3.673   1.576
 8219SOL    HW125556   3.803   3.637   1.662
 8219SOL    HW225557   3.862   3.598   1.515
 8220SOL     OW25558   3.259   3.946   5.281
 8220SOL    HW125559   3.161   3.961   5.273
 8220SOL    HW225560   3.282   3.928   5.376
 8221SOL     OW25561   6.402   5.210   3.463
 8221SOL    HW125562   6.459   5.177   3.538
 8221SOL    HW225563   6.457   5.268   3.403
 8222SOL     OW25564   5.003   2.046   1.455
 8222SOL    HW125565   5.101   2.061   1.444
 8222SOL    HW225566   4.985   1.948   1.459
 8223SOL     OW25567   0.332   4.544   5.921
 8223SOL    HW125568   0.320   4.453   5.883
 8223SOL    HW225569   0.296   4.613   5.858
 8224SOL     OW25570   5.294   2.089   1.497
 8224SOL    HW125571   5.354   2.145   1.554
 8224SOL    HW225572   5.330   1.996   1.492
 8225SOL     OW25573   3.406   1.463   1.273
 8225SOL    HW125574   3.480   1.414   1.320
 8225SOL    HW225575   3.433   1.558   1.260
 8226SOL     OW25576   3.354   0.328   0.366
 8226SOL    HW125577   3.351   0.423   0.399
 8226SOL    HW225578   3.263   0.300   0.338
 8227SOL     OW25579   0.451   1.687   2.286
 8227SOL    HW125580   0.490   1.778   2.300
 8227SOL    HW225581   0.356   1.695   2.257
 8228SOL     OW25582   1.223   1.517   5.589
 8228SOL    HW125583   1.125   1.497   5.592
 8228SOL    HW225584   1.261   1.511   5.682
 8229SOL     OW25585   3.822   4.620   1.307
 8229SOL    HW125586   3.820   4.524   1.278
 8229SOL    HW225587   3.735   4.664   1.287
 8230SOL     OW25588   3.860   6.971   5.536
 8230SOL    HW125589   3.765   7.000   5.546
 8230SOL    HW225590   3.908   0.016   5.473
 8231SOL     OW25591   3.465   2.333   1.681
 8231SOL    HW125592   3.546   2.348   1.737
 8231SOL    HW225593   3.409   2.261   1.722
 8232SOL     OW25594   5.694   1.971   1.949
 8232SOL    HW125595   5.777   1.969   2.005
 8232SOL    HW225596   5.672   1.879   1.918
 8233SOL     OW25597   1.391   6.956   6.331
 8233SOL    HW125598   1.382   6.931   6.235
 8233SOL    HW225599   1.386   6.875   6.388
 8234SOL     OW25600   2.758   3.664   0.065
 8234SOL    HW125601   2.843   3.672   0.118
 8234SOL    HW225602   2.735   3.567   0.055
 8235SOL     OW25603   0.274   3.603   6.966
 8235SOL    HW125604   0.240   3.689   7.004
 8235SOL    HW225605   0.206   3.566   6.902
 8236SOL     OW25606   0.235   5.059   6.410
 8236SOL    HW125607   0.138   5.037   6.398
 8236SOL    HW225608   0.278   5.070   6.320
 8237SOL     OW25609   4.695   6.383   6.467
 8237SOL    HW125610   4.761   6.371   6.393
 8237SOL    HW225611   4.637   6.462   6.448
 8238SOL     OW25612   0.257   6.224   6.906
 8238SOL    HW125613   0.252   6.130   6.870
 8238SOL    HW225614   0.297   6.284   6.837
 8239SOL     OW25615   0.968   0.870   4.685
 8239SOL    HW125616   0.900   0.824   4.627
 8239SOL    HW225617   1.005   0.804   4.751
 8240SOL     OW25618   3.120   3.993   3.323
 8240SOL    HW125619   3.080   4.011   3.413
 8240SOL    HW225620   3.220   3.986   3.331
 8241SOL     OW25621   2.451   4.600   6.083
 8241SOL    HW125622   2.534   4.648   6.111
 8241SOL    HW225623   2.375   4.627   6.143
 8242SOL     OW25624   0.558   3.614   4.662
 8242SOL    HW125625   0.656   3.630   4.675
 8242SOL    HW225626   0.509   3.642   4.745
 8243SOL     OW25627   6.752   3.486   0.908
 8243SOL    HW125628   6.735   3.566   0.850
 8243SOL    HW225629   6.666   3.440   0.928
 8244SOL     OW25630   0.346   0.304   4.517
 8244SOL    HW125631   0.339   0.209   4.548
 8244SOL    HW225632   0.261   0.352   4.538
 8245SOL     OW25633   3.922   1.749   2.937
 8245SOL    HW125634   3.863   1.829   2.924
 8245SOL    HW225635   3.866   1.671   2.965
 8246SOL     OW25636   0.354   4.796   6.633
 8246SOL    HW125637   0.337   4.881   6.583
 8246SOL    HW225638   0.452   4.787   6.650
 8247SOL     OW25639   2.140   6.560   3.634
 8247SOL    HW125640   2.202   6.632   3.603
 8247SOL    HW225641   2.057   6.601   3.671
 8248SOL     OW25642   0.656   4.817   5.289
 8248SOL    HW125643   0.724   4.756   5.247
 8248SOL    HW225644   0.588   4.762   5.337
 8249SOL     OW25645   2.048   1.291   5.629
 8249SOL    HW125646   2.114   1.222   5.597
 8249SOL    HW225647   1.967   1.290   5.571
 8250SOL     OW25648   3.273   2.239   1.146
 8250SOL    HW125649   3.248   2.145   1.121
 8250SOL    HW225650   3.197   2.281   1.197
 8251SOL     OW25651   5.464   1.190   4.528
 8251SOL    HW125652   5.502   1.234   4.447
 8251SOL    HW225653   5.380   1.141   4.503
 8252SOL     OW25654   3.932   1.938   0.043
 8252SOL    HW125655   3.898   2.022   0.084
 8252SOL    HW225656   3.972   1.879   0.114
 8253SOL     OW25657   3.826   5.439   0.180
 8253SOL    HW125658   3.797   5.436   0.084
 8253SOL    HW225659   3.796   5.356   0.227
 8254SOL     OW25660   5.024   4.434   5.448
 8254SOL    HW125661   5.095   4.408   5.513
 8254SOL    HW225662   5.060   4.503   5.385
 8255SOL     OW25663   1.176   0.148   5.895
 8255SOL    HW125664   1.141   0.112   5.981
 8255SOL    HW225665   1.181   0.248   5.900
 8256SOL     OW25666   6.795   6.398   3.084
 8256SOL    HW125667   6.743   6.400   2.998
 8256SOL    HW225668   6.807   6.491   3.118
 8257SOL     OW25669   5.525   4.322   4.196
 8257SOL    HW125670   5.598   4.387   4.177
 8257SOL    HW225671   5.436   4.364   4.179
 8258SOL     OW25672   4.721   3.046   1.630
 8258SOL    HW125673   4.684   3.029   1.722
 8258SOL    HW225674   4.820   3.057   1.635
 8259SOL     OW25675   3.768   2.144   5.508
 8259SOL    HW125676   3.682   2.110   5.546
 8259SOL    HW225677   3.843   2.088   5.541
 8260SOL     OW25678   1.584   6.291   1.716
 8260SOL    HW125679   1.552   6.206   1.756
 8260SOL    HW225680   1.550   6.369   1.769
 8261SOL     OW25681   5.415   6.463   3.479
 8261SOL    HW125682   5.489   6.430   3.420
 8261SOL    HW225683   5.421   6.420   3.569
 8262SOL     OW25684   0.664   4.522   0.629
 8262SOL    HW125685   0.708   4.440   0.666
 8262SOL    HW225686   0.666   4.519   0.529
 8263SOL     OW25687   6.616   3.160   6.802
 8263SOL    HW125688   6.695   3.221   6.794
 8263SOL    HW225689   6.570   3.177   6.889
 8264SOL     OW25690   0.703   6.777   1.639
 8264SOL    HW125691   0.617   6.732   1.664
 8264SOL    HW225692   0.778   6.711   1.647
 8265SOL     OW25693   5.097   0.569   1.995
 8265SOL    HW125694   5.033   0.495   2.018
 8265SOL    HW225695   5.091   0.589   1.897
 8266SOL     OW25696   2.512   0.829   4.554
 8266SOL    HW125697   2.512   0.733   4.581
 8266SOL    HW225698   2.600   0.852   4.513
 8267SOL     OW25699   1.291   4.527   1.610
 8267SOL    HW125700   1.304   4.443   1.557
 8267SOL    HW225701   1.346   4.600   1.570
 8268SOL     OW25702   3.759   5.393   6.199
 8268SOL    HW125703   3.765   5.367   6.102
 8268SOL    HW225704   3.756   5.493   6.206
 8269SOL     OW25705   4.215   2.328   2.583
 8269SOL    HW125706   4.284   2.380   2.634
 8269SOL    HW225707   4.249   2.308   2.491
 8270SOL     OW25708   3.186   5.814   5.535
 8270SOL    HW125709   3.207   5.888   5.471
 8270SOL    HW225710   3.105   5.837   5.588
 8271SOL     OW25711   6.461   6.502   3.501
 8271SOL    HW125712   6.362   6.506   3.496
 8271SOL    HW225713   6.498   6.595   3.511
 8272SOL     OW25714   6.753   1.103   2.691
 8272SOL    HW125715   6.824   1.159   2.734
 8272SOL    HW225716   6.787   1.066   2.605
 8273SOL     OW25717   2.960   0.900   6.966
 8273SOL    HW125718   2.951   0.986   6.917
 8273SOL    HW225719   2.947   0.824   6.903
 8274SOL     OW25720   4.131   4.620   5.635
 8274SOL    HW125721   4.079   4.617   5.550
 8274SOL    HW225722   4.069   4.635   5.712
 8275SOL     OW25723   5.821   0.249   4.416
 8275SOL    HW125724   5.920   0.232   4.418
 8275SOL    HW225725   5.797   0.296   4.331
 8276SOL     OW25726   6.540   2.283   5.767
 8276SOL    HW125727   6.635   2.258   5.787
 8276SOL    HW225728   6.483   2.201   5.771
 8277SOL     OW25729   2.092   5.865   5.063
 8277SOL    HW125730   2.182   5.893   5.029
 8277SOL    HW225731   2.021   5.896   5.000
 8278SOL     OW25732   3.221   1.905   6.765
 8278SOL    HW125733   3.187   1.992   6.731
 8278SOL    HW225734   3.309   1.919   6.810
 8279SOL     OW25735   6.482   6.033   5.612
 8279SOL    HW125736   6.510   6.121   5.650
 8279SOL    HW225737   6.562   5.986   5.575
 8280SOL     OW25738   4.138   2.749   0.790
 8280SOL    HW125739   4.042   2.720   0.795
 8280SOL    HW225740   4.158   2.813   0.863
 8281SOL     OW25741   2.129   4.294   2.186
 8281SOL    HW125742   2.072   4.283   2.267
 8281SOL    HW225743   2.213   4.343   2.209
 8282SOL     OW25744   2.395   3.537   6.793
 8282SOL    HW125745   2.418   3.594   6.714
 8282SOL    HW225746   2.474   3.482   6.819
 8283SOL     OW25747   1.536   5.059   4.251
 8283SOL    HW125748   1.578   4.983   4.200
 8283SOL    HW225749   1.551   5.045   4.349
 8284SOL     OW25750   1.439   4.047   2.265
 8284SOL    HW125751   1.483   4.038   2.354
 8284SOL    HW225752   1.489   3.993   2.197
 8285SOL     OW25753   4.007   3.470   5.736
 8285SOL    HW125754   4.038   3.393   5.681
 8285SOL    HW225755   3.993   3.549   5.677
 8286SOL     OW25756   5.423   1.823   4.854
 8286SOL    HW125757   5.522   1.832   4.844
 8286SOL    HW225758   5.379   1.910   4.836
 8287SOL     OW25759   1.102   6.112   3.734
 8287SOL    HW125760   1.128   6.078   3.824
 8287SOL    HW225761   1.132   6.206   3.724
 8288SOL     OW25762   0.767   2.459   2.447
 8288SOL    HW125763   0.831   2.466   2.524
 8288SOL    HW225764   0.678   2.495   2.473
 8289SOL     OW25765   5.657   0.504   6.181
 8289SOL    HW125766   5.756   0.507   6.193
 8289SOL    HW225767   5.636   0.506   6.083
 8290SOL     OW25768   4.689   1.847   1.801
 8290SOL    HW125769   4.688   1.780   1.875
 8290SOL    HW225770   4.784   1.868   1.777
 8291SOL     OW25771   5.938   5.493   6.483
 8291SOL    HW125772   5.841   5.519   6.481
 8291SOL    HW225773   5.989   5.548   6.417
 8292SOL     OW25774   2.646   5.937   6.176
 8292SOL    HW125775   2.693   6.012   6.129
 8292SOL    HW225776   2.643   5.857   6.116
 8293SOL     OW25777   1.463   4.091   1.773
 8293SOL    HW125778   1.382   4.036   1.789
 8293SOL    HW225779   1.538   4.059   1.830
 8294SOL     OW25780   6.357   3.184   4.611
 8294SOL    HW125781   6.272   3.236   4.611
 8294SOL    HW225782   6.388   3.172   4.517
 8295SOL     OW25783   5.180   3.335   2.736
 8295SOL    HW125784   5.089   3.322   2.774
 8295SOL    HW225785   5.176   3.328   2.636
 8296SOL     OW25786   3.399   4.999   0.194
 8296SOL    HW125787   3.466   5.017   0.266
 8296SOL    HW225788   3.397   4.901   0.173
 8297SOL     OW25789   6.459   3.199   2.467
 8297SOL    HW125790   6.469   3.119   2.526
 8297SOL    HW225791   6.433   3.169   2.375
 8298SOL     OW25792   0.078   0.279   0.533
 8298SOL    HW125793   0.162   0.290   0.480
 8298SOL    HW225794   0.093   0.210   0.604
 8299SOL     OW25795   0.618   2.577   0.861
 8299SOL    HW125796   0.648   2.556   0.954
 8299SOL    HW225797   0.536   2.635   0.865
 8300SOL     OW25798   6.689   6.706   4.969
 8300SOL    HW125799   6.770   6.651   4.989
 8300SOL    HW225800   6.662   6.693   4.874
 8301SOL     OW25801   4.760   0.574   6.775
 8301SOL    HW125802   4.838   0.587   6.715
 8301SOL    HW225803   4.691   0.644   6.757
 8302SOL     OW25804   4.766   0.114   5.650
 8302SOL    HW125805   4.757   0.045   5.722
 8302SOL    HW225806   4.863   0.123   5.625
 8303SOL     OW25807   6.888   0.572   3.134
 8303SOL    HW125808   6.985   0.553   3.149
 8303SOL    HW225809   6.877   0.618   3.046
 8304SOL     OW25810   5.537   4.915   1.618
 8304SOL    HW125811   5.550   4.991   1.682
 8304SOL    HW225812   5.441   4.887   1.619
 8305SOL     OW25813   4.347   4.656   4.294
 8305SOL    HW125814   4.260   4.685   4.335
 8305SOL    HW225815   4.404   4.613   4.363
 8306SOL     OW25816   6.523   1.357   3.081
 8306SOL    HW125817   6.493   1.433   3.024
 8306SOL    HW225818   6.522   1.385   3.177
 8307SOL     OW25819   3.218   5.363   1.549
 8307SOL    HW125820   3.175   5.419   1.478
 8307SOL    HW225821   3.160   5.364   1.631
 8308SOL     OW25822   2.103   4.342   0.360
 8308SOL    HW125823   2.140   4.293   0.281
 8308SOL    HW225824   2.177   4.366   0.422
 8309SOL     OW25825   5.661   5.024   2.710
 8309SOL    HW125826   5.716   4.965   2.769
 8309SOL    HW225827   5.639   5.108   2.759
 8310SOL     OW25828   1.320   5.372   0.900
 8310SOL    HW125829   1.362   5.343   0.814
 8310SOL    HW225830   1.387   5.364   0.975
 8311SOL     OW25831   5.501   0.679   4.636
 8311SOL    HW125832   5.433   0.750   4.657
 8311SOL    HW225833   5.486   0.601   4.696
 8312SOL     OW25834   5.718   1.195   6.990
 8312SOL    HW125835   5.651   1.122   6.975
 8312SOL    HW225836   5.811   1.157   6.984
 8313SOL     OW25837   4.928   0.443   5.899
 8313SOL    HW125838   4.858   0.452   5.970
 8313SOL    HW225839   4.917   0.517   5.832
 8314SOL     OW25840   6.044   6.634   6.441
 8314SOL    HW125841   6.068   6.729   6.425
 8314SOL    HW225842   5.959   6.612   6.393
 8315SOL     OW25843   3.985   3.060   2.954
 8315SOL    HW125844   4.051   3.129   2.984
 8315SOL    HW225845   3.927   3.034   3.031
 8316SOL     OW25846   1.782   3.219   0.858
 8316SOL    HW125847   1.689   3.197   0.888
 8316SOL    HW225848   1.812   3.304   0.901
 8317SOL     OW25849   2.411   2.041   3.258
 8317SOL    HW125850   2.425   2.110   3.330
 8317SOL    HW225851   2.322   1.997   3.271
 8318SOL     OW25852   4.182   1.628   5.628
 8318SOL    HW125853   4.096   1.679   5.639
 8318SOL    HW225854   4.254   1.691   5.597
 8319SOL     OW25855   1.748   0.451   0.257
 8319SOL    HW125856   1.770   0.474   0.162
 8319SOL    HW225857   1.743   0.535   0.311
 8320SOL     OW25858   3.359   3.996   3.451
 8320SOL    HW125859   3.348   4.017   3.548
 8320SOL    HW225860   3.394   3.903   3.440
 8321SOL     OW25861   0.065   0.192   6.422
 8321SOL    HW125862   0.050   0.191   6.521
 8321SOL    HW225863   0.037   0.281   6.385
 8322SOL     OW25864   0.235   1.538   0.096
 8322SOL    HW125865   0.240   1.450   0.144
 8322SOL    HW225866   0.140   1.556   0.071
 8323SOL     OW25867   3.360   5.103   1.533
 8323SOL    HW125868   3.289   5.172   1.519
 8323SOL    HW225869   3.321   5.012   1.528
 8324SOL     OW25870   5.224   0.376   0.468
 8324SOL    HW125871   5.245   0.280   0.447
 8324SOL    HW225872   5.307   0.422   0.501
 8325SOL     OW25873   0.511   4.015   5.443
 8325SOL    HW125874   0.594   4.025   5.497
 8325SOL    HW225875   0.517   4.072   5.361
 8326SOL     OW25876   4.169   4.093   6.725
 8326SOL    HW125877   4.182   4.045   6.638
 8326SOL    HW225878   4.103   4.167   6.713
 8327SOL     OW25879   0.918   0.598   5.986
 8327SOL    HW125880   0.902   0.582   6.084
 8327SOL    HW225881   0.990   0.667   5.975
 8328SOL     OW25882   2.511   6.866   6.268
 8328SOL    HW125883   2.449   6.791   6.245
 8328SOL    HW225884   2.599   6.829   6.296
 8329SOL     OW25885   0.390   2.076   5.117
 8329SOL    HW125886   0.325   2.002   5.096
 8329SOL    HW225887   0.447   2.094   5.037
 8330SOL     OW25888   3.552   1.597   6.806
 8330SOL    HW125889   3.566   1.639   6.716
 8330SOL    HW225890   3.596   1.654   6.876
 8331SOL     OW25891   3.199   0.802   0.715
 8331SOL    HW125892   3.175   0.841   0.626
 8331SOL    HW225893   3.117   0.762   0.756
 8332SOL     OW25894   5.419   5.256   1.750
 8332SOL    HW125895   5.473   5.204   1.816
 8332SOL    HW225896   5.322   5.249   1.774
 8333SOL     OW25897   1.840   4.759   6.881
 8333SOL    HW125898   1.934   4.769   6.913
 8333SOL    HW225899   1.837   4.698   6.802
 8334SOL     OW25900   2.775   2.355   5.911
 8334SOL    HW125901   2.776   2.402   5.999
 8334SOL    HW225902   2.864   2.366   5.867
 8335SOL     OW25903   3.557   2.224   0.210
 8335SOL    HW125904   3.520   2.312   0.182
 8335SOL    HW225905   3.582   2.171   0.128
 8336SOL     OW25906   0.979   4.115   2.908
 8336SOL    HW125907   0.903   4.140   2.968
 8336SOL    HW225908   0.944   4.071   2.826
 8337SOL     OW25909   0.089   6.994   4.099
 8337SOL    HW125910   7.015   6.977   4.138
 8337SOL    HW225911   0.079   0.015   4.007
 8338SOL     OW25912   3.770   5.567   2.168
 8338SOL    HW125913   3.832   5.593   2.094
 8338SOL    HW225914   3.685   5.620   2.160
 8339SOL     OW25915   0.229   0.899   1.633
 8339SOL    HW125916   0.159   0.838   1.598
 8339SOL    HW225917   0.220   0.906   1.733
 8340SOL     OW25918   5.431   4.399   0.434
 8340SOL    HW125919   5.473   4.322   0.482
 8340SOL    HW225920   5.336   4.377   0.413
 8341SOL     OW25921   3.853   0.308   6.963
 8341SOL    HW125922   3.935   0.254   6.982
 8341SOL    HW225923   3.826   0.296   6.867
 8342SOL     OW25924   4.148   6.775   0.563
 8342SOL    HW125925   4.189   6.706   0.623
 8342SOL    HW225926   4.050   6.782   0.582
 8343SOL     OW25927   6.627   5.280   3.885
 8343SOL    HW125928   6.592   5.207   3.826
 8343SOL    HW225929   6.632   5.365   3.832
 8344SOL     OW25930   6.599   4.563   4.709
 8344SOL    HW125931   6.584   4.619   4.791
 8344SOL    HW225932   6.651   4.482   4.734
 8345SOL     OW25933   4.404   2.057   3.583
 8345SOL    HW125934   4.356   2.051   3.495
 8345SOL    HW225935   4.405   1.966   3.626
 8346SOL     OW25936   3.870   3.617   6.378
 8346SOL    HW125937   3.783   3.659   6.404
 8346SOL    HW225938   3.904   3.661   6.295
 8347SOL     OW25939   3.329   6.810   6.066
 8347SOL    HW125940   3.360   6.724   6.107
 8347SOL    HW225941   3.354   6.886   6.127
 8348SOL     OW25942   2.283   0.712   1.696
 8348SOL    HW125943   2.194   0.665   1.700
 8348SOL    HW225944   2.288   0.779   1.770
 8349SOL     OW25945   1.297   6.463   1.799
 8349SOL    HW125946   1.302   6.364   1.796
 8349SOL    HW225947   1.235   6.491   1.872
 8350SOL     OW25948   3.174   6.746   6.424
 8350SOL    HW125949   3.158   6.836   6.463
 8350SOL    HW225950   3.123   6.737   6.338
 8351SOL     OW25951   5.792   5.245   4.339
 8351SOL    HW125952   5.716   5.198   4.294
 8351SOL    HW225953   5.780   5.344   4.328
 8352SOL     OW25954   1.852   6.962   2.828
 8352SOL    HW125955   1.859   0.031   2.880
 8352SOL    HW225956   1.868   6.980   2.731
 8353SOL     OW25957   0.621   3.702   0.555
 8353SOL    HW125958   0.697   3.653   0.598
 8353SOL    HW225959   0.637   3.800   0.562
 8354SOL     OW25960   3.300   0.004   4.040
 8354SOL    HW125961   3.308   0.094   4.083
 8354SOL    HW225962   3.360   7.015   3.961
 8355SOL     OW25963   1.651   1.225   5.174
 8355SOL    HW125964   1.552   1.235   5.188
 8355SOL    HW225965   1.672   1.234   5.077
 8356SOL     OW25966   1.172   5.657   1.194
 8356SOL    HW125967   1.243   5.701   1.249
 8356SOL    HW225968   1.084   5.666   1.241
 8357SOL     OW25969   3.940   6.719   5.559
 8357SOL    HW125970   3.923   6.681   5.650
 8357SOL    HW225971   3.928   6.818   5.561
 8358SOL     OW25972   1.337   2.663   4.429
 8358SOL    HW125973   1.274   2.683   4.354
 8358SOL    HW225974   1.427   2.703   4.408
 8359SOL     OW25975   2.659   1.755   4.883
 8359SOL    HW125976   2.645   1.819   4.808
 8359SOL    HW225977   2.754   1.759   4.913
 8360SOL     OW25978   4.696   0.171   1.232
 8360SOL    HW125979   4.695   0.218   1.320
 8360SOL    HW225980   4.789   0.171   1.196
 8361SOL     OW25981   3.724   0.499   0.360
 8361SOL    HW125982   3.808   0.550   0.379
 8361SOL    HW225983   3.673   0.486   0.445
 8362SOL     OW25984   5.846   1.929   0.929
 8362SOL    HW125985   5.748   1.917   0.915
 8362SOL    HW225986   5.871   1.897   1.020
 8363SOL     OW25987   5.171   1.870   0.460
 8363SOL    HW125988   5.078   1.901   0.437
 8363SOL    HW225989   5.208   1.818   0.383
 8364SOL     OW25990   0.139   2.851   4.217
 8364SOL    HW125991   0.146   2.787   4.140
 8364SOL    HW225992   0.118   2.942   4.182
 8365SOL     OW25993   1.395   2.410   2.602
 8365SOL    HW125994   1.342   2.372   2.526
 8365SOL    HW225995   1.474   2.460   2.566
 8366SOL     OW25996   3.361   5.541   0.930
 8366SOL    HW125997   3.409   5.456   0.909
 8366SOL    HW225998   3.428   5.616   0.933
 8367SOL     OW25999   3.647   5.628   5.236
 8367SOL    HW126000   3.557   5.663   5.262
 8367SOL    HW226001   3.644   5.597   5.141
 8368SOL     OW26002   0.946   5.796   0.379
 8368SOL    HW126003   0.973   5.881   0.334
 8368SOL    HW226004   1.018   5.768   0.442
 8369SOL     OW26005   0.800   1.116   6.848
 8369SOL    HW126006   0.883   1.095   6.900
 8369SOL    HW226007   0.795   1.214   6.830
 8370SOL     OW26008   2.300   1.207   6.018
 8370SOL    HW126009   2.304   1.279   5.949
 8370SOL    HW226010   2.204   1.191   6.043
 8371SOL     OW26011   2.247   3.328   6.882
 8371SOL    HW126012   2.298   3.402   6.839
 8371SOL    HW226013   2.170   3.302   6.824
 8372SOL     OW26014   1.588   5.709   1.540
 8372SOL    HW126015   1.546   5.646   1.606
 8372SOL    HW226016   1.611   5.795   1.586
 8373SOL     OW26017   1.696   0.087   4.829
 8373SOL    HW126018   1.665   0.025   4.757
 8373SOL    HW226019   1.654   0.061   4.916
 8374SOL     OW26020   0.193   0.041   5.019
 8374SOL    HW126021   0.144   0.068   4.937
 8374SOL    HW226022   0.190   6.958   5.029
 8375SOL     OW26023   3.497   6.470   5.877
 8375SOL    HW126024   3.423   6.527   5.842
 8375SOL    HW226025   3.541   6.422   5.801
 8376SOL     OW26026   1.536   1.016   3.948
 8376SOL    HW126027   1.624   1.061   3.961
 8376SOL    HW226028   1.538   0.965   3.862
 8377SOL     OW26029   5.780   6.269   0.095
 8377SOL    HW126030   5.740   6.208   0.163
 8377SOL    HW226031   5.748   6.362   0.110
 8378SOL     OW26032   3.982   5.133   3.812
 8378SOL    HW126033   3.951   5.227   3.820
 8378SOL    HW226034   4.064   5.120   3.868
 8379SOL     OW26035   4.921   2.843   2.034
 8379SOL    HW126036   4.959   2.871   2.122
 8379SOL    HW226037   4.865   2.918   1.997
 8380SOL     OW26038   0.385   0.083   6.975
 8380SOL    HW126039   0.480   0.106   6.955
 8380SOL    HW226040   0.375   7.001   6.984
 8381SOL     OW26041   0.152   2.481   3.429
 8381SOL    HW126042   0.060   2.470   3.391
 8381SOL    HW226043   0.164   2.575   3.459
 8382SOL     OW26044   2.217   6.701   1.718
 8382SOL    HW126045   2.124   6.712   1.752
 8382SOL    HW226046   2.216   6.694   1.618
 8383SOL     OW26047   2.967   6.600   5.815
 8383SOL    HW126048   3.042   6.655   5.779
 8383SOL    HW226049   2.978   6.590   5.914
 8384SOL     OW26050   6.773   1.665   1.023
 8384SOL    HW126051   6.866   1.682   1.057
 8384SOL    HW226052   6.756   1.725   0.944
 8385SOL     OW26053   4.325   2.338   0.609
 8385SOL    HW126054   4.391   2.361   0.536
 8385SOL    HW226055   4.345   2.246   0.643
 8386SOL     OW26056   2.051   5.629   1.129
 8386SOL    HW126057   2.076   5.663   1.220
 8386SOL    HW226058   1.983   5.557   1.139
 8387SOL     OW26059   1.383   2.093   1.479
 8387SOL    HW126060   1.483   2.090   1.489
 8387SOL    HW226061   1.359   2.149   1.399
 8388SOL     OW26062   1.535   6.440   0.996
 8388SOL    HW126063   1.502   6.452   0.903
 8388SOL    HW226064   1.635   6.444   0.998
 8389SOL     OW26065   0.228   3.131   4.391
 8389SOL    HW126066   0.256   3.038   4.413
 8389SOL    HW226067   0.165   3.129   4.313
 8390SOL     OW26068   3.817   6.629   0.010
 8390SOL    HW126069   3.796   6.599   6.934
 8390SOL    HW226070   3.741   6.604   0.071
 8391SOL     OW26071   4.724   4.924   1.116
 8391SOL    HW126072   4.644   4.930   1.056
 8391SOL    HW226073   4.742   4.828   1.138
 8392SOL     OW26074   6.809   5.390   5.584
 8392SOL    HW126075   6.759   5.304   5.581
 8392SOL    HW226076   6.903   5.375   5.552
 8393SOL     OW26077   6.779   6.818   3.831
 8393SOL    HW126078   6.865   6.862   3.806
 8393SOL    HW226079   6.717   6.885   3.872
 8394SOL     OW26080   6.985   3.044   1.674
 8394SOL    HW126081   6.970   3.143   1.667
 8394SOL    HW226082   6.931   2.997   1.605
 8395SOL     OW26083   1.466   5.987   4.397
 8395SOL    HW126084   1.514   6.049   4.336
 8395SOL    HW226085   1.484   6.012   4.492
 8396SOL     OW26086   4.340   4.788   2.220
 8396SOL    HW126087   4.376   4.717   2.281
 8396SOL    HW226088   4.246   4.810   2.246
 8397SOL     OW26089   2.421   1.164   3.409
 8397SOL    HW126090   2.483   1.159   3.487
 8397SOL    HW226091   2.474   1.174   3.324
 8398SOL     OW26092   4.056   2.480   6.383
 8398SOL    HW126093   4.072   2.535   6.300
 8398SOL    HW226094   3.989   2.526   6.441
 8399SOL     OW26095   6.308   0.042   6.979
 8399SOL    HW126096   6.303   6.973   6.926
 8399SOL    HW226097   6.399   0.082   6.970
 8400SOL     OW26098   1.037   0.341   4.042
 8400SOL    HW126099   1.012   0.437   4.055
 8400SOL    HW226100   1.134   0.329   4.059
 8401SOL     OW26101   3.601   2.055   6.264
 8401SOL    HW126102   3.521   1.995   6.265
 8401SOL    HW226103   3.618   2.089   6.357
 8402SOL     OW26104   4.018   2.002   5.516
 8402SOL    HW126105   4.004   1.947   5.434
 8402SOL    HW226106   4.115   2.019   5.529
 8403SOL     OW26107   0.904   1.642   2.791
 8403SOL    HW126108   0.957   1.696   2.856
 8403SOL    HW226109   0.927   1.545   2.801
 8404SOL     OW26110   4.375   5.759   6.670
 8404SOL    HW126111   4.379   5.844   6.617
 8404SOL    HW226112   4.427   5.770   6.755
 8405SOL     OW26113   2.530   1.074   5.691
 8405SOL    HW126114   2.501   1.168   5.675
 8405SOL    HW226115   2.456   1.023   5.735
 8406SOL     OW26116   4.976   0.042   0.491
 8406SOL    HW126117   4.881   0.068   0.473
 8406SOL    HW226118   5.011   0.095   0.568
 8407SOL     OW26119   4.914   6.151   3.728
 8407SOL    HW126120   4.820   6.165   3.760
 8407SOL    HW226121   4.913   6.137   3.629
 8408SOL     OW26122   5.144   3.019   2.495
 8408SOL    HW126123   5.135   3.012   2.595
 8408SOL    HW226124   5.208   3.093   2.474
 8409SOL     OW26125   6.114   3.599   3.204
 8409SOL    HW126126   6.191   3.579   3.265
 8409SOL    HW226127   6.059   3.516   3.193
 8410SOL     OW26128   4.828   0.655   1.493
 8410SOL    HW126129   4.887   0.576   1.510
 8410SOL    HW226130   4.860   0.703   1.411
 8411SOL     OW26131   1.466   5.165   5.940
 8411SOL    HW126132   1.494   5.107   6.017
 8411SOL    HW226133   1.400   5.117   5.884
 8412SOL     OW26134   4.095   1.861   2.255
 8412SOL    HW126135   4.108   1.855   2.156
 8412SOL    HW226136   4.058   1.951   2.279
 8413SOL     OW26137   4.238   4.904   0.035
 8413SOL    HW126138   4.220   4.812   7.016
 8413SOL    HW226139   4.210   4.971   6.983
 8414SOL     OW26140   4.437   5.697   3.048
 8414SOL    HW126141   4.488   5.638   2.985
 8414SOL    HW226142   4.434   5.789   3.011
 8415SOL     OW26143   6.399   5.054   4.154
 8415SOL    HW126144   6.413   5.075   4.251
 8415SOL    HW226145   6.308   5.015   4.141
 8416SOL     OW26146   5.150   4.256   2.812
 8416SOL    HW126147   5.160   4.162   2.779
 8416SOL    HW226148   5.240   4.298   2.821
 8417SOL     OW26149   1.490   4.940   6.436
 8417SOL    HW126150   1.472   4.851   6.396
 8417SOL    HW226151   1.403   4.983   6.462
 8418SOL     OW26152   6.314   5.354   1.261
 8418SOL    HW126153   6.357   5.353   1.351
 8418SOL    HW226154   6.343   5.273   1.210
 8419SOL     OW26155   5.712   1.432   3.042
 8419SOL    HW126156   5.658   1.456   2.961
 8419SOL    HW226157   5.682   1.344   3.077
 8420SOL     OW26158   4.281   6.928   1.047
 8420SOL    HW126159   4.320   6.840   1.071
 8420SOL    HW226160   4.309   6.953   0.954
 8421SOL     OW26161   2.999   6.052   0.670
 8421SOL    HW126162   3.046   6.028   0.584
 8421SOL    HW226163   2.921   5.990   0.683
 8422SOL     OW26164   4.039   0.669   1.591
 8422SOL    HW126165   4.025   0.744   1.526
 8422SOL    HW226166   4.111   0.693   1.656
 8423SOL     OW26167   3.557   4.718   5.690
 8423SOL    HW126168   3.526   4.810   5.666
 8423SOL    HW226169   3.516   4.651   5.628
 8424SOL     OW26170   2.611   2.321   2.722
 8424SOL    HW126171   2.560   2.396   2.679
 8424SOL    HW226172   2.555   2.239   2.723
 8425SOL     OW26173   5.743   5.857   0.676
 8425SOL    HW126174   5.763   5.849   0.773
 8425SOL    HW226175   5.744   5.953   0.649
 8426SOL     OW26176   3.049   3.362   4.151
 8426SOL    HW126177   3.140   3.334   4.121
 8426SOL    HW226178   2.998   3.398   4.073
 8427SOL     OW26179   2.617   3.777   5.509
 8427SOL    HW126180   2.686   3.705   5.518
 8427SOL    HW226181   2.608   3.825   5.596
 8428SOL     OW26182   0.117   3.962   1.748
 8428SOL    HW126183   0.148   3.958   1.653
 8428SOL    HW226184   0.162   4.038   1.795
 8429SOL     OW26185   2.123   4.130   3.571
 8429SOL    HW126186   2.188   4.126   3.647
 8429SOL    HW226187   2.035   4.162   3.605
 8430SOL     OW26188   3.775   6.318   4.509
 8430SOL    HW126189   3.852   6.381   4.509
 8430SOL    HW226190   3.792   6.244   4.573
 8431SOL     OW26191   2.763   5.505   0.725
 8431SOL    HW126192   2.739   5.602   0.716
 8431SOL    HW226193   2.684   5.454   0.757
 8432SOL     OW26194   5.627   6.670   6.232
 8432SOL    HW126195   5.538   6.698   6.266
 8432SOL    HW226196   5.623   6.661   6.132
 8433SOL     OW26197   6.511   1.991   0.696
 8433SOL    HW126198   6.590   2.033   0.652
 8433SOL    HW226199   6.465   2.058   0.755
 8434SOL     OW26200   3.104   6.681   5.394
 8434SOL    HW126201   3.035   6.617   5.426
 8434SOL    HW226202   3.185   6.631   5.365
 8435SOL     OW26203   5.573   0.618   1.266
 8435SOL    HW126204   5.482   0.647   1.236
 8435SOL    HW226205   5.618   0.567   1.192
 8436SOL     OW26206   3.249   0.099   4.476
 8436SOL    HW126207   3.209   0.113   4.385
 8436SOL    HW226208   3.178   0.107   4.545
 8437SOL     OW26209   1.538   0.185   3.545
 8437SOL    HW126210   1.518   0.111   3.609
 8437SOL    HW226211   1.462   0.194   3.481
 8438SOL     OW26212   2.591   4.946   2.144
 8438SOL    HW126213   2.586   4.946   2.044
 8438SOL    HW226214   2.607   5.040   2.176
 8439SOL     OW26215   6.506   5.290   1.512
 8439SOL    HW126216   6.517   5.293   1.611
 8439SOL    HW226217   6.565   5.359   1.470
 8440SOL     OW26218   0.769   1.794   3.557
 8440SOL    HW126219   0.841   1.747   3.505
 8440SOL    HW226220   0.808   1.876   3.600
 8441SOL     OW26221   5.626   6.508   0.082
 8441SOL    HW126222   5.664   6.600   0.088
 8441SOL    HW226223   5.604   6.487   7.003
 8442SOL     OW26224   3.190   2.625   5.657
 8442SOL    HW126225   3.150   2.716   5.670
 8442SOL    HW226226   3.280   2.622   5.700
 8443SOL     OW26227   1.338   6.447   3.494
 8443SOL    HW126228   1.338   6.348   3.480
 8443SOL    HW226229   1.246   6.483   3.482
 8444SOL     OW26230   3.555   5.988   4.036
 8444SOL    HW126231   3.462   5.963   4.063
 8444SOL    HW226232   3.552   6.041   3.951
 8445SOL     OW26233   3.524   5.425   1.624
 8445SOL    HW126234   3.567   5.471   1.702
 8445SOL    HW226235   3.426   5.417   1.640
 8446SOL     OW26236   4.173   5.294   0.022
 8446SOL    HW126237   4.171   5.372   6.975
 8446SOL    HW226238   4.080   5.264   0.042
 8447SOL     OW26239   5.582   2.619   1.889
 8447SOL    HW126240   5.499   2.672   1.908
 8447SOL    HW226241   5.662   2.668   1.926
 8448SOL     OW26242   5.612   5.101   4.187
 8448SOL    HW126243   5.553   5.088   4.107
 8448SOL    HW226244   5.610   5.018   4.243
 8449SOL     OW26245   6.190   2.868   4.237
 8449SOL    HW126246   6.262   2.906   4.178
 8449SOL    HW226247   6.144   2.793   4.189
 8450SOL     OW26248   1.182   5.653   2.162
 8450SOL    HW126249   1.255   5.636   2.229
 8450SOL    HW226250   1.094   5.641   2.207
 8451SOL     OW26251   4.763   2.668   0.937
 8451SOL    HW126252   4.735   2.659   1.033
 8451SOL    HW226253   4.839   2.606   0.918
 8452SOL     OW26254   6.771   1.385   2.306
 8452SOL    HW126255   6.732   1.469   2.343
 8452SOL    HW226256   6.755   1.310   2.371
 8453SOL     OW26257   6.731   3.944   6.504
 8453SOL    HW126258   6.761   3.908   6.593
 8453SOL    HW226259   6.811   3.978   6.454
 8454SOL     OW26260   0.287   6.129   0.851
 8454SOL    HW126261   0.364   6.149   0.790
 8454SOL    HW226262   0.254   6.213   0.892
 8455SOL     OW26263   5.690   2.017   1.498
 8455SOL    HW126264   5.759   1.990   1.566
 8455SOL    HW226265   5.667   2.113   1.510
 8456SOL     OW26266   4.606   5.023   3.168
 8456SOL    HW126267   4.668   5.093   3.134
 8456SOL    HW226268   4.523   5.066   3.204
 8457SOL     OW26269   0.101   6.252   5.189
 8457SOL    HW126270   0.188   6.279   5.229
 8457SOL    HW226271   0.095   6.288   5.096
 8458SOL     OW26272   2.613   1.362   0.067
 8458SOL    HW126273   2.658   1.331   0.151
 8458SOL    HW226274   2.599   1.285   0.006
 8459SOL     OW26275   3.254   6.224   1.678
 8459SOL    HW126276   3.271   6.313   1.721
 8459SOL    HW226277   3.157   6.218   1.653
 8460SOL     OW26278   4.667   2.639   5.413
 8460SOL    HW126279   4.702   2.546   5.427
 8460SOL    HW226280   4.607   2.664   5.490
 8461SOL     OW26281   0.498   3.842   3.022
 8461SOL    HW126282   0.400   3.822   3.026
 8461SOL    HW226283   0.546   3.787   3.089
 8462SOL     OW26284   3.630   2.489   0.800
 8462SOL    HW126285   3.646   2.519   0.706
 8462SOL    HW226286   3.621   2.389   0.802
 8463SOL     OW26287   6.338   0.178   0.221
 8463SOL    HW126288   6.257   0.207   0.271
 8463SOL    HW226289   6.309   0.136   0.134
 8464SOL     OW26290   5.471   3.620   5.642
 8464SOL    HW126291   5.372   3.615   5.626
 8464SOL    HW226292   5.519   3.590   5.560
 8465SOL     OW26293   2.073   2.572   1.014
 8465SOL    HW126294   2.064   2.494   1.076
 8465SOL    HW226295   2.109   2.650   1.065
 8466SOL     OW26296   0.179   6.751   5.303
 8466SOL    HW126297   0.220   6.835   5.339
 8466SOL    HW226298   0.089   6.772   5.264
 8467SOL     OW26299   4.026   0.431   1.120
 8467SOL    HW126300   3.928   0.448   1.133
 8467SOL    HW226301   4.044   0.333   1.126
 8468SOL     OW26302   4.713   2.355   0.879
 8468SOL    HW126303   4.648   2.279   0.886
 8468SOL    HW226304   4.670   2.431   0.831
 8469SOL     OW26305   3.126   1.569   5.567
 8469SOL    HW126306   3.050   1.632   5.584
 8469SOL    HW226307   3.103   1.479   5.605
 8470SOL     OW26308   0.627   4.773   7.006
 8470SOL    HW126309   0.553   4.707   0.002
 8470SOL    HW226310   0.679   4.780   0.076
 8471SOL     OW26311   4.287   0.403   4.302
 8471SOL    HW126312   4.360   0.344   4.336
 8471SOL    HW226313   4.199   0.371   4.338
 8472SOL     OW26314   6.595   0.505   5.728
 8472SOL    HW126315   6.528   0.538   5.662
 8472SOL    HW226316   6.658   0.441   5.684
 8473SOL     OW26317   6.313   5.765   0.884
 8473SOL    HW126318   6.406   5.733   0.863
 8473SOL    HW226319   6.247   5.693   0.865
 8474SOL     OW26320   3.495   3.645   2.453
 8474SOL    HW126321   3.522   3.555   2.417
 8474SOL    HW226322   3.399   3.643   2.479
 8475SOL     OW26323   0.021   2.465   3.130
 8475SOL    HW126324   0.015   2.499   3.036
 8475SOL    HW226325   0.075   2.381   3.132
 8476SOL     OW26326   6.720   1.774   0.779
 8476SOL    HW126327   6.758   1.808   0.694
 8476SOL    HW226328   6.640   1.829   0.805
 8477SOL     OW26329   4.968   6.586   2.467
 8477SOL    HW126330   5.011   6.588   2.377
 8477SOL    HW226331   4.909   6.667   2.478
 8478SOL     OW26332   1.330   6.856   6.081
 8478SOL    HW126333   1.249   6.808   6.045
 8478SOL    HW226334   1.383   6.893   6.005
 8479SOL     OW26335   0.806   2.341   0.787
 8479SOL    HW126336   0.805   2.419   0.725
 8479SOL    HW226337   0.743   2.359   0.863
 8480SOL     OW26338   5.170   3.044   0.313
 8480SOL    HW126339   5.131   2.960   0.278
 8480SOL    HW226340   5.130   3.066   0.402
 8481SOL     OW26341   5.151   2.851   4.946
 8481SOL    HW126342   5.134   2.754   4.964
 8481SOL    HW226343   5.213   2.860   4.868
 8482SOL     OW26344   4.785   6.434   2.621
 8482SOL    HW126345   4.824   6.440   2.713
 8482SOL    HW226346   4.834   6.495   2.560
 8483SOL     OW26347   3.927   6.371   1.800
 8483SOL    HW126348   3.969   6.453   1.839
 8483SOL    HW226349   3.883   6.317   1.872
 8484SOL     OW26350   7.002   5.950   3.802
 8484SOL    HW126351   7.013   5.976   3.706
 8484SOL    HW226352   6.975   5.854   3.808
 8485SOL     OW26353   3.408   2.670   0.479
 8485SOL    HW126354   3.345   2.602   0.442
 8485SOL    HW226355   3.379   2.761   0.451
 8486SOL     OW26356   2.313   1.735   2.185
 8486SOL    HW126357   2.346   1.641   2.190
 8486SOL    HW226358   2.231   1.739   2.128
 8487SOL     OW26359   5.543   1.417   5.388
 8487SOL    HW126360   5.549   1.482   5.464
 8487SOL    HW226361   5.599   1.337   5.408
 8488SOL     OW26362   5.164   6.358   0.990
 8488SOL    HW126363   5.165   6.294   0.913
 8488SOL    HW226364   5.103   6.324   1.061
 8489SOL     OW26365   6.242   1.775   1.751
 8489SOL    HW126366   6.219   1.678   1.763
 8489SOL    HW226367   6.340   1.784   1.736
 8490SOL     OW26368   4.207   6.869   5.033
 8490SOL    HW126369   4.264   6.804   4.982
 8490SOL    HW226370   4.142   6.819   5.090
 8491SOL     OW26371   2.528   5.782   1.772
 8491SOL    HW126372   2.545   5.835   1.688
 8491SOL    HW226373   2.514   5.686   1.748
 8492SOL     OW26374   5.811   3.360   5.134
 8492SOL    HW126375   5.889   3.403   5.179
 8492SOL    HW226376   5.736   3.349   5.200
 8493SOL     OW26377   2.145   2.104   5.853
 8493SOL    HW126378   2.087   2.155   5.790
 8493SOL    HW226379   2.241   2.117   5.829
 8494SOL     OW26380   4.138   5.126   1.213
 8494SOL    HW126381   4.092   5.165   1.293
 8494SOL    HW226382   4.234   5.153   1.213
 8495SOL     OW26383   6.654   4.566   1.908
 8495SOL    HW126384   6.728   4.605   1.964
 8495SOL    HW226385   6.585   4.637   1.891
 8496SOL     OW26386   1.553   1.852   2.528
 8496SOL    HW126387   1.462   1.837   2.491
 8496SOL    HW226388   1.595   1.931   2.485
 8497SOL     OW26389   6.741   0.904   3.719
 8497SOL    HW126390   6.683   0.833   3.758
 8497SOL    HW226391   6.834   0.894   3.755
 8498SOL     OW26392   6.104   6.002   2.992
 8498SOL    HW126393   6.040   6.022   2.918
 8498SOL    HW226394   6.193   6.043   2.971
 8499SOL     OW26395   2.554   3.962   6.684
 8499SOL    HW126396   2.464   4.004   6.681
 8499SOL    HW226397   2.569   3.921   6.774
 8500SOL     OW26398   1.355   6.000   5.516
 8500SOL    HW126399   1.432   5.984   5.579
 8500SOL    HW226400   1.271   6.011   5.569
 8501SOL     OW26401   0.398   2.358   6.726
 8501SOL    HW126402   0.447   2.275   6.700
 8501SOL    HW226403   0.453   2.410   6.791
 8502SOL     OW26404   0.499   3.548   0.962
 8502SOL    HW126405   0.548   3.487   1.024
 8502SOL    HW226406   0.474   3.498   0.879
 8503SOL     OW26407   0.522   5.838   4.394
 8503SOL    HW126408   0.599   5.789   4.435
 8503SOL    HW226409   0.556   5.896   4.319
 8504SOL     OW26410   2.548   4.909   3.088
 8504SOL    HW126411   2.619   4.846   3.119
 8504SOL    HW226412   2.505   4.951   3.168
 8505SOL     OW26413   6.369   3.519   3.343
 8505SOL    HW126414   6.423   3.439   3.317
 8505SOL    HW226415   6.417   3.571   3.414
 8506SOL     OW26416   0.985   0.855   6.930
 8506SOL    HW126417   0.889   0.830   6.921
 8506SOL    HW226418   1.041   0.773   6.936
 8507SOL     OW26419   4.091   0.676   4.642
 8507SOL    HW126420   4.000   0.708   4.615
 8507SOL    HW226421   4.161   0.733   4.599
 8508SOL     OW26422   5.059   2.080   4.895
 8508SOL    HW126423   5.101   2.094   4.984
 8508SOL    HW226424   5.130   2.073   4.825
 8509SOL     OW26425   4.526   0.900   4.129
 8509SOL    HW126426   4.475   0.817   4.148
 8509SOL    HW226427   4.591   0.883   4.054
 8510SOL     OW26428   5.790   4.864   2.446
 8510SOL    HW126429   5.728   4.942   2.441
 8510SOL    HW226430   5.746   4.789   2.496
 8511SOL     OW26431   5.992   4.192   2.190
 8511SOL    HW126432   5.895   4.202   2.216
 8511SOL    HW226433   6.005   4.104   2.145
 8512SOL     OW26434   2.724   1.625   2.651
 8512SOL    HW126435   2.719   1.565   2.732
 8512SOL    HW226436   2.755   1.571   2.572
 8513SOL     OW26437   6.730   5.218   0.612
 8513SOL    HW126438   6.706   5.311   0.586
 8513SOL    HW226439   6.752   5.215   0.710
 8514SOL     OW26440   2.002   2.202   4.040
 8514SOL    HW126441   2.063   2.202   4.119
 8514SOL    HW226442   1.933   2.273   4.050
 8515SOL     OW26443   4.802   2.156   1.289
 8515SOL    HW126444   4.794   2.243   1.339
 8515SOL    HW226445   4.888   2.112   1.313
 8516SOL     OW26446   6.992   1.902   2.033
 8516SOL    HW126447   6.987   1.802   2.034
 8516SOL    HW226448   6.942   1.938   2.111
 8517SOL     OW26449   0.571   2.610   6.145
 8517SOL    HW126450   0.648   2.626   6.206
 8517SOL    HW226451   0.583   2.522   6.099
 8518SOL     OW26452   4.177   4.145   0.136
 8518SOL    HW126453   4.181   4.222   0.072
 8518SOL    HW226454   4.150   4.062   0.087
 8519SOL     OW26455   1.794   4.718   2.429
 8519SOL    HW126456   1.729   4.680   2.363
 8519SOL    HW226457   1.782   4.673   2.518
 8520SOL     OW26458   3.591   2.223   0.756
 8520SOL    HW126459   3.626   2.129   0.758
 8520SOL    HW226460   3.500   2.224   0.715
 8521SOL     OW26461   1.637   4.764   5.665
 8521SOL    HW126462   1.598   4.681   5.704
 8521SOL    HW226463   1.623   4.764   5.566
 8522SOL     OW26464   1.127   5.269   1.907
 8522SOL    HW126465   1.133   5.223   1.996
 8522SOL    HW226466   1.065   5.347   1.915
 8523SOL     OW26467   3.237   0.290   6.369
 8523SOL    HW126468   3.145   0.284   6.328
 8523SOL    HW226469   3.279   0.376   6.342
 8524SOL     OW26470   1.304   1.815   5.102
 8524SOL    HW126471   1.268   1.901   5.137
 8524SOL    HW226472   1.362   1.772   5.172
 8525SOL     OW26473   6.308   4.575   2.642
 8525SOL    HW126474   6.290   4.669   2.611
 8525SOL    HW226475   6.221   4.530   2.664
 8526SOL     OW26476   3.399   4.740   0.271
 8526SOL    HW126477   3.372   4.742   0.367
 8526SOL    HW226478   3.466   4.666   0.256
 8527SOL     OW26479   3.086   0.442   4.968
 8527SOL    HW126480   3.172   0.400   4.939
 8527SOL    HW226481   3.046   0.492   4.892
 8528SOL     OW26482   4.952   2.609   6.363
 8528SOL    HW126483   4.926   2.664   6.283
 8528SOL    HW226484   4.949   2.666   6.445
 8529SOL     OW26485   0.758   0.019   0.403
 8529SOL    HW126486   0.767   7.002   0.309
 8529SOL    HW226487   0.825   0.092   0.419
 8530SOL     OW26488   2.327   4.156   5.578
 8530SOL    HW126489   2.381   4.076   5.552
 8530SOL    HW226490   2.383   4.216   5.635
 8531SOL     OW26491   6.514   4.121   1.585
 8531SOL    HW126492   6.550   4.159   1.670
 8531SOL    HW226493   6.421   4.087   1.600
 8532SOL     OW26494   4.167   5.039   4.514
 8532SOL    HW126495   4.116   5.111   4.561
 8532SOL    HW226496   4.221   5.079   4.440
 8533SOL     OW26497   1.715   0.156   6.124
 8533SOL    HW126498   1.623   0.181   6.152
 8533SOL    HW226499   1.775   0.154   6.204
 8534SOL     OW26500   6.615   3.435   4.116
 8534SOL    HW126501   6.697   3.489   4.098
 8534SOL    HW226502   6.609   3.414   4.213
 8535SOL     OW26503   0.548   2.069   5.328
 8535SOL    HW126504   0.479   2.037   5.263
 8535SOL    HW226505   0.557   2.168   5.321
 8536SOL     OW26506   6.164   1.704   5.236
 8536SOL    HW126507   6.105   1.665   5.165
 8536SOL    HW226508   6.258   1.708   5.204
 8537SOL     OW26509   5.692   1.388   2.643
 8537SOL    HW126510   5.741   1.459   2.693
 8537SOL    HW226511   5.754   1.312   2.624
 8538SOL     OW26512   0.967   1.397   5.695
 8538SOL    HW126513   0.875   1.406   5.658
 8538SOL    HW226514   0.964   1.403   5.794
 8539SOL     OW26515   6.598   1.487   1.601
 8539SOL    HW126516   6.534   1.412   1.616
 8539SOL    HW226517   6.551   1.574   1.613
 8540SOL     OW26518   3.945   1.908   0.348
 8540SOL    HW126519   3.997   1.823   0.346
 8540SOL    HW226520   3.882   1.908   0.427
 8541SOL     OW26521   3.439   2.108   4.481
 8541SOL    HW126522   3.456   2.191   4.534
 8541SOL    HW226523   3.374   2.128   4.407
 8542SOL     OW26524   2.495   4.468   5.599
 8542SOL    HW126525   2.418   4.475   5.536
 8542SOL    HW226526   2.580   4.491   5.551
 8543SOL     OW26527   3.265   1.204   6.646
 8543SOL    HW126528   3.342   1.175   6.590
 8543SOL    HW226529   3.290   1.287   6.698
 8544SOL     OW26530   5.323   2.809   4.186
 8544SOL    HW126531   5.385   2.887   4.191
 8544SOL    HW226532   5.229   2.841   4.188
 8545SOL     OW26533   4.604   6.951   5.134
 8545SOL    HW126534   4.553   6.985   5.213
 8545SOL    HW226535   4.701   6.970   5.147
 8546SOL     OW26536   0.696   0.504   2.459
 8546SOL    HW126537   0.795   0.506   2.470
 8546SOL    HW226538   0.662   0.411   2.471
 8547SOL     OW26539   0.874   6.994   6.586
 8547SOL    HW126540   0.816   6.960   6.660
 8547SOL    HW226541   0.820   7.003   6.503
 8548SOL     OW26542   6.730   3.111   5.771
 8548SOL    HW126543   6.644   3.080   5.813
 8548SOL    HW226544   6.787   3.155   5.840
 8549SOL     OW26545   0.634   2.162   4.026
 8549SOL    HW126546   0.656   2.139   4.121
 8549SOL    HW226547   0.708   2.131   3.966
 8550SOL     OW26548   1.552   4.914   0.334
 8550SOL    HW126549   1.472   4.879   0.383
 8550SOL    HW226550   1.523   4.969   0.257
 8551SOL     OW26551   2.459   2.649   0.004
 8551SOL    HW126552   2.530   2.716   6.997
 8551SOL    HW226553   2.372   2.696   0.014
 8552SOL     OW26554   2.285   0.532   2.784
 8552SOL    HW126555   2.275   0.441   2.824
 8552SOL    HW226556   2.242   0.534   2.694
 8553SOL     OW26557   4.021   4.792   6.312
 8553SOL    HW126558   4.114   4.792   6.348
 8553SOL    HW226559   4.020   4.749   6.222
 8554SOL     OW26560   0.458   5.692   0.584
 8554SOL    HW126561   0.552   5.698   0.619
 8554SOL    HW226562   0.400   5.756   0.635
 8555SOL     OW26563   3.435   1.047   3.386
 8555SOL    HW126564   3.505   1.043   3.315
 8555SOL    HW226565   3.461   1.114   3.456
 8556SOL     OW26566   2.130   6.239   5.037
 8556SOL    HW126567   2.032   6.235   5.018
 8556SOL    HW226568   2.149   6.195   5.125
 8557SOL     OW26569   6.395   0.071   2.343
 8557SOL    HW126570   6.486   0.113   2.343
 8557SOL    HW226571   6.360   0.066   2.250
 8558SOL     OW26572   2.270   5.733   3.231
 8558SOL    HW126573   2.352   5.685   3.202
 8558SOL    HW226574   2.286   5.832   3.225
 8559SOL     OW26575   2.205   6.895   2.653
 8559SOL    HW126576   2.305   6.896   2.654
 8559SOL    HW226577   2.174   6.817   2.599
 8560SOL     OW26578   1.537   5.379   2.274
 8560SOL    HW126579   1.549   5.475   2.301
 8560SOL    HW226580   1.531   5.322   2.356
 8561SOL     OW26581   3.252   0.186   2.871
 8561SOL    HW126582   3.301   0.193   2.784
 8561SOL    HW226583   3.315   0.160   2.943
 8562SOL     OW26584   3.549   6.196   6.886
 8562SOL    HW126585   3.473   6.137   6.915
 8562SOL    HW226586   3.584   6.163   6.798
 8563SOL     OW26587   1.217   4.838   1.957
 8563SOL    HW126588   1.227   4.739   1.964
 8563SOL    HW226589   1.160   4.870   2.033
 8564SOL     OW26590   3.373   0.021   5.065
 8564SOL    HW126591   3.379   6.939   5.045
 8564SOL    HW226592   3.402   0.073   4.985
 8565SOL     OW26593   3.485   5.088   1.096
 8565SOL    HW126594   3.490   4.990   1.078
 8565SOL    HW226595   3.391   5.113   1.122
 8566SOL     OW26596   0.768   0.018   1.517
 8566SOL    HW126597   0.707   0.096   1.531
 8566SOL    HW226598   0.755   6.967   1.590
 8567SOL     OW26599   0.333   2.251   2.056
 8567SOL    HW126600   0.263   2.203   2.110
 8567SOL    HW226601   0.365   2.330   2.108
 8568SOL     OW26602   5.427   2.062   0.112
 8568SOL    HW126603   5.422   2.060   0.212
 8568SOL    HW226604   5.515   2.024   0.083
 8569SOL     OW26605   5.117   2.061   5.169
 8569SOL    HW126606   5.043   2.043   5.234
 8569SOL    HW226607   5.192   2.107   5.215
 8570SOL     OW26608   0.759   1.344   3.861
 8570SOL    HW126609   0.767   1.344   3.762
 8570SOL    HW226610   0.663   1.343   3.888
 8571SOL     OW26611   0.747   6.068   5.704
 8571SOL    HW126612   0.693   6.091   5.784
 8571SOL    HW226613   0.840   6.044   5.731
 8572SOL     OW26614   1.704   4.128   5.601
 8572SOL    HW126615   1.795   4.161   5.574
 8572SOL    HW226616   1.690   4.036   5.565
 8573SOL     OW26617   3.062   5.912   6.317
 8573SOL    HW126618   2.974   5.954   6.340
 8573SOL    HW226619   3.077   5.920   6.218
 8574SOL     OW26620   6.431   6.876   6.345
 8574SOL    HW126621   6.417   6.891   6.247
 8574SOL    HW226622   6.342   6.870   6.391
 8575SOL     OW26623   2.543   2.250   3.410
 8575SOL    HW126624   2.573   2.261   3.504
 8575SOL    HW226625   2.572   2.330   3.357
 8576SOL     OW26626   1.575   4.789   4.570
 8576SOL    HW126627   1.627   4.784   4.485
 8576SOL    HW226628   1.489   4.836   4.554
 8577SOL     OW26629   1.440   0.102   5.803
 8577SOL    HW126630   1.442   0.028   5.735
 8577SOL    HW226631   1.345   0.129   5.820
 8578SOL     OW26632   6.400   5.551   4.986
 8578SOL    HW126633   6.447   5.547   4.897
 8578SOL    HW226634   6.440   5.625   5.041
 8579SOL     OW26635   1.565   6.511   1.876
 8579SOL    HW126636   1.471   6.538   1.854
 8579SOL    HW226637   1.587   6.542   1.969
 8580SOL     OW26638   1.838   5.444   0.432
 8580SOL    HW126639   1.803   5.464   0.340
 8580SOL    HW226640   1.778   5.377   0.476
 8581SOL     OW26641   3.307   4.311   1.717
 8581SOL    HW126642   3.217   4.272   1.736
 8581SOL    HW226643   3.370   4.287   1.790
 8582SOL     OW26644   4.797   4.131   5.088
 8582SOL    HW126645   4.864   4.169   5.152
 8582SOL    HW226646   4.792   4.032   5.100
 8583SOL     OW26647   3.821   0.206   4.290
 8583SOL    HW126648   3.725   0.234   4.296
 8583SOL    HW226649   3.843   0.181   4.196
 8584SOL     OW26650   0.869   5.901   6.019
 8584SOL    HW126651   0.906   5.994   6.028
 8584SOL    HW226652   0.864   5.877   5.922
 8585SOL     OW26653   6.076   1.713   0.264
 8585SOL    HW126654   6.104   1.625   0.224
 8585SOL    HW226655   6.149   1.780   0.253
 8586SOL     OW26656   3.292   6.526   1.776
 8586SOL    HW126657   3.218   6.578   1.733
 8586SOL    HW226658   3.275   6.520   1.874
 8587SOL     OW26659   0.664   0.817   4.509
 8587SOL    HW126660   0.638   0.776   4.421
 8587SOL    HW226661   0.697   0.745   4.571
 8588SOL     OW26662   4.255   1.237   6.943
 8588SOL    HW126663   4.290   1.155   6.988
 8588SOL    HW226664   4.330   1.288   6.901
 8589SOL     OW26665   5.491   2.638   5.448
 8589SOL    HW126666   5.415   2.602   5.502
 8589SOL    HW226667   5.505   2.581   5.368
 8590SOL     OW26668   0.370   0.562   2.426
 8590SOL    HW126669   0.419   0.479   2.451
 8590SOL    HW226670   0.325   0.599   2.508
 8591SOL     OW26671   0.322   4.195   6.819
 8591SOL    HW126672   0.402   4.187   6.879
 8591SOL    HW226673   0.352   4.204   6.724
 8592SOL     OW26674   5.649   2.333   6.804
 8592SOL    HW126675   5.592   2.320   6.886
 8592SOL    HW226676   5.734   2.282   6.815
 8593SOL     OW26677   3.330   0.963   6.922
 8593SOL    HW126678   3.246   0.953   6.976
 8593SOL    HW226679   3.379   0.876   6.919
 8594SOL     OW26680   5.268   2.337   5.802
 8594SOL    HW126681   5.360   2.336   5.763
 8594SOL    HW226682   5.267   2.284   5.887
 8595SOL     OW26683   0.041   1.356   3.745
 8595SOL    HW126684   0.076   1.279   3.798
 8595SOL    HW226685   6.985   1.402   3.797
 8596SOL     OW26686   1.112   4.910   3.442
 8596SOL    HW126687   1.153   4.823   3.468
 8596SOL    HW226688   1.175   4.961   3.385
 8597SOL     OW26689   5.145   1.614   2.221
 8597SOL    HW126690   5.153   1.590   2.125
 8597SOL    HW226691   5.098   1.541   2.270
 8598SOL     OW26692   6.024   0.029   6.633
 8598SOL    HW126693   5.931   0.065   6.634
 8598SOL    HW226694   6.027   6.962   6.688
 8599SOL     OW26695   1.634   2.016   4.179
 8599SOL    HW126696   1.618   2.066   4.094
 8599SOL    HW226697   1.723   1.969   4.174
 8600SOL     OW26698   5.376   3.788   6.897
 8600SOL    HW126699   5.449   3.719   6.895
 8600SOL    HW226700   5.327   3.787   6.810
 8601SOL     OW26701   0.758   1.351   3.596
 8601SOL    HW126702   0.699   1.382   3.522
 8601SOL    HW226703   0.845   1.320   3.558
 8602SOL     OW26704   3.030   6.707   2.781
 8602SOL    HW126705   3.091   6.757   2.842
 8602SOL    HW226706   3.078   6.629   2.742
 8603SOL     OW26707   5.163   6.304   1.468
 8603SOL    HW126708   5.219   6.265   1.395
 8603SOL    HW226709   5.098   6.236   1.501
 8604SOL     OW26710   1.269   2.411   5.539
 8604SOL    HW126711   1.317   2.398   5.452
 8604SOL    HW226712   1.320   2.474   5.596
 8605SOL     OW26713   2.484   5.344   4.347
 8605SOL    HW126714   2.446   5.255   4.324
 8605SOL    HW226715   2.416   5.415   4.328
 8606SOL     OW26716   2.167   2.580   6.529
 8606SOL    HW126717   2.183   2.483   6.508
 8606SOL    HW226718   2.166   2.592   6.629
 8607SOL     OW26719   3.115   4.864   6.297
 8607SOL    HW126720   3.051   4.857   6.374
 8607SOL    HW226721   3.103   4.785   6.236
 8608SOL     OW26722   2.937   4.802   2.629
 8608SOL    HW126723   2.999   4.769   2.701
 8608SOL    HW226724   2.847   4.762   2.643
 8609SOL     OW26725   5.063   0.349   3.106
 8609SOL    HW126726   5.077   0.376   3.201
 8609SOL    HW226727   5.095   0.255   3.092
 8610SOL     OW26728   1.020   1.392   2.714
 8610SOL    HW126729   0.943   1.362   2.771
 8610SOL    HW226730   1.068   1.311   2.678
 8611SOL     OW26731   2.960   2.046   4.491
 8611SOL    HW126732   2.871   2.000   4.488
 8611SOL    HW226733   3.029   1.982   4.525
 8612SOL     OW26734   2.661   3.064   1.052
 8612SOL    HW126735   2.679   3.135   0.984
 8612SOL    HW226736   2.580   3.011   1.026
 8613SOL     OW26737   2.803   1.985   2.025
 8613SOL    HW126738   2.871   2.043   1.979
 8613SOL    HW226739   2.737   2.042   2.073
 8614SOL     OW26740   1.316   3.031   3.939
 8614SOL    HW126741   1.274   3.114   3.900
 8614SOL    HW226742   1.246   2.977   3.985
 8615SOL     OW26743   4.208   2.099   5.266
 8615SOL    HW126744   4.172   2.005   5.266
 8615SOL    HW226745   4.287   2.104   5.205
 8616SOL     OW26746   3.089   4.750   1.946
 8616SOL    HW126747   3.125   4.819   2.009
 8616SOL    HW226748   3.014   4.700   1.991
 8617SOL     OW26749   5.598   1.093   4.918
 8617SOL    HW126750   5.649   1.167   4.962
 8617SOL    HW226751   5.509   1.082   4.963
 8618SOL     OW26752   6.522   4.777   1.158
 8618SOL    HW126753   6.601   4.837   1.145
 8618SOL    HW226754   6.447   4.808   1.099
 8619SOL     OW26755   4.010   5.195   1.920
 8619SOL    HW126756   3.985   5.281   1.877
 8619SOL    HW226757   4.066   5.213   2.001
 8620SOL     OW26758   2.178   6.534   3.069
 8620SOL    HW126759   2.143   6.486   3.149
 8620SOL    HW226760   2.278   6.528   3.067
 8621SOL     OW26761   5.503   2.358   2.197
 8621SOL    HW126762   5.594   2.391   2.171
 8621SOL    HW226763   5.506   2.324   2.291
 8622SOL     OW26764   5.055   4.012   1.323
 8622SOL    HW126765   4.977   4.049   1.272
 8622SOL    HW226766   5.023   3.960   1.402
 8623SOL     OW26767   1.198   4.068   5.076
 8623SOL    HW126768   1.271   4.094   5.139
 8623SOL    HW226769   1.144   3.995   5.116
 8624SOL     OW26770   2.176   3.773   4.820
 8624SOL    HW126771   2.153   3.803   4.727
 8624SOL    HW226772   2.224   3.847   4.868
 8625SOL     OW26773   4.559   1.216   5.915
 8625SOL    HW126774   4.522   1.309   5.906
 8625SOL    HW226775   4.623   1.197   5.841
 8626SOL     OW26776   3.890   2.802   0.054
 8626SOL    HW126777   3.930   2.891   0.031
 8626SOL    HW226778   3.931   2.731   7.013
 8627SOL     OW26779   1.661   1.602   2.228
 8627SOL    HW126780   1.562   1.586   2.225
 8627SOL    HW226781   1.683   1.657   2.309
 8628SOL     OW26782   6.025   6.614   0.292
 8628SOL    HW126783   6.111   6.567   0.316
 8628SOL    HW226784   6.039   6.670   0.211
 8629SOL     OW26785   1.706   6.402   4.952
 8629SOL    HW126786   1.694   6.464   5.030
 8629SOL    HW226787   1.716   6.457   4.869
 8630SOL     OW26788   4.947   3.239   3.949
 8630SOL    HW126789   4.896   3.208   4.029
 8630SOL    HW226790   5.011   3.167   3.920
 8631SOL     OW26791   0.815   5.410   6.446
 8631SOL    HW126792   0.847   5.394   6.539
 8631SOL    HW226793   0.827   5.326   6.392
 8632SOL     OW26794   3.881   4.864   5.326
 8632SOL    HW126795   3.904   4.897   5.418
 8632SOL    HW226796   3.783   4.875   5.311
 8633SOL     OW26797   5.683   2.383   6.136
 8633SOL    HW126798   5.606   2.339   6.089
 8633SOL    HW226799   5.745   2.422   6.068
 8634SOL     OW26800   5.540   4.289   6.925
 8634SOL    HW126801   5.552   4.193   6.900
 8634SOL    HW226802   5.513   4.341   6.844
 8635SOL     OW26803   5.046   3.117   6.334
 8635SOL    HW126804   5.075   3.027   6.366
 8635SOL    HW226805   5.066   3.185   6.404
 8636SOL     OW26806   5.453   5.675   1.017
 8636SOL    HW126807   5.532   5.716   1.064
 8636SOL    HW226808   5.485   5.617   0.943
 8637SOL     OW26809   2.756   1.093   6.828
 8637SOL    HW126810   2.819   1.077   6.753
 8637SOL    HW226811   2.680   1.150   6.796
 8638SOL     OW26812   3.428   2.126   4.979
 8638SOL    HW126813   3.399   2.067   4.903
 8638SOL    HW226814   3.350   2.181   5.010
 8639SOL     OW26815   5.452   3.019   0.297
 8639SOL    HW126816   5.355   3.038   0.279
 8639SOL    HW226817   5.502   3.105   0.303
 8640SOL     OW26818   4.070   3.387   6.583
 8640SOL    HW126819   4.137   3.312   6.583
 8640SOL    HW226820   4.115   3.472   6.613
 8641SOL     OW26821   4.275   4.659   4.012
 8641SOL    HW126822   4.314   4.666   4.104
 8641SOL    HW226823   4.336   4.603   3.955
 8642SOL     OW26824   0.914   6.446   4.617
 8642SOL    HW126825   0.907   6.544   4.635
 8642SOL    HW226826   0.941   6.399   4.702
 8643SOL     OW26827   2.443   1.010   6.166
 8643SOL    HW126828   2.382   1.064   6.108
 8643SOL    HW226829   2.535   1.050   6.165
 8644SOL     OW26830   5.472   2.255   6.004
 8644SOL    HW126831   5.510   2.167   6.033
 8644SOL    HW226832   5.501   2.274   5.910
 8645SOL     OW26833   4.400   4.590   1.044
 8645SOL    HW126834   4.329   4.661   1.035
 8645SOL    HW226835   4.463   4.595   0.967
 8646SOL     OW26836   0.462   1.688   0.129
 8646SOL    HW126837   0.379   1.634   0.113
 8646SOL    HW226838   0.540   1.626   0.138
 8647SOL     OW26839   2.358   4.778   0.151
 8647SOL    HW126840   2.415   4.859   0.166
 8647SOL    HW226841   2.396   4.726   0.074
 8648SOL     OW26842   6.777   0.214   2.536
 8648SOL    HW126843   6.871   0.234   2.565
 8648SOL    HW226844   6.714   0.272   2.586
 8649SOL     OW26845   5.369   5.688   6.514
 8649SOL    HW126846   5.311   5.737   6.449
 8649SOL    HW226847   5.431   5.754   6.558
 8650SOL     OW26848   1.164   5.504   5.138
 8650SOL    HW126849   1.246   5.497   5.196
 8650SOL    HW226850   1.084   5.478   5.191
 8651SOL     OW26851   4.515   1.095   0.600
 8651SOL    HW126852   4.555   1.058   0.684
 8651SOL    HW226853   4.445   1.032   0.566
 8652SOL     OW26854   2.010   5.123   3.367
 8652SOL    HW126855   1.991   5.079   3.455
 8652SOL    HW226856   2.042   5.217   3.383
 8653SOL     OW26857   6.624   1.084   6.163
 8653SOL    HW126858   6.724   1.087   6.157
 8653SOL    HW226859   6.585   1.135   6.086
 8654SOL     OW26860   0.731   4.735   2.258
 8654SOL    HW126861   0.695   4.765   2.170
 8654SOL    HW226862   0.705   4.800   2.329
 8655SOL     OW26863   5.866   0.559   4.060
 8655SOL    HW126864   5.870   0.589   4.156
 8655SOL    HW226865   5.834   0.465   4.056
 8656SOL     OW26866   6.315   0.599   1.998
 8656SOL    HW126867   6.373   0.578   2.078
 8656SOL    HW226868   6.348   0.682   1.955
 8657SOL     OW26869   5.111   6.134   6.953
 8657SOL    HW126870   5.200   6.088   6.960
 8657SOL    HW226871   5.099   6.194   0.016
 8658SOL     OW26872   6.116   6.288   0.322
 8658SOL    HW126873   6.047   6.314   0.389
 8658SOL    HW226874   6.112   6.190   0.304
 8659SOL     OW26875   4.794   2.236   1.980
 8659SOL    HW126876   4.883   2.266   2.015
 8659SOL    HW226877   4.744   2.315   1.944
 8660SOL     OW26878   0.205   3.453   1.749
 8660SOL    HW126879   0.271   3.397   1.699
 8660SOL    HW226880   0.130   3.395   1.782
 8661SOL     OW26881   6.898   4.018   1.387
 8661SOL    HW126882   6.834   3.956   1.432
 8661SOL    HW226883   6.853   4.104   1.367
 8662SOL     OW26884   4.610   5.450   1.808
 8662SOL    HW126885   4.608   5.414   1.901
 8662SOL    HW226886   4.618   5.550   1.811
 8663SOL     OW26887   2.952   5.517   2.560
 8663SOL    HW126888   3.011   5.459   2.617
 8663SOL    HW226889   2.857   5.486   2.568
 8664SOL     OW26890   2.097   5.714   1.407
 8664SOL    HW126891   2.189   5.690   1.438
 8664SOL    HW226892   2.030   5.673   1.470
 8665SOL     OW26893   5.513   5.415   4.945
 8665SOL    HW126894   5.495   5.369   4.858
 8665SOL    HW226895   5.426   5.440   4.988
 8666SOL     OW26896   5.542   1.023   3.566
 8666SOL    HW126897   5.489   0.940   3.579
 8666SOL    HW226898   5.481   1.102   3.570
 8667SOL     OW26899   4.254   1.863   4.225
 8667SOL    HW126900   4.329   1.802   4.250
 8667SOL    HW226901   4.252   1.874   4.125
 8668SOL     OW26902   5.331   3.793   2.890
 8668SOL    HW126903   5.384   3.716   2.855
 8668SOL    HW226904   5.390   3.853   2.944
 8669SOL     OW26905   0.540   6.587   6.898
 8669SOL    HW126906   0.631   6.581   6.857
 8669SOL    HW226907   0.483   6.513   6.861
 8670SOL     OW26908   4.258   5.419   5.882
 8670SOL    HW126909   4.319   5.446   5.808
 8670SOL    HW226910   4.307   5.423   5.969
 8671SOL     OW26911   6.167   1.638   3.457
 8671SOL    HW126912   6.124   1.603   3.540
 8671SOL    HW226913   6.222   1.566   3.415
 8672SOL     OW26914   0.469   5.545   3.811
 8672SOL    HW126915   0.400   5.599   3.763
 8672SOL    HW226916   0.495   5.467   3.755
 8673SOL     OW26917   5.740   2.247   0.157
 8673SOL    HW126918   5.808   2.304   0.111
 8673SOL    HW226919   5.659   2.302   0.179
 8674SOL     OW26920   5.800   5.648   2.559
 8674SOL    HW126921   5.875   5.584   2.538
 8674SOL    HW226922   5.818   5.692   2.647
 8675SOL     OW26923   4.395   1.871   4.737
 8675SOL    HW126924   4.413   1.791   4.679
 8675SOL    HW226925   4.464   1.941   4.718
 8676SOL     OW26926   5.785   6.647   3.335
 8676SOL    HW126927   5.739   6.730   3.302
 8676SOL    HW226928   5.820   6.595   3.258
 8677SOL     OW26929   2.285   5.325   6.509
 8677SOL    HW126930   2.203   5.294   6.557
 8677SOL    HW226931   2.259   5.357   6.417
 8678SOL     OW26932   0.730   0.352   0.869
 8678SOL    HW126933   0.779   0.418   0.927
 8678SOL    HW226934   0.795   0.309   0.807
 8679SOL     OW26935   0.775   1.091   3.386
 8679SOL    HW126936   0.853   1.153   3.396
 8679SOL    HW226937   0.698   1.140   3.346
 8680SOL     OW26938   6.233   3.707   0.353
 8680SOL    HW126939   6.232   3.697   0.253
 8680SOL    HW226940   6.166   3.776   0.380
 8681SOL     OW26941   4.863   5.252   1.383
 8681SOL    HW126942   4.881   5.159   1.352
 8681SOL    HW226943   4.831   5.250   1.478
 8682SOL     OW26944   6.195   0.353   2.872
 8682SOL    HW126945   6.114   0.308   2.910
 8682SOL    HW226946   6.263   0.366   2.944
 8683SOL     OW26947   1.841   2.361   5.377
 8683SOL    HW126948   1.767   2.390   5.437
 8683SOL    HW226949   1.900   2.440   5.355
 8684SOL     OW26950   5.964   2.964   4.351
 8684SOL    HW126951   5.921   3.014   4.275
 8684SOL    HW226952   6.055   2.934   4.322
 8685SOL     OW26953   5.572   2.256   6.350
 8685SOL    HW126954   5.623   2.300   6.277
 8685SOL    HW226955   5.614   2.167   6.371
 8686SOL     OW26956   6.701   0.545   2.339
 8686SOL    HW126957   6.798   0.524   2.349
 8686SOL    HW226958   6.650   0.461   2.323
 8687SOL     OW26959   4.946   5.337   2.507
 8687SOL    HW126960   4.997   5.284   2.574
 8687SOL    HW226961   4.878   5.278   2.464
 8688SOL     OW26962   1.265   5.113   6.502
 8688SOL    HW126963   1.236   5.090   6.409
 8688SOL    HW226964   1.193   5.165   6.548
 8689SOL     OW26965   4.106   2.400   1.065
 8689SOL    HW126966   4.085   2.406   0.967
 8689SOL    HW226967   4.021   2.397   1.117
 8690SOL     OW26968   1.188   3.721   4.267
 8690SOL    HW126969   1.197   3.663   4.187
 8690SOL    HW226970   1.249   3.799   4.259
 8691SOL     OW26971   3.782   1.747   6.676
 8691SOL    HW126972   3.860   1.788   6.724
 8691SOL    HW226973   3.762   1.800   6.594
 8692SOL     OW26974   3.398   1.492   4.506
 8692SOL    HW126975   3.408   1.530   4.598
 8692SOL    HW226976   3.473   1.525   4.448
 8693SOL     OW26977   5.811   6.784   0.318
 8693SOL    HW126978   5.855   6.859   0.368
 8693SOL    HW226979   5.874   6.707   0.310
 8694SOL     OW26980   5.242   1.661   4.704
 8694SOL    HW126981   5.289   1.656   4.616
 8694SOL    HW226982   5.307   1.686   4.775
 8695SOL     OW26983   4.482   3.639   6.215
 8695SOL    HW126984   4.387   3.644   6.184
 8695SOL    HW226985   4.543   3.650   6.136
 8696SOL     OW26986   2.873   5.393   5.254
 8696SOL    HW126987   2.845   5.411   5.348
 8696SOL    HW226988   2.891   5.296   5.242
 8697SOL     OW26989   0.350   4.210   6.312
 8697SOL    HW126990   0.264   4.161   6.325
 8697SOL    HW226991   0.399   4.216   6.399
 8698SOL     OW26992   4.937   6.003   4.867
 8698SOL    HW126993   4.889   6.042   4.946
 8698SOL    HW226994   4.906   5.909   4.852
 8699SOL     OW26995   1.591   2.793   4.480
 8699SOL    HW126996   1.557   2.830   4.566
 8699SOL    HW226997   1.672   2.736   4.499
 8700SOL     OW26998   0.829   0.471   4.869
 8700SOL    HW126999   0.918   0.426   4.867
 8700SOL    HW227000   0.800   0.483   4.964
 8701SOL     OW27001   1.623   1.371   0.062
 8701SOL    HW127002   1.708   1.379   0.113
 8701SOL    HW227003   1.555   1.323   0.117
 8702SOL     OW27004   5.299   5.062   1.979
 8702SOL    HW127005   5.339   4.974   2.004
 8702SOL    HW227006   5.332   5.132   2.043
 8703SOL     OW27007   2.591   4.994   0.083
 8703SOL    HW127008   2.626   4.992   0.176
 8703SOL    HW227009   2.540   5.080   0.069
 8704SOL     OW27010   0.845   4.276   3.421
 8704SOL    HW127011   0.802   4.213   3.356
 8704SOL    HW227012   0.800   4.267   3.510
 8705SOL     OW27013   5.082   1.690   6.246
 8705SOL    HW127014   5.181   1.678   6.250
 8705SOL    HW227015   5.059   1.752   6.171
 8706SOL     OW27016   4.908   2.285   0.303
 8706SOL    HW127017   4.887   2.292   0.401
 8706SOL    HW227018   4.822   2.276   0.252
 8707SOL     OW27019   0.830   1.543   5.254
 8707SOL    HW127020   0.807   1.603   5.331
 8707SOL    HW227021   0.760   1.471   5.246
 8708SOL     OW27022   4.331   1.471   3.576
 8708SOL    HW127023   4.310   1.374   3.593
 8708SOL    HW227024   4.278   1.528   3.639
 8709SOL     OW27025   6.314   6.897   6.751
 8709SOL    HW127026   6.217   6.870   6.743
 8709SOL    HW227027   6.327   6.988   6.713
 8710SOL     OW27028   1.680   2.927   2.987
 8710SOL    HW127029   1.672   2.863   3.064
 8710SOL    HW227030   1.729   3.009   3.016
 8711SOL     OW27031   1.859   6.578   2.913
 8711SOL    HW127032   1.860   6.491   2.961
 8711SOL    HW227033   1.948   6.594   2.869
 8712SOL     OW27034   3.640   1.907   4.258
 8712SOL    HW127035   3.574   1.972   4.220
 8712SOL    HW227036   3.667   1.936   4.349
 8713SOL     OW27037   6.862   3.355   2.279
 8713SOL    HW127038   6.922   3.275   2.272
 8713SOL    HW227039   6.781   3.342   2.221
 8714SOL     OW27040   1.121   0.415   5.802
 8714SOL    HW127041   1.030   0.375   5.814
 8714SOL    HW227042   1.140   0.427   5.705
 8715SOL     OW27043   4.223   0.676   0.680
 8715SOL    HW127044   4.217   0.659   0.582
 8715SOL    HW227045   4.311   0.719   0.702
 8716SOL     OW27046   0.192   6.741   0.509
 8716SOL    HW127047   0.278   6.718   0.463
 8716SOL    HW227048   0.184   6.840   0.519
 8717SOL     OW27049   2.822   3.569   5.454
 8717SOL    HW127050   2.921   3.575   5.465
 8717SOL    HW227051   2.800   3.492   5.394
 8718SOL     OW27052   1.624   2.464   5.515
 8718SOL    HW127053   1.598   2.526   5.441
 8718SOL    HW227054   1.592   2.499   5.602
 8719SOL     OW27055   3.817   7.015   0.387
 8719SOL    HW127056   3.817   6.934   0.329
 8719SOL    HW227057   3.787   0.078   0.334
 8720SOL     OW27058   1.092   6.194   6.259
 8720SOL    HW127059   1.184   6.208   6.222
 8720SOL    HW227060   1.084   6.242   6.347
 8721SOL     OW27061   6.814   2.279   1.175
 8721SOL    HW127062   6.900   2.241   1.207
 8721SOL    HW227063   6.770   2.213   1.114
 8722SOL     OW27064   3.291   1.483   1.036
 8722SOL    HW127065   3.334   1.476   1.126
 8722SOL    HW227066   3.336   1.555   0.984
 8723SOL     OW27067   5.031   6.748   1.682
 8723SOL    HW127068   4.979   6.663   1.693
 8723SOL    HW227069   4.970   6.826   1.696
 8724SOL     OW27070   5.314   6.530   4.168
 8724SOL    HW127071   5.359   6.566   4.086
 8724SOL    HW227072   5.265   6.604   4.214
 8725SOL     OW27073   1.876   5.520   5.843
 8725SOL    HW127074   1.971   5.489   5.835
 8725SOL    HW227075   1.815   5.450   5.806
 8726SOL     OW27076   0.167   0.491   3.164
 8726SOL    HW127077   0.231   0.529   3.230
 8726SOL    HW227078   0.164   0.391   3.174
 8727SOL     OW27079   6.423   0.092   1.615
 8727SOL    HW127080   6.437   7.010   1.621
 8727SOL    HW227081   6.347   0.119   1.674
 8728SOL     OW27082   5.955   0.894   1.863
 8728SOL    HW127083   5.991   0.976   1.818
 8728SOL    HW227084   5.920   0.831   1.794
 8729SOL     OW27085   3.254   5.043   5.398
 8729SOL    HW127086   3.208   5.034   5.310
 8729SOL    HW227087   3.221   4.973   5.461
 8730SOL     OW27088   4.964   3.985   2.510
 8730SOL    HW127089   5.024   3.947   2.439
 8730SOL    HW227090   4.985   4.082   2.523
 8731SOL     OW27091   0.838   3.531   3.187
 8731SOL    HW127092   0.919   3.524   3.246
 8731SOL    HW227093   0.840   3.457   3.120
 8732SOL     OW27094   5.530   4.869   1.977
 8732SOL    HW127095   5.614   4.816   1.968
 8732SOL    HW227096   5.539   4.954   1.926
 8733SOL     OW27097   1.310   5.635   0.962
 8733SOL    HW127098   1.265   5.636   1.051
 8733SOL    HW227099   1.310   5.542   0.926
 8734SOL     OW27100   1.177   3.441   3.018
 8734SOL    HW127101   1.225   3.400   2.941
 8734SOL    HW227102   1.221   3.414   3.103
 8735SOL     OW27103   0.624   2.981   6.395
 8735SOL    HW127104   0.558   2.905   6.391
 8735SOL    HW227105   0.682   2.970   6.475
 8736SOL     OW27106   0.288   5.464   1.869
 8736SOL    HW127107   0.209   5.416   1.831
 8736SOL    HW227108   0.297   5.440   1.966
 8737SOL     OW27109   1.734   6.314   0.213
 8737SOL    HW127110   1.748   6.387   0.146
 8737SOL    HW227111   1.755   6.348   0.304
 8738SOL     OW27112   2.540   5.849   4.036
 8738SOL    HW127113   2.587   5.915   3.977
 8738SOL    HW227114   2.445   5.878   4.050
 8739SOL     OW27115   6.123   5.597   5.855
 8739SOL    HW127116   6.099   5.694   5.865
 8739SOL    HW227117   6.175   5.584   5.771
 8740SOL     OW27118   4.325   1.218   3.707
 8740SOL    HW127119   4.353   1.156   3.634
 8740SOL    HW227120   4.375   1.195   3.791
 8741SOL     OW27121   2.429   0.899   3.123
 8741SOL    HW127122   2.522   0.887   3.090
 8741SOL    HW227123   2.396   0.990   3.099
 8742SOL     OW27124   4.902   0.351   1.484
 8742SOL    HW127125   4.974   0.332   1.551
 8742SOL    HW227126   4.833   0.278   1.488
 8743SOL     OW27127   1.015   0.131   1.518
 8743SOL    HW127128   0.989   0.218   1.560
 8743SOL    HW227129   0.933   0.074   1.506
 8744SOL     OW27130   4.241   2.865   0.565
 8744SOL    HW127131   4.220   2.828   0.655
 8744SOL    HW227132   4.336   2.897   0.563
 8745SOL     OW27133   5.779   1.395   6.421
 8745SOL    HW127134   5.765   1.489   6.452
 8745SOL    HW227135   5.806   1.338   6.499
 8746SOL     OW27136   5.091   5.580   4.612
 8746SOL    HW127137   5.186   5.609   4.611
 8746SOL    HW227138   5.086   5.480   4.618
 8747SOL     OW27139   0.088   1.715   2.773
 8747SOL    HW127140   0.114   1.655   2.698
 8747SOL    HW227141   0.126   1.806   2.757
 8748SOL     OW27142   0.508   1.763   5.031
 8748SOL    HW127143   0.584   1.786   5.090
 8748SOL    HW227144   0.542   1.713   4.951
 8749SOL     OW27145   1.916   0.653   5.343
 8749SOL    HW127146   2.003   0.640   5.296
 8749SOL    HW227147   1.897   0.751   5.352
 8750SOL     OW27148   3.477   3.851   6.041
 8750SOL    HW127149   3.478   3.894   6.131
 8750SOL    HW227150   3.492   3.753   6.050
 8751SOL     OW27151   6.538   2.062   2.055
 8751SOL    HW127152   6.547   2.001   2.134
 8751SOL    HW227153   6.441   2.077   2.035
 8752SOL     OW27154   3.138   2.949   6.459
 8752SOL    HW127155   3.222   2.923   6.508
 8752SOL    HW227156   3.153   3.036   6.413
 8753SOL     OW27157   3.144   1.922   6.293
 8753SOL    HW127158   3.116   1.987   6.222
 8753SOL    HW227159   3.110   1.953   6.382
 8754SOL     OW27160   1.488   4.372   5.134
 8754SOL    HW127161   1.496   4.444   5.203
 8754SOL    HW227162   1.447   4.291   5.175
 8755SOL     OW27163   2.198   0.746   1.108
 8755SOL    HW127164   2.185   0.738   1.009
 8755SOL    HW227165   2.110   0.769   1.150
 8756SOL     OW27166   2.179   3.037   3.181
 8756SOL    HW127167   2.225   2.984   3.252
 8756SOL    HW227168   2.139   3.119   3.220
 8757SOL     OW27169   4.502   5.531   6.561
 8757SOL    HW127170   4.479   5.450   6.615
 8757SOL    HW227171   4.485   5.613   6.615
 8758SOL     OW27172   4.277   6.337   2.757
 8758SOL    HW127173   4.265   6.259   2.819
 8758SOL    HW227174   4.370   6.336   2.721
 8759SOL     OW27175   4.920   3.240   6.800
 8759SOL    HW127176   4.936   3.262   6.704
 8759SOL    HW227177   4.967   3.154   6.823
 8760SOL     OW27178   2.725   0.961   4.819
 8760SOL    HW127179   2.625   0.950   4.817
 8760SOL    HW227180   2.763   0.934   4.730
 8761SOL     OW27181   6.311   2.162   1.261
 8761SOL    HW127182   6.277   2.086   1.205
 8761SOL    HW227183   6.266   2.247   1.232
 8762SOL     OW27184   0.818   5.021   4.475
 8762SOL    HW127185   0.807   5.034   4.376
 8762SOL    HW227186   0.752   5.078   4.523
 8763SOL     OW27187   6.328   6.943   6.095
 8763SOL    HW127188   6.402   6.894   6.050
 8763SOL    HW227189   6.357   0.020   6.115
 8764SOL     OW27190   4.332   6.809   5.501
 8764SOL    HW127191   4.365   6.855   5.584
 8764SOL    HW227192   4.304   6.877   5.434
 8765SOL     OW27193   5.072   0.338   3.895
 8765SOL    HW127194   4.983   0.348   3.850
 8765SOL    HW227195   5.126   0.421   3.880
 8766SOL     OW27196   4.465   4.284   5.222
 8766SOL    HW127197   4.373   4.318   5.202
 8766SOL    HW227198   4.524   4.300   5.143
 8767SOL     OW27199   6.116   6.495   2.730
 8767SOL    HW127200   6.204   6.536   2.707
 8767SOL    HW227201   6.077   6.451   2.649
 8768SOL     OW27202   1.118   2.615   0.143
 8768SOL    HW127203   1.144   2.695   0.089
 8768SOL    HW227204   1.121   2.638   0.241
 8769SOL     OW27205   6.776   1.006   3.268
 8769SOL    HW127206   6.738   1.061   3.194
 8769SOL    HW227207   6.704   0.987   3.335
 8770SOL     OW27208   4.631   4.400   2.251
 8770SOL    HW127209   4.585   4.339   2.187
 8770SOL    HW227210   4.693   4.347   2.309
 8771SOL     OW27211   1.476   1.967   6.242
 8771SOL    HW127212   1.479   1.946   6.144
 8771SOL    HW227213   1.483   1.883   6.295
 8772SOL     OW27214   4.371   0.495   6.406
 8772SOL    HW127215   4.312   0.417   6.383
 8772SOL    HW227216   4.325   0.580   6.380
 8773SOL     OW27217   5.466   2.759   3.213
 8773SOL    HW127218   5.406   2.724   3.142
 8773SOL    HW227219   5.526   2.686   3.245
 8774SOL     OW27220   1.601   0.793   0.378
 8774SOL    HW127221   1.588   0.764   0.283
 8774SOL    HW227222   1.621   0.891   0.380
 8775SOL     OW27223   5.126   1.376   6.021
 8775SOL    HW127224   5.215   1.358   6.062
 8775SOL    HW227225   5.073   1.291   6.017
 8776SOL     OW27226   4.399   3.549   0.828
 8776SOL    HW127227   4.372   3.464   0.784
 8776SOL    HW227228   4.404   3.536   0.927
 8777SOL     OW27229   6.274   4.311   3.093
 8777SOL    HW127230   6.230   4.232   3.136
 8777SOL    HW227231   6.357   4.281   3.046
 8778SOL     OW27232   5.168   3.043   5.805
 8778SOL    HW127233   5.238   3.088   5.861
 8778SOL    HW227234   5.207   3.019   5.716
 8779SOL     OW27235   2.534   5.619   2.318
 8779SOL    HW127236   2.551   5.652   2.225
 8779SOL    HW227237   2.562   5.689   2.384
 8780SOL     OW27238   6.978   0.120   3.118
 8780SOL    HW127239   0.049   0.160   3.145
 8780SOL    HW227240   6.910   0.193   3.105
 8781SOL     OW27241   5.037   0.654   3.758
 8781SOL    HW127242   5.129   0.627   3.729
 8781SOL    HW227243   5.044   0.727   3.825
 8782SOL     OW27244   6.840   0.742   1.710
 8782SOL    HW127245   6.909   0.737   1.638
 8782SOL    HW227246   6.792   0.654   1.716
 8783SOL     OW27247   6.558   4.149   3.085
 8783SOL    HW127248   6.613   4.127   3.165
 8783SOL    HW227249   6.565   4.075   3.018
 8784SOL     OW27250   0.228   6.611   6.404
 8784SOL    HW127251   0.318   6.574   6.430
 8784SOL    HW227252   0.220   6.612   6.305
 8785SOL     OW27253   5.999   4.815   6.918
 8785SOL    HW127254   6.038   4.874   6.847
 8785SOL    HW227255   6.056   4.733   6.928
 8786SOL     OW27256   2.743   0.948   0.738
 8786SOL    HW127257   2.648   0.919   0.731
 8786SOL    HW227258   2.791   0.925   0.653
 8787SOL     OW27259   2.866   1.413   2.000
 8787SOL    HW127260   2.937   1.362   2.049
 8787SOL    HW227261   2.909   1.478   1.937
 8788SOL     OW27262   0.069   0.961   4.994
 8788SOL    HW127263   0.002   0.956   5.068
 8788SOL    HW227264   0.161   0.964   5.032
 8789SOL     OW27265   6.538   5.088   5.284
 8789SOL    HW127266   6.478   5.162   5.253
 8789SOL    HW227267   6.630   5.124   5.299
 8790SOL     OW27268   6.272   0.659   6.476
 8790SOL    HW127269   6.236   0.718   6.549
 8790SOL    HW227270   6.359   0.697   6.443
 8791SOL     OW27271   5.356   6.944   5.296
 8791SOL    HW127272   5.397   6.936   5.205
 8791SOL    HW227273   5.411   7.006   5.352
 8792SOL     OW27274   3.207   5.028   3.049
 8792SOL    HW127275   3.294   5.064   3.016
 8792SOL    HW227276   3.201   5.041   3.148
 8793SOL     OW27277   0.557   4.611   2.489
 8793SOL    HW127278   0.647   4.654   2.484
 8793SOL    HW227279   0.488   4.672   2.449
 8794SOL     OW27280   5.370   0.582   2.965
 8794SOL    HW127281   5.443   0.651   2.966
 8794SOL    HW227282   5.337   0.568   3.059
 8795SOL     OW27283   1.022   4.792   5.631
 8795SOL    HW127284   1.054   4.854   5.702
 8795SOL    HW227285   0.924   4.776   5.643
 8796SOL     OW27286   4.920   2.455   3.115
 8796SOL    HW127287   4.897   2.397   3.037
 8796SOL    HW227288   4.982   2.406   3.176
 8797SOL     OW27289   0.230   6.971   6.374
 8797SOL    HW127290   0.213   0.052   6.356
 8797SOL    HW227291   0.176   6.942   6.454
 8798SOL     OW27292   4.524   6.206   6.613
 8798SOL    HW127293   4.578   6.152   6.678
 8798SOL    HW227294   4.580   6.281   6.578
 8799SOL     OW27295   2.423   5.079   3.758
 8799SOL    HW127296   2.339   5.126   3.786
 8799SOL    HW227297   2.453   5.017   3.831
 8800SOL     OW27298   5.649   4.947   6.167
 8800SOL    HW127299   5.646   4.917   6.072
 8800SOL    HW227300   5.622   4.871   6.226
 8801SOL     OW27301   6.337   1.723   4.871
 8801SOL    HW127302   6.425   1.702   4.828
 8801SOL    HW227303   6.277   1.768   4.804
 8802SOL     OW27304   1.707   5.923   6.210
 8802SOL    HW127305   1.726   5.841   6.264
 8802SOL    HW227306   1.609   5.929   6.191
 8803SOL     OW27307   6.764   0.259   0.396
 8803SOL    HW127308   6.771   0.183   0.331
 8803SOL    HW227309   6.765   0.222   0.489
 8804SOL     OW27310   2.123   6.062   1.183
 8804SOL    HW127311   2.039   6.085   1.232
 8804SOL    HW227312   2.202   6.090   1.236
 8805SOL     OW27313   3.785   6.212   3.518
 8805SOL    HW127314   3.820   6.240   3.607
 8805SOL    HW227315   3.751   6.118   3.523
 8806SOL     OW27316   2.984   4.308   1.170
 8806SOL    HW127317   2.988   4.337   1.074
 8806SOL    HW227318   2.904   4.248   1.183
 8807SOL     OW27319   4.937   1.640   0.553
 8807SOL    HW127320   4.847   1.657   0.513
 8807SOL    HW227321   4.926   1.622   0.651
 8808SOL     OW27322   6.329   2.557   6.104
 8808SOL    HW127323   6.358   2.652   6.093
 8808SOL    HW227324   6.325   2.513   6.015
 8809SOL     OW27325   3.265   5.034   4.145
 8809SOL    HW127326   3.344   5.046   4.205
 8809SOL    HW227327   3.193   4.985   4.194
 8810SOL     OW27328   5.806   0.238   5.193
 8810SOL    HW127329   5.752   0.312   5.232
 8810SOL    HW227330   5.799   0.239   5.094
 8811SOL     OW27331   3.352   0.897   3.064
 8811SOL    HW127332   3.408   0.870   3.143
 8811SOL    HW227333   3.412   0.918   2.987
 8812SOL     OW27334   2.251   0.369   0.576
 8812SOL    HW127335   2.181   0.303   0.605
 8812SOL    HW227336   2.282   0.422   0.655
 8813SOL     OW27337   2.058   5.942   3.714
 8813SOL    HW127338   2.124   5.999   3.762
 8813SOL    HW227339   2.084   5.846   3.723
 8814SOL     OW27340   5.917   7.013   0.451
 8814SOL    HW127341   6.009   0.036   0.447
 8814SOL    HW227342   5.874   0.022   0.538
 8815SOL     OW27343   5.504   7.008   1.360
 8815SOL    HW127344   5.530   0.085   1.337
 8815SOL    HW227345   5.432   7.010   1.429
 8816SOL     OW27346   0.983   6.824   0.004
 8816SOL    HW127347   1.012   6.728   7.015
 8816SOL    HW227348   1.031   6.877   6.951
 8817SOL     OW27349   6.981   3.727   3.687
 8817SOL    HW127350   0.042   3.665   3.692
 8817SOL    HW227351   7.007   3.816   3.725
 8818SOL     OW27352   1.228   5.952   3.550
 8818SOL    HW127353   1.177   5.991   3.627
 8818SOL    HW227354   1.180   5.871   3.516
 8819SOL     OW27355   5.710   5.020   5.221
 8819SOL    HW127356   5.681   5.038   5.127
 8819SOL    HW227357   5.799   5.063   5.237
 8820SOL     OW27358   2.671   0.841   5.738
 8820SOL    HW127359   2.600   0.772   5.725
 8820SOL    HW227360   2.635   0.930   5.709
 8821SOL     OW27361   1.598   5.950   0.700
 8821SOL    HW127362   1.577   5.864   0.746
 8821SOL    HW227363   1.631   6.016   0.768
 8822SOL     OW27364   0.711   0.835   3.490
 8822SOL    HW127365   0.729   0.932   3.503
 8822SOL    HW227366   0.705   0.816   3.392
 8823SOL     OW27367   2.452   0.918   2.480
 8823SOL    HW127368   2.533   0.887   2.531
 8823SOL    HW227369   2.383   0.952   2.544
 8824SOL     OW27370   1.508   1.353   0.347
 8824SOL    HW127371   1.586   1.415   0.356
 8824SOL    HW227372   1.439   1.376   0.415
 8825SOL     OW27373   1.122   1.168   1.921
 8825SOL    HW127374   1.221   1.161   1.910
 8825SOL    HW227375   1.095   1.264   1.925
 8826SOL     OW27376   0.973   3.783   0.705
 8826SOL    HW127377   1.026   3.817   0.782
 8826SOL    HW227378   0.980   3.847   0.629
 8827SOL     OW27379   3.925   6.923   2.891
 8827SOL    HW127380   3.955   0.002   2.901
 8827SOL    HW227381   3.984   6.876   2.825
 8828SOL     OW27382   4.006   4.961   6.571
 8828SOL    HW127383   3.989   5.058   6.550
 8828SOL    HW227384   3.956   4.904   6.506
 8829SOL     OW27385   5.480   1.877   1.151
 8829SOL    HW127386   5.500   1.899   1.055
 8829SOL    HW227387   5.381   1.860   1.160
 8830SOL     OW27388   2.292   1.798   2.445
 8830SOL    HW127389   2.350   1.726   2.485
 8830SOL    HW227390   2.289   1.787   2.346
 8831SOL     OW27391   5.452   2.416   2.877
 8831SOL    HW127392   5.444   2.363   2.961
 8831SOL    HW227393   5.475   2.354   2.801
 8832SOL     OW27394   6.573   6.258   3.500
 8832SOL    HW127395   6.517   6.341   3.489
 8832SOL    HW227396   6.652   6.263   3.438
 8833SOL     OW27397   2.975   4.819   6.513
 8833SOL    HW127398   2.908   4.849   6.581
 8833SOL    HW227399   2.955   4.725   6.485
 8834SOL     OW27400   5.640   3.641   4.259
 8834SOL    HW127401   5.597   3.556   4.293
 8834SOL    HW227402   5.606   3.661   4.168
 8835SOL     OW27403   5.066   1.106   5.845
 8835SOL    HW127404   5.027   1.056   5.923
 8835SOL    HW227405   5.162   1.079   5.833
 8836SOL     OW27406   5.221   1.784   1.176
 8836SOL    HW127407   5.207   1.731   1.260
 8836SOL    HW227408   5.159   1.752   1.105
 8837SOL     OW27409   0.033   0.020   2.820
 8837SOL    HW127410   0.062   0.102   2.771
 8837SOL    HW227411   0.025   0.040   2.917
 8838SOL     OW27412   1.859   4.618   3.740
 8838SOL    HW127413   1.832   4.648   3.832
 8838SOL    HW227414   1.944   4.565   3.747
 8839SOL     OW27415   4.286   5.979   2.053
 8839SOL    HW127416   4.349   6.030   1.994
 8839SOL    HW227417   4.338   5.916   2.111
 8840SOL     OW27418   6.463   0.949   2.458
 8840SOL    HW127419   6.446   1.018   2.529
 8840SOL    HW227420   6.535   0.887   2.489
 8841SOL     OW27421   6.780   1.569   4.569
 8841SOL    HW127422   6.798   1.470   4.566
 8841SOL    HW227423   6.861   1.616   4.603
 8842SOL     OW27424   3.217   3.569   3.386
 8842SOL    HW127425   3.255   3.486   3.346
 8842SOL    HW227426   3.130   3.590   3.341
 8843SOL     OW27427   2.062   3.347   4.301
 8843SOL    HW127428   1.992   3.346   4.229
 8843SOL    HW227429   2.048   3.426   4.360
 8844SOL     OW27430   6.787   1.841   4.744
 8844SOL    HW127431   6.845   1.800   4.674
 8844SOL    HW227432   6.843   1.899   4.804
 8845SOL     OW27433   2.395   3.770   1.208
 8845SOL    HW127434   2.477   3.808   1.166
 8845SOL    HW227435   2.347   3.842   1.259
 8846SOL     OW27436   3.583   4.957   4.556
 8846SOL    HW127437   3.485   4.940   4.563
 8846SOL    HW227438   3.615   4.999   4.641
 8847SOL     OW27439   2.745   1.078   2.861
 8847SOL    HW127440   2.833   1.092   2.907
 8847SOL    HW227441   2.731   1.148   2.792
 8848SOL     OW27442   2.998   2.212   2.280
 8848SOL    HW127443   2.932   2.247   2.346
 8848SOL    HW227444   2.965   2.230   2.187
 8849SOL     OW27445   3.692   5.586   3.271
 8849SOL    HW127446   3.782   5.610   3.308
 8849SOL    HW227447   3.664   5.497   3.307
 8850SOL     OW27448   2.025   1.006   6.883
 8850SOL    HW127449   2.083   1.036   6.959
 8850SOL    HW227450   2.012   0.907   6.888
 8851SOL     OW27451   1.049   4.862   2.190
 8851SOL    HW127452   1.029   4.782   2.246
 8851SOL    HW227453   0.968   4.886   2.136
 8852SOL     OW27454   4.109   3.979   5.747
 8852SOL    HW127455   4.020   4.026   5.748
 8852SOL    HW227456   4.174   4.032   5.693
 8853SOL     OW27457   3.671   0.835   6.156
 8853SOL    HW127458   3.698   0.797   6.244
 8853SOL    HW227459   3.750   0.882   6.115
 8854SOL     OW27460   2.997   1.674   6.282
 8854SOL    HW127461   3.021   1.770   6.266
 8854SOL    HW227462   3.080   1.618   6.279
 8855SOL     OW27463   6.996   6.177   0.244
 8855SOL    HW127464   0.006   6.082   0.261
 8855SOL    HW227465   6.898   6.187   0.255
 8856SOL     OW27466   6.146   0.849   6.306
 8856SOL    HW127467   6.160   0.771   6.367
 8856SOL    HW227468   6.172   0.933   6.353
 8857SOL     OW27469   6.827   2.282   4.090
 8857SOL    HW127470   6.751   2.326   4.042
 8857SOL    HW227471   6.828   2.312   4.185
 8858SOL     OW27472   1.528   2.617   5.296
 8858SOL    HW127473   1.591   2.651   5.225
 8858SOL    HW227474   1.469   2.692   5.326
 8859SOL     OW27475   6.273   1.129   4.380
 8859SOL    HW127476   6.217   1.070   4.438
 8859SOL    HW227477   6.314   1.074   4.307
 8860SOL     OW27478   1.114   3.701   2.960
 8860SOL    HW127479   1.163   3.703   2.872
 8860SOL    HW227480   1.131   3.613   3.005
 8861SOL     OW27481   3.663   1.734   6.282
 8861SOL    HW127482   3.594   1.794   6.241
 8861SOL    HW227483   3.697   1.670   6.214
 8862SOL     OW27484   6.098   0.495   3.248
 8862SOL    HW127485   6.061   0.506   3.340
 8862SOL    HW227486   6.051   0.420   3.202
 8863SOL     OW27487   1.540   5.609   4.075
 8863SOL    HW127488   1.506   5.672   4.146
 8863SOL    HW227489   1.483   5.527   4.073
 8864SOL     OW27490   2.777   2.930   6.105
 8864SOL    HW127491   2.688   2.952   6.065
 8864SOL    HW227492   2.849   2.957   6.041
 8865SOL     OW27493   2.936   1.751   5.799
 8865SOL    HW127494   2.879   1.712   5.726
 8865SOL    HW227495   2.912   1.708   5.886
 8866SOL     OW27496   5.171   6.748   3.291
 8866SOL    HW127497   5.203   6.696   3.369
 8866SOL    HW227498   5.118   6.827   3.323
 8867SOL     OW27499   5.227   3.658   2.058
 8867SOL    HW127500   5.295   3.710   2.006
 8867SOL    HW227501   5.142   3.654   2.006
 8868SOL     OW27502   6.446   2.956   0.352
 8868SOL    HW127503   6.485   2.939   0.442
 8868SOL    HW227504   6.508   3.014   0.299
 8869SOL     OW27505   4.035   6.461   4.505
 8869SOL    HW127506   4.032   6.445   4.406
 8869SOL    HW227507   4.115   6.517   4.527
 8870SOL     OW27508   4.543   0.143   0.148
 8870SOL    HW127509   4.507   0.128   0.240
 8870SOL    HW227510   4.592   0.230   0.145
 8871SOL     OW27511   0.984   0.272   3.786
 8871SOL    HW127512   0.969   0.366   3.756
 8871SOL    HW227513   0.983   0.268   3.886
 8872SOL     OW27514   1.414   4.584   5.319
 8872SOL    HW127515   1.369   4.605   5.406
 8872SOL    HW227516   1.352   4.606   5.244
 8873SOL     OW27517   0.742   5.649   2.337
 8873SOL    HW127518   0.759   5.744   2.310
 8873SOL    HW227519   0.651   5.622   2.306
 8874SOL     OW27520   2.949   6.225   1.569
 8874SOL    HW127521   2.921   6.130   1.554
 8874SOL    HW227522   2.868   6.283   1.576
 8875SOL     OW27523   6.166   3.873   4.213
 8875SOL    HW127524   6.080   3.841   4.252
 8875SOL    HW227525   6.155   3.967   4.181
 8876SOL     OW27526   1.755   0.040   4.419
 8876SOL    HW127527   1.795   0.003   4.335
 8876SOL    HW227528   1.812   0.116   4.451
 8877SOL     OW27529   2.851   1.240   3.944
 8877SOL    HW127530   2.838   1.141   3.931
 8877SOL    HW227531   2.945   1.265   3.919
 8878SOL     OW27532   6.880   5.261   0.346
 8878SOL    HW127533   6.839   5.265   0.438
 8878SOL    HW227534   6.856   5.174   0.303
 8879SOL     OW27535   5.212   4.441   1.710
 8879SOL    HW127536   5.287   4.450   1.644
 8879SOL    HW227537   5.201   4.344   1.734
 8880SOL     OW27538   5.900   5.310   4.632
 8880SOL    HW127539   5.962   5.387   4.651
 8880SOL    HW227540   5.805   5.340   4.642
 8881SOL     OW27541   6.182   6.885   4.535
 8881SOL    HW127542   6.114   6.865   4.606
 8881SOL    HW227543   6.267   6.914   4.578
 8882SOL     OW27544   5.792   1.330   1.039
 8882SOL    HW127545   5.771   1.422   1.072
 8882SOL    HW227546   5.866   1.291   1.094
 8883SOL     OW27547   1.874   6.860   5.640
 8883SOL    HW127548   1.944   6.847   5.710
 8883SOL    HW227549   1.908   6.922   5.570
 8884SOL     OW27550   5.923   4.183   6.826
 8884SOL    HW127551   6.002   4.183   6.887
 8884SOL    HW227552   5.884   4.091   6.822
 8885SOL     OW27553   0.643   3.398   0.367
 8885SOL    HW127554   0.570   3.331   0.379
 8885SOL    HW227555   0.630   3.473   0.431
 8886SOL     OW27556   3.499   6.362   5.107
 8886SOL    HW127557   3.440   6.425   5.158
 8886SOL    HW227558   3.537   6.294   5.170
 8887SOL     OW27559   3.170   1.806   1.506
 8887SOL    HW127560   3.184   1.858   1.421
 8887SOL    HW227561   3.185   1.709   1.488
 8888SOL     OW27562   1.385   1.560   0.052
 8888SOL    HW127563   1.472   1.514   0.032
 8888SOL    HW227564   1.373   1.637   7.006
 8889SOL     OW27565   5.682   0.476   5.277
 8889SOL    HW127566   5.655   0.456   5.371
 8889SOL    HW227567   5.601   0.495   5.222
 8890SOL     OW27568   6.245   5.507   4.067
 8890SOL    HW127569   6.313   5.434   4.072
 8890SOL    HW227570   6.181   5.487   3.992
 8891SOL     OW27571   5.147   3.423   5.580
 8891SOL    HW127572   5.222   3.370   5.621
 8891SOL    HW227573   5.059   3.387   5.611
 8892SOL     OW27574   3.908   5.689   3.442
 8892SOL    HW127575   3.916   5.760   3.513
 8892SOL    HW227576   3.982   5.623   3.452
 8893SOL     OW27577   1.152   6.721   3.226
 8893SOL    HW127578   1.130   6.679   3.137
 8893SOL    HW227579   1.239   6.685   3.259
 8894SOL     OW27580   4.253   2.534   5.717
 8894SOL    HW127581   4.225   2.629   5.704
 8894SOL    HW227582   4.345   2.532   5.756
 8895SOL     OW27583   6.846   1.915   2.321
 8895SOL    HW127584   6.876   1.940   2.413
 8895SOL    HW227585   6.874   1.821   2.302
 8896SOL     OW27586   1.671   3.479   5.433
 8896SOL    HW127587   1.698   3.410   5.367
 8896SOL    HW227588   1.709   3.568   5.407
 8897SOL     OW27589   1.827   3.126   3.147
 8897SOL    HW127590   1.865   3.086   3.230
 8897SOL    HW227591   1.733   3.157   3.165
 8898SOL     OW27592   5.329   3.688   3.391
 8898SOL    HW127593   5.323   3.589   3.373
 8898SOL    HW227594   5.294   3.738   3.312
 8899SOL     OW27595   1.945   4.722   0.961
 8899SOL    HW127596   2.009   4.682   0.895
 8899SOL    HW227597   1.937   4.661   1.040
 8900SOL     OW27598   6.010   3.047   2.117
 8900SOL    HW127599   5.975   3.138   2.140
 8900SOL    HW227600   6.005   2.988   2.197
 8901SOL     OW27601   1.469   1.231   4.566
 8901SOL    HW127602   1.565   1.235   4.594
 8901SOL    HW227603   1.437   1.322   4.540
 8902SOL     OW27604   2.317   6.676   0.852
 8902SOL    HW127605   2.394   6.739   0.862
 8902SOL    HW227606   2.234   6.728   0.833
 8903SOL     OW27607   0.776   1.292   4.506
 8903SOL    HW127608   0.785   1.384   4.470
 8903SOL    HW227609   0.692   1.285   4.560
 8904SOL     OW27610   6.120   5.871   3.806
 8904SOL    HW127611   6.138   5.802   3.736
 8904SOL    HW227612   6.047   5.839   3.867
 8905SOL     OW27613   1.854   4.590   4.066
 8905SOL    HW127614   1.874   4.516   4.131
 8905SOL    HW227615   1.932   4.652   4.060
 8906SOL     OW27616   6.993   6.602   6.963
 8906SOL    HW127617   6.894   6.595   6.952
 8906SOL    HW227618   0.014   6.513   6.988
 8907SOL     OW27619   2.939   2.241   4.666
 8907SOL    HW127620   2.870   2.308   4.637
 8907SOL    HW227621   2.947   2.171   4.595
 8908SOL     OW27622   1.081   3.639   6.829
 8908SOL    HW127623   1.086   3.571   6.756
 8908SOL    HW227624   1.036   3.599   6.909
 8909SOL     OW27625   2.141   0.829   5.228
 8909SOL    HW127626   2.214   0.785   5.174
 8909SOL    HW227627   2.181   0.869   5.310
 8910SOL     OW27628   0.336   3.018   5.990
 8910SOL    HW127629   0.280   3.095   6.022
 8910SOL    HW227630   0.296   2.982   5.905
 8911SOL     OW27631   4.424   2.440   4.959
 8911SOL    HW127632   4.465   2.481   5.040
 8911SOL    HW227633   4.328   2.418   4.977
 8912SOL     OW27634   3.920   3.013   0.674
 8912SOL    HW127635   3.867   3.014   0.589
 8912SOL    HW227636   3.896   2.932   0.728
 8913SOL     OW27637   4.914   4.995   6.309
 8913SOL    HW127638   4.833   5.000   6.251
 8913SOL    HW227639   4.919   5.078   6.366
 8914SOL     OW27640   3.489   0.218   4.050
 8914SOL    HW127641   3.519   0.243   4.142
 8914SOL    HW227642   3.569   0.188   3.996
 8915SOL     OW27643   0.741   2.693   3.973
 8915SOL    HW127644   0.751   2.593   3.971
 8915SOL    HW227645   0.648   2.716   4.000
 8916SOL     OW27646   0.147   3.660   0.747
 8916SOL    HW127647   0.128   3.641   0.843
 8916SOL    HW227648   0.115   3.584   0.691
 8917SOL     OW27649   6.501   4.059   6.532
 8917SOL    HW127650   6.434   4.013   6.590
 8917SOL    HW227651   6.587   4.008   6.534
 8918SOL     OW27652   6.670   3.644   1.641
 8918SOL    HW127653   6.670   3.561   1.585
 8918SOL    HW227654   6.601   3.635   1.713
 8919SOL     OW27655   3.994   4.321   0.567
 8919SOL    HW127656   4.014   4.417   0.546
 8919SOL    HW227657   4.080   4.273   0.587
 8920SOL     OW27658   1.105   0.168   0.173
 8920SOL    HW127659   1.112   0.217   0.087
 8920SOL    HW227660   1.173   0.094   0.175
 8921SOL     OW27661   2.563   2.065   2.771
 8921SOL    HW127662   2.618   2.106   2.843
 8921SOL    HW227663   2.529   1.976   2.800
 8922SOL     OW27664   3.577   5.110   1.345
 8922SOL    HW127665   3.559   5.096   1.248
 8922SOL    HW227666   3.505   5.068   1.399
 8923SOL     OW27667   1.379   2.950   6.077
 8923SOL    HW127668   1.433   3.021   6.122
 8923SOL    HW227669   1.413   2.860   6.103
 8924SOL     OW27670   3.167   5.929   6.047
 8924SOL    HW127671   3.253   5.881   6.058
 8924SOL    HW227672   3.159   5.966   5.955
 8925SOL     OW27673   0.468   1.172   2.797
 8925SOL    HW127674   0.488   1.100   2.730
 8925SOL    HW227675   0.549   1.189   2.853
 8926SOL     OW27676   6.102   3.724   5.841
 8926SOL    HW127677   6.089   3.625   5.853
 8926SOL    HW227678   6.166   3.758   5.910
 8927SOL     OW27679   0.807   1.594   4.184
 8927SOL    HW127680   0.826   1.497   4.196
 8927SOL    HW227681   0.726   1.619   4.236
 8928SOL     OW27682   0.054   0.605   6.045
 8928SOL    HW127683   0.091   0.689   6.086
 8928SOL    HW227684   6.988   0.578   6.095
 8929SOL     OW27685   6.588   3.407   4.382
 8929SOL    HW127686   6.505   3.430   4.433
 8929SOL    HW227687   6.668   3.413   4.442
 8930SOL     OW27688   1.479   4.123   4.424
 8930SOL    HW127689   1.420   4.078   4.490
 8930SOL    HW227690   1.548   4.059   4.391
 8931SOL     OW27691   3.235   3.159   1.315
 8931SOL    HW127692   3.172   3.101   1.368
 8931SOL    HW227693   3.298   3.100   1.264
 8932SOL     OW27694   5.802   0.269   0.729
 8932SOL    HW127695   5.758   0.249   0.817
 8932SOL    HW227696   5.816   0.368   0.721
 8933SOL     OW27697   1.915   2.762   6.174
 8933SOL    HW127698   1.937   2.689   6.108
 8933SOL    HW227699   1.979   2.758   6.250
 8934SOL     OW27700   2.829   5.238   4.752
 8934SOL    HW127701   2.777   5.152   4.757
 8934SOL    HW227702   2.881   5.240   4.666
 8935SOL     OW27703   6.068   3.952   1.317
 8935SOL    HW127704   6.002   3.932   1.244
 8935SOL    HW227705   6.160   3.932   1.285
 8936SOL     OW27706   1.122   3.389   1.418
 8936SOL    HW127707   1.212   3.383   1.374
 8936SOL    HW227708   1.129   3.447   1.499
 8937SOL     OW27709   0.187   6.828   4.607
 8937SOL    HW127710   0.230   6.916   4.622
 8937SOL    HW227711   0.100   6.841   4.560
 8938SOL     OW27712   0.176   1.117   0.237
 8938SOL    HW127713   0.196   1.035   0.184
 8938SOL    HW227714   0.170   1.093   0.334
 8939SOL     OW27715   5.667   3.936   4.340
 8939SOL    HW127716   5.594   3.997   4.370
 8939SOL    HW227717   5.631   3.844   4.326
 8940SOL     OW27718   5.580   1.125   1.518
 8940SOL    HW127719   5.680   1.126   1.529
 8940SOL    HW227720   5.538   1.158   1.603
 8941SOL     OW27721   6.401   2.772   3.444
 8941SOL    HW127722   6.332   2.729   3.386
 8941SOL    HW227723   6.396   2.733   3.536
 8942SOL     OW27724   0.725   5.378   5.683
 8942SOL    HW127725   0.728   5.281   5.708
 8942SOL    HW227726   0.637   5.398   5.639
 8943SOL     OW27727   3.573   5.606   0.252
 8943SOL    HW127728   3.658   5.575   0.211
 8943SOL    HW227729   3.515   5.649   0.182
 8944SOL     OW27730   5.228   5.971   4.528
 8944SOL    HW127731   5.165   6.022   4.586
 8944SOL    HW227732   5.314   5.957   4.576
 8945SOL     OW27733   0.105   2.157   4.372
 8945SOL    HW127734   0.096   2.108   4.286
 8945SOL    HW227735   0.026   2.137   4.430
 8946SOL     OW27736   4.028   0.605   4.160
 8946SOL    HW127737   3.933   0.611   4.188
 8946SOL    HW227738   4.077   0.687   4.190
 8947SOL     OW27739   2.055   2.949   5.961
 8947SOL    HW127740   2.014   3.030   5.918
 8947SOL    HW227741   2.042   2.954   6.060
 8948SOL     OW27742   5.945   5.872   3.485
 8948SOL    HW127743   6.005   5.949   3.466
 8948SOL    HW227744   5.986   5.813   3.555
 8949SOL     OW27745   3.816   6.119   0.623
 8949SOL    HW127746   3.809   6.123   0.523
 8949SOL    HW227747   3.733   6.077   0.660
 8950SOL     OW27748   3.965   3.143   0.952
 8950SOL    HW127749   3.884   3.088   0.971
 8950SOL    HW227750   3.970   3.163   0.855
 8951SOL     OW27751   2.093   1.078   5.135
 8951SOL    HW127752   2.021   1.098   5.201
 8951SOL    HW227753   2.134   0.990   5.156
 8952SOL     OW27754   0.671   5.118   3.847
 8952SOL    HW127755   0.723   5.062   3.912
 8952SOL    HW227756   0.581   5.077   3.834
 8953SOL     OW27757   0.332   4.447   0.889
 8953SOL    HW127758   0.380   4.389   0.954
 8953SOL    HW227759   0.394   4.518   0.856
 8954SOL     OW27760   6.833   0.254   4.423
 8954SOL    HW127761   6.929   0.252   4.396
 8954SOL    HW227762   6.819   0.325   4.492
 8955SOL     OW27763   6.847   4.776   3.176
 8955SOL    HW127764   6.905   4.775   3.094
 8955SOL    HW227765   6.806   4.867   3.186
 8956SOL     OW27766   1.869   1.248   5.864
 8956SOL    HW127767   1.947   1.275   5.808
 8956SOL    HW227768   1.785   1.262   5.813
 8957SOL     OW27769   1.809   4.627   1.577
 8957SOL    HW127770   1.768   4.710   1.614
 8957SOL    HW227771   1.741   4.577   1.524
 8958SOL     OW27772   1.028   2.268   5.568
 8958SOL    HW127773   1.116   2.308   5.543
 8958SOL    HW227774   0.969   2.265   5.487
 8959SOL     OW27775   1.898   3.978   3.362
 8959SOL    HW127776   1.913   4.072   3.334
 8959SOL    HW227777   1.985   3.937   3.390
 8960SOL     OW27778   5.419   5.495   4.024
 8960SOL    HW127779   5.499   5.435   4.022
 8960SOL    HW227780   5.336   5.440   4.018
 8961SOL     OW27781   3.855   1.194   3.640
 8961SOL    HW127782   3.852   1.279   3.692
 8961SOL    HW227783   3.877   1.214   3.544
 8962SOL     OW27784   6.049   5.277   2.033
 8962SOL    HW127785   6.060   5.189   2.079
 8962SOL    HW227786   6.014   5.344   2.097
 8963SOL     OW27787   3.771   6.978   4.814
 8963SOL    HW127788   3.776   6.947   4.719
 8963SOL    HW227789   3.848   0.022   4.834
 8964SOL     OW27790   6.113   2.916   2.909
 8964SOL    HW127791   6.043   2.942   2.842
 8964SOL    HW227792   6.092   2.826   2.947
 8965SOL     OW27793   2.461   5.577   0.109
 8965SOL    HW127794   2.506   5.538   0.189
 8965SOL    HW227795   2.372   5.534   0.097
 8966SOL     OW27796   6.521   4.168   0.429
 8966SOL    HW127797   6.608   4.120   0.439
 8966SOL    HW227798   6.498   4.213   0.516
 8967SOL     OW27799   3.798   0.604   2.061
 8967SOL    HW127800   3.751   0.538   2.119
 8967SOL    HW227801   3.818   0.562   1.972
 8968SOL     OW27802   4.285   5.736   2.496
 8968SOL    HW127803   4.222   5.802   2.456
 8968SOL    HW227804   4.287   5.746   2.595
 8969SOL     OW27805   0.019   0.143   3.867
 8969SOL    HW127806   6.975   0.120   3.791
 8969SOL    HW227807   0.109   0.103   3.852
 8970SOL     OW27808   2.492   2.375   6.464
 8970SOL    HW127809   2.474   2.452   6.403
 8970SOL    HW227810   2.534   2.409   6.549
 8971SOL     OW27811   5.483   5.346   1.058
 8971SOL    HW127812   5.512   5.389   0.972
 8971SOL    HW227813   5.524   5.395   1.135
 8972SOL     OW27814   4.657   4.199   0.861
 8972SOL    HW127815   4.708   4.149   0.931
 8972SOL    HW227816   4.561   4.206   0.888
 8973SOL     OW27817   6.830   3.271   3.374
 8973SOL    HW127818   6.760   3.251   3.442
 8973SOL    HW227819   6.790   3.269   3.282
 8974SOL     OW27820   1.675   3.354   3.921
 8974SOL    HW127821   1.604   3.424   3.911
 8974SOL    HW227822   1.646   3.287   3.989
 8975SOL     OW27823   0.748   6.318   6.756
 8975SOL    HW127824   0.744   6.317   6.656
 8975SOL    HW227825   0.709   6.232   6.791
 8976SOL     OW27826   6.427   5.428   6.985
 8976SOL    HW127827   6.384   5.446   6.896
 8976SOL    HW227828   6.371   5.365   0.021
 8977SOL     OW27829   6.254   3.520   6.588
 8977SOL    HW127830   6.156   3.503   6.577
 8977SOL    HW227831   6.288   3.567   6.507
 8978SOL     OW27832   5.548   6.920   4.584
 8978SOL    HW127833   5.523   6.828   4.614
 8978SOL    HW227834   5.474   6.957   4.528
 8979SOL     OW27835   1.526   4.668   6.096
 8979SOL    HW127836   1.462   4.617   6.038
 8979SOL    HW227837   1.613   4.619   6.101
 8980SOL     OW27838   4.829   2.846   5.370
 8980SOL    HW127839   4.903   2.848   5.437
 8980SOL    HW227840   4.760   2.779   5.400
 8981SOL     OW27841   4.712   1.969   5.870
 8981SOL    HW127842   4.719   1.960   5.969
 8981SOL    HW227843   4.783   2.032   5.837
 8982SOL     OW27844   0.539   1.583   1.237
 8982SOL    HW127845   0.451   1.536   1.240
 8982SOL    HW227846   0.570   1.601   1.331
 8983SOL     OW27847   0.657   5.414   0.496
 8983SOL    HW127848   0.743   5.390   0.451
 8983SOL    HW227849   0.660   5.510   0.525
 8984SOL     OW27850   6.168   6.123   3.718
 8984SOL    HW127851   6.165   6.033   3.762
 8984SOL    HW227852   6.206   6.114   3.626
 8985SOL     OW27853   2.262   1.644   1.018
 8985SOL    HW127854   2.227   1.671   0.929
 8985SOL    HW227855   2.357   1.674   1.027
 8986SOL     OW27856   4.018   5.196   2.627
 8986SOL    HW127857   4.111   5.233   2.631
 8986SOL    HW227858   4.010   5.118   2.689
 8987SOL     OW27859   3.019   0.392   1.370
 8987SOL    HW127860   3.080   0.327   1.326
 8987SOL    HW227861   2.984   0.456   1.301
 8988SOL     OW27862   2.047   4.555   0.684
 8988SOL    HW127863   2.029   4.562   0.585
 8988SOL    HW227864   2.119   4.619   0.709
 8989SOL     OW27865   4.807   3.988   2.279
 8989SOL    HW127866   4.834   4.044   2.201
 8989SOL    HW227867   4.880   3.989   2.347
 8990SOL     OW27868   2.227   5.153   1.994
 8990SOL    HW127869   2.225   5.253   1.987
 8990SOL    HW227870   2.190   5.125   2.082
 8991SOL     OW27871   2.268   1.112   0.707
 8991SOL    HW127872   2.266   1.212   0.704
 8991SOL    HW227873   2.304   1.082   0.795
 8992SOL     OW27874   6.957   2.249   6.394
 8992SOL    HW127875   7.004   2.166   6.425
 8992SOL    HW227876   6.977   2.324   6.456
 8993SOL     OW27877   4.648   2.523   2.546
 8993SOL    HW127878   4.676   2.516   2.451
 8993SOL    HW227879   4.664   2.616   2.579
 8994SOL     OW27880   0.815   6.082   4.417
 8994SOL    HW127881   0.819   6.181   4.401
 8994SOL    HW227882   0.724   6.057   4.449
 8995SOL     OW27883   1.380   2.631   5.724
 8995SOL    HW127884   1.307   2.617   5.791
 8995SOL    HW227885   1.468   2.610   5.766
 8996SOL     OW27886   6.970   4.408   2.087
 8996SOL    HW127887   0.015   4.333   2.114
 8996SOL    HW227888   6.900   4.373   2.025
 8997SOL     OW27889   4.409   1.516   6.360
 8997SOL    HW127890   4.376   1.435   6.312
 8997SOL    HW227891   4.363   1.597   6.324
 8998SOL     OW27892   0.476   2.713   4.086
 8998SOL    HW127893   0.483   2.732   4.184
 8998SOL    HW227894   0.456   2.616   4.072
 8999SOL     OW27895   4.429   0.377   6.625
 8999SOL    HW127896   4.418   0.422   6.537
 8999SOL    HW227897   4.521   0.340   6.633
 9000SOL     OW27898   2.274   4.316   6.208
 9000SOL    HW127899   2.331   4.325   6.290
 9000SOL    HW227900   2.327   4.340   6.127
 9001SOL     OW27901   1.216   5.760   2.950
 9001SOL    HW127902   1.258   5.834   3.002
 9001SOL    HW227903   1.145   5.797   2.890
 9002SOL     OW27904   0.265   5.019   4.967
 9002SOL    HW127905   0.300   5.013   4.873
 9002SOL    HW227906   0.238   4.929   4.999
 9003SOL     OW27907   5.430   2.476   0.910
 9003SOL    HW127908   5.415   2.571   0.882
 9003SOL    HW227909   5.429   2.470   1.010
 9004SOL     OW27910   4.301   6.638   1.885
 9004SOL    HW127911   4.298   6.605   1.791
 9004SOL    HW227912   4.260   6.729   1.890
 9005SOL     OW27913   5.830   2.108   4.224
 9005SOL    HW127914   5.832   2.141   4.318
 9005SOL    HW227915   5.741   2.131   4.183
 9006SOL     OW27916   1.922   5.659   0.677
 9006SOL    HW127917   1.994   5.647   0.609
 9006SOL    HW227918   1.914   5.576   0.732
 9007SOL     OW27919   3.685   6.411   4.283
 9007SOL    HW127920   3.620   6.356   4.231
 9007SOL    HW227921   3.731   6.353   4.351
 9008SOL     OW27922   6.400   5.129   2.601
 9008SOL    HW127923   6.373   5.226   2.610
 9008SOL    HW227924   6.499   5.122   2.603
 9009SOL     OW27925   2.223   6.956   0.713
 9009SOL    HW127926   2.271   0.011   0.764
 9009SOL    HW227927   2.287   6.908   0.654
 9010SOL     OW27928   1.135   0.140   4.769
 9010SOL    HW127929   1.073   0.174   4.698
 9010SOL    HW227930   1.119   0.043   4.784
 9011SOL     OW27931   4.108   1.822   1.971
 9011SOL    HW127932   4.053   1.741   1.988
 9011SOL    HW227933   4.064   1.879   1.902
 9012SOL     OW27934   2.592   4.280   1.178
 9012SOL    HW127935   2.548   4.245   1.261
 9012SOL    HW227936   2.635   4.204   1.129
 9013SOL     OW27937   6.584   6.268   4.484
 9013SOL    HW127938   6.586   6.223   4.574
 9013SOL    HW227939   6.531   6.211   4.421
 9014SOL     OW27940   1.168   0.844   0.432
 9014SOL    HW127941   1.217   0.873   0.514
 9014SOL    HW227942   1.178   0.914   0.361
 9015SOL     OW27943   6.459   0.906   0.763
 9015SOL    HW127944   6.392   0.852   0.815
 9015SOL    HW227945   6.426   0.918   0.669
 9016SOL     OW27946   0.408   6.191   6.370
 9016SOL    HW127947   0.330   6.249   6.395
 9016SOL    HW227948   0.469   6.243   6.309
 9017SOL     OW27949   5.017   2.900   2.287
 9017SOL    HW127950   4.922   2.876   2.302
 9017SOL    HW227951   5.059   2.929   2.373
 9018SOL     OW27952   4.194   1.335   5.094
 9018SOL    HW127953   4.119   1.376   5.146
 9018SOL    HW227954   4.277   1.389   5.108
 9019SOL     OW27955   0.560   0.287   1.084
 9019SOL    HW127956   0.583   0.197   1.120
 9019SOL    HW227957   0.638   0.323   1.033
 9020SOL     OW27958   1.321   3.699   1.727
 9020SOL    HW127959   1.371   3.699   1.641
 9020SOL    HW227960   1.386   3.702   1.804
 9021SOL     OW27961   6.387   0.550   3.620
 9021SOL    HW127962   6.408   0.456   3.646
 9021SOL    HW227963   6.371   0.554   3.521
 9022SOL     OW27964   2.968   0.792   1.043
 9022SOL    HW127965   3.053   0.844   1.056
 9022SOL    HW227966   2.891   0.845   1.077
 9023SOL     OW27967   3.398   2.992   2.738
 9023SOL    HW127968   3.340   3.000   2.820
 9023SOL    HW227969   3.341   2.965   2.660
 9024SOL     OW27970   1.092   5.459   5.987
 9024SOL    HW127971   1.081   5.476   5.889
 9024SOL    HW227972   1.055   5.536   6.039
 9025SOL     OW27973   0.039   5.730   0.799
 9025SOL    HW127974   6.999   5.663   0.848
 9025SOL    HW227975   7.002   5.813   0.784
 9026SOL     OW27976   3.591   3.423   2.315
 9026SOL    HW127977   3.526   3.349   2.334
 9026SOL    HW227978   3.623   3.414   2.221
 9027SOL     OW27979   2.135   2.004   3.273
 9027SOL    HW127980   2.127   1.931   3.205
 9027SOL    HW227981   2.066   1.991   3.344
 9028SOL     OW27982   2.587   3.754   6.074
 9028SOL    HW127983   2.603   3.752   6.173
 9028SOL    HW227984   2.532   3.834   6.051
 9029SOL     OW27985   3.285   5.564   5.436
 9029SOL    HW127986   3.343   5.527   5.509
 9029SOL    HW227987   3.225   5.635   5.473
 9030SOL     OW27988   2.023   0.747   3.215
 9030SOL    HW127989   2.051   0.838   3.247
 9030SOL    HW227990   2.082   0.718   3.140
 9031SOL     OW27991   5.096   5.294   5.273
 9031SOL    HW127992   5.168   5.273   5.340
 9031SOL    HW227993   5.072   5.211   5.223
 9032SOL     OW27994   3.624   3.350   0.881
 9032SOL    HW127995   3.690   3.314   0.815
 9032SOL    HW227996   3.673   3.383   0.962
 9033SOL     OW27997   2.425   4.333   3.668
 9033SOL    HW127998   2.390   4.272   3.597
 9033SOL    HW227999   2.466   4.414   3.626
 9034SOL     OW28000   3.321   0.545   4.662
 9034SOL    HW128001   3.294   0.465   4.717
 9034SOL    HW228002   3.249   0.614   4.667
 9035SOL     OW28003   1.307   6.383   5.753
 9035SOL    HW128004   1.381   6.327   5.716
 9035SOL    HW228005   1.333   6.419   5.843
 9036SOL     OW28006   1.318   0.746   5.176
 9036SOL    HW128007   1.290   0.821   5.116
 9036SOL    HW228008   1.418   0.747   5.187
 9037SOL     OW28009   1.314   4.269   5.902
 9037SOL    HW128010   1.250   4.196   5.928
 9037SOL    HW228011   1.404   4.229   5.885
 9038SOL     OW28012   4.119   0.901   5.312
 9038SOL    HW128013   4.144   0.979   5.370
 9038SOL    HW228014   4.134   0.923   5.216
 9039SOL     OW28015   1.836   4.264   4.706
 9039SOL    HW128016   1.796   4.291   4.794
 9039SOL    HW228017   1.911   4.326   4.684
 9040SOL     OW28018   2.996   1.917   3.289
 9040SOL    HW128019   2.919   1.880   3.238
 9040SOL    HW228020   2.982   2.015   3.304
 9041SOL     OW28021   0.600   2.447   1.908
 9041SOL    HW128022   0.654   2.382   1.963
 9041SOL    HW228023   0.536   2.396   1.850
 9042SOL     OW28024   3.240   6.694   3.786
 9042SOL    HW128025   3.144   6.665   3.776
 9042SOL    HW228026   3.275   6.661   3.874
 9043SOL     OW28027   2.044   1.166   6.071
 9043SOL    HW128028   1.954   1.163   6.026
 9043SOL    HW228029   2.032   1.176   6.170
 9044SOL     OW28030   6.430   1.280   1.481
 9044SOL    HW128031   6.334   1.296   1.504
 9044SOL    HW228032   6.435   1.229   1.395
 9045SOL     OW28033   3.570   1.692   2.735
 9045SOL    HW128034   3.485   1.670   2.784
 9045SOL    HW228035   3.633   1.738   2.798
 9046SOL     OW28036   3.383   3.325   4.120
 9046SOL    HW128037   3.425   3.235   4.106
 9046SOL    HW228038   3.429   3.372   4.195
 9047SOL     OW28039   1.734   3.379   5.046
 9047SOL    HW128040   1.830   3.367   5.022
 9047SOL    HW228041   1.711   3.477   5.042
 9048SOL     OW28042   5.740   2.714   6.330
 9048SOL    HW128043   5.787   2.803   6.331
 9048SOL    HW228044   5.801   2.645   6.291
 9049SOL     OW28045   3.875   6.819   6.717
 9049SOL    HW128046   3.921   6.874   6.648
 9049SOL    HW228047   3.833   6.879   6.785
 9050SOL     OW28048   0.449   4.851   5.684
 9050SOL    HW128049   0.472   4.758   5.657
 9050SOL    HW228050   0.492   4.872   5.772
 9051SOL     OW28051   4.639   5.901   0.899
 9051SOL    HW128052   4.599   5.978   0.849
 9051SOL    HW228053   4.605   5.816   0.861
 9052SOL     OW28054   1.940   2.868   3.331
 9052SOL    HW128055   1.924   2.937   3.400
 9052SOL    HW228056   2.021   2.815   3.355
 9053SOL     OW28057   2.041   1.385   2.929
 9053SOL    HW128058   2.101   1.420   3.000
 9053SOL    HW228059   1.984   1.312   2.967
 9054SOL     OW28060   1.568   6.926   2.463
 9054SOL    HW128061   1.594   6.917   2.559
 9054SOL    HW228062   1.523   7.015   2.449
 9055SOL     OW28063   6.743   3.880   3.443
 9055SOL    HW128064   6.670   3.815   3.463
 9055SOL    HW228065   6.831   3.834   3.448
 9056SOL     OW28066   6.390   6.770   1.651
 9056SOL    HW128067   6.428   6.691   1.698
 9056SOL    HW228068   6.300   6.747   1.615
 9057SOL     OW28069   6.277   5.213   6.379
 9057SOL    HW128070   6.218   5.245   6.305
 9057SOL    HW228071   6.353   5.278   6.391
 9058SOL     OW28072   1.834   2.194   3.433
 9058SOL    HW128073   1.856   2.240   3.519
 9058SOL    HW228074   1.863   2.098   3.437
 9059SOL     OW28075   0.751   1.305   4.198
 9059SOL    HW128076   0.655   1.330   4.203
 9059SOL    HW228077   0.780   1.265   4.285
 9060SOL     OW28078   0.429   3.142   1.898
 9060SOL    HW128079   0.480   3.060   1.870
 9060SOL    HW228080   0.425   3.206   1.821
 9061SOL     OW28081   3.561   5.741   2.083
 9061SOL    HW128082   3.507   5.736   2.167
 9061SOL    HW228083   3.530   5.819   2.028
 9062SOL     OW28084   1.864   5.260   2.361
 9062SOL    HW128085   1.827   5.258   2.454
 9062SOL    HW228086   1.794   5.228   2.297
 9063SOL     OW28087   2.490   6.881   2.662
 9063SOL    HW128088   2.556   6.893   2.589
 9063SOL    HW228089   2.514   6.800   2.716
 9064SOL     OW28090   5.457   3.443   4.337
 9064SOL    HW128091   5.516   3.378   4.385
 9064SOL    HW228092   5.386   3.477   4.399
 9065SOL     OW28093   3.430   5.722   6.791
 9065SOL    HW128094   3.346   5.683   6.753
 9065SOL    HW228095   3.459   5.669   6.871
 9066SOL     OW28096   5.731   0.492   0.375
 9066SOL    HW128097   5.749   0.563   0.443
 9066SOL    HW228098   5.697   0.410   0.421
 9067SOL     OW28099   6.038   0.132   4.744
 9067SOL    HW128100   6.009   0.040   4.766
 9067SOL    HW228101   6.073   0.135   4.650
 9068SOL     OW28102   3.208   0.612   5.149
 9068SOL    HW128103   3.224   0.684   5.081
 9068SOL    HW228104   3.166   0.533   5.104
 9069SOL     OW28105   3.026   2.335   1.669
 9069SOL    HW128106   3.051   2.241   1.694
 9069SOL    HW228107   2.994   2.383   1.751
 9070SOL     OW28108   0.776   3.716   5.608
 9070SOL    HW128109   0.794   3.814   5.620
 9070SOL    HW228110   0.844   3.677   5.546
 9071SOL     OW28111   5.037   6.717   0.526
 9071SOL    HW128112   5.088   6.736   0.610
 9071SOL    HW228113   5.076   6.771   0.451
 9072SOL     OW28114   6.124   1.019   1.493
 9072SOL    HW128115   6.073   0.998   1.410
 9072SOL    HW228116   6.151   0.934   1.538
 9073SOL     OW28117   3.371   6.438   0.817
 9073SOL    HW128118   3.295   6.420   0.879
 9073SOL    HW228119   3.372   6.535   0.793
 9074SOL     OW28120   1.815   0.808   2.196
 9074SOL    HW128121   1.794   0.889   2.142
 9074SOL    HW228122   1.871   0.745   2.141
 9075SOL     OW28123   0.487   0.564   1.059
 9075SOL    HW128124   0.495   0.465   1.069
 9075SOL    HW228125   0.390   0.589   1.048
 9076SOL     OW28126   5.472   1.398   5.129
 9076SOL    HW128127   5.468   1.391   5.229
 9076SOL    HW228128   5.563   1.372   5.097
 9077SOL     OW28129   5.744   0.785   6.694
 9077SOL    HW128130   5.789   0.787   6.604
 9077SOL    HW228131   5.676   0.712   6.696
 9078SOL     OW28132   4.711   3.628   0.205
 9078SOL    HW128133   4.802   3.590   0.222
 9078SOL    HW228134   4.718   3.701   0.137
 9079SOL     OW28135   2.412   6.031   4.645
 9079SOL    HW128136   2.441   6.085   4.724
 9079SOL    HW228137   2.313   6.017   4.648
 9080SOL     OW28138   5.946   2.329   0.520
 9080SOL    HW128139   5.899   2.251   0.560
 9080SOL    HW228140   5.894   2.412   0.538
 9081SOL     OW28141   3.714   6.882   2.562
 9081SOL    HW128142   3.685   6.976   2.577
 9081SOL    HW228143   3.688   6.826   2.641
 9082SOL     OW28144   2.547   7.002   5.523
 9082SOL    HW128145   2.559   6.996   5.424
 9082SOL    HW228146   2.532   0.081   5.549
 9083SOL     OW28147   3.853   4.285   5.919
 9083SOL    HW128148   3.939   4.328   5.892
 9083SOL    HW228149   3.836   4.205   5.861
 9084SOL     OW28150   2.901   3.261   5.911
 9084SOL    HW128151   2.807   3.281   5.939
 9084SOL    HW228152   2.909   3.266   5.811
 9085SOL     OW28153   1.329   4.860   0.516
 9085SOL    HW128154   1.296   4.954   0.528
 9085SOL    HW228155   1.252   4.800   0.493
 9086SOL     OW28156   0.255   4.470   0.597
 9086SOL    HW128157   0.193   4.472   0.675
 9086SOL    HW228158   0.326   4.540   0.608
 9087SOL     OW28159   4.777   2.623   2.033
 9087SOL    HW128160   4.842   2.696   2.050
 9087SOL    HW228161   4.735   2.635   1.943
 9088SOL     OW28162   6.250   6.057   0.816
 9088SOL    HW128163   6.297   6.094   0.736
 9088SOL    HW228164   6.289   5.968   0.839
 9089SOL     OW28165   5.296   6.094   4.842
 9089SOL    HW128166   5.295   6.086   4.942
 9089SOL    HW228167   5.210   6.133   4.810
 9090SOL     OW28168   6.495   6.344   3.928
 9090SOL    HW128169   6.453   6.287   3.857
 9090SOL    HW228170   6.426   6.366   3.997
 9091SOL     OW28171   2.630   3.803   1.100
 9091SOL    HW128172   2.721   3.817   1.139
 9091SOL    HW228173   2.634   3.732   1.030
 9092SOL     OW28174   6.955   1.594   0.564
 9092SOL    HW128175   0.033   1.599   0.598
 9092SOL    HW228176   6.912   1.683   0.572
 9093SOL     OW28177   1.354   6.266   6.190
 9093SOL    HW128178   1.379   6.221   6.104
 9093SOL    HW228179   1.414   6.234   6.263
 9094SOL     OW28180   5.932   5.194   2.697
 9094SOL    HW128181   5.881   5.214   2.780
 9094SOL    HW228182   5.871   5.202   2.618
 9095SOL     OW28183   4.607   4.063   6.699
 9095SOL    HW128184   4.534   4.071   6.766
 9095SOL    HW228185   4.620   4.151   6.653
 9096SOL     OW28186   5.743   4.108   1.919
 9096SOL    HW128187   5.823   4.144   1.871
 9096SOL    HW228188   5.730   4.012   1.895
 9097SOL     OW28189   1.213   2.364   6.709
 9097SOL    HW128190   1.201   2.382   6.611
 9097SOL    HW228191   1.131   2.322   6.746
 9098SOL     OW28192   3.614   2.654   6.794
 9098SOL    HW128193   3.652   2.742   6.767
 9098SOL    HW228194   3.612   2.646   6.893
 9099SOL     OW28195   2.700   3.190   0.064
 9099SOL    HW128196   2.747   3.118   0.114
 9099SOL    HW228197   2.649   3.150   7.003
 9100SOL     OW28198   0.891   3.831   4.185
 9100SOL    HW128199   0.824   3.833   4.259
 9100SOL    HW228200   0.983   3.843   4.222
 9101SOL     OW28201   2.735   2.319   3.021
 9101SOL    HW128202   2.703   2.229   3.051
 9101SOL    HW228203   2.683   2.348   2.941
 9102SOL     OW28204   2.846   0.407   2.098
 9102SOL    HW128205   2.853   0.315   2.137
 9102SOL    HW228206   2.753   0.423   2.068
 9103SOL     OW28207   6.009   3.390   6.400
 9103SOL    HW128208   5.936   3.377   6.333
 9103SOL    HW228209   6.030   3.303   6.444
 9104SOL     OW28210   6.180   6.551   2.159
 9104SOL    HW128211   6.279   6.568   2.161
 9104SOL    HW228212   6.142   6.583   2.073
 9105SOL     OW28213   1.613   1.662   6.791
 9105SOL    HW128214   1.638   1.673   6.695
 9105SOL    HW228215   1.636   1.745   6.841
 9106SOL     OW28216   6.950   3.914   6.779
 9106SOL    HW128217   7.006   3.992   6.807
 9106SOL    HW228218   6.859   3.921   6.821
 9107SOL     OW28219   3.463   0.985   6.220
 9107SOL    HW128220   3.398   0.987   6.144
 9107SOL    HW228221   3.550   0.946   6.189
 9108SOL     OW28222   4.637   3.724   5.361
 9108SOL    HW128223   4.544   3.726   5.396
 9108SOL    HW228224   4.643   3.660   5.284
 9109SOL     OW28225   0.464   3.121   2.566
 9109SOL    HW128226   0.520   3.120   2.649
 9109SOL    HW228227   0.369   3.140   2.591
 9110SOL     OW28228   2.150   3.687   3.829
 9110SOL    HW128229   2.193   3.709   3.741
 9110SOL    HW228230   2.119   3.771   3.873
 9111SOL     OW28231   4.688   1.541   0.776
 9111SOL    HW128232   4.632   1.460   0.794
 9111SOL    HW228233   4.666   1.577   0.685
 9112SOL     OW28234   0.462   4.795   3.633
 9112SOL    HW128235   0.475   4.817   3.730
 9112SOL    HW228236   0.501   4.705   3.614
 9113SOL     OW28237   5.445   1.432   2.537
 9113SOL    HW128238   5.424   1.372   2.460
 9113SOL    HW228239   5.541   1.421   2.562
 9114SOL     OW28240   0.577   4.425   2.149
 9114SOL    HW128241   0.648   4.357   2.133
 9114SOL    HW228242   0.619   4.510   2.183
 9115SOL     OW28243   6.980   5.134   5.145
 9115SOL    HW128244   0.061   5.155   5.156
 9115SOL    HW228245   6.970   5.059   5.080
 9116SOL     OW28246   6.825   1.104   1.813
 9116SOL    HW128247   6.736   1.129   1.775
 9116SOL    HW228248   6.818   1.013   1.855
 9117SOL     OW28249   6.053   2.770   0.227
 9117SOL    HW128250   6.019   2.843   0.287
 9117SOL    HW228251   6.140   2.736   0.263
 9118SOL     OW28252   6.490   3.829   0.444
 9118SOL    HW128253   6.457   3.741   0.409
 9118SOL    HW228254   6.501   3.824   0.543
 9119SOL     OW28255   4.876   0.361   2.050
 9119SOL    HW128256   4.824   0.332   1.970
 9119SOL    HW228257   4.816   0.363   2.130
 9120SOL     OW28258   6.294   2.085   5.886
 9120SOL    HW128259   6.197   2.101   5.867
 9120SOL    HW228260   6.304   1.996   5.931
 9121SOL     OW28261   3.865   1.063   4.889
 9121SOL    HW128262   3.843   0.966   4.886
 9121SOL    HW228263   3.852   1.098   4.982
 9122SOL     OW28264   1.963   4.056   2.414
 9122SOL    HW128265   2.050   4.005   2.416
 9122SOL    HW228266   1.920   4.045   2.325
 9123SOL     OW28267   2.546   0.923   3.795
 9123SOL    HW128268   2.511   0.896   3.705
 9123SOL    HW228269   2.475   0.905   3.864
 9124SOL     OW28270   5.401   6.338   0.158
 9124SOL    HW128271   5.383   6.299   0.068
 9124SOL    HW228272   5.440   6.430   0.147
 9125SOL     OW28273   4.720   3.838   0.872
 9125SOL    HW128274   4.776   3.921   0.867
 9125SOL    HW228275   4.779   3.757   0.867
 9126SOL     OW28276   6.391   3.518   1.399
 9126SOL    HW128277   6.402   3.614   1.373
 9126SOL    HW228278   6.338   3.512   1.483
 9127SOL     OW28279   6.921   2.024   6.219
 9127SOL    HW128280   6.898   1.955   6.288
 9127SOL    HW228281   6.908   2.115   6.258
 9128SOL     OW28282   5.333   1.750   5.469
 9128SOL    HW128283   5.272   1.760   5.548
 9128SOL    HW228284   5.293   1.686   5.403
 9129SOL     OW28285   0.569   2.704   0.419
 9129SOL    HW128286   0.502   2.629   0.422
 9129SOL    HW228287   0.642   2.685   0.485
 9130SOL     OW28288   0.117   3.504   6.332
 9130SOL    HW128289   0.192   3.560   6.298
 9130SOL    HW228290   0.054   3.484   6.258
 9131SOL     OW28291   5.750   2.685   5.100
 9131SOL    HW128292   5.778   2.626   5.024
 9131SOL    HW228293   5.822   2.686   5.169
 9132SOL     OW28294   0.748   5.609   4.148
 9132SOL    HW128295   0.649   5.596   4.136
 9132SOL    HW228296   0.775   5.579   4.239
 9133SOL     OW28297   3.522   6.451   1.661
 9133SOL    HW128298   3.441   6.485   1.707
 9133SOL    HW228299   3.503   6.439   1.563
 9134SOL     OW28300   4.395   5.711   1.094
 9134SOL    HW128301   4.299   5.704   1.066
 9134SOL    HW228302   4.454   5.700   1.014
 9135SOL     OW28303   6.781   6.687   1.650
 9135SOL    HW128304   6.737   6.614   1.703
 9135SOL    HW228305   6.796   6.656   1.557
 9136SOL     OW28306   4.878   6.552   6.977
 9136SOL    HW128307   4.877   6.526   6.881
 9136SOL    HW228308   4.788   6.538   0.001
 9137SOL     OW28309   5.604   0.922   0.402
 9137SOL    HW128310   5.655   0.922   0.316
 9137SOL    HW228311   5.516   0.966   0.389
 9138SOL     OW28312   0.176   6.067   6.586
 9138SOL    HW128313   0.250   6.010   6.551
 9138SOL    HW228314   0.156   6.041   6.681
 9139SOL     OW28315   2.489   1.685   3.136
 9139SOL    HW128316   2.589   1.692   3.127
 9139SOL    HW228317   2.454   1.766   3.184
 9140SOL     OW28318   0.064   3.300   2.947
 9140SOL    HW128319   7.005   3.324   3.008
 9140SOL    HW228320   0.106   3.384   2.912
 9141SOL     OW28321   5.467   0.475   0.619
 9141SOL    HW128322   5.490   0.479   0.717
 9141SOL    HW228323   5.524   0.540   0.569
 9142SOL     OW28324   0.918   2.804   0.927
 9142SOL    HW128325   0.837   2.838   0.880
 9142SOL    HW228326   0.897   2.789   1.024
 9143SOL     OW28327   6.522   3.316   7.015
 9143SOL    HW128328   6.481   3.347   0.084
 9143SOL    HW228329   6.523   3.390   6.948
 9144SOL     OW28330   2.221   5.029   4.492
 9144SOL    HW128331   2.262   4.966   4.558
 9144SOL    HW228332   2.208   5.118   4.535
 9145SOL     OW28333   0.523   5.765   0.036
 9145SOL    HW128334   0.528   5.743   0.134
 9145SOL    HW228335   0.556   5.688   6.999
 9146SOL     OW28336   5.335   3.071   3.707
 9146SOL    HW128337   5.431   3.071   3.678
 9146SOL    HW228338   5.292   3.158   3.682
 9147SOL     OW28339   5.988   6.975   5.366
 9147SOL    HW128340   6.008   0.031   5.299
 9147SOL    HW228341   5.940   7.014   5.444
 9148SOL     OW28342   5.300   6.199   1.250
 9148SOL    HW128343   5.251   6.144   1.183
 9148SOL    HW228344   5.355   6.268   1.203
 9149SOL     OW28345   5.729   4.225   2.592
 9149SOL    HW128346   5.654   4.158   2.590
 9149SOL    HW228347   5.764   4.233   2.685
 9150SOL     OW28348   3.696   5.323   1.435
 9150SOL    HW128349   3.657   5.361   1.519
 9150SOL    HW228350   3.639   5.248   1.403
 9151SOL     OW28351   2.489   4.561   3.547
 9151SOL    HW128352   2.431   4.636   3.514
 9151SOL    HW228353   2.556   4.597   3.611
 9152SOL     OW28354   2.085   4.431   4.837
 9152SOL    HW128355   2.138   4.483   4.904
 9152SOL    HW228356   2.113   4.335   4.840
 9153SOL     OW28357   0.370   3.036   0.070
 9153SOL    HW128358   0.340   3.029   0.165
 9153SOL    HW228359   0.310   2.981   0.012
 9154SOL     OW28360   5.022   4.668   6.576
 9154SOL    HW128361   5.042   4.730   6.500
 9154SOL    HW228362   4.925   4.645   6.576
 9155SOL     OW28363   1.522   3.729   2.144
 9155SOL    HW128364   1.599   3.750   2.205
 9155SOL    HW228365   1.500   3.632   2.152
 9156SOL     OW28366   1.096   2.264   0.391
 9156SOL    HW128367   1.119   2.187   0.451
 9156SOL    HW228368   1.035   2.326   0.439
 9157SOL     OW28369   1.713   3.678   6.438
 9157SOL    HW128370   1.729   3.591   6.485
 9157SOL    HW228371   1.792   3.702   6.383
 9158SOL     OW28372   5.892   3.561   4.116
 9158SOL    HW128373   5.899   3.614   4.200
 9158SOL    HW228374   5.835   3.610   4.050
 9159SOL     OW28375   1.394   1.224   2.335
 9159SOL    HW128376   1.460   1.238   2.261
 9159SOL    HW228377   1.368   1.313   2.374
 9160SOL     OW28378   6.819   6.527   5.811
 9160SOL    HW128379   6.744   6.572   5.763
 9160SOL    HW228380   6.895   6.591   5.822
 9161SOL     OW28381   5.453   5.079   3.925
 9161SOL    HW128382   5.468   5.137   3.845
 9161SOL    HW228383   5.369   5.026   3.913
 9162SOL     OW28384   4.287   0.755   3.562
 9162SOL    HW128385   4.351   0.783   3.491
 9162SOL    HW228386   4.331   0.758   3.651
 9163SOL     OW28387   0.780   2.436   4.583
 9163SOL    HW128388   0.784   2.535   4.586
 9163SOL    HW228389   0.871   2.399   4.564
 9164SOL     OW28390   2.558   0.374   0.113
 9164SOL    HW128391   2.481   0.405   0.057
 9164SOL    HW228392   2.638   0.359   0.055
 9165SOL     OW28393   6.330   0.961   5.569
 9165SOL    HW128394   6.381   1.046   5.553
 9165SOL    HW228395   6.313   0.915   5.482
 9166SOL     OW28396   4.454   5.963   1.190
 9166SOL    HW128397   4.454   5.863   1.202
 9166SOL    HW228398   4.394   5.987   1.114
 9167SOL     OW28399   2.234   1.709   6.304
 9167SOL    HW128400   2.313   1.757   6.341
 9167SOL    HW228401   2.159   1.713   6.369
 9168SOL     OW28402   6.707   6.071   5.888
 9168SOL    HW128403   6.627   6.116   5.848
 9168SOL    HW228404   6.699   5.972   5.877
 9169SOL     OW28405   6.459   0.173   6.150
 9169SOL    HW128406   6.443   0.269   6.174
 9169SOL    HW228407   6.554   0.149   6.168
 9170SOL     OW28408   1.907   0.389   6.750
 9170SOL    HW128409   1.864   0.451   6.683
 9170SOL    HW228410   2.006   0.396   6.742
 9171SOL     OW28411   3.674   5.717   0.540
 9171SOL    HW128412   3.757   5.666   0.518
 9171SOL    HW228413   3.685   5.812   0.508
 9172SOL     OW28414   5.022   0.920   2.646
 9172SOL    HW128415   5.102   0.870   2.677
 9172SOL    HW228416   4.940   0.866   2.663
 9173SOL     OW28417   5.771   4.404   5.998
 9173SOL    HW128418   5.850   4.460   6.023
 9173SOL    HW228419   5.775   4.382   5.901
 9174SOL     OW28420   6.822   4.231   0.644
 9174SOL    HW128421   6.822   4.194   0.551
 9174SOL    HW228422   6.899   4.293   0.654
 9175SOL     OW28423   1.301   6.180   6.600
 9175SOL    HW128424   1.279   6.084   6.618
 9175SOL    HW228425   1.397   6.197   6.622
 9176SOL     OW28426   2.367   1.141   3.003
 9176SOL    HW128427   2.458   1.100   3.000
 9176SOL    HW228428   2.371   1.236   2.974
 9177SOL     OW28429   0.759   4.972   4.086
 9177SOL    HW128430   0.792   4.927   4.003
 9177SOL    HW228431   0.713   4.906   4.144
 9178SOL     OW28432   1.865   5.417   0.823
 9178SOL    HW128433   1.935   5.363   0.774
 9178SOL    HW228434   1.807   5.356   0.876
 9179SOL     OW28435   2.363   5.373   3.921
 9179SOL    HW128436   2.320   5.283   3.913
 9179SOL    HW228437   2.293   5.442   3.940
 9180SOL     OW28438   6.584   2.519   3.428
 9180SOL    HW128439   6.487   2.517   3.404
 9180SOL    HW228440   6.596   2.568   3.515
 9181SOL     OW28441   5.669   2.378   4.283
 9181SOL    HW128442   5.768   2.387   4.269
 9181SOL    HW228443   5.637   2.451   4.343
 9182SOL     OW28444   2.882   6.910   3.042
 9182SOL    HW128445   2.840   6.819   3.036
 9182SOL    HW228446   2.821   6.971   3.094
 9183SOL     OW28447   4.580   4.353   6.891
 9183SOL    HW128448   4.630   4.346   6.978
 9183SOL    HW228449   4.516   4.276   6.883
 9184SOL     OW28450   4.589   1.969   1.329
 9184SOL    HW128451   4.615   1.897   1.394
 9184SOL    HW228452   4.670   2.023   1.306
 9185SOL     OW28453   6.291   6.437   5.417
 9185SOL    HW128454   6.198   6.470   5.404
 9185SOL    HW228455   6.292   6.365   5.486
 9186SOL     OW28456   5.766   6.999   4.470
 9186SOL    HW128457   5.777   0.082   4.467
 9186SOL    HW228458   5.674   6.977   4.501
 9187SOL     OW28459   3.178   2.234   0.342
 9187SOL    HW128460   3.245   2.163   0.321
 9187SOL    HW228461   3.106   2.234   0.272
 9188SOL     OW28462   2.134   0.387   1.952
 9188SOL    HW128463   2.189   0.315   1.910
 9188SOL    HW228464   2.167   0.404   2.045
 9189SOL     OW28465   2.967   5.851   1.896
 9189SOL    HW128466   3.014   5.906   1.827
 9189SOL    HW228467   2.981   5.754   1.876
 9190SOL     OW28468   1.504   3.110   5.417
 9190SOL    HW128469   1.598   3.144   5.414
 9190SOL    HW228470   1.483   3.078   5.509
 9191SOL     OW28471   5.928   0.793   0.139
 9191SOL    HW128472   5.956   0.785   0.044
 9191SOL    HW228473   5.944   0.887   0.171
 9192SOL     OW28474   0.080   2.380   6.171
 9192SOL    HW128475   0.029   2.347   6.251
 9192SOL    HW228476   0.142   2.453   6.199
 9193SOL     OW28477   4.030   3.668   4.853
 9193SOL    HW128478   4.072   3.597   4.909
 9193SOL    HW228479   4.024   3.637   4.758
 9194SOL     OW28480   3.209   0.784   2.512
 9194SOL    HW128481   3.124   0.755   2.555
 9194SOL    HW228482   3.286   0.761   2.571
 9195SOL     OW28483   1.221   3.909   3.202
 9195SOL    HW128484   1.280   3.829   3.217
 9195SOL    HW228485   1.128   3.888   3.229
 9196SOL     OW28486   5.736   6.542   3.584
 9196SOL    HW128487   5.743   6.584   3.494
 9196SOL    HW228488   5.761   6.445   3.578
 9197SOL     OW28489   3.179   4.870   1.095
 9197SOL    HW128490   3.098   4.823   1.062
 9197SOL    HW228491   3.225   4.814   1.164
 9198SOL     OW28492   6.348   4.399   6.146
 9198SOL    HW128493   6.423   4.415   6.081
 9198SOL    HW228494   6.326   4.484   6.193
 9199SOL     OW28495   6.737   2.938   5.535
 9199SOL    HW128496   6.735   3.020   5.593
 9199SOL    HW228497   6.815   2.944   5.473
 9200SOL     OW28498   3.239   6.077   5.754
 9200SOL    HW128499   3.318   6.058   5.812
 9200SOL    HW228500   3.256   6.041   5.662
 9201SOL     OW28501   6.815   3.473   0.043
 9201SOL    HW128502   6.741   3.411   0.016
 9201SOL    HW228503   6.779   3.566   0.052
 9202SOL     OW28504   0.914   6.378   3.372
 9202SOL    HW128505   0.982   6.447   3.396
 9202SOL    HW228506   0.883   6.392   3.279
 9203SOL     OW28507   6.190   3.142   6.025
 9203SOL    HW128508   6.219   3.225   6.074
 9203SOL    HW228509   6.203   3.156   5.927
 9204SOL     OW28510   4.951   3.765   4.373
 9204SOL    HW128511   4.979   3.746   4.467
 9204SOL    HW228512   4.873   3.828   4.373
 9205SOL     OW28513   5.127   5.827   3.477
 9205SOL    HW128514   5.122   5.927   3.482
 9205SOL    HW228515   5.037   5.788   3.494
 9206SOL     OW28516   3.574   5.864   3.205
 9206SOL    HW128517   3.598   5.767   3.205
 9206SOL    HW228518   3.478   5.875   3.178
 9207SOL     OW28519   4.545   4.057   0.587
 9207SOL    HW128520   4.645   4.057   0.585
 9207SOL    HW228521   4.512   3.975   0.635
 9208SOL     OW28522   5.548   4.669   2.571
 9208SOL    HW128523   5.488   4.603   2.525
 9208SOL    HW228524   5.494   4.733   2.624
 9209SOL     OW28525   4.688   1.174   0.359
 9209SOL    HW128526   4.769   1.217   0.397
 9209SOL    HW228527   4.625   1.150   0.434
 9210SOL     OW28528   0.953   1.607   1.312
 9210SOL    HW128529   0.882   1.568   1.369
 9210SOL    HW228530   1.024   1.539   1.294
 9211SOL     OW28531   6.028   2.647   6.134
 9211SOL    HW128532   6.127   2.645   6.145
 9211SOL    HW228533   5.990   2.724   6.184
 9212SOL     OW28534   5.193   4.611   3.781
 9212SOL    HW128535   5.107   4.560   3.784
 9212SOL    HW228536   5.249   4.585   3.860
 9213SOL     OW28537   4.941   4.818   4.705
 9213SOL    HW128538   5.017   4.808   4.769
 9213SOL    HW228539   4.893   4.904   4.723
 9214SOL     OW28540   6.777   2.689   5.105
 9214SOL    HW128541   6.806   2.624   5.175
 9214SOL    HW228542   6.852   2.753   5.086
 9215SOL     OW28543   1.918   4.008   2.119
 9215SOL    HW128544   1.891   3.929   2.064
 9215SOL    HW228545   2.018   4.013   2.124
 9216SOL     OW28546   2.635   6.849   3.193
 9216SOL    HW128547   2.643   6.947   3.211
 9216SOL    HW228548   2.707   6.801   3.242
 9217SOL     OW28549   6.018   3.723   6.410
 9217SOL    HW128550   5.995   3.798   6.349
 9217SOL    HW228551   6.043   3.642   6.357
 9218SOL     OW28552   3.785   0.988   6.896
 9218SOL    HW128553   3.736   1.074   6.878
 9218SOL    HW228554   3.773   0.963   6.992
 9219SOL     OW28555   4.692   4.056   6.381
 9219SOL    HW128556   4.751   4.007   6.316
 9219SOL    HW228557   4.746   4.084   6.460
 9220SOL     OW28558   1.101   5.925   1.958
 9220SOL    HW128559   1.027   5.871   1.918
 9220SOL    HW228560   1.175   5.864   1.985
 9221SOL     OW28561   1.858   0.182   3.312
 9221SOL    HW128562   1.829   0.244   3.385
 9221SOL    HW228563   1.948   0.145   3.335
 9222SOL     OW28564   2.743   5.670   5.595
 9222SOL    HW128565   2.703   5.646   5.684
 9222SOL    HW228566   2.753   5.587   5.540
 9223SOL     OW28567   1.363   2.141   4.212
 9223SOL    HW128568   1.397   2.047   4.212
 9223SOL    HW228569   1.430   2.201   4.169
 9224SOL     OW28570   0.804   5.661   3.855
 9224SOL    HW128571   0.727   5.688   3.798
 9224SOL    HW228572   0.785   5.687   3.950
 9225SOL     OW28573   2.808   6.094   5.998
 9225SOL    HW128574   2.896   6.138   5.980
 9225SOL    HW228575   2.745   6.111   5.923
 9226SOL     OW28576   0.410   6.889   1.644
 9226SOL    HW128577   0.474   6.939   1.702
 9226SOL    HW228578   0.424   6.791   1.655
 9227SOL     OW28579   2.176   5.328   1.167
 9227SOL    HW128580   2.078   5.343   1.157
 9227SOL    HW228581   2.223   5.352   1.082
 9228SOL     OW28582   3.051   1.149   6.847
 9228SOL    HW128583   3.150   1.160   6.834
 9228SOL    HW228584   3.016   1.226   6.901
 9229SOL     OW28585   0.612   5.039   5.529
 9229SOL    HW128586   0.547   4.993   5.590
 9229SOL    HW228587   0.599   5.006   5.435
 9230SOL     OW28588   4.955   3.261   3.642
 9230SOL    HW128589   4.923   3.292   3.732
 9230SOL    HW228590   5.052   3.282   3.633
 9231SOL     OW28591   1.395   3.688   4.929
 9231SOL    HW128592   1.440   3.686   4.840
 9231SOL    HW228593   1.304   3.647   4.922
 9232SOL     OW28594   3.268   5.296   6.743
 9232SOL    HW128595   3.192   5.248   6.699
 9232SOL    HW228596   3.248   5.394   6.748
 9233SOL     OW28597   6.036   6.031   1.510
 9233SOL    HW128598   5.962   6.057   1.572
 9233SOL    HW228599   6.117   6.087   1.530
 9234SOL     OW28600   3.213   5.698   0.277
 9234SOL    HW128601   3.235   5.602   0.289
 9234SOL    HW228602   3.282   5.755   0.323
 9235SOL     OW28603   2.158   2.770   3.459
 9235SOL    HW128604   2.133   2.705   3.531
 9235SOL    HW228605   2.212   2.723   3.389
 9236SOL     OW28606   2.373   4.199   6.862
 9236SOL    HW128607   2.473   4.198   6.869
 9236SOL    HW228608   2.340   4.292   6.874
 9237SOL     OW28609   0.324   5.880   3.150
 9237SOL    HW128610   0.345   5.911   3.244
 9237SOL    HW228611   0.300   5.959   3.094
 9238SOL     OW28612   2.222   2.622   6.090
 9238SOL    HW128613   2.182   2.530   6.088
 9238SOL    HW228614   2.299   2.626   6.026
 9239SOL     OW28615   0.348   3.568   6.195
 9239SOL    HW128616   0.377   3.505   6.123
 9239SOL    HW228617   0.346   3.661   6.159
 9240SOL     OW28618   5.466   2.649   2.327
 9240SOL    HW128619   5.385   2.684   2.279
 9240SOL    HW228620   5.486   2.708   2.405
 9241SOL     OW28621   0.757   4.913   6.363
 9241SOL    HW128622   0.818   4.910   6.443
 9241SOL    HW228623   0.755   5.006   6.327
 9242SOL     OW28624   1.059   4.318   0.553
 9242SOL    HW128625   1.088   4.398   0.605
 9242SOL    HW228626   1.122   4.303   0.477
 9243SOL     OW28627   0.303   0.277   1.125
 9243SOL    HW128628   0.401   0.284   1.140
 9243SOL    HW228629   0.282   0.300   1.030
 9244SOL     OW28630   3.466   5.079   5.956
 9244SOL    HW128631   3.530   5.076   6.033
 9244SOL    HW228632   3.398   5.150   5.972
 9245SOL     OW28633   1.094   5.885   4.022
 9245SOL    HW128634   1.086   5.848   3.930
 9245SOL    HW228635   1.008   5.872   4.071
 9246SOL     OW28636   6.533   6.883   2.687
 9246SOL    HW128637   6.618   6.934   2.694
 9246SOL    HW228638   6.458   6.945   2.663
 9247SOL     OW28639   2.417   6.033   3.123
 9247SOL    HW128640   2.343   5.978   3.084
 9247SOL    HW228641   2.429   6.116   3.069
 9248SOL     OW28642   3.269   2.135   4.282
 9248SOL    HW128643   3.245   2.047   4.242
 9248SOL    HW228644   3.191   2.198   4.271
 9249SOL     OW28645   3.577   4.740   1.251
 9249SOL    HW128646   3.511   4.687   1.303
 9249SOL    HW228647   3.569   4.717   1.154
 9250SOL     OW28648   5.731   2.646   4.024
 9250SOL    HW128649   5.753   2.714   4.094
 9250SOL    HW228650   5.815   2.613   3.982
 9251SOL     OW28651   3.852   1.789   3.279
 9251SOL    HW128652   3.806   1.798   3.368
 9251SOL    HW228653   3.874   1.880   3.244
 9252SOL     OW28654   4.960   0.745   4.070
 9252SOL    HW128655   4.975   0.820   4.134
 9252SOL    HW228656   4.882   0.767   4.011
 9253SOL     OW28657   5.654   5.605   5.390
 9253SOL    HW128658   5.649   5.608   5.490
 9253SOL    HW228659   5.569   5.640   5.351
 9254SOL     OW28660   5.709   4.935   3.254
 9254SOL    HW128661   5.702   4.901   3.348
 9254SOL    HW228662   5.800   4.974   3.240
 9255SOL     OW28663   4.436   4.297   0.647
 9255SOL    HW128664   4.491   4.214   0.639
 9255SOL    HW228665   4.345   4.281   0.611
 9256SOL     OW28666   2.805   0.362   2.809
 9256SOL    HW128667   2.826   0.438   2.747
 9256SOL    HW228668   2.707   0.359   2.825
 9257SOL     OW28669   0.170   4.418   3.512
 9257SOL    HW128670   0.195   4.499   3.459
 9257SOL    HW228671   0.174   4.337   3.453
 9258SOL     OW28672   3.579   4.139   2.685
 9258SOL    HW128673   3.547   4.124   2.779
 9258SOL    HW228674   3.671   4.180   2.688
 9259SOL     OW28675   0.241   1.955   0.181
 9259SOL    HW128676   0.270   1.987   0.271
 9259SOL    HW228677   0.289   2.006   0.110
 9260SOL     OW28678   6.257   1.613   5.602
 9260SOL    HW128679   6.277   1.570   5.514
 9260SOL    HW228680   6.296   1.705   5.604
 9261SOL     OW28681   2.734   1.242   0.300
 9261SOL    HW128682   2.706   1.282   0.387
 9261SOL    HW228683   2.778   1.153   0.316
 9262SOL     OW28684   0.039   4.551   5.170
 9262SOL    HW128685   0.045   4.511   5.079
 9262SOL    HW228686   6.972   4.606   5.177
 9263SOL     OW28687   5.154   0.322   1.652
 9263SOL    HW128688   5.141   0.225   1.630
 9263SOL    HW228689   5.251   0.341   1.664
 9264SOL     OW28690   5.103   4.536   0.433
 9264SOL    HW128691   5.093   4.439   0.409
 9264SOL    HW228692   5.028   4.587   0.391
 9265SOL     OW28693   4.287   2.359   0.220
 9265SOL    HW128694   4.321   2.451   0.238
 9265SOL    HW228695   4.212   2.338   0.283
 9266SOL     OW28696   1.073   6.590   0.645
 9266SOL    HW128697   1.137   6.528   0.690
 9266SOL    HW228698   0.980   6.571   0.676
 9267SOL     OW28699   0.143   2.320   4.806
 9267SOL    HW128700   0.097   2.236   4.776
 9267SOL    HW228701   0.180   2.368   4.727
 9268SOL     OW28702   1.038   4.897   2.639
 9268SOL    HW128703   1.090   4.979   2.662
 9268SOL    HW228704   1.101   4.827   2.605
 9269SOL     OW28705   3.957   0.990   6.526
 9269SOL    HW128706   4.003   1.016   6.441
 9269SOL    HW228707   4.005   1.031   6.603
 9270SOL     OW28708   4.210   6.592   6.161
 9270SOL    HW128709   4.200   6.503   6.118
 9270SOL    HW228710   4.121   6.634   6.174
 9271SOL     OW28711   6.197   0.194   1.113
 9271SOL    HW128712   6.119   0.162   1.166
 9271SOL    HW228713   6.258   0.117   1.094
 9272SOL     OW28714   0.857   5.752   5.299
 9272SOL    HW128715   0.834   5.823   5.232
 9272SOL    HW228716   0.781   5.740   5.363
 9273SOL     OW28717   6.010   6.746   2.510
 9273SOL    HW128718   6.010   6.793   2.422
 9273SOL    HW228719   5.916   6.742   2.546
 9274SOL     OW28720   6.489   1.323   0.354
 9274SOL    HW128721   6.462   1.401   0.411
 9274SOL    HW228722   6.562   1.350   0.292
 9275SOL     OW28723   6.354   0.898   0.518
 9275SOL    HW128724   6.386   0.850   0.436
 9275SOL    HW228725   6.273   0.952   0.496
 9276SOL     OW28726   1.411   3.623   1.481
 9276SOL    HW128727   1.479   3.636   1.409
 9276SOL    HW228728   1.319   3.635   1.442
 9277SOL     OW28729   4.607   4.634   0.251
 9277SOL    HW128730   4.566   4.543   0.257
 9277SOL    HW228731   4.612   4.674   0.343
 9278SOL     OW28732   1.848   0.246   6.374
 9278SOL    HW128733   1.940   0.222   6.407
 9278SOL    HW228734   1.834   0.344   6.385
 9279SOL     OW28735   3.243   0.650   2.143
 9279SOL    HW128736   3.251   0.738   2.190
 9279SOL    HW228737   3.228   0.577   2.210
 9280SOL     OW28738   2.440   1.847   2.874
 9280SOL    HW128739   2.351   1.816   2.841
 9280SOL    HW228740   2.468   1.791   2.952
 9281SOL     OW28741   2.464   3.360   6.197
 9281SOL    HW128742   2.460   3.374   6.296
 9281SOL    HW228743   2.551   3.394   6.162
 9282SOL     OW28744   5.986   0.559   3.500
 9282SOL    HW128745   5.957   0.500   3.575
 9282SOL    HW228746   6.004   0.651   3.536
 9283SOL     OW28747   5.497   0.754   4.036
 9283SOL    HW128748   5.572   0.716   3.981
 9283SOL    HW228749   5.432   0.800   3.977
 9284SOL     OW28750   2.794   3.540   5.720
 9284SOL    HW128751   2.701   3.539   5.757
 9284SOL    HW228752   2.791   3.522   5.621
 9285SOL     OW28753   5.040   2.566   1.100
 9285SOL    HW128754   5.030   2.485   1.042
 9285SOL    HW228755   5.075   2.539   1.189
 9286SOL     OW28756   5.559   5.513   0.835
 9286SOL    HW128757   5.512   5.527   0.748
 9286SOL    HW228758   5.657   5.501   0.819
 9287SOL     OW28759   3.167   5.046   0.362
 9287SOL    HW128760   3.225   5.031   0.282
 9287SOL    HW228761   3.196   5.129   0.409
 9288SOL     OW28762   4.479   1.399   2.752
 9288SOL    HW128763   4.408   1.416   2.684
 9288SOL    HW228764   4.481   1.475   2.818
 9289SOL     OW28765   3.805   0.468   1.831
 9289SOL    HW128766   3.759   0.391   1.875
 9289SOL    HW228767   3.766   0.482   1.740
 9290SOL     OW28768   5.661   1.180   3.181
 9290SOL    HW128769   5.730   1.129   3.130
 9290SOL    HW228770   5.570   1.147   3.156
 9291SOL     OW28771   1.118   5.615   5.438
 9291SOL    HW128772   1.077   5.538   5.390
 9291SOL    HW228773   1.092   5.700   5.392
 9292SOL     OW28774   2.213   3.268   6.328
 9292SOL    HW128775   2.276   3.321   6.270
 9292SOL    HW228776   2.152   3.214   6.270
 9293SOL     OW28777   5.598   3.085   6.285
 9293SOL    HW128778   5.648   3.022   6.226
 9293SOL    HW228779   5.500   3.077   6.267
 9294SOL     OW28780   4.393   6.739   6.045
 9294SOL    HW128781   4.420   6.791   6.127
 9294SOL    HW228782   4.336   6.661   6.073
 9295SOL     OW28783   6.007   0.942   5.092
 9295SOL    HW128784   5.926   0.931   5.033
 9295SOL    HW228785   6.081   0.984   5.039
 9296SOL     OW28786   1.601   5.787   6.783
 9296SOL    HW128787   1.664   5.804   6.707
 9296SOL    HW228788   1.513   5.831   6.764
 9297SOL     OW28789   0.619   0.002   3.038
 9297SOL    HW128790   0.583   6.999   3.129
 9297SOL    HW228791   0.672   6.940   3.006
 9298SOL     OW28792   0.814   6.414   6.426
 9298SOL    HW128793   0.778   6.373   6.342
 9298SOL    HW228794   0.913   6.398   6.431
 9299SOL     OW28795   0.798   2.362   5.024
 9299SOL    HW128796   0.743   2.314   4.955
 9299SOL    HW228797   0.889   2.321   5.027
 9300SOL     OW28798   0.331   4.289   5.830
 9300SOL    HW128799   0.356   4.260   5.923
 9300SOL    HW228800   0.321   4.208   5.772
 9301SOL     OW28801   5.682   5.494   4.585
 9301SOL    HW128802   5.677   5.593   4.595
 9301SOL    HW228803   5.674   5.470   4.488
 9302SOL     OW28804   2.455   2.694   4.468
 9302SOL    HW128805   2.466   2.638   4.386
 9302SOL    HW228806   2.531   2.677   4.531
 9303SOL     OW28807   2.642   4.044   0.944
 9303SOL    HW128808   2.590   4.015   0.864
 9303SOL    HW228809   2.657   3.966   1.005
 9304SOL     OW28810   4.163   4.660   1.842
 9304SOL    HW128811   4.224   4.706   1.778
 9304SOL    HW228812   4.208   4.579   1.878
 9305SOL     OW28813   3.688   1.017   0.718
 9305SOL    HW128814   3.724   1.040   0.809
 9305SOL    HW228815   3.599   1.059   0.706
 9306SOL     OW28816   0.566   4.589   5.526
 9306SOL    HW128817   0.579   4.491   5.545
 9306SOL    HW228818   0.509   4.600   5.445
 9307SOL     OW28819   0.778   3.731   1.170
 9307SOL    HW128820   0.745   3.791   1.243
 9307SOL    HW228821   0.739   3.639   1.182
 9308SOL     OW28822   1.736   3.219   0.520
 9308SOL    HW128823   1.758   3.233   0.616
 9308SOL    HW228824   1.679   3.295   0.488
 9309SOL     OW28825   3.897   5.170   6.079
 9309SOL    HW128826   3.914   5.077   6.046
 9309SOL    HW228827   3.819   5.170   6.141
 9310SOL     OW28828   6.126   5.608   5.444
 9310SOL    HW128829   6.182   5.636   5.522
 9310SOL    HW228830   6.098   5.690   5.392
 9311SOL     OW28831   4.952   4.526   1.745
 9311SOL    HW128832   5.043   4.488   1.763
 9311SOL    HW228833   4.882   4.467   1.785
 9312SOL     OW28834   1.034   3.600   1.132
 9312SOL    HW128835   1.121   3.644   1.108
 9312SOL    HW228836   0.960   3.666   1.121
 9313SOL     OW28837   7.000   0.164   1.142
 9313SOL    HW128838   7.005   0.224   1.062
 9313SOL    HW228839   0.036   0.203   1.216
 9314SOL     OW28840   5.714   4.421   0.048
 9314SOL    HW128841   5.632   4.377   0.011
 9314SOL    HW228842   5.795   4.386   7.016
 9315SOL     OW28843   6.820   6.882   5.530
 9315SOL    HW128844   6.779   6.804   5.482
 9315SOL    HW228845   6.822   6.864   5.628
 9316SOL     OW28846   5.454   6.424   5.792
 9316SOL    HW128847   5.456   6.407   5.693
 9316SOL    HW228848   5.361   6.407   5.826
 9317SOL     OW28849   5.443   5.738   3.943
 9317SOL    HW128850   5.356   5.778   3.913
 9317SOL    HW228851   5.432   5.640   3.956
 9318SOL     OW28852   5.843   1.175   5.924
 9318SOL    HW128853   5.918   1.203   5.984
 9318SOL    HW228854   5.756   1.191   5.969
 9319SOL     OW28855   2.472   2.489   6.725
 9319SOL    HW128856   2.436   2.518   6.813
 9319SOL    HW228857   2.493   2.569   6.669
 9320SOL     OW28858   3.538   0.683   5.029
 9320SOL    HW128859   3.461   0.742   5.005
 9320SOL    HW228860   3.623   0.735   5.025
 9321SOL     OW28861   0.561   0.379   5.116
 9321SOL    HW128862   0.484   0.427   5.076
 9321SOL    HW228863   0.645   0.431   5.102
 9322SOL     OW28864   6.948   3.532   6.109
 9322SOL    HW128865   6.853   3.507   6.129
 9322SOL    HW228866   6.979   3.484   6.027
 9323SOL     OW28867   1.254   0.871   5.424
 9323SOL    HW128868   1.279   0.826   5.338
 9323SOL    HW228869   1.185   0.941   5.405
 9324SOL     OW28870   1.207   4.249   1.879
 9324SOL    HW128871   1.247   4.295   1.959
 9324SOL    HW228872   1.222   4.150   1.887
 9325SOL     OW28873   5.889   1.627   0.429
 9325SOL    HW128874   5.962   1.662   0.370
 9325SOL    HW228875   5.820   1.581   0.373
 9326SOL     OW28876   2.758   4.717   0.486
 9326SOL    HW128877   2.743   4.722   0.585
 9326SOL    HW228878   2.823   4.789   0.459
 9327SOL     OW28879   4.294   0.195   2.432
 9327SOL    HW128880   4.243   0.273   2.395
 9327SOL    HW228881   4.373   0.176   2.374
 9328SOL     OW28882   2.468   0.927   4.836
 9328SOL    HW128883   2.462   0.879   4.748
 9328SOL    HW228884   2.387   0.985   4.847
 9329SOL     OW28885   6.022   3.627   0.884
 9329SOL    HW128886   6.006   3.704   0.945
 9329SOL    HW228887   6.119   3.624   0.858
 9330SOL     OW28888   6.687   0.103   5.521
 9330SOL    HW128889   6.739   0.179   5.482
 9330SOL    HW228890   6.744   0.021   5.525
 9331SOL     OW28891   2.489   1.002   6.585
 9331SOL    HW128892   2.486   1.102   6.593
 9331SOL    HW228893   2.396   0.966   6.596
 9332SOL     OW28894   4.186   4.868   0.298
 9332SOL    HW128895   4.153   4.893   0.207
 9332SOL    HW228896   4.230   4.779   0.294
 9333SOL     OW28897   3.413   4.758   6.822
 9333SOL    HW128898   3.372   4.698   6.891
 9333SOL    HW228899   3.351   4.765   6.743
 9334SOL     OW28900   4.955   6.359   4.059
 9334SOL    HW128901   4.890   6.341   4.133
 9334SOL    HW228902   5.023   6.426   4.090
 9335SOL     OW28903   1.346   0.845   6.719
 9335SOL    HW128904   1.319   0.753   6.689
 9335SOL    HW228905   1.270   0.909   6.703
 9336SOL     OW28906   4.007   6.593   5.097
 9336SOL    HW128907   4.050   6.512   5.058
 9336SOL    HW228908   3.948   6.636   5.029
 9337SOL     OW28909   4.125   1.061   5.045
 9337SOL    HW128910   4.145   1.156   5.070
 9337SOL    HW228911   4.051   1.059   4.978
 9338SOL     OW28912   6.389   6.573   1.426
 9338SOL    HW128913   6.313   6.634   1.449
 9338SOL    HW228914   6.448   6.561   1.506
 9339SOL     OW28915   5.977   6.674   0.596
 9339SOL    HW128916   6.064   6.716   0.623
 9339SOL    HW228917   5.972   6.668   0.496
 9340SOL     OW28918   4.277   4.895   3.736
 9340SOL    HW128919   4.370   4.884   3.771
 9340SOL    HW228920   4.212   4.884   3.811
 9341SOL     OW28921   6.471   5.119   0.814
 9341SOL    HW128922   6.409   5.053   0.771
 9341SOL    HW228923   6.534   5.072   0.875
 9342SOL     OW28924   3.035   0.033   3.951
 9342SOL    HW128925   3.006   7.000   3.869
 9342SOL    HW228926   3.127   0.006   3.977
 9343SOL     OW28927   4.899   4.007   1.820
 9343SOL    HW128928   4.821   4.043   1.768
 9343SOL    HW228929   4.892   4.037   1.915
 9344SOL     OW28930   5.450   6.285   1.638
 9344SOL    HW128931   5.414   6.369   1.597
 9344SOL    HW228932   5.530   6.254   1.586
 9345SOL     OW28933   0.072   5.375   1.659
 9345SOL    HW128934   0.049   5.286   1.699
 9345SOL    HW228935   7.005   5.421   1.628
 9346SOL     OW28936   5.389   1.236   1.925
 9346SOL    HW128937   5.394   1.330   1.958
 9346SOL    HW228938   5.368   1.175   2.001
 9347SOL     OW28939   3.744   4.218   0.761
 9347SOL    HW128940   3.820   4.227   0.697
 9347SOL    HW228941   3.776   4.171   0.844
 9348SOL     OW28942   2.410   6.156   2.735
 9348SOL    HW128943   2.311   6.151   2.750
 9348SOL    HW228944   2.429   6.205   2.650
 9349SOL     OW28945   5.615   5.099   1.841
 9349SOL    HW128946   5.678   5.099   1.919
 9349SOL    HW228947   5.668   5.095   1.757
 9350SOL     OW28948   6.716   2.433   5.554
 9350SOL    HW128949   6.757   2.382   5.478
 9350SOL    HW228950   6.666   2.370   5.614
 9351SOL     OW28951   3.368   0.521   6.301
 9351SOL    HW128952   3.341   0.617   6.305
 9351SOL    HW228953   3.462   0.514   6.268
 9352SOL     OW28954   3.489   1.404   6.337
 9352SOL    HW128955   3.541   1.395   6.253
 9352SOL    HW228956   3.507   1.325   6.396
 9353SOL     OW28957   0.390   4.129   0.657
 9353SOL    HW128958   0.405   4.185   0.576
 9353SOL    HW228959   0.401   4.186   0.739
 9354SOL     OW28960   0.295   2.011   6.270
 9354SOL    HW128961   0.232   1.945   6.229
 9354SOL    HW228962   0.286   2.099   6.225
 9355SOL     OW28963   6.982   1.796   4.555
 9355SOL    HW128964   6.939   1.806   4.465
 9355SOL    HW228965   0.064   1.781   4.543
 9356SOL     OW28966   4.573   5.979   2.031
 9356SOL    HW128967   4.590   6.055   2.094
 9356SOL    HW228968   4.570   6.014   1.937
 9357SOL     OW28969   1.364   3.168   6.617
 9357SOL    HW128970   1.401   3.259   6.600
 9357SOL    HW228971   1.331   3.128   6.532
 9358SOL     OW28972   6.899   3.110   2.546
 9358SOL    HW128973   6.891   3.061   2.633
 9358SOL    HW228974   6.836   3.187   2.545
 9359SOL     OW28975   1.730   3.750   5.405
 9359SOL    HW128976   1.772   3.763   5.494
 9359SOL    HW228977   1.801   3.725   5.338
 9360SOL     OW28978   1.285   5.411   6.800
 9360SOL    HW128979   1.368   5.387   6.749
 9360SOL    HW228980   1.293   5.377   6.894
 9361SOL     OW28981   1.704   5.635   2.611
 9361SOL    HW128982   1.761   5.554   2.621
 9361SOL    HW228983   1.663   5.659   2.699
 9362SOL     OW28984   2.015   3.443   2.712
 9362SOL    HW128985   2.016   3.357   2.764
 9362SOL    HW228986   1.925   3.485   2.721
 9363SOL     OW28987   3.613   6.628   2.019
 9363SOL    HW128988   3.676   6.688   2.069
 9363SOL    HW228989   3.546   6.684   1.971
 9364SOL     OW28990   3.610   3.332   6.358
 9364SOL    HW128991   3.684   3.331   6.425
 9364SOL    HW228992   3.647   3.327   6.266
 9365SOL     OW28993   2.384   1.849   4.330
 9365SOL    HW128994   2.427   1.926   4.378
 9365SOL    HW228995   2.398   1.859   4.231
 9366SOL     OW28996   3.588   6.158   6.606
 9366SOL    HW128997   3.597   6.236   6.544
 9366SOL    HW228998   3.508   6.103   6.580
 9367SOL     OW28999   0.232   6.818   3.102
 9367SOL    HW129000   0.162   6.754   3.071
 9367SOL    HW229001   0.252   6.801   3.199
 9368SOL     OW29002   2.939   1.119   3.052
 9368SOL    HW129003   2.969   1.202   3.100
 9368SOL    HW229004   2.955   1.039   3.110
 9369SOL     OW29005   6.820   6.217   4.735
 9369SOL    HW129006   6.858   6.182   4.821
 9369SOL    HW229007   6.721   6.202   4.734
 9370SOL     OW29008   5.395   0.229   3.750
 9370SOL    HW129009   5.396   0.158   3.821
 9370SOL    HW229010   5.489   0.254   3.727
 9371SOL     OW29011   2.872   5.294   0.553
 9371SOL    HW129012   2.836   5.359   0.619
 9371SOL    HW229013   2.862   5.331   0.460
 9372SOL     OW29014   5.328   0.190   2.703
 9372SOL    HW129015   5.300   0.153   2.614
 9372SOL    HW229016   5.377   0.276   2.688
 9373SOL     OW29017   4.955   1.797   2.497
 9373SOL    HW129018   5.049   1.824   2.518
 9373SOL    HW229019   4.924   1.845   2.414
 9374SOL     OW29020   0.753   3.725   0.009
 9374SOL    HW129021   0.702   3.724   0.095
 9374SOL    HW229022   0.688   3.728   6.948
 9375SOL     OW29023   0.222   1.198   1.679
 9375SOL    HW129024   0.176   1.110   1.668
 9375SOL    HW229025   0.309   1.184   1.724
 9376SOL     OW29026   2.306   4.229   1.421
 9376SOL    HW129027   2.389   4.279   1.448
 9376SOL    HW229028   2.236   4.242   1.492
 9377SOL     OW29029   1.906   5.822   4.060
 9377SOL    HW129030   1.909   5.812   4.160
 9377SOL    HW229031   1.863   5.909   4.037
 9378SOL     OW29032   1.753   1.188   4.002
 9378SOL    HW129033   1.828   1.180   3.936
 9378SOL    HW229034   1.720   1.282   4.004
 9379SOL     OW29035   4.949   6.475   5.726
 9379SOL    HW129036   5.005   6.445   5.649
 9379SOL    HW229037   4.879   6.405   5.745
 9380SOL     OW29038   4.776   5.422   4.863
 9380SOL    HW129039   4.843   5.448   4.932
 9380SOL    HW229040   4.692   5.390   4.907
 9381SOL     OW29041   3.899   3.099   5.874
 9381SOL    HW129042   3.888   3.196   5.893
 9381SOL    HW229043   3.836   3.046   5.931
 9382SOL     OW29044   3.457   0.776   4.078
 9382SOL    HW129045   3.428   0.777   3.982
 9382SOL    HW229046   3.557   0.777   4.083
 9383SOL     OW29047   0.035   5.877   4.454
 9383SOL    HW129048   0.078   5.791   4.482
 9383SOL    HW229049   0.057   5.896   4.358
 9384SOL     OW29050   4.245   0.359   2.014
 9384SOL    HW129051   4.156   0.317   2.029
 9384SOL    HW229052   4.256   0.381   1.917
 9385SOL     OW29053   4.074   1.070   3.286
 9385SOL    HW129054   4.138   1.019   3.230
 9385SOL    HW229055   4.065   1.026   3.375
 9386SOL     OW29056   2.420   5.767   4.863
 9386SOL    HW129057   2.360   5.830   4.913
 9386SOL    HW229058   2.405   5.674   4.896
 9387SOL     OW29059   3.005   1.949   0.077
 9387SOL    HW129060   3.056   1.864   0.061
 9387SOL    HW229061   2.963   1.978   7.008
 9388SOL     OW29062   2.956   6.408   3.258
 9388SOL    HW129063   2.970   6.315   3.222
 9388SOL    HW229064   2.903   6.403   3.342
 9389SOL     OW29065   2.055   0.845   3.599
 9389SOL    HW129066   2.125   0.890   3.543
 9389SOL    HW229067   2.050   0.748   3.573
 9390SOL     OW29068   5.167   4.556   6.203
 9390SOL    HW129069   5.104   4.480   6.184
 9390SOL    HW229070   5.241   4.555   6.135
 9391SOL     OW29071   1.355   1.491   5.133
 9391SOL    HW129072   1.416   1.570   5.137
 9391SOL    HW229073   1.260   1.522   5.141
 9392SOL     OW29074   5.969   5.367   5.480
 9392SOL    HW129075   5.912   5.390   5.402
 9392SOL    HW229076   6.033   5.441   5.499
 9393SOL     OW29077   3.020   6.938   6.860
 9393SOL    HW129078   3.002   0.000   6.919
 9393SOL    HW229079   3.114   6.941   6.827
 9394SOL     OW29080   6.601   0.616   1.842
 9394SOL    HW129081   6.554   0.566   1.769
 9394SOL    HW229082   6.601   0.714   1.820
 9395SOL     OW29083   3.474   1.719   1.169
 9395SOL    HW129084   3.439   1.751   1.081
 9395SOL    HW229085   3.571   1.697   1.160
 9396SOL     OW29086   2.270   4.060   3.867
 9396SOL    HW129087   2.348   4.027   3.920
 9396SOL    HW229088   2.191   4.001   3.884
 9397SOL     OW29089   3.702   6.845   6.125
 9397SOL    HW129090   3.656   6.831   6.037
 9397SOL    HW229091   3.634   6.861   6.196
 9398SOL     OW29092   6.065   1.285   4.829
 9398SOL    HW129093   6.089   1.330   4.743
 9398SOL    HW229094   6.060   1.353   4.902
 9399SOL     OW29095   1.132   2.915   5.111
 9399SOL    HW129096   1.089   2.986   5.166
 9399SOL    HW229097   1.208   2.874   5.162
 9400SOL     OW29098   4.652   1.097   1.504
 9400SOL    HW129099   4.582   1.137   1.564
 9400SOL    HW229100   4.608   1.041   1.434
 9401SOL     OW29101   6.436   0.787   3.233
 9401SOL    HW129102   6.518   0.786   3.291
 9401SOL    HW229103   6.405   0.881   3.221
 9402SOL     OW29104   1.145   5.123   2.704
 9402SOL    HW129105   1.170   5.152   2.797
 9402SOL    HW229106   1.122   5.204   2.649
 9403SOL     OW29107   6.572   1.150   1.701
 9403SOL    HW129108   6.544   1.194   1.615
 9403SOL    HW229109   6.558   1.052   1.695
 9404SOL     OW29110   0.902   2.464   0.413
 9404SOL    HW129111   0.847   2.452   0.330
 9404SOL    HW229112   0.851   2.519   0.480
 9405SOL     OW29113   2.262   4.339   3.917
 9405SOL    HW129114   2.250   4.240   3.909
 9405SOL    HW229115   2.340   4.368   3.863
 9406SOL     OW29116   6.877   2.674   6.119
 9406SOL    HW129117   6.908   2.622   6.198
 9406SOL    HW229118   6.835   2.759   6.150
 9407SOL     OW29119   2.879   5.163   3.753
 9407SOL    HW129120   2.929   5.102   3.815
 9407SOL    HW229121   2.797   5.116   3.721
 9408SOL     OW29122   6.276   2.729   6.499
 9408SOL    HW129123   6.234   2.710   6.587
 9408SOL    HW229124   6.205   2.751   6.432
 9409SOL     OW29125   6.046   5.346   0.530
 9409SOL    HW129126   6.019   5.439   0.508
 9409SOL    HW229127   6.107   5.310   0.459
 9410SOL     OW29128   1.807   0.680   2.461
 9410SOL    HW129129   1.792   0.758   2.522
 9410SOL    HW229130   1.811   0.713   2.366
 9411SOL     OW29131   3.508   3.703   2.763
 9411SOL    HW129132   3.487   3.754   2.679
 9411SOL    HW229133   3.477   3.609   2.753
 9412SOL     OW29134   0.780   1.192   2.613
 9412SOL    HW129135   0.731   1.260   2.559
 9412SOL    HW229136   0.845   1.143   2.554
 9413SOL     OW29137   4.045   5.805   3.650
 9413SOL    HW129138   4.034   5.901   3.623
 9413SOL    HW229139   4.142   5.782   3.655
 9414SOL     OW29140   3.068   1.335   3.187
 9414SOL    HW129141   3.107   1.427   3.176
 9414SOL    HW229142   3.136   1.276   3.231
 9415SOL     OW29143   2.549   6.796   2.334
 9415SOL    HW129144   2.608   6.808   2.254
 9415SOL    HW229145   2.499   6.880   2.352
 9416SOL     OW29146   6.749   1.947   6.414
 9416SOL    HW129147   6.722   2.001   6.493
 9416SOL    HW229148   6.679   1.878   6.394
 9417SOL     OW29149   4.450   0.712   0.865
 9417SOL    HW129150   4.485   0.806   0.854
 9417SOL    HW229151   4.420   0.699   0.959
 9418SOL     OW29152   3.092   0.636   1.540
 9418SOL    HW129153   3.069   0.547   1.501
 9418SOL    HW229154   3.137   0.692   1.470
 9419SOL     OW29155   2.492   4.339   6.049
 9419SOL    HW129156   2.588   4.311   6.048
 9419SOL    HW229157   2.486   4.435   6.078
 9420SOL     OW29158   5.333   5.035   6.614
 9420SOL    HW129159   5.367   5.005   6.703
 9420SOL    HW229160   5.380   5.120   6.587
 9421SOL     OW29161   2.611   6.727   4.709
 9421SOL    HW129162   2.653   6.817   4.700
 9421SOL    HW229163   2.587   6.692   4.618
 9422SOL     OW29164   3.059   5.729   2.681
 9422SOL    HW129165   3.065   5.813   2.627
 9422SOL    HW229166   3.010   5.660   2.629
 9423SOL     OW29167   3.000   6.595   3.721
 9423SOL    HW129168   2.914   6.592   3.669
 9423SOL    HW229169   3.038   6.503   3.728
 9424SOL     OW29170   4.688   1.846   4.721
 9424SOL    HW129171   4.693   1.946   4.722
 9424SOL    HW229172   4.775   1.807   4.753
 9425SOL     OW29173   5.263   3.899   1.111
 9425SOL    HW129174   5.308   3.837   1.175
 9425SOL    HW229175   5.216   3.972   1.161
 9426SOL     OW29176   3.407   1.764   5.995
 9426SOL    HW129177   3.470   1.686   5.993
 9426SOL    HW229178   3.339   1.755   5.923
 9427SOL     OW29179   3.003   5.686   3.143
 9427SOL    HW129180   2.919   5.697   3.091
 9427SOL    HW229181   2.997   5.603   3.199
 9428SOL     OW29182   6.412   1.109   1.261
 9428SOL    HW129183   6.364   1.096   1.174
 9428SOL    HW229184   6.507   1.080   1.250
 9429SOL     OW29185   2.130   3.858   3.425
 9429SOL    HW129186   2.166   3.897   3.511
 9429SOL    HW229187   2.145   3.759   3.425
 9430SOL     OW29188   0.403   2.784   5.097
 9430SOL    HW129189   0.331   2.714   5.100
 9430SOL    HW229190   0.470   2.766   5.169
 9431SOL     OW29191   6.692   4.350   0.837
 9431SOL    HW129192   6.635   4.415   0.787
 9431SOL    HW229193   6.738   4.289   0.772
 9432SOL     OW29194   5.645   0.309   3.731
 9432SOL    HW129195   5.743   0.290   3.733
 9432SOL    HW229196   5.631   0.408   3.725
 9433SOL     OW29197   3.132   6.257   3.458
 9433SOL    HW129198   3.215   6.283   3.507
 9433SOL    HW229199   3.154   6.236   3.363
 9434SOL     OW29200   5.669   5.878   1.884
 9434SOL    HW129201   5.637   5.813   1.815
 9434SOL    HW229202   5.598   5.892   1.953
 9435SOL     OW29203   0.573   2.889   3.382
 9435SOL    HW129204   0.541   2.811   3.435
 9435SOL    HW229205   0.603   2.858   3.292
 9436SOL     OW29206   1.617   2.817   1.434
 9436SOL    HW129207   1.595   2.736   1.380
 9436SOL    HW229208   1.559   2.894   1.405
 9437SOL     OW29209   1.077   5.891   2.756
 9437SOL    HW129210   0.981   5.865   2.749
 9437SOL    HW229211   1.085   5.990   2.758
 9438SOL     OW29212   0.608   0.157   1.713
 9438SOL    HW129213   0.533   0.148   1.778
 9438SOL    HW229214   0.582   0.219   1.639
 9439SOL     OW29215   0.647   2.621   6.594
 9439SOL    HW129216   0.689   2.536   6.626
 9439SOL    HW229217   0.713   2.695   6.602
 9440SOL     OW29218   3.823   4.909   3.124
 9440SOL    HW129219   3.768   4.951   3.196
 9440SOL    HW229220   3.904   4.866   3.164
 9441SOL     OW29221   5.969   4.778   6.268
 9441SOL    HW129222   5.953   4.860   6.213
 9441SOL    HW229223   5.891   4.763   6.329
 9442SOL     OW29224   4.911   3.840   1.494
 9442SOL    HW129225   4.812   3.829   1.483
 9442SOL    HW229226   4.940   3.797   1.579
 9443SOL     OW29227   2.300   5.042   0.660
 9443SOL    HW129228   2.311   5.127   0.609
 9443SOL    HW229229   2.207   5.008   0.650
 9444SOL     OW29230   1.891   3.588   0.731
 9444SOL    HW129231   1.921   3.639   0.812
 9444SOL    HW229232   1.924   3.494   0.738
 9445SOL     OW29233   6.084   3.322   2.833
 9445SOL    HW129234   6.087   3.367   2.743
 9445SOL    HW229235   6.177   3.316   2.871
 9446SOL     OW29236   6.152   5.476   4.995
 9446SOL    HW129237   6.241   5.521   4.998
 9446SOL    HW229238   6.149   5.413   4.918
 9447SOL     OW29239   5.625   4.888   3.710
 9447SOL    HW129240   5.680   4.829   3.769
 9447SOL    HW229241   5.609   4.842   3.622
 9448SOL     OW29242   0.053   0.092   5.677
 9448SOL    HW129243   0.098   0.008   5.646
 9448SOL    HW229244   0.052   0.159   5.603
 9449SOL     OW29245   5.380   6.880   0.444
 9449SOL    HW129246   5.400   6.789   0.481
 9449SOL    HW229247   5.295   6.876   0.391
 9450SOL     OW29248   2.337   5.884   3.502
 9450SOL    HW129249   2.386   5.798   3.516
 9450SOL    HW229250   2.246   5.878   3.541
 9451SOL     OW29251   4.311   6.333   5.732
 9451SOL    HW129252   4.372   6.412   5.732
 9451SOL    HW229253   4.352   6.259   5.785
 9452SOL     OW29254   1.951   3.822   7.008
 9452SOL    HW129255   1.923   3.899   0.049
 9452SOL    HW229256   2.023   3.770   0.038
 9453SOL     OW29257   2.792   5.126   3.250
 9453SOL    HW129258   2.856   5.072   3.194
 9453SOL    HW229259   2.843   5.175   3.321
 9454SOL     OW29260   3.423   3.515   6.254
 9454SOL    HW129261   3.391   3.490   6.162
 9454SOL    HW229262   3.498   3.454   6.280
 9455SOL     OW29263   2.225   2.032   3.581
 9455SOL    HW129264   2.245   1.947   3.533
 9455SOL    HW229265   2.141   2.022   3.634
 9456SOL     OW29266   6.945   3.431   0.687
 9456SOL    HW129267   6.935   3.502   0.758
 9456SOL    HW229268   6.859   3.382   0.677
 9457SOL     OW29269   1.262   4.073   3.878
 9457SOL    HW129270   1.228   4.119   3.960
 9457SOL    HW229271   1.329   4.131   3.832
 9458SOL     OW29272   0.857   3.606   6.257
 9458SOL    HW129273   0.803   3.607   6.173
 9458SOL    HW229274   0.795   3.601   6.336
 9459SOL     OW29275   5.247   4.740   3.545
 9459SOL    HW129276   5.243   4.724   3.644
 9459SOL    HW229277   5.210   4.830   3.524
 9460SOL     OW29278   1.596   3.995   3.905
 9460SOL    HW129279   1.578   3.931   3.980
 9460SOL    HW229280   1.610   4.087   3.942
 9461SOL     OW29281   0.284   2.014   1.645
 9461SOL    HW129282   0.228   2.074   1.588
 9461SOL    HW229283   0.234   1.992   1.729
 9462SOL     OW29284   1.593   3.500   3.617
 9462SOL    HW129285   1.589   3.540   3.708
 9462SOL    HW229286   1.676   3.531   3.571
 9463SOL     OW29287   6.091   0.253   1.536
 9463SOL    HW129288   5.998   0.219   1.546
 9463SOL    HW229289   6.153   0.199   1.593
 9464SOL     OW29290   5.994   0.436   1.177
 9464SOL    HW129291   5.986   0.512   1.242
 9464SOL    HW229292   6.091   0.420   1.156
 9465SOL     OW29293   0.392   4.215   1.700
 9465SOL    HW129294   0.423   4.225   1.794
 9465SOL    HW229295   0.456   4.156   1.649
 9466SOL     OW29296   3.580   4.894   5.246
 9466SOL    HW129297   3.622   4.913   5.157
 9466SOL    HW229298   3.556   4.981   5.291
 9467SOL     OW29299   1.451   2.278   1.271
 9467SOL    HW129300   1.530   2.248   1.217
 9467SOL    HW229301   1.409   2.357   1.226
 9468SOL     OW29302   5.438   3.903   6.451
 9468SOL    HW129303   5.342   3.902   6.480
 9468SOL    HW229304   5.492   3.959   6.515
 9469SOL     OW29305   0.194   4.732   2.002
 9469SOL    HW129306   0.167   4.650   1.952
 9469SOL    HW229307   0.169   4.813   1.949
 9470SOL     OW29308   5.061   3.311   6.492
 9470SOL    HW129309   5.061   3.402   6.450
 9470SOL    HW229310   5.125   3.311   6.569
 9471SOL     OW29311   6.354   2.520   4.266
 9471SOL    HW129312   6.359   2.445   4.333
 9471SOL    HW229313   6.263   2.524   4.227
 9472SOL     OW29314   6.146   2.624   5.076
 9472SOL    HW129315   6.168   2.673   4.992
 9472SOL    HW229316   6.229   2.587   5.117
 9473SOL     OW29317   3.163   5.273   0.502
 9473SOL    HW129318   3.063   5.265   0.495
 9473SOL    HW229319   3.187   5.314   0.590
 9474SOL     OW29320   0.200   3.514   0.457
 9474SOL    HW129321   0.268   3.446   0.429
 9474SOL    HW229322   0.115   3.467   0.482
 9475SOL     OW29323   3.667   3.025   0.545
 9475SOL    HW129324   3.598   2.989   0.608
 9475SOL    HW229325   3.624   3.086   0.478
 9476SOL     OW29326   4.065   3.821   4.217
 9476SOL    HW129327   4.134   3.890   4.241
 9476SOL    HW229328   4.062   3.810   4.118
 9477SOL     OW29329   0.733   2.795   6.911
 9477SOL    HW129330   0.799   2.735   6.956
 9477SOL    HW229331   0.683   2.848   6.980
 9478SOL     OW29332   5.241   3.176   1.224
 9478SOL    HW129333   5.309   3.191   1.296
 9478SOL    HW229334   5.171   3.246   1.228
 9479SOL     OW29335   4.282   6.624   0.330
 9479SOL    HW129336   4.320   6.671   0.410
 9479SOL    HW229337   4.245   6.535   0.358
 9480SOL     OW29338   5.187   4.771   0.303
 9480SOL    HW129339   5.180   4.687   0.358
 9480SOL    HW229340   5.166   4.850   0.361
 9481SOL     OW29341   4.950   3.228   2.451
 9481SOL    HW129342   5.039   3.191   2.423
 9481SOL    HW229343   4.910   3.280   2.376
 9482SOL     OW29344   0.275   1.172   2.364
 9482SOL    HW129345   0.290   1.270   2.351
 9482SOL    HW229346   0.347   1.134   2.422
 9483SOL     OW29347   1.606   0.398   0.876
 9483SOL    HW129348   1.687   0.418   0.932
 9483SOL    HW229349   1.625   0.426   0.782
 9484SOL     OW29350   4.054   0.281   4.423
 9484SOL    HW129351   4.111   0.204   4.453
 9484SOL    HW229352   4.009   0.257   4.337
 9485SOL     OW29353   0.356   0.908   0.961
 9485SOL    HW129354   0.451   0.875   0.955
 9485SOL    HW229355   0.350   0.998   0.918
 9486SOL     OW29356   3.820   6.297   0.810
 9486SOL    HW129357   3.827   6.214   0.754
 9486SOL    HW229358   3.747   6.285   0.877
 9487SOL     OW29359   3.266   3.849   3.785
 9487SOL    HW129360   3.282   3.750   3.788
 9487SOL    HW229361   3.173   3.866   3.752
 9488SOL     OW29362   2.571   0.318   1.390
 9488SOL    HW129363   2.587   0.402   1.339
 9488SOL    HW229364   2.657   0.284   1.427
 9489SOL     OW29365   4.701   4.323   1.362
 9489SOL    HW129366   4.660   4.385   1.429
 9489SOL    HW229367   4.635   4.252   1.338
 9490SOL     OW29368   6.001   5.442   2.535
 9490SOL    HW129369   5.993   5.359   2.590
 9490SOL    HW229370   6.054   5.421   2.452
 9491SOL     OW29371   5.302   4.547   4.025
 9491SOL    HW129372   5.278   4.481   4.096
 9491SOL    HW229373   5.270   4.638   4.050
 9492SOL     OW29374   3.745   3.233   4.551
 9492SOL    HW129375   3.717   3.266   4.641
 9492SOL    HW229376   3.807   3.155   4.563
 9493SOL     OW29377   2.652   5.983   4.450
 9493SOL    HW129378   2.587   5.963   4.523
 9493SOL    HW229379   2.683   5.898   4.408
 9494SOL     OW29380   5.512   2.760   2.562
 9494SOL    HW129381   5.541   2.805   2.647
 9494SOL    HW229382   5.437   2.697   2.582
 9495SOL     OW29383   6.914   1.946   2.932
 9495SOL    HW129384   7.012   1.931   2.947
 9495SOL    HW229385   6.896   2.043   2.920
 9496SOL     OW29386   6.163   3.559   1.573
 9496SOL    HW129387   6.084   3.610   1.539
 9496SOL    HW229388   6.181   3.586   1.668
 9497SOL     OW29389   5.758   0.101   6.029
 9497SOL    HW129390   5.694   0.154   6.085
 9497SOL    HW229391   5.828   0.060   6.087
 9498SOL     OW29392   5.568   6.365   3.997
 9498SOL    HW129393   5.604   6.424   4.069
 9498SOL    HW229394   5.638   6.299   3.970
 9499SOL     OW29395   2.243   4.684   6.227
 9499SOL    HW129396   2.143   4.680   6.229
 9499SOL    HW229397   2.276   4.738   6.305
 9500SOL     OW29398   4.774   0.472   0.744
 9500SOL    HW129399   4.700   0.479   0.812
 9500SOL    HW229400   4.785   0.376   0.717
 9501SOL     OW29401   2.729   1.037   5.500
 9501SOL    HW129402   2.671   1.061   5.578
 9501SOL    HW229403   2.816   1.086   5.507
 9502SOL     OW29404   5.719   2.334   5.185
 9502SOL    HW129405   5.664   2.413   5.157
 9502SOL    HW229406   5.816   2.356   5.177
 9503SOL     OW29407   0.540   1.429   0.820
 9503SOL    HW129408   0.536   1.524   0.787
 9503SOL    HW229409   0.535   1.367   0.742
 9504SOL     OW29410   6.723   3.245   0.387
 9504SOL    HW129411   6.807   3.280   0.346
 9504SOL    HW229412   6.691   3.166   0.335
 9505SOL     OW29413   5.222   4.399   4.247
 9505SOL    HW129414   5.132   4.363   4.223
 9505SOL    HW229415   5.232   4.400   4.347
 9506SOL     OW29416   1.649   2.270   6.548
 9506SOL    HW129417   1.730   2.247   6.601
 9506SOL    HW229418   1.567   2.245   6.600
 9507SOL     OW29419   0.132   1.010   2.199
 9507SOL    HW129420   0.147   0.913   2.220
 9507SOL    HW229421   0.167   1.066   2.275
 9508SOL     OW29422   6.199   1.682   1.455
 9508SOL    HW129423   6.192   1.639   1.545
 9508SOL    HW229424   6.139   1.761   1.452
 9509SOL     OW29425   0.034   0.989   3.772
 9509SOL    HW129426   0.012   1.005   3.676
 9509SOL    HW229427   0.111   1.047   3.798
 9510SOL     OW29428   1.876   3.874   3.605
 9510SOL    HW129429   1.886   3.910   3.513
 9510SOL    HW229430   1.896   3.776   3.604
 9511SOL     OW29431   1.731   0.245   1.259
 9511SOL    HW129432   1.729   0.252   1.358
 9511SOL    HW229433   1.652   0.191   1.228
 9512SOL     OW29434   6.513   1.796   1.722
 9512SOL    HW129435   6.608   1.795   1.752
 9512SOL    HW229436   6.510   1.793   1.622
 9513SOL     OW29437   2.154   3.671   6.077
 9513SOL    HW129438   2.206   3.702   6.157
 9513SOL    HW229439   2.190   3.583   6.046
 9514SOL     OW29440   2.117   5.333   5.862
 9514SOL    HW129441   2.155   5.291   5.780
 9514SOL    HW229442   2.082   5.261   5.922
 9515SOL     OW29443   1.532   5.695   0.829
 9515SOL    HW129444   1.619   5.677   0.874
 9515SOL    HW229445   1.457   5.683   0.894
 9516SOL     OW29446   6.127   4.967   6.714
 9516SOL    HW129447   6.141   4.953   6.616
 9516SOL    HW229448   6.102   5.062   6.731
 9517SOL     OW29449   1.260   4.035   1.058
 9517SOL    HW129450   1.328   3.966   1.080
 9517SOL    HW229451   1.287   4.123   1.096
 9518SOL     OW29452   2.134   1.819   0.487
 9518SOL    HW129453   2.080   1.862   0.559
 9518SOL    HW229454   2.073   1.777   0.420
 9519SOL     OW29455   3.113   3.525   4.732
 9519SOL    HW129456   3.166   3.610   4.733
 9519SOL    HW229457   3.020   3.544   4.702
 9520SOL     OW29458   1.580   2.009   3.225
 9520SOL    HW129459   1.646   1.950   3.178
 9520SOL    HW229460   1.579   2.099   3.182
 9521SOL     OW29461   5.147   5.686   2.167
 9521SOL    HW129462   5.181   5.613   2.109
 9521SOL    HW229463   5.078   5.739   2.117
 9522SOL     OW29464   2.344   5.675   1.090
 9522SOL    HW129465   2.372   5.717   1.004
 9522SOL    HW229466   2.245   5.663   1.092
 9523SOL     OW29467   3.176   5.288   4.948
 9523SOL    HW129468   3.167   5.347   5.029
 9523SOL    HW229469   3.261   5.311   4.900
 9524SOL     OW29470   3.909   2.960   1.523
 9524SOL    HW129471   3.991   2.909   1.494
 9524SOL    HW229472   3.827   2.909   1.497
 9525SOL     OW29473   2.256   3.047   5.712
 9525SOL    HW129474   2.177   2.997   5.675
 9525SOL    HW229475   2.254   3.141   5.679
 9526SOL     OW29476   5.219   5.507   1.975
 9526SOL    HW129477   5.189   5.422   1.931
 9526SOL    HW229478   5.316   5.499   1.999
 9527SOL     OW29479   0.862   0.425   3.247
 9527SOL    HW129480   0.951   0.468   3.229
 9527SOL    HW229481   0.876   0.332   3.280
 9528SOL     OW29482   0.312   1.168   6.789
 9528SOL    HW129483   0.392   1.140   6.842
 9528SOL    HW229484   0.264   1.087   6.756
 9529SOL     OW29485   6.204   2.979   5.281
 9529SOL    HW129486   6.292   2.939   5.254
 9529SOL    HW229487   6.151   3.000   5.199
 9530SOL     OW29488   1.856   3.593   2.274
 9530SOL    HW129489   1.849   3.498   2.243
 9530SOL    HW229490   1.840   3.655   2.198
 9531SOL     OW29491   4.931   5.651   3.145
 9531SOL    HW129492   5.016   5.699   3.124
 9531SOL    HW229493   4.875   5.644   3.062
 9532SOL     OW29494   0.411   0.047   2.269
 9532SOL    HW129495   0.335   6.997   2.268
 9532SOL    HW229496   0.459   0.041   2.356
 9533SOL     OW29497   6.693   7.005   4.979
 9533SOL    HW129498   6.640   0.036   5.050
 9533SOL    HW229499   6.671   6.908   4.981
 9534SOL     OW29500   6.486   3.284   5.269
 9534SOL    HW129501   6.567   3.296   5.327
 9534SOL    HW229502   6.490   3.194   5.225
 9535SOL     OW29503   2.573   1.604   5.727
 9535SOL    HW129504   2.664   1.607   5.686
 9535SOL    HW229505   2.568   1.670   5.802
 9536SOL     OW29506   2.941   4.850   5.446
 9536SOL    HW129507   3.012   4.785   5.417
 9536SOL    HW229508   2.859   4.836   5.390
 9537SOL     OW29509   2.779   6.230   3.077
 9537SOL    HW129510   2.735   6.158   3.130
 9537SOL    HW229511   2.877   6.211   3.068
 9538SOL     OW29512   6.636   2.153   3.683
 9538SOL    HW129513   6.736   2.152   3.681
 9538SOL    HW229514   6.604   2.124   3.774
 9539SOL     OW29515   1.980   3.909   5.311
 9539SOL    HW129516   2.045   3.967   5.261
 9539SOL    HW229517   1.985   3.816   5.276
 9540SOL     OW29518   5.477   4.075   4.514
 9540SOL    HW129519   5.501   4.166   4.547
 9540SOL    HW229520   5.378   4.072   4.496
 9541SOL     OW29521   3.237   1.716   5.794
 9541SOL    HW129522   3.275   1.625   5.811
 9541SOL    HW229523   3.139   1.715   5.812
 9542SOL     OW29524   5.117   4.062   4.461
 9542SOL    HW129525   5.023   4.061   4.497
 9542SOL    HW229526   5.181   4.044   4.536
 9543SOL     OW29527   3.453   1.076   4.754
 9543SOL    HW129528   3.505   1.136   4.815
 9543SOL    HW229529   3.390   1.130   4.699
 9544SOL     OW29530   0.286   1.352   3.070
 9544SOL    HW129531   0.261   1.313   2.982
 9544SOL    HW229532   0.227   1.314   3.141
 9545SOL     OW29533   6.505   5.098   3.714
 9545SOL    HW129534   6.508   5.007   3.672
 9545SOL    HW229535   6.419   5.108   3.764
 9546SOL     OW29536   3.068   2.721   6.042
 9546SOL    HW129537   3.009   2.800   6.025
 9546SOL    HW229538   3.027   2.663   6.112
 9547SOL     OW29539   2.256   6.335   4.120
 9547SOL    HW129540   2.193   6.380   4.183
 9547SOL    HW229541   2.336   6.393   4.105
 9548SOL     OW29542   5.773   6.195   5.313
 9548SOL    HW129543   5.711   6.123   5.283
 9548SOL    HW229544   5.845   6.208   5.244
 9549SOL     OW29545   2.985   3.665   1.373
 9549SOL    HW129546   3.071   3.614   1.368
 9549SOL    HW229547   2.909   3.600   1.379
 9550SOL     OW29548   0.335   1.352   0.246
 9550SOL    HW129549   0.309   1.262   0.213
 9550SOL    HW229550   0.430   1.371   0.220
 9551SOL     OW29551   6.122   0.956   4.089
 9551SOL    HW129552   6.109   0.857   4.097
 9551SOL    HW229553   6.214   0.980   4.121
 9552SOL     OW29554   1.115   6.082   2.399
 9552SOL    HW129555   1.090   6.105   2.305
 9552SOL    HW229556   1.042   6.028   2.440
 9553SOL     OW29557   6.149   4.221   6.974
 9553SOL    HW129558   6.243   4.202   6.947
 9553SOL    HW229559   6.144   4.310   0.002
 9554SOL     OW29560   2.538   0.648   1.764
 9554SOL    HW129561   2.555   0.552   1.741
 9554SOL    HW229562   2.446   0.673   1.735
 9555SOL     OW29563   0.887   0.860   1.605
 9555SOL    HW129564   0.847   0.781   1.559
 9555SOL    HW229565   0.846   0.870   1.696
 9556SOL     OW29566   2.698   2.610   1.386
 9556SOL    HW129567   2.642   2.690   1.365
 9556SOL    HW229568   2.763   2.632   1.458
 9557SOL     OW29569   6.817   0.555   2.685
 9557SOL    HW129570   6.868   0.598   2.610
 9557SOL    HW229571   6.873   0.482   2.725
 9558SOL     OW29572   6.497   5.832   4.690
 9558SOL    HW129573   6.532   5.830   4.784
 9558SOL    HW229574   6.569   5.862   4.628
 9559SOL     OW29575   0.153   3.933   1.458
 9559SOL    HW129576   0.164   3.834   1.469
 9559SOL    HW229577   0.063   3.953   1.420
 9560SOL     OW29578   1.511   1.308   2.730
 9560SOL    HW129579   1.497   1.367   2.651
 9560SOL    HW229580   1.431   1.311   2.790
 9561SOL     OW29581   1.365   6.435   0.313
 9561SOL    HW129582   1.395   6.526   0.345
 9561SOL    HW229583   1.339   6.440   0.217
 9562SOL     OW29584   3.376   6.764   5.001
 9562SOL    HW129585   3.300   6.702   5.019
 9562SOL    HW229586   3.462   6.721   5.032
 9563SOL     OW29587   6.117   6.730   0.060
 9563SOL    HW129588   6.213   6.744   0.037
 9563SOL    HW229589   6.067   6.699   6.995
 9564SOL     OW29590   2.687   0.123   6.735
 9564SOL    HW129591   2.755   0.054   6.712
 9564SOL    HW229592   2.629   0.089   6.810
 9565SOL     OW29593   3.678   6.167   5.262
 9565SOL    HW129594   3.649   6.071   5.268
 9565SOL    HW229595   3.777   6.173   5.273
 9566SOL     OW29596   3.036   5.216   6.615
 9566SOL    HW129597   3.045   5.182   6.521
 9566SOL    HW229598   2.940   5.218   6.641
 9567SOL     OW29599   6.538   4.697   6.724
 9567SOL    HW129600   6.490   4.782   6.742
 9567SOL    HW229601   6.600   4.676   6.799
 9568SOL     OW29602   5.015   2.813   0.245
 9568SOL    HW129603   4.959   2.743   0.290
 9568SOL    HW229604   5.078   2.769   0.181
 9569SOL     OW29605   0.112   0.872   2.588
 9569SOL    HW129606   0.207   0.854   2.562
 9569SOL    HW229607   0.107   0.888   2.687
 9570SOL     OW29608   1.071   2.127   2.073
 9570SOL    HW129609   1.095   2.170   1.986
 9570SOL    HW229610   1.015   2.189   2.128
 9571SOL     OW29611   2.593   3.825   6.925
 9571SOL    HW129612   2.657   3.755   6.956
 9571SOL    HW229613   2.539   3.858   7.002
 9572SOL     OW29614   1.663   4.914   1.129
 9572SOL    HW129615   1.706   4.927   1.218
 9572SOL    HW229616   1.683   4.992   1.070
 9573SOL     OW29617   0.729   1.524   6.274
 9573SOL    HW129618   0.731   1.424   6.272
 9573SOL    HW229619   0.822   1.559   6.281
 9574SOL     OW29620   3.879   3.018   4.258
 9574SOL    HW129621   3.903   2.955   4.184
 9574SOL    HW229622   3.788   2.997   4.293
 9575SOL     OW29623   5.741   0.519   1.073
 9575SOL    HW129624   5.746   0.618   1.086
 9575SOL    HW229625   5.827   0.477   1.102
 9576SOL     OW29626   3.057   0.568   2.814
 9576SOL    HW129627   3.008   0.618   2.885
 9576SOL    HW229628   3.155   0.567   2.836
 9577SOL     OW29629   1.002   0.894   3.679
 9577SOL    HW129630   1.044   0.923   3.764
 9577SOL    HW229631   1.050   0.935   3.602
 9578SOL     OW29632   6.773   3.572   3.721
 9578SOL    HW129633   6.862   3.617   3.711
 9578SOL    HW229634   6.779   3.503   3.793
 9579SOL     OW29635   1.589   5.240   3.299
 9579SOL    HW129636   1.622   5.147   3.282
 9579SOL    HW229637   1.625   5.273   3.387
 9580SOL     OW29638   4.571   3.034   1.041
 9580SOL    HW129639   4.486   3.052   1.091
 9580SOL    HW229640   4.560   2.952   0.985
 9581SOL     OW29641   1.101   5.244   6.689
 9581SOL    HW129642   1.152   5.297   6.758
 9581SOL    HW229643   1.010   5.283   6.677
 9582SOL     OW29644   4.400   4.647   4.794
 9582SOL    HW129645   4.372   4.587   4.869
 9582SOL    HW229646   4.490   4.686   4.815
 9583SOL     OW29647   2.911   3.379   1.142
 9583SOL    HW129648   2.906   3.392   1.241
 9583SOL    HW229649   2.999   3.339   1.117
 9584SOL     OW29650   6.205   6.337   0.048
 9584SOL    HW129651   6.130   6.356   7.002
 9584SOL    HW229652   6.169   6.324   0.141
 9585SOL     OW29653   6.708   1.154   3.023
 9585SOL    HW129654   6.772   1.178   2.950
 9585SOL    HW229655   6.651   1.233   3.045
 9586SOL     OW29656   6.308   3.986   1.938
 9586SOL    HW129657   6.222   3.972   1.989
 9586SOL    HW229658   6.381   4.010   2.001
 9587SOL     OW29659   6.118   0.387   2.207
 9587SOL    HW129660   6.135   0.409   2.111
 9587SOL    HW229661   6.204   0.359   2.251
 9588SOL     OW29662   0.837   1.881   2.241
 9588SOL    HW129663   0.884   1.849   2.159
 9588SOL    HW229664   0.892   1.951   2.287
 9589SOL     OW29665   2.933   5.599   6.356
 9589SOL    HW129666   2.978   5.684   6.328
 9589SOL    HW229667   3.000   5.526   6.364
 9590SOL     OW29668   0.005   5.094   2.623
 9590SOL    HW129669   0.007   5.042   2.538
 9590SOL    HW229670   0.041   5.037   2.698
 9591SOL     OW29671   3.074   5.953   6.891
 9591SOL    HW129672   3.045   5.859   6.876
 9591SOL    HW229673   3.005   6.001   6.945
 9592SOL     OW29674   3.755   5.003   1.860
 9592SOL    HW129675   3.710   4.920   1.891
 9592SOL    HW229676   3.691   5.057   1.805
 9593SOL     OW29677   5.802   1.205   4.671
 9593SOL    HW129678   5.870   1.278   4.662
 9593SOL    HW229679   5.720   1.242   4.716
 9594SOL     OW29680   0.439   6.028   3.357
 9594SOL    HW129681   0.527   6.038   3.309
 9594SOL    HW229682   0.447   5.954   3.424
 9595SOL     OW29683   1.826   4.243   4.287
 9595SOL    HW129684   1.921   4.273   4.282
 9595SOL    HW229685   1.782   4.284   4.366
 9596SOL     OW29686   0.040   5.659   0.518
 9596SOL    HW129687   0.119   5.713   0.489
 9596SOL    HW229688   0.030   5.665   0.617
 9597SOL     OW29689   6.797   4.194   1.042
 9597SOL    HW129690   6.836   4.118   0.990
 9597SOL    HW229691   6.738   4.249   0.982
 9598SOL     OW29692   0.445   3.709   4.910
 9598SOL    HW129693   0.418   3.613   4.922
 9598SOL    HW229694   0.541   3.720   4.937
 9599SOL     OW29695   3.135   0.741   4.705
 9599SOL    HW129696   3.142   0.796   4.621
 9599SOL    HW229697   3.060   0.775   4.761
 9600SOL     OW29698   2.163   0.006   5.818
 9600SOL    HW129699   2.165   0.008   5.718
 9600SOL    HW229700   2.108   6.945   5.848
 9601SOL     OW29701   6.313   3.929   6.321
 9601SOL    HW129702   6.263   4.015   6.310
 9601SOL    HW229703   6.406   3.950   6.351
 9602SOL     OW29704   6.574   4.681   6.303
 9602SOL    HW129705   6.588   4.644   6.212
 9602SOL    HW229706   6.565   4.606   6.369
 9603SOL     OW29707   2.597   0.100   4.169
 9603SOL    HW129708   2.691   0.072   4.190
 9603SOL    HW229709   2.551   0.027   4.120
 9604SOL     OW29710   5.061   0.240   0.658
 9604SOL    HW129711   5.137   0.210   0.716
 9604SOL    HW229712   5.096   0.296   0.583
 9605SOL     OW29713   0.093   4.435   5.632
 9605SOL    HW129714   0.137   4.459   5.718
 9605SOL    HW229715   0.163   4.422   5.561
 9606SOL     OW29716   1.188   6.541   4.943
 9606SOL    HW129717   1.258   6.613   4.943
 9606SOL    HW229718   1.224   6.458   4.901
 9607SOL     OW29719   1.403   1.797   2.118
 9607SOL    HW129720   1.424   1.703   2.091
 9607SOL    HW229721   1.407   1.856   2.037
 9608SOL     OW29722   0.133   6.525   2.646
 9608SOL    HW129723   0.230   6.546   2.634
 9608SOL    HW229724   0.078   6.602   2.615
 9609SOL     OW29725   1.458   3.902   5.073
 9609SOL    HW129726   1.419   3.829   5.018
 9609SOL    HW229727   1.444   3.990   5.028
 9610SOL     OW29728   1.464   3.689   5.278
 9610SOL    HW129729   1.473   3.769   5.219
 9610SOL    HW229730   1.549   3.675   5.329
 9611SOL     OW29731   0.636   6.416   1.196
 9611SOL    HW129732   0.586   6.330   1.192
 9611SOL    HW229733   0.573   6.492   1.174
 9612SOL     OW29734   6.045   2.926   1.250
 9612SOL    HW129735   6.041   2.873   1.335
 9612SOL    HW229736   5.974   2.894   1.187
 9613SOL     OW29737   4.936   5.766   3.858
 9613SOL    HW129738   4.976   5.767   3.950
 9613SOL    HW229739   5.005   5.791   3.791
 9614SOL     OW29740   4.099   3.686   1.435
 9614SOL    HW129741   4.056   3.728   1.355
 9614SOL    HW229742   4.136   3.758   1.494
 9615SOL     OW29743   1.354   6.246   2.355
 9615SOL    HW129744   1.397   6.268   2.442
 9615SOL    HW229745   1.272   6.191   2.371
 9616SOL     OW29746   4.087   3.703   0.580
 9616SOL    HW129747   4.120   3.609   0.579
 9616SOL    HW229748   4.133   3.756   0.509
 9617SOL     OW29749   0.847   4.005   4.421
 9617SOL    HW129750   0.932   4.057   4.422
 9617SOL    HW229751   0.830   3.966   4.511
 9618SOL     OW29752   3.464   6.897   6.324
 9618SOL    HW129753   3.371   6.868   6.348
 9618SOL    HW229754   3.512   6.925   6.407
 9619SOL     OW29755   1.108   0.108   0.873
 9619SOL    HW129756   1.149   0.080   0.786
 9619SOL    HW229757   1.163   0.071   0.949
 9620SOL     OW29758   5.210   1.830   6.782
 9620SOL    HW129759   5.272   1.840   6.704
 9620SOL    HW229760   5.124   1.877   6.762
 9621SOL     OW29761   1.241   1.019   2.410
 9621SOL    HW129762   1.272   0.925   2.396
 9621SOL    HW229763   1.305   1.082   2.367
 9622SOL     OW29764   6.053   1.455   6.863
 9622SOL    HW129765   5.972   1.513   6.867
 9622SOL    HW229766   6.035   1.378   6.801
 9623SOL     OW29767   4.578   5.189   5.991
 9623SOL    HW129768   4.643   5.264   5.983
 9623SOL    HW229769   4.491   5.224   6.026
 9624SOL     OW29770   5.408   4.038   5.046
 9624SOL    HW129771   5.468   4.038   4.965
 9624SOL    HW229772   5.404   3.946   5.084
 9625SOL     OW29773   4.888   4.486   6.963
 9625SOL    HW129774   4.836   4.426   0.007
 9625SOL    HW229775   4.862   4.581   6.981
 9626SOL     OW29776   2.601   5.874   5.493
 9626SOL    HW129777   2.653   5.799   5.534
 9626SOL    HW229778   2.651   5.910   5.414
 9627SOL     OW29779   0.188   4.167   4.714
 9627SOL    HW129780   0.225   4.101   4.780
 9627SOL    HW229781   0.228   4.150   4.624
 9628SOL     OW29782   5.859   3.398   0.934
 9628SOL    HW129783   5.916   3.346   0.998
 9628SOL    HW229784   5.914   3.469   0.891
 9629SOL     OW29785   6.758   5.972   3.132
 9629SOL    HW129786   6.761   6.030   3.050
 9629SOL    HW229787   6.676   5.915   3.129
 9630SOL     OW29788   6.509   6.255   5.785
 9630SOL    HW129789   6.556   6.291   5.705
 9630SOL    HW229790   6.461   6.330   5.832
 9631SOL     OW29791   4.703   1.823   0.834
 9631SOL    HW129792   4.652   1.833   0.919
 9631SOL    HW229793   4.690   1.730   0.799
 9632SOL     OW29794   2.131   5.300   2.273
 9632SOL    HW129795   2.189   5.366   2.321
 9632SOL    HW229796   2.042   5.296   2.318
 9633SOL     OW29797   3.806   4.174   0.372
 9633SOL    HW129798   3.864   4.209   0.446
 9633SOL    HW229799   3.814   4.074   0.369
 9634SOL     OW29800   6.701   5.552   3.504
 9634SOL    HW129801   6.787   5.515   3.467
 9634SOL    HW229802   6.629   5.541   3.437
 9635SOL     OW29803   0.996   4.357   5.666
 9635SOL    HW129804   0.908   4.340   5.710
 9635SOL    HW229805   0.992   4.443   5.615
 9636SOL     OW29806   3.703   1.579   6.064
 9636SOL    HW129807   3.654   1.494   6.083
 9636SOL    HW229808   3.779   1.561   6.002
 9637SOL     OW29809   3.981   3.297   1.166
 9637SOL    HW129810   3.920   3.257   1.234
 9637SOL    HW229811   3.983   3.239   1.084
 9638SOL     OW29812   6.812   3.218   6.008
 9638SOL    HW129813   6.908   3.230   6.033
 9638SOL    HW229814   6.763   3.171   6.082
 9639SOL     OW29815   4.112   2.256   1.966
 9639SOL    HW129816   4.180   2.329   1.967
 9639SOL    HW229817   4.029   2.288   1.922
 9640SOL     OW29818   3.283   0.681   1.854
 9640SOL    HW129819   3.276   0.675   1.954
 9640SOL    HW229820   3.192   0.685   1.814
 9641SOL     OW29821   5.842   6.248   2.111
 9641SOL    HW129822   5.743   6.260   2.102
 9641SOL    HW229823   5.870   6.165   2.065
 9642SOL     OW29824   1.390   6.465   4.139
 9642SOL    HW129825   1.416   6.402   4.065
 9642SOL    HW229826   1.299   6.441   4.172
 9643SOL     OW29827   5.141   3.870   3.591
 9643SOL    HW129828   5.088   3.785   3.590
 9643SOL    HW229829   5.208   3.868   3.517
 9644SOL     OW29830   1.769   5.839   5.693
 9644SOL    HW129831   1.849   5.822   5.636
 9644SOL    HW229832   1.702   5.766   5.679
 9645SOL     OW29833   2.404   4.499   4.837
 9645SOL    HW129834   2.345   4.508   4.917
 9645SOL    HW229835   2.489   4.550   4.852
 9646SOL     OW29836   2.850   5.547   2.300
 9646SOL    HW129837   2.766   5.494   2.299
 9646SOL    HW229838   2.888   5.547   2.393
 9647SOL     OW29839   0.286   7.011   3.541
 9647SOL    HW129840   0.316   0.076   3.492
 9647SOL    HW229841   0.212   6.966   3.491
 9648SOL     OW29842   4.391   2.611   0.767
 9648SOL    HW129843   4.388   2.570   0.859
 9648SOL    HW229844   4.302   2.652   0.747
 9649SOL     OW29845   2.620   4.296   6.876
 9649SOL    HW129846   2.701   4.246   6.848
 9649SOL    HW229847   2.636   4.337   6.966
 9650SOL     OW29848   4.513   4.540   2.942
 9650SOL    HW129849   4.478   4.567   3.031
 9650SOL    HW229850   4.550   4.447   2.948
 9651SOL     OW29851   4.496   1.330   1.241
 9651SOL    HW129852   4.456   1.265   1.176
 9651SOL    HW229853   4.593   1.310   1.253
 9652SOL     OW29854   1.070   4.688   1.410
 9652SOL    HW129855   1.037   4.594   1.400
 9652SOL    HW229856   1.165   4.693   1.380
 9653SOL     OW29857   4.786   4.444   5.205
 9653SOL    HW129858   4.725   4.413   5.132
 9653SOL    HW229859   4.835   4.367   5.243
 9654SOL     OW29860   3.149   3.399   2.890
 9654SOL    HW129861   3.072   3.453   2.925
 9654SOL    HW229862   3.113   3.319   2.841
 9655SOL     OW29863   0.188   1.717   0.325
 9655SOL    HW129864   0.198   1.794   0.262
 9655SOL    HW229865   0.203   1.632   0.276
 9656SOL     OW29866   4.725   2.574   1.232
 9656SOL    HW129867   4.632   2.605   1.250
 9656SOL    HW229868   4.752   2.507   1.302
 9657SOL     OW29869   5.971   4.318   2.543
 9657SOL    HW129870   5.951   4.415   2.551
 9657SOL    HW229871   5.887   4.265   2.556
 9658SOL     OW29872   5.390   1.833   2.103
 9658SOL    HW129873   5.460   1.776   2.147
 9658SOL    HW229874   5.304   1.824   2.153
 9659SOL     OW29875   0.908   2.575   6.988
 9659SOL    HW129876   0.986   2.597   0.030
 9659SOL    HW229877   0.846   2.514   0.021
 9660SOL     OW29878   0.795   0.209   2.507
 9660SOL    HW129879   0.701   0.212   2.542
 9660SOL    HW229880   0.859   0.202   2.583
 9661SOL     OW29881   3.824   6.134   1.175
 9661SOL    HW129882   3.759   6.059   1.158
 9661SOL    HW229883   3.887   6.107   1.248
 9662SOL     OW29884   5.344   3.927   0.117
 9662SOL    HW129885   5.260   3.872   0.118
 9662SOL    HW229886   5.410   3.886   0.054
 9663SOL     OW29887   0.198   5.688   2.589
 9663SOL    HW129888   0.135   5.706   2.664
 9663SOL    HW229889   0.288   5.665   2.625
 9664SOL     OW29890   5.494   4.838   4.116
 9664SOL    HW129891   5.406   4.850   4.161
 9664SOL    HW229892   5.508   4.913   4.051
 9665SOL     OW29893   5.928   6.524   6.151
 9665SOL    HW129894   6.017   6.500   6.189
 9665SOL    HW229895   5.938   6.602   6.089
 9666SOL     OW29896   6.198   3.718   2.244
 9666SOL    HW129897   6.184   3.697   2.341
 9666SOL    HW229898   6.111   3.706   2.195
 9667SOL     OW29899   3.618   3.718   0.250
 9667SOL    HW129900   3.599   3.672   0.337
 9667SOL    HW229901   3.665   3.655   0.189
 9668SOL     OW29902   0.883   0.707   6.605
 9668SOL    HW129903   0.939   0.725   6.524
 9668SOL    HW229904   0.853   0.611   6.604
 9669SOL     OW29905   2.164   6.878   2.109
 9669SOL    HW129906   2.112   6.919   2.184
 9669SOL    HW229907   2.242   6.827   2.147
 9670SOL     OW29908   0.336   5.228   5.704
 9670SOL    HW129909   0.317   5.158   5.635
 9670SOL    HW229910   0.335   5.318   5.662
 9671SOL     OW29911   6.744   4.175   0.200
 9671SOL    HW129912   6.764   4.142   0.108
 9671SOL    HW229913   6.708   4.099   0.255
 9672SOL     OW29914   1.973   4.936   3.572
 9672SOL    HW129915   1.944   4.841   3.560
 9672SOL    HW229916   2.065   4.938   3.610
 9673SOL     OW29917   3.423   3.531   0.746
 9673SOL    HW129918   3.491   3.471   0.788
 9673SOL    HW229919   3.333   3.513   0.787
 9674SOL     OW29920   3.921   6.585   3.289
 9674SOL    HW129921   3.920   6.538   3.201
 9674SOL    HW229922   3.864   6.667   3.283
 9675SOL     OW29923   4.985   2.417   6.920
 9675SOL    HW129924   5.001   2.360   6.840
 9675SOL    HW229925   5.031   2.377   6.999
 9676SOL     OW29926   1.547   3.156   6.145
 9676SOL    HW129927   1.546   3.183   6.241
 9676SOL    HW229928   1.589   3.228   6.090
 9677SOL     OW29929   6.529   4.867   4.692
 9677SOL    HW129930   6.581   4.952   4.698
 9677SOL    HW229931   6.456   4.867   4.759
 9678SOL     OW29932   2.926   3.552   3.974
 9678SOL    HW129933   2.896   3.613   3.901
 9678SOL    HW229934   2.970   3.604   4.046
 9679SOL     OW29935   2.297   0.214   3.736
 9679SOL    HW129936   2.208   0.260   3.742
 9679SOL    HW229937   2.358   0.267   3.676
 9680SOL     OW29938   4.478   0.210   4.327
 9680SOL    HW129939   4.483   0.239   4.231
 9680SOL    HW229940   4.416   0.132   4.335
 9681SOL     OW29941   2.922   2.429   0.672
 9681SOL    HW129942   2.862   2.387   0.741
 9681SOL    HW229943   2.954   2.517   0.706
 9682SOL     OW29944   4.819   4.104   3.737
 9682SOL    HW129945   4.819   4.007   3.710
 9682SOL    HW229946   4.749   4.153   3.685
 9683SOL     OW29947   3.019   6.637   1.461
 9683SOL    HW129948   3.115   6.649   1.437
 9683SOL    HW229949   2.988   6.547   1.431
 9684SOL     OW29950   0.994   3.594   5.469
 9684SOL    HW129951   0.976   3.517   5.407
 9684SOL    HW229952   1.073   3.645   5.435
 9685SOL     OW29953   4.882   4.057   0.969
 9685SOL    HW129954   4.865   4.105   1.055
 9685SOL    HW229955   4.973   4.082   0.935
 9686SOL     OW29956   0.560   2.954   6.116
 9686SOL    HW129957   0.466   2.989   6.120
 9686SOL    HW229958   0.614   2.997   6.189
 9687SOL     OW29959   0.385   1.083   3.472
 9687SOL    HW129960   0.304   1.140   3.490
 9687SOL    HW229961   0.464   1.122   3.518
 9688SOL     OW29962   1.174   2.711   0.882
 9688SOL    HW129963   1.204   2.737   0.791
 9688SOL    HW229964   1.097   2.769   0.910
 9689SOL     OW29965   1.640   4.528   6.670
 9689SOL    HW129966   1.613   4.448   6.724
 9689SOL    HW229967   1.738   4.524   6.651
 9690SOL     OW29968   6.170   6.320   6.192
 9690SOL    HW129969   6.200   6.298   6.284
 9690SOL    HW229970   6.140   6.237   6.145
 9691SOL     OW29971   2.600   4.187   1.471
 9691SOL    HW129972   2.612   4.091   1.444
 9691SOL    HW229973   2.655   4.205   1.552
 9692SOL     OW29974   3.971   5.973   1.364
 9692SOL    HW129975   4.069   5.956   1.370
 9692SOL    HW229976   3.924   5.892   1.329
 9693SOL     OW29977   6.229   4.260   2.608
 9693SOL    HW129978   6.287   4.266   2.527
 9693SOL    HW229979   6.133   4.262   2.582
 9694SOL     OW29980   3.197   1.556   1.448
 9694SOL    HW129981   3.256   1.529   1.372
 9694SOL    HW229982   3.192   1.482   1.514
 9695SOL     OW29983   6.809   2.752   3.339
 9695SOL    HW129984   6.751   2.710   3.410
 9695SOL    HW229985   6.883   2.803   3.383
 9696SOL     OW29986   5.434   2.588   1.148
 9696SOL    HW129987   5.446   2.539   1.234
 9696SOL    HW229988   5.341   2.622   1.142
 9697SOL     OW29989   0.588   5.375   0.102
 9697SOL    HW129990   0.546   5.439   0.166
 9697SOL    HW229991   0.536   5.289   0.101
 9698SOL     OW29992   5.401   2.459   6.203
 9698SOL    HW129993   5.472   2.389   6.202
 9698SOL    HW229994   5.342   2.447   6.123
 9699SOL     OW29995   6.940   5.803   0.047
 9699SOL    HW129996   6.923   5.730   0.112
 9699SOL    HW229997   6.932   5.768   6.970
 9700SOL     OW29998   6.138   5.120   5.018
 9700SOL    HW129999   6.067   5.106   4.949
 9700SOL    HW230000   6.191   5.202   4.995
 9701SOL     OW30001   4.832   4.371   5.642
 9701SOL    HW130002   4.904   4.405   5.581
 9701SOL    HW230003   4.779   4.301   5.593
 9702SOL     OW30004   3.424   2.482   0.112
 9702SOL    HW130005   3.353   2.500   0.181
 9702SOL    HW230006   3.493   2.554   0.117
 9703SOL     OW30007   4.893   3.612   3.407
 9703SOL    HW130008   4.989   3.633   3.426
 9703SOL    HW230009   4.853   3.565   3.487
 9704SOL     OW30010   3.003   6.379   1.356
 9704SOL    HW130011   3.066   6.332   1.293
 9704SOL    HW230012   3.002   6.331   1.443
 9705SOL     OW30013   5.407   4.264   6.146
 9705SOL    HW130014   5.375   4.324   6.219
 9705SOL    HW230015   5.492   4.219   6.174
 9706SOL     OW30016   2.319   2.594   1.192
 9706SOL    HW130017   2.306   2.496   1.207
 9706SOL    HW230018   2.370   2.609   1.107
 9707SOL     OW30019   6.545   4.866   2.457
 9707SOL    HW130020   6.451   4.833   2.464
 9707SOL    HW230021   6.576   4.893   2.548
 9708SOL     OW30022   0.391   1.598   3.354
 9708SOL    HW130023   0.404   1.683   3.301
 9708SOL    HW230024   0.303   1.601   3.400
 9709SOL     OW30025   5.423   6.035   2.464
 9709SOL    HW130026   5.361   5.989   2.528
 9709SOL    HW230027   5.516   6.035   2.502
 9710SOL     OW30028   6.630   1.378   1.336
 9710SOL    HW130029   6.711   1.319   1.337
 9710SOL    HW230030   6.569   1.354   1.412
 9711SOL     OW30031   3.794   5.420   5.690
 9711SOL    HW130032   3.790   5.514   5.657
 9711SOL    HW230033   3.781   5.357   5.613
 9712SOL     OW30034   5.565   3.598   6.907
 9712SOL    HW130035   5.577   3.627   7.002
 9712SOL    HW230036   5.628   3.523   6.887
 9713SOL     OW30037   2.009   4.464   3.480
 9713SOL    HW130038   2.072   4.444   3.555
 9713SOL    HW230039   2.059   4.510   3.406
 9714SOL     OW30040   4.317   6.523   6.723
 9714SOL    HW130041   4.238   6.567   6.764
 9714SOL    HW230042   4.292   6.487   6.633
 9715SOL     OW30043   5.825   4.111   0.334
 9715SOL    HW130044   5.840   4.015   0.358
 9715SOL    HW230045   5.753   4.149   0.392
 9716SOL     OW30046   3.367   4.500   6.974
 9716SOL    HW130047   3.408   4.436   0.022
 9716SOL    HW230048   3.312   4.568   0.006
 9717SOL     OW30049   5.240   6.746   5.981
 9717SOL    HW130050   5.179   6.799   6.041
 9717SOL    HW230051   5.314   6.805   5.949
 9718SOL     OW30052   5.155   3.528   0.811
 9718SOL    HW130053   5.163   3.608   0.753
 9718SOL    HW230054   5.210   3.541   0.894
 9719SOL     OW30055   5.892   0.910   5.797
 9719SOL    HW130056   5.863   0.975   5.867
 9719SOL    HW230057   5.973   0.861   5.828
 9720SOL     OW30058   0.829   4.279   2.278
 9720SOL    HW130059   0.830   4.181   2.295
 9720SOL    HW230060   0.773   4.325   2.347
 9721SOL     OW30061   0.587   1.315   0.576
 9721SOL    HW130062   0.618   1.261   0.499
 9721SOL    HW230063   0.495   1.349   0.559
 9722SOL     OW30064   3.827   1.640   5.025
 9722SOL    HW130065   3.762   1.716   5.018
 9722SOL    HW230066   3.903   1.656   4.962
 9723SOL     OW30067   4.111   6.778   3.366
 9723SOL    HW130068   4.067   6.851   3.418
 9723SOL    HW230069   4.050   6.699   3.361
 9724SOL     OW30070   1.594   5.312   6.962
 9724SOL    HW130071   1.580   5.380   6.890
 9724SOL    HW230072   1.638   5.230   6.924
 9725SOL     OW30073   4.601   6.116   6.137
 9725SOL    HW130074   4.525   6.054   6.116
 9725SOL    HW230075   4.687   6.074   6.111
 9726SOL     OW30076   4.452   1.181   3.360
 9726SOL    HW130077   4.528   1.192   3.424
 9726SOL    HW230078   4.444   1.263   3.303
 9727SOL     OW30079   0.969   2.334   6.839
 9727SOL    HW130080   0.887   2.289   6.876
 9727SOL    HW230081   0.982   2.422   6.885
 9728SOL     OW30082   0.624   0.651   5.503
 9728SOL    HW130083   0.654   0.699   5.585
 9728SOL    HW230084   0.543   0.696   5.465
 9729SOL     OW30085   1.116   4.274   3.517
 9729SOL    HW130086   1.036   4.298   3.462
 9729SOL    HW230087   1.186   4.344   3.506
 9730SOL     OW30088   2.026   4.816   3.005
 9730SOL    HW130089   1.938   4.769   3.014
 9730SOL    HW230090   2.037   4.847   2.911
 9731SOL     OW30091   5.215   5.452   1.221
 9731SOL    HW130092   5.191   5.477   1.127
 9731SOL    HW230093   5.294   5.504   1.252
 9732SOL     OW30094   0.392   4.261   2.286
 9732SOL    HW130095   0.469   4.296   2.233
 9732SOL    HW230096   0.419   4.179   2.335
 9733SOL     OW30097   5.120   5.227   0.306
 9733SOL    HW130098   5.028   5.263   0.288
 9733SOL    HW230099   5.187   5.299   0.294
 9734SOL     OW30100   0.058   0.731   0.487
 9734SOL    HW130101   0.138   0.717   0.545
 9734SOL    HW230102   0.001   0.649   0.488
 9735SOL     OW30103   2.040   3.275   3.239
 9735SOL    HW130104   2.090   3.353   3.202
 9735SOL    HW230105   1.966   3.250   3.177
 9736SOL     OW30106   5.557   1.042   5.567
 9736SOL    HW130107   5.549   1.034   5.468
 9736SOL    HW230108   5.631   1.107   5.588
 9737SOL     OW30109   5.179   2.165   3.030
 9737SOL    HW130110   5.109   2.172   2.959
 9737SOL    HW230111   5.137   2.184   3.119
 9738SOL     OW30112   2.486   0.085   0.311
 9738SOL    HW130113   2.563   0.123   0.260
 9738SOL    HW230114   2.431   0.027   0.251
 9739SOL     OW30115   4.902   5.965   0.530
 9739SOL    HW130116   4.932   5.951   0.625
 9739SOL    HW230117   4.982   5.986   0.473
 9740SOL     OW30118   0.310   1.954   3.452
 9740SOL    HW130119   0.392   2.011   3.445
 9740SOL    HW230120   0.230   2.012   3.469
 9741SOL     OW30121   2.795   1.484   2.427
 9741SOL    HW130122   2.766   1.424   2.352
 9741SOL    HW230123   2.890   1.463   2.451
 9742SOL     OW30124   3.653   0.947   0.449
 9742SOL    HW130125   3.740   0.990   0.428
 9742SOL    HW230126   3.633   0.956   0.546
 9743SOL     OW30127   6.854   3.582   4.065
 9743SOL    HW130128   6.950   3.584   4.095
 9743SOL    HW230129   6.818   3.675   4.064
 9744SOL     OW30130   1.038   0.012   1.764
 9744SOL    HW130131   1.033   0.053   1.673
 9744SOL    HW230132   1.133   0.013   1.796
 9745SOL     OW30133   4.765   2.588   6.883
 9745SOL    HW130134   4.725   2.645   6.954
 9745SOL    HW230135   4.842   2.536   6.921
 9746SOL     OW30136   5.954   0.395   5.828
 9746SOL    HW130137   6.002   0.434   5.750
 9746SOL    HW230138   5.994   0.430   5.913
 9747SOL     OW30139   2.466   2.050   1.757
 9747SOL    HW130140   2.512   2.039   1.668
 9747SOL    HW230141   2.531   2.089   1.822
 9748SOL     OW30142   6.329   6.801   3.509
 9748SOL    HW130143   6.329   6.767   3.415
 9748SOL    HW230144   6.413   6.773   3.555
 9749SOL     OW30145   1.589   0.288   4.336
 9749SOL    HW130146   1.595   0.191   4.360
 9749SOL    HW230147   1.503   0.325   4.371
 9750SOL     OW30148   5.631   5.247   3.261
 9750SOL    HW130149   5.551   5.187   3.270
 9750SOL    HW230150   5.705   5.212   3.318
 9751SOL     OW30151   2.216   0.216   1.229
 9751SOL    HW130152   2.282   0.141   1.225
 9751SOL    HW230153   2.124   0.179   1.224
 9752SOL     OW30154   3.952   1.787   5.308
 9752SOL    HW130155   3.858   1.783   5.344
 9752SOL    HW230156   3.951   1.828   5.217
 9753SOL     OW30157   0.247   5.664   6.601
 9753SOL    HW130158   0.299   5.679   6.685
 9753SOL    HW230159   0.291   5.711   6.525
 9754SOL     OW30160   1.820   6.984   0.953
 9754SOL    HW130161   1.862   6.943   0.872
 9754SOL    HW230162   1.726   7.010   0.932
 9755SOL     OW30163   3.703   3.561   4.458
 9755SOL    HW130164   3.703   3.553   4.358
 9755SOL    HW230165   3.749   3.481   4.498
 9756SOL     OW30166   5.495   2.729   6.229
 9756SOL    HW130167   5.588   2.727   6.265
 9756SOL    HW230168   5.458   2.636   6.227
 9757SOL     OW30169   5.497   4.596   4.294
 9757SOL    HW130170   5.420   4.602   4.358
 9757SOL    HW230171   5.476   4.650   4.212
 9758SOL     OW30172   2.188   0.742   6.910
 9758SOL    HW130173   2.179   0.685   6.991
 9758SOL    HW230174   2.283   0.744   6.880
 9759SOL     OW30175   1.050   0.616   0.415
 9759SOL    HW130176   1.057   0.571   0.504
 9759SOL    HW230177   1.099   0.703   0.418
 9760SOL     OW30178   4.904   2.935   5.794
 9760SOL    HW130179   4.860   2.923   5.883
 9760SOL    HW230180   5.001   2.954   5.807
 9761SOL     OW30181   0.532   1.511   1.833
 9761SOL    HW130182   0.453   1.459   1.864
 9761SOL    HW230183   0.509   1.609   1.832
 9762SOL     OW30184   3.315   1.993   4.703
 9762SOL    HW130185   3.338   2.028   4.612
 9762SOL    HW230186   3.241   2.049   4.741
 9763SOL     OW30187   4.699   1.786   2.791
 9763SOL    HW130188   4.764   1.830   2.852
 9763SOL    HW230189   4.728   1.800   2.696
 9764SOL     OW30190   6.305   3.015   3.547
 9764SOL    HW130191   6.240   3.059   3.485
 9764SOL    HW230192   6.335   2.928   3.509
 9765SOL     OW30193   6.549   6.513   3.221
 9765SOL    HW130194   6.557   6.612   3.229
 9765SOL    HW230195   6.537   6.473   3.312
 9766SOL     OW30196   2.685   6.785   2.086
 9766SOL    HW130197   2.719   6.875   2.059
 9766SOL    HW230198   2.745   6.714   2.050
 9767SOL     OW30199   3.727   1.613   5.656
 9767SOL    HW130200   3.716   1.673   5.735
 9767SOL    HW230201   3.748   1.668   5.575
 9768SOL     OW30202   5.208   1.167   1.706
 9768SOL    HW130203   5.260   1.163   1.792
 9768SOL    HW230204   5.186   1.074   1.676
 9769SOL     OW30205   4.435   0.591   4.598
 9769SOL    HW130206   4.418   0.579   4.696
 9769SOL    HW230207   4.508   0.529   4.570
 9770SOL     OW30208   3.851   0.990   6.000
 9770SOL    HW130209   3.950   0.986   5.987
 9770SOL    HW230210   3.810   1.032   5.919
 9771SOL     OW30211   2.658   5.727   0.404
 9771SOL    HW130212   2.638   5.765   0.495
 9771SOL    HW230213   2.744   5.764   0.370
 9772SOL     OW30214   1.339   5.771   1.385
 9772SOL    HW130215   1.342   5.840   1.457
 9772SOL    HW230216   1.429   5.729   1.374
 9773SOL     OW30217   5.303   5.382   4.425
 9773SOL    HW130218   5.336   5.386   4.331
 9773SOL    HW230219   5.288   5.475   4.459
 9774SOL     OW30220   6.671   5.602   2.025
 9774SOL    HW130221   6.575   5.579   2.009
 9774SOL    HW230222   6.728   5.558   1.956
 9775SOL     OW30223   2.876   0.638   3.377
 9775SOL    HW130224   2.968   0.619   3.412
 9775SOL    HW230225   2.822   0.682   3.449
 9776SOL     OW30226   0.276   4.854   5.367
 9776SOL    HW130227   0.325   4.857   5.280
 9776SOL    HW230228   0.330   4.802   5.433
 9777SOL     OW30229   5.996   5.716   0.132
 9777SOL    HW130230   6.006   5.619   0.152
 9777SOL    HW230231   6.084   5.753   0.100
 9778SOL     OW30232   0.130   1.713   4.224
 9778SOL    HW130233   0.040   1.746   4.254
 9778SOL    HW230234   0.136   1.722   4.124
 9779SOL     OW30235   0.746   1.830   3.973
 9779SOL    HW130236   0.772   1.734   3.979
 9779SOL    HW230237   0.669   1.839   3.909
 9780SOL     OW30238   2.260   2.430   0.366
 9780SOL    HW130239   2.318   2.482   0.429
 9780SOL    HW230240   2.313   2.404   0.286
 9781SOL     OW30241   2.315   2.177   4.820
 9781SOL    HW130242   2.307   2.259   4.877
 9781SOL    HW230243   2.402   2.131   4.841
 9782SOL     OW30244   0.361   1.051   1.217
 9782SOL    HW130245   0.360   1.016   1.124
 9782SOL    HW230246   0.281   1.110   1.231
 9783SOL     OW30247   4.746   2.868   3.144
 9783SOL    HW130248   4.817   2.797   3.151
 9783SOL    HW230249   4.695   2.872   3.229
 9784SOL     OW30250   3.496   2.478   6.253
 9784SOL    HW130251   3.505   2.437   6.162
 9784SOL    HW230252   3.477   2.576   6.244
 9785SOL     OW30253   0.815   2.039   5.961
 9785SOL    HW130254   0.724   2.041   6.001
 9785SOL    HW230255   0.812   2.076   5.868
 9786SOL     OW30256   2.842   3.978   0.471
 9786SOL    HW130257   2.820   3.967   0.375
 9786SOL    HW230258   2.884   3.894   0.506
 9787SOL     OW30259   3.194   3.361   2.622
 9787SOL    HW130260   3.156   3.279   2.578
 9787SOL    HW230261   3.160   3.443   2.576
 9788SOL     OW30262   0.523   0.142   3.686
 9788SOL    HW130263   0.561   0.098   3.767
 9788SOL    HW230264   0.587   0.212   3.653
 9789SOL     OW30265   1.679   5.161   0.442
 9789SOL    HW130266   1.621   5.239   0.418
 9789SOL    HW230267   1.660   5.085   0.380
 9790SOL     OW30268   6.873   4.980   6.656
 9790SOL    HW130269   6.949   5.042   6.678
 9790SOL    HW230270   6.792   5.007   6.709
 9791SOL     OW30271   0.629   0.260   0.228
 9791SOL    HW130272   0.699   0.303   0.285
 9791SOL    HW230273   0.552   0.323   0.217
 9792SOL     OW30274   3.510   4.264   0.620
 9792SOL    HW130275   3.579   4.239   0.687
 9792SOL    HW230276   3.525   4.214   0.535
 9793SOL     OW30277   3.954   7.011   2.578
 9793SOL    HW130278   3.874   6.951   2.581
 9793SOL    HW230279   3.949   0.061   2.653
 9794SOL     OW30280   0.107   4.122   6.657
 9794SOL    HW130281   0.097   4.218   6.629
 9794SOL    HW230282   0.175   4.115   6.730
 9795SOL     OW30283   1.421   1.797   4.244
 9795SOL    HW130284   1.503   1.854   4.240
 9795SOL    HW230285   1.427   1.735   4.322
 9796SOL     OW30286   3.312   2.954   2.494
 9796SOL    HW130287   3.225   2.984   2.455
 9796SOL    HW230288   3.376   2.932   2.420
 9797SOL     OW30289   2.086   5.660   0.241
 9797SOL    HW130290   1.990   5.665   0.211
 9797SOL    HW230291   2.119   5.753   0.261
 9798SOL     OW30292   3.206   0.414   2.303
 9798SOL    HW130293   3.254   0.334   2.340
 9798SOL    HW230294   3.108   0.404   2.321
 9799SOL     OW30295   2.937   4.065   5.517
 9799SOL    HW130296   2.970   4.128   5.447
 9799SOL    HW230297   2.848   4.096   5.550
 9800SOL     OW30298   4.661   4.762   4.892
 9800SOL    HW130299   4.603   4.747   4.972
 9800SOL    HW230300   4.749   4.717   4.905
 9801SOL     OW30301   4.931   3.873   0.212
 9801SOL    HW130302   4.958   3.969   0.213
 9801SOL    HW230303   4.975   3.826   0.135
 9802SOL     OW30304   6.825   4.206   1.949
 9802SOL    HW130305   6.814   4.114   1.989
 9802SOL    HW230306   6.856   4.197   1.855
 9803SOL     OW30307   1.750   1.979   6.355
 9803SOL    HW130308   1.824   2.039   6.327
 9803SOL    HW230309   1.665   2.007   6.310
 9804SOL     OW30310   1.076   6.057   3.092
 9804SOL    HW130311   1.040   6.059   3.185
 9804SOL    HW230312   1.156   5.997   3.087
 9805SOL     OW30313   0.767   6.675   3.380
 9805SOL    HW130314   0.828   6.703   3.306
 9805SOL    HW230315   0.752   6.752   3.441
 9806SOL     OW30316   1.498   1.132   6.475
 9806SOL    HW130317   1.485   1.192   6.554
 9806SOL    HW230318   1.419   1.072   6.466
 9807SOL     OW30319   3.802   4.496   0.831
 9807SOL    HW130320   3.766   4.408   0.803
 9807SOL    HW230321   3.792   4.506   0.930
 9808SOL     OW30322   3.622   0.011   5.229
 9808SOL    HW130323   3.561   7.015   5.151
 9808SOL    HW230324   3.685   0.086   5.211
 9809SOL     OW30325   0.871   3.179   6.390
 9809SOL    HW130326   0.952   3.214   6.343
 9809SOL    HW230327   0.856   3.084   6.363
 9810SOL     OW30328   2.080   2.708   3.919
 9810SOL    HW130329   2.130   2.781   3.966
 9810SOL    HW230330   1.984   2.735   3.910
 9811SOL     OW30331   5.542   4.879   3.043
 9811SOL    HW130332   5.603   4.803   3.019
 9811SOL    HW230333   5.578   4.927   3.123
 9812SOL     OW30334   3.994   1.801   5.710
 9812SOL    HW130335   3.909   1.780   5.758
 9812SOL    HW230336   3.987   1.891   5.667
 9813SOL     OW30337   4.968   1.509   0.805
 9813SOL    HW130338   5.013   1.431   0.847
 9813SOL    HW230339   4.869   1.500   0.815
 9814SOL     OW30340   6.480   0.262   6.853
 9814SOL    HW130341   6.456   0.309   6.938
 9814SOL    HW230342   6.401   0.213   6.818
 9815SOL     OW30343   5.535   3.770   4.800
 9815SOL    HW130344   5.585   3.683   4.808
 9815SOL    HW230345   5.438   3.750   4.784
 9816SOL     OW30346   0.717   0.813   6.253
 9816SOL    HW130347   0.796   0.791   6.195
 9816SOL    HW230348   0.701   0.738   6.317
 9817SOL     OW30349   3.046   6.667   3.293
 9817SOL    HW130350   3.042   6.568   3.275
 9817SOL    HW230351   2.959   6.708   3.270
 9818SOL     OW30352   0.770   0.309   4.028
 9818SOL    HW130353   0.742   0.213   4.026
 9818SOL    HW230354   0.870   0.314   4.031
 9819SOL     OW30355   5.014   3.610   3.678
 9819SOL    HW130356   4.961   3.560   3.747
 9819SOL    HW230357   5.112   3.593   3.692
 9820SOL     OW30358   4.160   3.247   6.301
 9820SOL    HW130359   4.079   3.206   6.259
 9820SOL    HW230360   4.152   3.346   6.300
 9821SOL     OW30361   5.254   1.143   6.342
 9821SOL    HW130362   5.291   1.150   6.435
 9821SOL    HW230363   5.156   1.164   6.344
 9822SOL     OW30364   2.018   0.009   3.494
 9822SOL    HW130365   2.104   6.988   3.530
 9822SOL    HW230366   1.942   6.968   3.523
 9823SOL     OW30367   2.516   0.909   0.235
 9823SOL    HW130368   2.494   1.004   0.214
 9823SOL    HW230369   2.609   0.889   0.204
 9824SOL     OW30370   1.649   5.113   4.505
 9824SOL    HW130371   1.732   5.101   4.560
 9824SOL    HW230372   1.576   5.150   4.562
 9825SOL     OW30373   5.046   5.544   5.371
 9825SOL    HW130374   5.064   5.449   5.347
 9825SOL    HW230375   5.132   5.588   5.400
 9826SOL     OW30376   4.699   4.998   6.117
 9826SOL    HW130377   4.667   4.910   6.084
 9826SOL    HW230378   4.651   5.072   6.070
 9827SOL     OW30379   2.169   3.216   3.948
 9827SOL    HW130380   2.171   3.164   4.033
 9827SOL    HW230381   2.121   3.302   3.963
 9828SOL     OW30382   2.453   2.705   5.510
 9828SOL    HW130383   2.457   2.737   5.416
 9828SOL    HW230384   2.536   2.652   5.531
 9829SOL     OW30385   4.031   5.247   6.577
 9829SOL    HW130386   4.063   5.232   6.484
 9829SOL    HW230387   4.100   5.300   6.627
 9830SOL     OW30388   6.034   2.157   1.989
 9830SOL    HW130389   6.101   2.134   1.918
 9830SOL    HW230390   5.973   2.229   1.955
 9831SOL     OW30391   2.572   5.193   1.069
 9831SOL    HW130392   2.587   5.164   1.163
 9831SOL    HW230393   2.553   5.292   1.067
 9832SOL     OW30394   5.059   5.676   2.735
 9832SOL    HW130395   5.123   5.602   2.715
 9832SOL    HW230396   5.043   5.730   2.652
 9833SOL     OW30397   3.144   3.391   5.038
 9833SOL    HW130398   3.185   3.415   4.950
 9833SOL    HW230399   3.217   3.364   5.101
 9834SOL     OW30400   2.742   4.328   5.341
 9834SOL    HW130401   2.807   4.376   5.282
 9834SOL    HW230402   2.780   4.322   5.434
 9835SOL     OW30403   4.051   3.252   5.030
 9835SOL    HW130404   4.090   3.191   5.099
 9835SOL    HW230405   3.951   3.242   5.030
 9836SOL     OW30406   6.493   4.635   3.405
 9836SOL    HW130407   6.396   4.611   3.413
 9836SOL    HW230408   6.518   4.642   3.308
 9837SOL     OW30409   3.335   0.532   2.909
 9837SOL    HW130410   3.401   0.606   2.890
 9837SOL    HW230411   3.369   0.447   2.870
 9838SOL     OW30412   1.668   6.988   6.967
 9838SOL    HW130413   1.732   0.026   0.005
 9838SOL    HW230414   1.716   6.949   6.889
 9839SOL     OW30415   5.495   0.292   3.482
 9839SOL    HW130416   5.569   0.299   3.550
 9839SOL    HW230417   5.459   0.199   3.480
 9840SOL     OW30418   5.943   1.382   0.620
 9840SOL    HW130419   5.933   1.473   0.579
 9840SOL    HW230420   5.853   1.345   0.642
 9841SOL     OW30421   1.722   4.921   5.221
 9841SOL    HW130422   1.804   4.877   5.256
 9841SOL    HW230423   1.742   5.017   5.200
 9842SOL     OW30424   3.629   3.458   2.057
 9842SOL    HW130425   3.654   3.549   2.024
 9842SOL    HW230426   3.688   3.389   2.014
 9843SOL     OW30427   6.061   0.973   1.202
 9843SOL    HW130428   6.151   1.015   1.188
 9843SOL    HW230429   6.054   0.891   1.144
 9844SOL     OW30430   6.541   0.703   2.169
 9844SOL    HW130431   6.471   0.745   2.226
 9844SOL    HW230432   6.590   0.633   2.222
 9845SOL     OW30433   2.056   2.774   3.067
 9845SOL    HW130434   2.114   2.845   3.025
 9845SOL    HW230435   1.995   2.815   3.134
 9846SOL     OW30436   3.826   3.289   2.375
 9846SOL    HW130437   3.744   3.345   2.372
 9846SOL    HW230438   3.803   3.197   2.406
 9847SOL     OW30439   3.646   2.956   4.027
 9847SOL    HW130440   3.599   3.039   3.996
 9847SOL    HW230441   3.585   2.904   4.086
 9848SOL     OW30442   3.492   3.235   4.910
 9848SOL    HW130443   3.417   3.284   4.866
 9848SOL    HW230444   3.567   3.298   4.929
 9849SOL     OW30445   1.115   6.969   6.855
 9849SOL    HW130446   1.145   0.046   6.876
 9849SOL    HW230447   1.075   6.967   6.764
 9850SOL     OW30448   5.979   6.602   4.230
 9850SOL    HW130449   6.037   6.670   4.186
 9850SOL    HW230450   5.994   6.512   4.189
 9851SOL     OW30451   6.304   0.640   4.423
 9851SOL    HW130452   6.316   0.587   4.508
 9851SOL    HW230453   6.221   0.609   4.376
 9852SOL     OW30454   4.086   1.951   3.822
 9852SOL    HW130455   4.064   1.936   3.918
 9852SOL    HW230456   4.079   2.049   3.801
 9853SOL     OW30457   5.250   3.975   4.691
 9853SOL    HW130458   5.334   3.923   4.674
 9853SOL    HW230459   5.207   3.941   4.774
 9854SOL     OW30460   6.688   5.567   5.221
 9854SOL    HW130461   6.701   5.500   5.148
 9854SOL    HW230462   6.776   5.587   5.263
 9855SOL     OW30463   2.130   3.599   1.091
 9855SOL    HW130464   2.203   3.633   1.031
 9855SOL    HW230465   2.164   3.594   1.185
 9856SOL     OW30466   5.026   4.264   4.758
 9856SOL    HW130467   5.120   4.250   4.730
 9856SOL    HW230468   4.988   4.178   4.792
 9857SOL     OW30469   4.904   2.754   2.782
 9857SOL    HW130470   4.843   2.752   2.702
 9857SOL    HW230471   4.929   2.848   2.803
 9858SOL     OW30472   0.036   0.747   1.505
 9858SOL    HW130473   0.073   0.657   1.527
 9858SOL    HW230474   0.033   0.760   1.406
 9859SOL     OW30475   6.294   6.814   2.371
 9859SOL    HW130476   6.361   6.881   2.339
 9859SOL    HW230477   6.202   6.852   2.360
 9860SOL     OW30478   1.179   1.682   3.034
 9860SOL    HW130479   1.238   1.702   3.112
 9860SOL    HW230480   1.227   1.703   2.949
 9861SOL     OW30481   3.028   0.366   3.449
 9861SOL    HW130482   3.078   0.430   3.507
 9861SOL    HW230483   2.952   0.327   3.501
 9862SOL     OW30484   3.800   3.078   0.194
 9862SOL    HW130485   3.845   3.140   0.129
 9862SOL    HW230486   3.831   2.985   0.177
 9863SOL     OW30487   3.343   0.027   2.644
 9863SOL    HW130488   3.327   6.946   2.630
 9863SOL    HW230489   3.338   0.075   2.556
 9864SOL     OW30490   3.567   6.604   3.787
 9864SOL    HW130491   3.545   6.542   3.711
 9864SOL    HW230492   3.498   6.594   3.859
 9865SOL     OW30493   1.193   0.240   4.415
 9865SOL    HW130494   1.101   0.220   4.383
 9865SOL    HW230495   1.243   0.155   4.432
 9866SOL     OW30496   4.998   4.379   6.164
 9866SOL    HW130497   4.941   4.388   6.245
 9866SOL    HW230498   4.941   4.385   6.082
 9867SOL     OW30499   6.755   1.220   0.690
 9867SOL    HW130500   6.721   1.314   0.698
 9867SOL    HW230501   6.682   1.161   0.658
 9868SOL     OW30502   0.524   3.594   5.581
 9868SOL    HW130503   0.503   3.580   5.484
 9868SOL    HW230504   0.611   3.642   5.590
 9869SOL     OW30505   1.112   2.646   1.548
 9869SOL    HW130506   1.143   2.741   1.544
 9869SOL    HW230507   1.179   2.587   1.504
 9870SOL     OW30508   3.580   6.389   2.746
 9870SOL    HW130509   3.655   6.430   2.797
 9870SOL    HW230510   3.604   6.384   2.649
 9871SOL     OW30511   6.991   5.961   5.928
 9871SOL    HW130512   6.983   6.005   6.018
 9871SOL    HW230513   6.920   5.890   5.921
 9872SOL     OW30514   2.532   5.507   4.651
 9872SOL    HW130515   2.528   5.422   4.703
 9872SOL    HW230516   2.619   5.553   4.669
 9873SOL     OW30517   2.410   2.634   0.517
 9873SOL    HW130518   2.330   2.680   0.556
 9873SOL    HW230519   2.477   2.701   0.488
 9874SOL     OW30520   5.719   2.984   5.193
 9874SOL    HW130521   5.756   2.896   5.163
 9874SOL    HW230522   5.718   3.047   5.116
 9875SOL     OW30523   5.682   6.261   1.770
 9875SOL    HW130524   5.706   6.356   1.790
 9875SOL    HW230525   5.585   6.256   1.746
 9876SOL     OW30526   6.120   0.393   3.906
 9876SOL    HW130527   6.188   0.320   3.904
 9876SOL    HW230528   6.086   0.405   3.999
 9877SOL     OW30529   6.628   5.233   4.492
 9877SOL    HW130530   6.529   5.236   4.476
 9877SOL    HW230531   6.671   5.315   4.454
 9878SOL     OW30532   2.741   4.017   5.987
 9878SOL    HW130533   2.755   3.934   6.042
 9878SOL    HW230534   2.766   4.097   6.041
 9879SOL     OW30535   5.639   5.946   5.265
 9879SOL    HW130536   5.588   5.934   5.350
 9879SOL    HW230537   5.714   5.880   5.261
 9880SOL     OW30538   4.008   0.550   6.933
 9880SOL    HW130539   3.930   0.487   6.935
 9880SOL    HW230540   4.091   0.502   6.960
 9881SOL     OW30541   1.302   1.112   4.057
 9881SOL    HW130542   1.366   1.060   4.001
 9881SOL    HW230543   1.340   1.203   4.075
 9882SOL     OW30544   1.462   3.346   4.271
 9882SOL    HW130545   1.440   3.332   4.175
 9882SOL    HW230546   1.462   3.257   4.318
 9883SOL     OW30547   1.504   6.029   1.007
 9883SOL    HW130548   1.598   6.029   0.974
 9883SOL    HW230549   1.442   6.054   0.932
 9884SOL     OW30550   4.627   2.247   1.622
 9884SOL    HW130551   4.560   2.253   1.697
 9884SOL    HW230552   4.718   2.231   1.660
 9885SOL     OW30553   0.490   2.098   4.868
 9885SOL    HW130554   0.546   2.179   4.851
 9885SOL    HW230555   0.426   2.085   4.793
 9886SOL     OW30556   1.178   4.562   1.875
 9886SOL    HW130557   1.108   4.515   1.928
 9886SOL    HW230558   1.180   4.526   1.782
 9887SOL     OW30559   4.676   0.283   6.696
 9887SOL    HW130560   4.703   0.380   6.695
 9887SOL    HW230561   4.674   0.251   6.791
 9888SOL     OW30562   5.497   4.956   2.452
 9888SOL    HW130563   5.475   4.885   2.384
 9888SOL    HW230564   5.497   4.915   2.543
 9889SOL     OW30565   6.281   4.972   0.668
 9889SOL    HW130566   6.296   4.955   0.571
 9889SOL    HW230567   6.237   5.061   0.680
 9890SOL     OW30568   1.049   3.078   1.187
 9890SOL    HW130569   1.025   2.981   1.190
 9890SOL    HW230570   1.144   3.088   1.158
 9891SOL     OW30571   5.889   3.215   1.612
 9891SOL    HW130572   5.888   3.121   1.645
 9891SOL    HW230573   5.973   3.232   1.560
 9892SOL     OW30574   1.560   4.635   2.179
 9892SOL    HW130575   1.535   4.643   2.082
 9892SOL    HW230576   1.477   4.629   2.235
 9893SOL     OW30577   0.360   0.269   2.439
 9893SOL    HW130578   0.355   0.227   2.349
 9893SOL    HW230579   0.367   0.198   2.509
 9894SOL     OW30580   2.861   2.777   0.405
 9894SOL    HW130581   2.897   2.798   0.496
 9894SOL    HW230582   2.880   2.681   0.383
 9895SOL     OW30583   5.514   3.497   5.151
 9895SOL    HW130584   5.425   3.462   5.122
 9895SOL    HW230585   5.582   3.480   5.080
 9896SOL     OW30586   6.049   0.983   0.778
 9896SOL    HW130587   6.087   0.993   0.686
 9896SOL    HW230588   6.059   1.068   0.828
 9897SOL     OW30589   6.038   6.928   2.294
 9897SOL    HW130590   5.982   7.008   2.313
 9897SOL    HW230591   6.043   6.914   2.195
 9898SOL     OW30592   1.067   5.194   6.059
 9898SOL    HW130593   1.075   5.147   5.970
 9898SOL    HW230594   1.068   5.293   6.045
 9899SOL     OW30595   0.864   5.132   1.838
 9899SOL    HW130596   0.821   5.218   1.867
 9899SOL    HW230597   0.961   5.135   1.859
 9900SOL     OW30598   1.383   3.036   2.554
 9900SOL    HW130599   1.446   3.039   2.631
 9900SOL    HW230600   1.406   3.108   2.489
 9901SOL     OW30601   3.117   0.602   6.511
 9901SOL    HW130602   3.195   0.662   6.492
 9901SOL    HW230603   3.100   0.544   6.431
 9902SOL     OW30604   3.346   4.203   1.469
 9902SOL    HW130605   3.365   4.107   1.489
 9902SOL    HW230606   3.339   4.255   1.554
 9903SOL     OW30607   5.602   1.535   1.464
 9903SOL    HW130608   5.602   1.548   1.563
 9903SOL    HW230609   5.665   1.599   1.422
 9904SOL     OW30610   0.495   3.510   6.443
 9904SOL    HW130611   0.523   3.435   6.384
 9904SOL    HW230612   0.455   3.583   6.388
 9905SOL     OW30613   2.564   0.263   5.627
 9905SOL    HW130614   2.628   0.340   5.636
 9905SOL    HW230615   2.499   0.264   5.703
 9906SOL     OW30616   1.909   2.985   0.728
 9906SOL    HW130617   1.847   3.060   0.750
 9906SOL    HW230618   2.002   3.021   0.718
 9907SOL     OW30619   1.496   0.596   1.277
 9907SOL    HW130620   1.535   0.615   1.367
 9907SOL    HW230621   1.400   0.623   1.275
 9908SOL     OW30622   6.318   2.426   4.775
 9908SOL    HW130623   6.312   2.329   4.755
 9908SOL    HW230624   6.379   2.440   4.853
 9909SOL     OW30625   3.922   0.759   2.444
 9909SOL    HW130626   3.977   0.754   2.527
 9909SOL    HW230627   3.982   0.769   2.364
 9910SOL     OW30628   1.220   5.094   1.714
 9910SOL    HW130629   1.179   5.135   1.796
 9910SOL    HW230630   1.275   5.162   1.667
 9911SOL     OW30631   2.337   6.276   2.108
 9911SOL    HW130632   2.407   6.345   2.090
 9911SOL    HW230633   2.290   6.253   2.023
 9912SOL     OW30634   3.947   1.524   0.972
 9912SOL    HW130635   3.908   1.559   1.057
 9912SOL    HW230636   3.880   1.531   0.898
 9913SOL     OW30637   6.416   3.256   0.557
 9913SOL    HW130638   6.373   3.170   0.530
 9913SOL    HW230639   6.366   3.332   0.516
 9914SOL     OW30640   6.485   0.108   5.721
 9914SOL    HW130641   6.423   0.176   5.760
 9914SOL    HW230642   6.542   0.151   5.651
 9915SOL     OW30643   5.947   0.831   3.615
 9915SOL    HW130644   5.894   0.906   3.654
 9915SOL    HW230645   5.952   0.756   3.681
 9916SOL     OW30646   2.101   2.423   3.222
 9916SOL    HW130647   2.161   2.502   3.207
 9916SOL    HW230648   2.140   2.342   3.179
 9917SOL     OW30649   3.700   3.945   5.896
 9917SOL    HW130650   3.621   3.929   5.955
 9917SOL    HW230651   3.687   4.031   5.846
 9918SOL     OW30652   1.424   2.647   2.847
 9918SOL    HW130653   1.383   2.698   2.771
 9918SOL    HW230654   1.522   2.639   2.832
 9919SOL     OW30655   2.179   5.170   1.389
 9919SOL    HW130656   2.266   5.126   1.414
 9919SOL    HW230657   2.187   5.209   1.297
 9920SOL     OW30658   4.898   0.499   2.453
 9920SOL    HW130659   4.828   0.429   2.435
 9920SOL    HW230660   4.895   0.569   2.382
 9921SOL     OW30661   4.328   6.389   4.197
 9921SOL    HW130662   4.384   6.417   4.118
 9921SOL    HW230663   4.234   6.374   4.167
 9922SOL     OW30664   4.154   4.537   0.812
 9922SOL    HW130665   4.127   4.571   0.722
 9922SOL    HW230666   4.123   4.600   0.883
 9923SOL     OW30667   6.288   3.947   0.059
 9923SOL    HW130668   6.309   4.045   0.059
 9923SOL    HW230669   6.218   3.928   0.128
 9924SOL     OW30670   5.848   1.957   2.677
 9924SOL    HW130671   5.799   2.014   2.744
 9924SOL    HW230672   5.794   1.876   2.657
 9925SOL     OW30673   0.294   5.165   3.938
 9925SOL    HW130674   0.388   5.163   3.973
 9925SOL    HW230675   0.256   5.072   3.939
 9926SOL     OW30676   4.389   2.423   1.015
 9926SOL    HW130677   4.437   2.336   1.002
 9926SOL    HW230678   4.291   2.406   1.022
 9927SOL     OW30679   1.506   1.252   0.799
 9927SOL    HW130680   1.606   1.254   0.802
 9927SOL    HW230681   1.471   1.226   0.889
 9928SOL     OW30682   4.971   4.622   3.561
 9928SOL    HW130683   5.058   4.650   3.520
 9928SOL    HW230684   4.976   4.525   3.585
 9929SOL     OW30685   3.581   4.096   4.399
 9929SOL    HW130686   3.538   4.058   4.481
 9929SOL    HW230687   3.681   4.085   4.407
 9930SOL     OW30688   0.413   6.914   6.078
 9930SOL    HW130689   0.405   6.821   6.041
 9930SOL    HW230690   0.396   6.912   6.176
 9931SOL     OW30691   6.988   4.849   4.800
 9931SOL    HW130692   6.915   4.822   4.738
 9931SOL    HW230693   6.950   4.901   4.876
 9932SOL     OW30694   2.729   3.046   5.722
 9932SOL    HW130695   2.638   3.035   5.762
 9932SOL    HW230696   2.799   3.016   5.788
 9933SOL     OW30697   2.414   6.637   4.040
 9933SOL    HW130698   2.451   6.611   4.129
 9933SOL    HW230699   2.322   6.675   4.051
 9934SOL     OW30700   0.324   2.236   6.122
 9934SOL    HW130701   0.242   2.294   6.117
 9934SOL    HW230702   0.375   2.258   6.206
 9935SOL     OW30703   2.464   0.069   1.285
 9935SOL    HW130704   2.510   0.005   1.223
 9935SOL    HW230705   2.523   0.148   1.300
 9936SOL     OW30706   6.225   4.660   0.215
 9936SOL    HW130707   6.300   4.665   0.281
 9936SOL    HW230708   6.153   4.723   0.242
 9937SOL     OW30709   0.483   1.774   1.817
 9937SOL    HW130710   0.538   1.799   1.737
 9937SOL    HW230711   0.461   1.857   1.869
 9938SOL     OW30712   5.485   5.133   3.642
 9938SOL    HW130713   5.386   5.118   3.641
 9938SOL    HW230714   5.532   5.051   3.674
 9939SOL     OW30715   3.498   2.690   1.255
 9939SOL    HW130716   3.459   2.748   1.184
 9939SOL    HW230717   3.478   2.594   1.235
 9940SOL     OW30718   0.977   0.380   1.681
 9940SOL    HW130719   1.020   0.370   1.771
 9940SOL    HW230720   0.944   0.473   1.670
 9941SOL     OW30721   2.977   4.375   6.002
 9941SOL    HW130722   3.020   4.341   6.086
 9941SOL    HW230723   2.989   4.308   5.929
 9942SOL     OW30724   3.396   5.464   2.575
 9942SOL    HW130725   3.427   5.369   2.571
 9942SOL    HW230726   3.368   5.494   2.484
 9943SOL     OW30727   1.196   4.852   6.618
 9943SOL    HW130728   1.288   4.813   6.625
 9943SOL    HW230729   1.203   4.949   6.596
 9944SOL     OW30730   0.497   4.468   6.610
 9944SOL    HW130731   0.443   4.510   6.682
 9944SOL    HW230732   0.495   4.525   6.528
 9945SOL     OW30733   4.770   5.642   6.921
 9945SOL    HW130734   4.784   5.603   6.830
 9945SOL    HW230735   4.683   5.692   6.922
 9946SOL     OW30736   6.333   0.163   3.373
 9946SOL    HW130737   6.296   0.113   3.294
 9946SOL    HW230738   6.312   0.260   3.364
 9947SOL     OW30739   2.490   2.060   4.489
 9947SOL    HW130740   2.503   1.988   4.556
 9947SOL    HW230741   2.402   2.105   4.505
 9948SOL     OW30742   0.059   4.701   5.508
 9948SOL    HW130743   0.055   4.613   5.461
 9948SOL    HW230744   0.085   4.772   5.444
 9949SOL     OW30745   6.855   4.978   3.831
 9949SOL    HW130746   6.865   4.931   3.919
 9949SOL    HW230747   6.911   4.932   3.762
 9950SOL     OW30748   5.639   6.067   6.205
 9950SOL    HW130749   5.635   6.009   6.124
 9950SOL    HW230750   5.572   6.142   6.196
 9951SOL     OW30751   1.217   2.661   3.379
 9951SOL    HW130752   1.233   2.714   3.295
 9951SOL    HW230753   1.174   2.720   3.448
 9952SOL     OW30754   1.522   4.212   0.541
 9952SOL    HW130755   1.555   4.254   0.625
 9952SOL    HW230756   1.592   4.220   0.469
 9953SOL     OW30757   5.972   2.348   4.269
 9953SOL    HW130758   5.915   2.274   4.233
 9953SOL    HW230759   6.032   2.313   4.340
 9954SOL     OW30760   1.178   0.438   5.513
 9954SOL    HW130761   1.277   0.443   5.501
 9954SOL    HW230762   1.133   0.501   5.450
 9955SOL     OW30763   4.476   4.204   6.295
 9955SOL    HW130764   4.444   4.261   6.371
 9955SOL    HW230765   4.556   4.151   6.324
 9956SOL     OW30766   0.946   5.465   4.293
 9956SOL    HW130767   0.988   5.419   4.372
 9956SOL    HW230768   0.917   5.397   4.226
 9957SOL     OW30769   5.897   0.012   1.570
 9957SOL    HW130770   5.857   0.101   1.590
 9957SOL    HW230771   5.825   6.965   1.542
 9958SOL     OW30772   2.411   5.845   6.872
 9958SOL    HW130773   2.492   5.902   6.885
 9958SOL    HW230774   2.395   5.830   6.774
 9959SOL     OW30775   4.124   3.640   3.678
 9959SOL    HW130776   4.218   3.621   3.650
 9959SOL    HW230777   4.063   3.625   3.600
 9960SOL     OW30778   0.619   0.473   2.206
 9960SOL    HW130779   0.636   0.499   2.301
 9960SOL    HW230780   0.632   0.374   2.197
 9961SOL     OW30781   1.162   5.043   4.948
 9961SOL    HW130782   1.242   4.997   4.911
 9961SOL    HW230783   1.174   5.142   4.939
 9962SOL     OW30784   4.478   0.344   2.723
 9962SOL    HW130785   4.381   0.369   2.724
 9962SOL    HW230786   4.496   0.276   2.794
 9963SOL     OW30787   2.470   2.185   6.069
 9963SOL    HW130788   2.511   2.138   5.991
 9963SOL    HW230789   2.433   2.273   6.041
 9964SOL     OW30790   4.149   4.282   6.041
 9964SOL    HW130791   4.213   4.347   6.002
 9964SOL    HW230792   4.188   4.190   6.038
 9965SOL     OW30793   3.885   4.893   5.612
 9965SOL    HW130794   3.823   4.903   5.690
 9965SOL    HW230795   3.970   4.943   5.630
 9966SOL     OW30796   2.539   5.726   2.058
 9966SOL    HW130797   2.545   5.778   1.973
 9966SOL    HW230798   2.447   5.735   2.096
 9967SOL     OW30799   6.035   5.742   1.465
 9967SOL    HW130800   5.949   5.703   1.498
 9967SOL    HW230801   6.035   5.841   1.481
 9968SOL     OW30802   3.265   4.513   6.401
 9968SOL    HW130803   3.340   4.577   6.385
 9968SOL    HW230804   3.220   4.535   6.488
 9969SOL     OW30805   1.366   2.482   3.805
 9969SOL    HW130806   1.313   2.398   3.796
 9969SOL    HW230807   1.464   2.462   3.795
 9970SOL     OW30808   5.960   4.766   2.233
 9970SOL    HW130809   5.918   4.694   2.178
 9970SOL    HW230810   5.896   4.797   2.303
 9971SOL     OW30811   2.776   3.978   0.197
 9971SOL    HW130812   2.684   4.006   0.172
 9971SOL    HW230813   2.826   3.949   0.115
 9972SOL     OW30814   3.473   4.770   0.923
 9972SOL    HW130815   3.415   4.780   0.843
 9972SOL    HW230816   3.567   4.797   0.900
 9973SOL     OW30817   4.627   2.121   4.452
 9973SOL    HW130818   4.629   2.220   4.434
 9973SOL    HW230819   4.579   2.105   4.539
 9974SOL     OW30820   6.016   3.598   3.595
 9974SOL    HW130821   6.106   3.586   3.555
 9974SOL    HW230822   6.014   3.681   3.651
 9975SOL     OW30823   6.856   4.357   0.377
 9975SOL    HW130824   6.811   4.445   0.391
 9975SOL    HW230825   6.800   4.299   0.318
 9976SOL     OW30826   0.143   5.514   5.776
 9976SOL    HW130827   0.158   5.456   5.856
 9976SOL    HW230828   0.214   5.496   5.708
 9977SOL     OW30829   6.922   5.203   6.165
 9977SOL    HW130830   6.849   5.265   6.195
 9977SOL    HW230831   6.891   5.148   6.088
 9978SOL     OW30832   6.353   2.618   3.687
 9978SOL    HW130833   6.392   2.650   3.773
 9978SOL    HW230834   6.371   2.520   3.677
 9979SOL     OW30835   6.285   4.696   6.155
 9979SOL    HW130836   6.193   4.685   6.191
 9979SOL    HW230837   6.347   4.720   6.229
 9980SOL     OW30838   1.730   1.412   6.703
 9980SOL    HW130839   1.804   1.351   6.732
 9980SOL    HW230840   1.720   1.486   6.770
 9981SOL     OW30841   2.525   1.533   1.301
 9981SOL    HW130842   2.515   1.585   1.216
 9981SOL    HW230843   2.527   1.597   1.379
 9982SOL     OW30844   0.569   1.169   3.195
 9982SOL    HW130845   0.472   1.146   3.203
 9982SOL    HW230846   0.585   1.212   3.106
 9983SOL     OW30847   1.196   2.293   2.403
 9983SOL    HW130848   1.187   2.194   2.396
 9983SOL    HW230849   1.157   2.336   2.322
 9984SOL     OW30850   1.410   0.223   0.872
 9984SOL    HW130851   1.340   0.286   0.839
 9984SOL    HW230852   1.497   0.271   0.883
 9985SOL     OW30853   2.733   1.099   2.108
 9985SOL    HW130854   2.666   1.029   2.132
 9985SOL    HW230855   2.806   1.058   2.053
 9986SOL     OW30856   5.234   4.071   6.905
 9986SOL    HW130857   5.201   4.161   6.935
 9986SOL    HW230858   5.265   4.019   6.985
 9987SOL     OW30859   5.801   1.704   2.945
 9987SOL    HW130860   5.728   1.773   2.944
 9987SOL    HW230861   5.770   1.623   2.995
 9988SOL     OW30862   0.242   5.145   5.430
 9988SOL    HW130863   0.244   5.050   5.461
 9988SOL    HW230864   0.311   5.158   5.358
 9989SOL     OW30865   5.405   4.355   2.848
 9989SOL    HW130866   5.456   4.287   2.901
 9989SOL    HW230867   5.468   4.406   2.789
 9990SOL     OW30868   2.405   0.382   2.520
 9990SOL    HW130869   2.486   0.437   2.499
 9990SOL    HW230870   2.433   0.295   2.559
 9991SOL     OW30871   1.703   3.510   4.680
 9991SOL    HW130872   1.653   3.424   4.672
 9991SOL    HW230873   1.793   3.493   4.722
 9992SOL     OW30874   4.541   3.793   0.373
 9992SOL    HW130875   4.606   3.741   0.319
 9992SOL    HW230876   4.517   3.877   0.324
 9993SOL     OW30877   4.030   0.151   1.953
 9993SOL    HW130878   3.936   0.119   1.965
 9993SOL    HW230879   4.088   0.109   2.023
 9994SOL     OW30880   6.798   3.855   4.129
 9994SOL    HW130881   6.739   3.936   4.118
 9994SOL    HW230882   6.889   3.876   4.094
 9995SOL     OW30883   2.962   0.337   2.394
 9995SOL    HW130884   2.900   0.300   2.325
 9995SOL    HW230885   2.946   0.290   2.481
 9996SOL     OW30886   2.821   3.438   1.397
 9996SOL    HW130887   2.799   3.354   1.447
 9996SOL    HW230888   2.741   3.497   1.393
 9997SOL     OW30889   4.418   2.081   0.731
 9997SOL    HW130890   4.437   2.040   0.641
 9997SOL    HW230891   4.394   2.009   0.796
 9998SOL     OW30892   6.693   3.810   2.000
 9998SOL    HW130893   6.636   3.856   2.069
 9998SOL    HW230894   6.788   3.840   2.010
 9999SOL     OW30895   6.246   4.377   4.851
 9999SOL    HW130896   6.196   4.294   4.873
 9999SOL    HW230897   6.182   4.448   4.821
10000SOL     OW30898   5.477   3.225   7.008
10000SOL    HW130899   5.399   3.251   0.049
10000SOL    HW230900   5.444   3.192   6.920
10001SOL     OW30901   5.061   1.274   2.106
10001SOL    HW130902   5.027   1.272   2.012
10001SOL    HW230903   4.992   1.237   2.167
10002SOL     OW30904   1.386   0.621   0.930
10002SOL    HW130905   1.376   0.626   1.029
10002SOL    HW230906   1.363   0.529   0.898
10003SOL     OW30907   3.764   1.825   3.547
10003SOL    HW130908   3.695   1.761   3.581
10003SOL    HW230909   3.743   1.918   3.579
10004SOL     OW30910   4.573   2.445   4.497
10004SOL    HW130911   4.648   2.499   4.536
10004SOL    HW230912   4.555   2.475   4.404
10005SOL     OW30913   4.656   6.738   3.348
10005SOL    HW130914   4.662   6.779   3.439
10005SOL    HW230915   4.714   6.657   3.343
10006SOL     OW30916   5.266   0.894   3.969
10006SOL    HW130917   5.199   0.913   3.897
10006SOL    HW230918   5.225   0.914   4.058
10007SOL     OW30919   0.687   4.593   4.974
10007SOL    HW130920   0.726   4.658   5.038
10007SOL    HW230921   0.700   4.500   5.009
10008SOL     OW30922   4.631   1.277   3.638
10008SOL    HW130923   4.557   1.329   3.595
10008SOL    HW230924   4.695   1.341   3.682
10009SOL     OW30925   1.713   3.852   1.562
10009SOL    HW130926   1.734   3.906   1.643
10009SOL    HW230927   1.630   3.797   1.578
10010SOL     OW30928   2.344   6.714   6.631
10010SOL    HW130929   2.347   6.799   6.578
10010SOL    HW230930   2.275   6.723   6.703
10011SOL     OW30931   5.878   1.984   4.828
10011SOL    HW130932   5.803   1.919   4.817
10011SOL    HW230933   5.865   2.035   4.913
10012SOL     OW30934   4.544   0.199   2.939
10012SOL    HW130935   4.498   0.111   2.954
10012SOL    HW230936   4.637   0.182   2.908
10013SOL     OW30937   1.407   1.583   3.676
10013SOL    HW130938   1.421   1.577   3.775
10013SOL    HW230939   1.310   1.596   3.657
10014SOL     OW30940   6.327   3.082   6.922
10014SOL    HW130941   6.403   3.017   6.914
10014SOL    HW230942   6.360   3.175   6.906
10015SOL     OW30943   2.595   4.288   0.865
10015SOL    HW130944   2.638   4.233   0.936
10015SOL    HW230945   2.653   4.366   0.844
10016SOL     OW30946   1.945   0.219   4.940
10016SOL    HW130947   2.037   0.185   4.961
10016SOL    HW230948   1.888   0.143   4.908
10017SOL     OW30949   2.112   2.286   2.208
10017SOL    HW130950   2.060   2.201   2.207
10017SOL    HW230951   2.171   2.289   2.289
10018SOL     OW30952   4.837   6.691   5.923
10018SOL    HW130953   4.782   6.758   5.873
10018SOL    HW230954   4.865   6.617   5.862
10019SOL     OW30955   1.510   1.764   3.037
10019SOL    HW130956   1.606   1.788   3.051
10019SOL    HW230957   1.500   1.715   2.950
10020SOL     OW30958   0.749   3.079   1.535
10020SOL    HW130959   0.826   3.117   1.586
10020SOL    HW230960   0.703   3.010   1.591
10021SOL     OW30961   0.427   2.990   1.017
10021SOL    HW130962   0.420   2.994   1.117
10021SOL    HW230963   0.377   3.067   0.977
10022SOL     OW30964   3.648   6.984   0.593
10022SOL    HW130965   3.592   0.050   0.586
10022SOL    HW230966   3.728   6.992   0.533
10023SOL     OW30967   1.577   5.020   6.154
10023SOL    HW130968   1.531   5.005   6.242
10023SOL    HW230969   1.661   5.072   6.169
10024SOL     OW30970   2.402   6.688   1.929
10024SOL    HW130971   2.338   6.663   1.857
10024SOL    HW230972   2.357   6.679   2.018
10025SOL     OW30973   1.294   1.163   1.601
10025SOL    HW130974   1.341   1.077   1.580
10025SOL    HW230975   1.195   1.148   1.602
10026SOL     OW30976   4.724   6.633   3.766
10026SOL    HW130977   4.811   6.585   3.779
10026SOL    HW230978   4.702   6.685   3.849
10027SOL     OW30979   0.329   4.098   5.221
10027SOL    HW130980   0.236   4.130   5.203
10027SOL    HW230981   0.326   4.005   5.257
10028SOL     OW30982   1.129   1.758   1.488
10028SOL    HW130983   1.103   1.842   1.536
10028SOL    HW230984   1.071   1.747   1.407
10029SOL     OW30985   3.788   2.156   4.109
10029SOL    HW130986   3.808   2.184   4.016
10029SOL    HW230987   3.690   2.134   4.117
10030SOL     OW30988   2.244   6.808   3.552
10030SOL    HW130989   2.344   6.810   3.545
10030SOL    HW230990   2.216   6.846   3.640
10031SOL     OW30991   6.226   5.095   3.792
10031SOL    HW130992   6.229   5.062   3.886
10031SOL    HW230993   6.144   5.149   3.778
10032SOL     OW30994   2.961   1.693   4.926
10032SOL    HW130995   3.033   1.749   4.966
10032SOL    HW230996   2.919   1.636   4.997
10033SOL     OW30997   5.103   2.386   3.535
10033SOL    HW130998   5.031   2.438   3.581
10033SOL    HW230999   5.131   2.310   3.594
10034SOL     OW31000   2.952   0.310   4.071
10034SOL    HW131001   2.966   0.245   3.996
10034SOL    HW231002   2.956   0.403   4.036
10035SOL     OW31003   6.555   4.363   1.765
10035SOL    HW131004   6.596   4.425   1.832
10035SOL    HW231005   6.598   4.376   1.676
10036SOL     OW31006   5.881   1.540   1.646
10036SOL    HW131007   5.835   1.595   1.716
10036SOL    HW231008   5.878   1.587   1.558
10037SOL     OW31009   6.696   0.906   0.874
10037SOL    HW131010   6.767   0.892   0.805
10037SOL    HW231011   6.606   0.903   0.831
10038SOL     OW31012   5.150   0.562   0.034
10038SOL    HW131013   5.107   0.472   0.034
10038SOL    HW231014   5.243   0.555   0.070
10039SOL     OW31015   3.587   0.402   3.368
10039SOL    HW131016   3.547   0.314   3.341
10039SOL    HW231017   3.531   0.443   3.440
10040SOL     OW31018   4.389   5.960   6.093
10040SOL    HW131019   4.357   5.884   6.036
10040SOL    HW231020   4.348   5.953   6.183
10041SOL     OW31021   4.135   6.076   6.889
10041SOL    HW131022   4.229   6.110   6.886
10041SOL    HW231023   4.086   6.107   6.807
10042SOL     OW31024   0.973   1.815   4.217
10042SOL    HW131025   0.955   1.720   4.191
10042SOL    HW231026   0.889   1.869   4.207
10043SOL     OW31027   6.542   1.318   5.135
10043SOL    HW131028   6.461   1.266   5.108
10043SOL    HW231029   6.536   1.411   5.100
10044SOL     OW31030   2.564   1.506   4.792
10044SOL    HW131031   2.619   1.478   4.713
10044SOL    HW231032   2.597   1.595   4.825
10045SOL     OW31033   3.787   0.152   3.061
10045SOL    HW131034   3.835   0.142   2.974
10045SOL    HW231035   3.836   0.103   3.133
10046SOL     OW31036   2.117   3.809   0.781
10046SOL    HW131037   2.169   3.895   0.790
10046SOL    HW231038   2.036   3.825   0.725
10047SOL     OW31039   0.843   3.405   4.815
10047SOL    HW131040   0.808   3.404   4.909
10047SOL    HW231041   0.920   3.342   4.808
10048SOL     OW31042   6.390   0.372   2.241
10048SOL    HW131043   6.346   0.432   2.308
10048SOL    HW231044   6.461   0.318   2.286
10049SOL     OW31045   1.114   1.884   5.992
10049SOL    HW131046   1.066   1.954   5.940
10049SOL    HW231047   1.195   1.855   5.942
10050SOL     OW31048   5.243   3.335   5.297
10050SOL    HW131049   5.332   3.293   5.280
10050SOL    HW231050   5.243   3.380   5.386
10051SOL     OW31051   6.412   4.005   5.355
10051SOL    HW131052   6.385   4.046   5.442
10051SOL    HW231053   6.446   4.076   5.294
10052SOL     OW31054   2.126   0.989   3.094
10052SOL    HW131055   2.196   1.056   3.067
10052SOL    HW231056   2.131   0.909   3.035
10053SOL     OW31057   4.149   5.478   3.303
10053SOL    HW131058   4.249   5.477   3.296
10053SOL    HW231059   4.109   5.465   3.213
10054SOL     OW31060   5.294   6.153   5.646
10054SOL    HW131061   5.346   6.129   5.728
10054SOL    HW231062   5.197   6.154   5.668
10055SOL     OW31063   5.899   1.242   5.303
10055SOL    HW131064   5.996   1.265   5.294
10055SOL    HW231065   5.890   1.149   5.341
10056SOL     OW31066   5.262   4.727   2.868
10056SOL    HW131067   5.271   4.671   2.950
10056SOL    HW231068   5.168   4.722   2.834
10057SOL     OW31069   4.468   3.095   5.387
10057SOL    HW131070   4.462   3.117   5.484
10057SOL    HW231071   4.561   3.065   5.365
10058SOL     OW31072   6.176   3.420   4.605
10058SOL    HW131073   6.212   3.437   4.513
10058SOL    HW231074   6.086   3.462   4.613
10059SOL     OW31075   0.452   1.690   6.720
10059SOL    HW131076   0.423   1.600   6.754
10059SOL    HW231077   0.410   1.706   6.630
10060SOL     OW31078   2.340   2.773   2.372
10060SOL    HW131079   2.354   2.747   2.276
10060SOL    HW231080   2.290   2.860   2.376
10061SOL     OW31081   4.546   1.473   3.848
10061SOL    HW131082   4.492   1.389   3.858
10061SOL    HW231083   4.643   1.450   3.849
10062SOL     OW31084   5.617   0.585   3.676
10062SOL    HW131085   5.603   0.628   3.587
10062SOL    HW231086   5.649   0.654   3.741
10063SOL     OW31087   3.318   1.236   4.573
10063SOL    HW131088   3.366   1.307   4.522
10063SOL    HW231089   3.252   1.278   4.635
10064SOL     OW31090   4.486   6.101   0.556
10064SOL    HW131091   4.410   6.060   0.506
10064SOL    HW231092   4.493   6.198   0.532
10065SOL     OW31093   2.521   0.636   2.279
10065SOL    HW131094   2.573   0.624   2.363
10065SOL    HW231095   2.566   0.704   2.221
10066SOL     OW31096   0.553   2.791   4.870
10066SOL    HW131097   0.629   2.727   4.881
10066SOL    HW231098   0.490   2.781   4.948
10067SOL     OW31099   0.252   3.366   5.349
10067SOL    HW131100   0.239   3.286   5.408
10067SOL    HW231101   0.208   3.446   5.390
10068SOL     OW31102   0.892   3.578   4.040
10068SOL    HW131103   0.809   3.584   3.984
10068SOL    HW231104   0.898   3.658   4.100
10069SOL     OW31105   3.189   5.169   1.898
10069SOL    HW131106   3.112   5.127   1.946
10069SOL    HW231107   3.268   5.173   1.960
10070SOL     OW31108   0.469   6.090   5.128
10070SOL    HW131109   0.433   6.156   5.193
10070SOL    HW231110   0.442   6.117   5.035
10071SOL     OW31111   6.961   6.149   4.500
10071SOL    HW131112   6.902   6.146   4.580
10071SOL    HW231113   6.993   6.057   4.478
10072SOL     OW31114   0.073   0.257   4.358
10072SOL    HW131115   0.132   0.177   4.349
10072SOL    HW231116   0.073   0.308   4.272
10073SOL     OW31117   6.896   3.672   4.351
10073SOL    HW131118   6.887   3.586   4.301
10073SOL    HW231119   6.887   3.749   4.288
10074SOL     OW31120   2.355   6.946   6.490
10074SOL    HW131121   2.409   6.901   6.418
10074SOL    HW231122   2.395   0.019   6.509
10075SOL     OW31123   1.598   2.252   1.821
10075SOL    HW131124   1.665   2.322   1.842
10075SOL    HW231125   1.645   2.166   1.799
10076SOL     OW31126   5.362   6.426   2.990
10076SOL    HW131127   5.351   6.474   3.078
10076SOL    HW231128   5.444   6.369   2.994
10077SOL     OW31129   4.066   3.509   0.850
10077SOL    HW131130   4.145   3.530   0.907
10077SOL    HW231131   3.996   3.579   0.864
10078SOL     OW31132   6.190   6.130   4.486
10078SOL    HW131133   6.202   6.054   4.551
10078SOL    HW231134   6.135   6.202   4.528
10079SOL     OW31135   5.987   3.360   3.172
10079SOL    HW131136   5.928   3.319   3.242
10079SOL    HW231137   5.940   3.358   3.084
10080SOL     OW31138   4.695   1.615   6.311
10080SOL    HW131139   4.602   1.586   6.289
10080SOL    HW231140   4.703   1.635   6.408
10081SOL     OW31141   1.008   1.842   6.849
10081SOL    HW131142   1.062   1.920   6.881
10081SOL    HW231143   0.937   1.821   6.916
10082SOL     OW31144   0.479   5.572   2.183
10082SOL    HW131145   0.460   5.478   2.212
10082SOL    HW231146   0.410   5.633   2.221
10083SOL     OW31147   3.081   0.352   3.792
10083SOL    HW131148   3.136   0.384   3.869
10083SOL    HW231149   3.138   0.294   3.733
10084SOL     OW31150   0.633   0.395   5.456
10084SOL    HW131151   0.618   0.370   5.360
10084SOL    HW231152   0.616   0.493   5.468
10085SOL     OW31153   3.489   0.099   0.833
10085SOL    HW131154   3.457   0.099   0.738
10085SOL    HW231155   3.565   0.163   0.842
10086SOL     OW31156   5.884   5.822   3.073
10086SOL    HW131157   5.962   5.885   3.066
10086SOL    HW231158   5.863   5.805   3.170
10087SOL     OW31159   6.209   5.777   4.374
10087SOL    HW131160   6.199   5.858   4.316
10087SOL    HW231161   6.306   5.762   4.394
10088SOL     OW31162   6.863   0.309   2.143
10088SOL    HW131163   6.854   0.403   2.109
10088SOL    HW231164   6.885   0.248   2.067
10089SOL     OW31165   3.433   2.072   3.130
10089SOL    HW131166   3.375   2.023   3.065
10089SOL    HW231167   3.516   2.102   3.084
10090SOL     OW31168   0.092   5.037   1.986
10090SOL    HW131169   0.139   5.073   1.906
10090SOL    HW231170   7.010   5.052   1.977
10091SOL     OW31171   6.614   5.703   6.418
10091SOL    HW131172   6.672   5.648   6.479
10091SOL    HW231173   6.590   5.788   6.464
10092SOL     OW31174   1.497   2.661   6.025
10092SOL    HW131175   1.520   2.590   5.959
10092SOL    HW231176   1.576   2.721   6.038
10093SOL     OW31177   4.700   3.327   5.292
10093SOL    HW131178   4.747   3.354   5.376
10093SOL    HW231179   4.697   3.406   5.230
10094SOL     OW31180   2.187   6.200   0.847
10094SOL    HW131181   2.096   6.208   0.887
10094SOL    HW231182   2.250   6.261   0.894
10095SOL     OW31183   4.973   1.649   4.529
10095SOL    HW131184   5.037   1.572   4.522
10095SOL    HW231185   4.959   1.671   4.626
10096SOL     OW31186   4.509   6.654   2.753
10096SOL    HW131187   4.540   6.639   2.659
10096SOL    HW231188   4.521   6.570   2.806
10097SOL     OW31189   1.805   2.181   6.785
10097SOL    HW131190   1.759   2.241   6.850
10097SOL    HW231191   1.903   2.201   6.784
10098SOL     OW31192   3.116   6.897   4.727
10098SOL    HW131193   3.076   6.985   4.704
10098SOL    HW231194   3.044   6.834   4.756
10099SOL     OW31195   0.170   4.790   1.730
10099SOL    HW131196   0.071   4.797   1.730
10099SOL    HW231197   0.198   4.714   1.671
10100SOL     OW31198   5.192   6.289   5.102
10100SOL    HW131199   5.244   6.224   5.158
10100SOL    HW231200   5.229   6.381   5.116
10101SOL     OW31201   6.999   3.386   1.946
10101SOL    HW131202   6.952   3.298   1.946
10101SOL    HW231203   7.007   3.419   2.040
10102SOL     OW31204   6.663   0.725   1.111
10102SOL    HW131205   6.682   0.633   1.077
10102SOL    HW231206   6.659   0.788   1.034
10103SOL     OW31207   1.947   0.420   5.514
10103SOL    HW131208   1.896   0.505   5.496
10103SOL    HW231209   2.021   0.411   5.448
10104SOL     OW31210   1.371   1.222   5.236
10104SOL    HW131211   1.304   1.163   5.190
10104SOL    HW231212   1.356   1.317   5.207
10105SOL     OW31213   1.969   0.293   6.000
10105SOL    HW131214   1.914   0.210   5.995
10105SOL    HW231215   2.021   0.294   6.086
10106SOL     OW31216   4.124   6.590   1.021
10106SOL    HW131217   4.160   6.597   1.114
10106SOL    HW231218   4.195   6.616   0.956
10107SOL     OW31219   5.340   1.534   6.216
10107SOL    HW131220   5.405   1.578   6.277
10107SOL    HW231221   5.376   1.445   6.188
10108SOL     OW31222   0.394   2.091   0.000
10108SOL    HW131223   0.422   2.094   6.921
10108SOL    HW231224   0.373   2.184   0.031
10109SOL     OW31225   0.575   1.152   0.873
10109SOL    HW131226   0.662   1.167   0.920
10109SOL    HW231227   0.521   1.235   0.875
10110SOL     OW31228   4.597   4.399   4.108
10110SOL    HW131229   4.654   4.325   4.071
10110SOL    HW231230   4.583   4.384   4.206
10111SOL     OW31231   6.934   3.699   3.280
10111SOL    HW131232   7.005   3.767   3.260
10111SOL    HW231233   6.968   3.632   3.345
10112SOL     OW31234   5.947   3.536   2.652
10112SOL    HW131235   5.953   3.518   2.750
10112SOL    HW231236   5.873   3.482   2.612
10113SOL     OW31237   4.405   0.217   0.832
10113SOL    HW131238   4.381   0.300   0.782
10113SOL    HW231239   4.335   0.148   0.817
10114SOL     OW31240   4.318   1.917   2.990
10114SOL    HW131241   4.401   1.962   2.957
10114SOL    HW231242   4.237   1.966   2.958
10115SOL     OW31243   3.999   1.933   5.048
10115SOL    HW131244   4.029   2.023   5.017
10115SOL    HW231245   3.902   1.922   5.027
10116SOL     OW31246   0.391   6.814   6.977
10116SOL    HW131247   0.470   6.772   6.933
10116SOL    HW231248   0.308   6.787   6.929
10117SOL     OW31249   6.763   6.332   6.004
10117SOL    HW131250   6.749   6.236   5.979
10117SOL    HW231251   6.763   6.388   5.921
10118SOL     OW31252   2.543   4.547   4.044
10118SOL    HW131253   2.592   4.460   4.053
10118SOL    HW231254   2.447   4.533   4.069
10119SOL     OW31255   6.275   4.833   3.709
10119SOL    HW131256   6.201   4.774   3.679
10119SOL    HW231257   6.242   4.926   3.719
10120SOL     OW31258   1.902   3.257   4.074
10120SOL    HW131259   1.830   3.304   4.024
10120SOL    HW231260   1.867   3.171   4.110
10121SOL     OW31261   6.101   3.949   0.241
10121SOL    HW131262   6.171   4.007   0.281
10121SOL    HW231263   6.016   3.959   0.293
10122SOL     OW31264   5.918   2.308   3.780
10122SOL    HW131265   5.968   2.253   3.847
10122SOL    HW231266   5.825   2.272   3.772
10123SOL     OW31267   5.979   6.354   1.132
10123SOL    HW131268   5.966   6.369   1.229
10123SOL    HW231269   5.923   6.419   1.080
10124SOL     OW31270   1.468   5.275   0.655
10124SOL    HW131271   1.521   5.204   0.701
10124SOL    HW231272   1.400   5.233   0.595
10125SOL     OW31273   2.591   1.474   0.829
10125SOL    HW131274   2.508   1.448   0.780
10125SOL    HW231275   2.630   1.393   0.873
10126SOL     OW31276   0.019   6.927   5.910
10126SOL    HW131277   7.003   6.960   5.999
10126SOL    HW231278   0.068   6.999   5.863
10127SOL     OW31279   2.100   3.492   0.515
10127SOL    HW131280   2.108   3.485   0.615
10127SOL    HW231281   2.101   3.589   0.489
10128SOL     OW31282   2.735   1.030   5.945
10128SOL    HW131283   2.750   1.024   6.043
10128SOL    HW231284   2.711   0.940   5.909
10129SOL     OW31285   0.156   2.087   2.176
10129SOL    HW131286   0.127   2.004   2.129
10129SOL    HW231287   0.139   2.078   2.274
10130SOL     OW31288   0.623   3.429   1.633
10130SOL    HW131289   0.665   3.360   1.692
10130SOL    HW231290   0.693   3.472   1.576
10131SOL     OW31291   1.369   0.510   4.223
10131SOL    HW131292   1.314   0.510   4.306
10131SOL    HW231293   1.466   0.521   4.248
10132SOL     OW31294   1.416   0.475   3.051
10132SOL    HW131295   1.511   0.476   3.082
10132SOL    HW231296   1.359   0.427   3.118
10133SOL     OW31297   4.396   6.678   0.935
10133SOL    HW131298   4.427   6.608   0.999
10133SOL    HW231299   4.461   6.754   0.936
10134SOL     OW31300   6.200   1.222   3.139
10134SOL    HW131301   6.211   1.152   3.210
10134SOL    HW231302   6.119   1.201   3.084
10135SOL     OW31303   4.792   2.474   3.599
10135SOL    HW131304   4.794   2.460   3.500
10135SOL    HW231305   4.732   2.552   3.620
10136SOL     OW31306   5.703   2.101   2.298
10136SOL    HW131307   5.631   2.039   2.328
10136SOL    HW231308   5.736   2.072   2.208
10137SOL     OW31309   0.204   4.969   5.749
10137SOL    HW131310   0.184   4.872   5.735
10137SOL    HW231311   0.303   4.983   5.753
10138SOL     OW31312   5.572   3.110   0.703
10138SOL    HW131313   5.497   3.175   0.716
10138SOL    HW231314   5.539   3.032   0.649
10139SOL     OW31315   3.123   3.824   4.857
10139SOL    HW131316   3.137   3.914   4.897
10139SOL    HW231317   3.180   3.757   4.905
10140SOL     OW31318   0.131   6.314   6.300
10140SOL    HW131319   0.069   6.362   6.362
10140SOL    HW231320   0.118   6.348   6.207
10141SOL     OW31321   4.186   1.118   4.674
10141SOL    HW131322   4.102   1.172   4.665
10141SOL    HW231323   4.231   1.111   4.584
10142SOL     OW31324   6.149   6.772   5.784
10142SOL    HW131325   6.126   6.681   5.818
10142SOL    HW231326   6.069   6.831   5.790
10143SOL     OW31327   5.698   2.909   0.173
10143SOL    HW131328   5.788   2.888   0.211
10143SOL    HW231329   5.647   2.965   0.238
10144SOL     OW31330   4.835   6.576   5.116
10144SOL    HW131331   4.778   6.606   5.193
10144SOL    HW231332   4.864   6.481   5.131
10145SOL     OW31333   3.668   5.758   2.914
10145SOL    HW131334   3.641   5.789   3.005
10145SOL    HW231335   3.665   5.658   2.911
10146SOL     OW31336   6.800   4.060   4.606
10146SOL    HW131337   6.717   4.028   4.562
10146SOL    HW231338   6.787   4.062   4.705
10147SOL     OW31339   4.824   4.368   6.355
10147SOL    HW131340   4.837   4.301   6.427
10147SOL    HW231341   4.727   4.374   6.331
10148SOL     OW31342   5.751   3.924   0.876
10148SOL    HW131343   5.815   3.904   0.951
10148SOL    HW231344   5.795   3.985   0.811
10149SOL     OW31345   5.073   4.755   1.354
10149SOL    HW131346   5.138   4.801   1.414
10149SOL    HW231347   5.074   4.657   1.374
10150SOL     OW31348   4.623   3.181   1.425
10150SOL    HW131349   4.651   3.129   1.506
10150SOL    HW231350   4.705   3.217   1.379
10151SOL     OW31351   0.693   0.025   6.093
10151SOL    HW131352   0.613   6.983   6.104
10151SOL    HW231353   0.672   0.099   6.029
10152SOL     OW31354   6.321   5.789   4.000
10152SOL    HW131355   6.316   5.695   4.032
10152SOL    HW231356   6.231   5.817   3.966
10153SOL     OW31357   4.612   5.943   4.325
10153SOL    HW131358   4.651   5.917   4.414
10153SOL    HW231359   4.678   5.923   4.253
10154SOL     OW31360   3.129   6.456   6.057
10154SOL    HW131361   3.082   6.491   6.137
10154SOL    HW231362   3.220   6.497   6.051
10155SOL     OW31363   4.851   2.623   5.677
10155SOL    HW131364   4.934   2.664   5.640
10155SOL    HW231365   4.777   2.690   5.675
10156SOL     OW31366   5.309   0.491   1.299
10156SOL    HW131367   5.330   0.514   1.394
10156SOL    HW231368   5.217   0.453   1.293
10157SOL     OW31369   6.956   2.397   0.124
10157SOL    HW131370   0.008   2.347   0.177
10157SOL    HW231371   6.984   2.399   0.028
10158SOL     OW31372   6.223   6.531   1.879
10158SOL    HW131373   6.294   6.472   1.918
10158SOL    HW231374   6.139   6.477   1.865
10159SOL     OW31375   3.747   3.266   2.674
10159SOL    HW131376   3.746   3.365   2.659
10159SOL    HW231377   3.665   3.226   2.634
10160SOL     OW31378   1.730   3.839   3.164
10160SOL    HW131379   1.773   3.886   3.241
10160SOL    HW231380   1.640   3.878   3.147
10161SOL     OW31381   3.407   5.034   6.833
10161SOL    HW131382   3.309   5.042   6.813
10161SOL    HW231383   3.432   4.937   6.838
10162SOL     OW31384   2.266   4.036   0.794
10162SOL    HW131385   2.351   3.984   0.783
10162SOL    HW231386   2.284   4.116   0.851
10163SOL     OW31387   0.693   5.180   6.308
10163SOL    HW131388   0.623   5.157   6.376
10163SOL    HW231389   0.649   5.210   6.224
10164SOL     OW31390   5.789   3.336   4.223
10164SOL    HW131391   5.875   3.328   4.274
10164SOL    HW231392   5.788   3.423   4.174
10165SOL     OW31393   6.568   2.749   3.881
10165SOL    HW131394   6.642   2.729   3.944
10165SOL    HW231395   6.482   2.755   3.931
10166SOL     OW31396   1.185   2.048   1.260
10166SOL    HW131397   1.165   2.136   1.302
10166SOL    HW231398   1.115   1.982   1.285
10167SOL     OW31399   6.921   5.630   0.281
10167SOL    HW131400   6.965   5.550   0.239
10167SOL    HW231401   6.969   5.653   0.366
10168SOL     OW31402   6.489   1.879   6.093
10168SOL    HW131403   6.540   1.962   6.070
10168SOL    HW231404   6.496   1.863   6.192
10169SOL     OW31405   6.381   3.868   3.455
10169SOL    HW131406   6.289   3.861   3.416
10169SOL    HW231407   6.387   3.950   3.512
10170SOL     OW31408   6.438   5.642   6.195
10170SOL    HW131409   6.499   5.666   6.271
10170SOL    HW231410   6.492   5.634   6.111
10171SOL     OW31411   0.440   2.703   4.610
10171SOL    HW131412   0.374   2.634   4.641
10171SOL    HW231413   0.482   2.747   4.690
10172SOL     OW31414   0.338   0.042   4.609
10172SOL    HW131415   0.349   0.043   4.708
10172SOL    HW231416   0.424   0.015   4.566
10173SOL     OW31417   2.576   3.215   6.592
10173SOL    HW131418   2.648   3.187   6.528
10173SOL    HW231419   2.522   3.289   6.552
10174SOL     OW31420   4.446   4.520   3.565
10174SOL    HW131421   4.417   4.485   3.654
10174SOL    HW231422   4.380   4.589   3.534
10175SOL     OW31423   6.151   1.606   3.949
10175SOL    HW131424   6.066   1.570   3.988
10175SOL    HW231425   6.188   1.676   4.010
10176SOL     OW31426   6.319   3.489   5.219
10176SOL    HW131427   6.374   3.411   5.252
10176SOL    HW231428   6.325   3.564   5.285
10177SOL     OW31429   1.630   6.764   1.011
10177SOL    HW131430   1.598   6.815   1.091
10177SOL    HW231431   1.590   6.803   0.928
10178SOL     OW31432   1.786   1.268   0.815
10178SOL    HW131433   1.837   1.255   0.900
10178SOL    HW231434   1.796   1.186   0.757
10179SOL     OW31435   0.278   3.725   6.619
10179SOL    HW131436   0.343   3.663   6.662
10179SOL    HW231437   0.312   3.753   6.529
10180SOL     OW31438   4.480   0.540   0.211
10180SOL    HW131439   4.497   0.595   0.129
10180SOL    HW231440   4.566   0.504   0.245
10181SOL     OW31441   0.776   3.105   1.040
10181SOL    HW131442   0.711   3.106   1.116
10181SOL    HW231443   0.853   3.045   1.064
10182SOL     OW31444   5.066   1.161   6.951
10182SOL    HW131445   5.048   1.074   6.905
10182SOL    HW231446   5.024   1.160   0.026
10183SOL     OW31447   5.895   2.915   6.256
10183SOL    HW131448   5.993   2.936   6.253
10183SOL    HW231449   5.852   2.949   6.172
10184SOL     OW31450   5.040   3.028   6.977
10184SOL    HW131451   5.029   2.950   0.022
10184SOL    HW231452   5.086   3.102   0.008
10185SOL     OW31453   5.720   6.117   2.377
10185SOL    HW131454   5.631   6.106   2.333
10185SOL    HW231455   5.786   6.057   2.333
10186SOL     OW31456   4.890   3.791   4.848
10186SOL    HW131457   4.841   3.736   4.916
10186SOL    HW231458   4.980   3.816   4.884
10187SOL     OW31459   1.791   4.375   5.474
10187SOL    HW131460   1.881   4.361   5.513
10187SOL    HW231461   1.765   4.471   5.480
10188SOL     OW31462   2.737   5.197   6.589
10188SOL    HW131463   2.729   5.248   6.503
10188SOL    HW231464   2.665   5.226   6.652
10189SOL     OW31465   1.653   0.741   6.247
10189SOL    HW131466   1.586   0.792   6.300
10189SOL    HW231467   1.668   0.786   6.159
10190SOL     OW31468   4.468   3.383   1.746
10190SOL    HW131469   4.548   3.419   1.698
10190SOL    HW231470   4.391   3.445   1.732
10191SOL     OW31471   5.701   5.835   0.428
10191SOL    HW131472   5.694   5.739   0.401
10191SOL    HW231473   5.717   5.840   0.526
10192SOL     OW31474   3.295   1.821   5.030
10192SOL    HW131475   3.329   1.794   4.940
10192SOL    HW231476   3.357   1.787   5.100
10193SOL     OW31477   3.001   3.695   2.320
10193SOL    HW131478   2.903   3.702   2.304
10193SOL    HW231479   3.037   3.784   2.347
10194SOL     OW31480   4.659   0.437   4.563
10194SOL    HW131481   4.672   0.347   4.523
10194SOL    HW231482   4.703   0.441   4.653
10195SOL     OW31483   6.911   0.148   1.934
10195SOL    HW131484   6.988   0.193   1.889
10195SOL    HW231485   6.881   0.070   1.879
10196SOL     OW31486   5.249   1.871   3.115
10196SOL    HW131487   5.187   1.800   3.080
10196SOL    HW231488   5.195   1.949   3.146
10197SOL     OW31489   4.717   1.572   4.070
10197SOL    HW131490   4.781   1.569   4.147
10197SOL    HW231491   4.761   1.534   3.989
10198SOL     OW31492   3.721   6.721   0.990
10198SOL    HW131493   3.679   6.740   0.901
10198SOL    HW231494   3.769   6.633   0.985
10199SOL     OW31495   0.525   1.989   6.485
10199SOL    HW131496   0.436   1.948   6.467
10199SOL    HW231497   0.593   1.950   6.424
10200SOL     OW31498   4.984   3.267   5.243
10200SOL    HW131499   5.079   3.269   5.273
10200SOL    HW231500   4.931   3.208   5.304
10201SOL     OW31501   0.535   5.929   1.298
10201SOL    HW131502   0.469   5.858   1.323
10201SOL    HW231503   0.497   5.985   1.225
10202SOL     OW31504   1.351   3.629   0.520
10202SOL    HW131505   1.293   3.581   0.586
10202SOL    HW231506   1.306   3.630   0.431
10203SOL     OW31507   1.223   2.906   1.497
10203SOL    HW131508   1.305   2.935   1.446
10203SOL    HW231509   1.172   2.987   1.526
10204SOL     OW31510   3.193   5.485   6.345
10204SOL    HW131511   3.243   5.424   6.407
10204SOL    HW231512   3.256   5.521   6.276
10205SOL     OW31513   3.166   1.467   2.567
10205SOL    HW131514   3.132   1.550   2.610
10205SOL    HW231515   3.133   1.387   2.618
10206SOL     OW31516   4.892   6.495   6.702
10206SOL    HW131517   4.849   6.571   6.654
10206SOL    HW231518   4.855   6.408   6.667
10207SOL     OW31519   2.030   1.104   0.518
10207SOL    HW131520   1.943   1.116   0.566
10207SOL    HW231521   2.086   1.038   0.568
10208SOL     OW31522   6.278   4.701   4.186
10208SOL    HW131523   6.185   4.686   4.220
10208SOL    HW231524   6.342   4.701   4.263
10209SOL     OW31525   0.541   0.388   5.717
10209SOL    HW131526   0.569   0.468   5.769
10209SOL    HW231527   0.584   0.390   5.626
10210SOL     OW31528   5.101   0.062   1.604
10210SOL    HW131529   5.019   0.025   1.648
10210SOL    HW231530   5.176   7.014   1.614
10211SOL     OW31531   4.222   6.215   5.269
10211SOL    HW131532   4.288   6.230   5.342
10211SOL    HW231533   4.269   6.184   5.187
10212SOL     OW31534   0.153   1.037   4.688
10212SOL    HW131535   0.113   1.115   4.736
10212SOL    HW231536   0.217   0.990   4.749
10213SOL     OW31537   5.846   2.251   1.801
10213SOL    HW131538   5.762   2.271   1.851
10213SOL    HW231539   5.859   2.319   1.729
10214SOL     OW31540   0.918   2.031   2.490
10214SOL    HW131541   1.002   2.019   2.437
10214SOL    HW231542   0.940   2.076   2.577
10215SOL     OW31543   3.486   2.937   4.255
10215SOL    HW131544   3.398   2.973   4.285
10215SOL    HW231545   3.552   2.943   4.330
10216SOL     OW31546   0.922   0.253   0.701
10216SOL    HW131547   0.971   0.211   0.778
10216SOL    HW231548   0.962   0.221   0.615
10217SOL     OW31549   2.581   1.757   4.012
10217SOL    HW131550   2.503   1.815   4.036
10217SOL    HW231551   2.565   1.714   3.923
10218SOL     OW31552   1.588   0.601   1.854
10218SOL    HW131553   1.656   0.643   1.914
10218SOL    HW231554   1.621   0.512   1.822
10219SOL     OW31555   0.602   3.264   2.090
10219SOL    HW131556   0.527   3.227   2.034
10219SOL    HW231557   0.577   3.261   2.186
10220SOL     OW31558   4.233   1.446   2.045
10220SOL    HW131559   4.210   1.355   2.009
10220SOL    HW231560   4.163   1.511   2.017
10221SOL     OW31561   1.865   2.441   3.780
10221SOL    HW131562   1.784   2.417   3.727
10221SOL    HW231563   1.839   2.499   3.857
10222SOL     OW31564   2.262   2.867   6.209
10222SOL    HW131565   2.218   2.789   6.165
10222SOL    HW231566   2.361   2.849   6.216
10223SOL     OW31567   1.535   6.160   6.784
10223SOL    HW131568   1.578   6.212   6.857
10223SOL    HW231569   1.594   6.160   6.703
10224SOL     OW31570   6.497   1.585   5.079
10224SOL    HW131571   6.438   1.622   5.008
10224SOL    HW231572   6.487   1.639   5.163
10225SOL     OW31573   1.837   6.325   5.794
10225SOL    HW131574   1.820   6.235   5.833
10225SOL    HW231575   1.756   6.382   5.806
10226SOL     OW31576   2.526   7.013   6.925
10226SOL    HW131577   2.444   0.052   6.943
10226SOL    HW231578   2.514   6.923   6.965
10227SOL     OW31579   5.038   4.986   0.929
10227SOL    HW131580   5.095   4.963   0.849
10227SOL    HW231581   5.044   4.912   0.995
10228SOL     OW31582   0.967   5.512   2.248
10228SOL    HW131583   0.957   5.413   2.239
10228SOL    HW231584   0.877   5.554   2.255
10229SOL     OW31585   0.476   1.371   4.258
10229SOL    HW131586   0.389   1.420   4.269
10229SOL    HW231587   0.490   1.311   4.337
10230SOL     OW31588   6.288   6.653   3.272
10230SOL    HW131589   6.198   6.672   3.312
10230SOL    HW231590   6.279   6.584   3.201
10231SOL     OW31591   6.609   5.536   5.702
10231SOL    HW131592   6.686   5.473   5.692
10231SOL    HW231593   6.582   5.569   5.612
10232SOL     OW31594   2.574   0.588   3.672
10232SOL    HW131595   2.499   0.524   3.654
10232SOL    HW231596   2.568   0.619   3.767
10233SOL     OW31597   4.979   3.566   5.261
10233SOL    HW131598   4.898   3.589   5.206
10233SOL    HW231599   4.993   3.467   5.259
10234SOL     OW31600   4.951   1.084   1.140
10234SOL    HW131601   4.942   0.992   1.178
10234SOL    HW231602   4.971   1.149   1.213
10235SOL     OW31603   4.916   2.572   0.360
10235SOL    HW131604   5.015   2.562   0.356
10235SOL    HW231605   4.872   2.489   0.325
10236SOL     OW31606   2.352   6.662   2.200
10236SOL    HW131607   2.429   6.692   2.257
10236SOL    HW231608   2.287   6.611   2.257
10237SOL     OW31609   6.244   3.813   1.000
10237SOL    HW131610   6.272   3.718   0.988
10237SOL    HW231611   6.290   3.851   1.080
10238SOL     OW31612   3.319   4.086   3.697
10238SOL    HW131613   3.390   4.144   3.736
10238SOL    HW231614   3.323   3.995   3.738
10239SOL     OW31615   1.071   4.329   5.126
10239SOL    HW131616   1.111   4.240   5.102
10239SOL    HW231617   1.072   4.340   5.225
10240SOL     OW31618   2.303   5.090   3.157
10240SOL    HW131619   2.336   5.161   3.219
10240SOL    HW231620   2.246   5.132   3.087
10241SOL     OW31621   6.970   0.673   2.473
10241SOL    HW131622   0.009   0.749   2.508
10241SOL    HW231623   0.008   0.589   2.474
10242SOL     OW31624   6.776   1.467   6.696
10242SOL    HW131625   6.843   1.469   6.622
10242SOL    HW231626   6.812   1.413   6.772
10243SOL     OW31627   0.776   5.020   1.319
10243SOL    HW131628   0.868   4.993   1.290
10243SOL    HW231629   0.772   5.026   1.418
10244SOL     OW31630   1.341   4.529   0.320
10244SOL    HW131631   1.441   4.526   0.324
10244SOL    HW231632   1.304   4.444   0.357
10245SOL     OW31633   3.031   4.966   6.884
10245SOL    HW131634   3.109   4.918   6.844
10245SOL    HW231635   2.958   4.974   6.816
10246SOL     OW31636   2.995   3.905   3.879
10246SOL    HW131637   2.986   3.852   3.963
10246SOL    HW231638   3.026   3.997   3.900
10247SOL     OW31639   0.028   5.300   5.467
10247SOL    HW131640   0.113   5.256   5.440
10247SOL    HW231641   0.034   5.398   5.451
10248SOL     OW31642   3.852   6.701   2.200
10248SOL    HW131643   3.838   6.790   2.243
10248SOL    HW231644   3.806   6.630   2.253
10249SOL     OW31645   3.614   1.334   6.108
10249SOL    HW131646   3.675   1.261   6.138
10249SOL    HW231647   3.575   1.310   6.018
10250SOL     OW31648   6.853   2.729   1.024
10250SOL    HW131649   6.925   2.764   1.085
10250SOL    HW231650   6.800   2.659   1.072
10251SOL     OW31651   2.864   2.002   5.107
10251SOL    HW131652   2.787   2.022   5.168
10251SOL    HW231653   2.949   2.003   5.160
10252SOL     OW31654   5.845   5.933   0.212
10252SOL    HW131655   5.888   5.847   0.181
10252SOL    HW231656   5.789   5.915   0.292
10253SOL     OW31657   5.056   5.757   0.256
10253SOL    HW131658   5.024   5.840   0.209
10253SOL    HW231659   5.124   5.711   0.199
10254SOL     OW31660   4.295   1.833   5.045
10254SOL    HW131661   4.202   1.863   5.022
10254SOL    HW231662   4.345   1.814   4.961
10255SOL     OW31663   2.033   5.974   1.541
10255SOL    HW131664   2.085   5.894   1.511
10255SOL    HW231665   1.976   5.949   1.619
10256SOL     OW31666   6.172   0.369   1.874
10256SOL    HW131667   6.268   0.340   1.876
10256SOL    HW231668   6.166   0.463   1.841
10257SOL     OW31669   1.777   5.279   4.097
10257SOL    HW131670   1.719   5.360   4.108
10257SOL    HW231671   1.808   5.247   4.186
10258SOL     OW31672   4.338   0.593   3.892
10258SOL    HW131673   4.327   0.686   3.859
10258SOL    HW231674   4.336   0.592   3.992
10259SOL     OW31675   0.241   4.578   3.272
10259SOL    HW131676   0.191   4.530   3.200
10259SOL    HW231677   0.337   4.588   3.245
10260SOL     OW31678   0.228   0.202   3.133
10260SOL    HW131679   0.271   0.184   3.044
10260SOL    HW231680   0.295   0.187   3.205
10261SOL     OW31681   6.530   5.399   3.279
10261SOL    HW131682   6.475   5.466   3.230
10261SOL    HW231683   6.564   5.330   3.214
10262SOL     OW31684   2.490   7.000   4.565
10262SOL    HW131685   2.415   0.006   4.626
10262SOL    HW231686   2.577   0.008   4.609
10263SOL     OW31687   4.620   0.898   6.244
10263SOL    HW131688   4.662   0.977   6.290
10263SOL    HW231689   4.669   0.815   6.271
10264SOL     OW31690   5.840   2.258   6.432
10264SOL    HW131691   5.797   2.328   6.490
10264SOL    HW231692   5.908   2.301   6.373
10265SOL     OW31693   3.554   1.943   3.386
10265SOL    HW131694   3.636   1.991   3.355
10265SOL    HW231695   3.485   1.944   3.313
10266SOL     OW31696   3.146   3.345   5.403
10266SOL    HW131697   3.138   3.445   5.407
10266SOL    HW231698   3.236   3.320   5.368
10267SOL     OW31699   5.603   1.561   0.080
10267SOL    HW131700   5.654   1.561   0.166
10267SOL    HW231701   5.627   1.642   0.026
10268SOL     OW31702   4.567   5.084   1.656
10268SOL    HW131703   4.575   5.080   1.556
10268SOL    HW231704   4.609   5.003   1.696
10269SOL     OW31705   1.146   2.631   5.101
10269SOL    HW131706   1.205   2.642   5.021
10269SOL    HW231707   1.093   2.714   5.115
10270SOL     OW31708   2.719   5.397   3.695
10270SOL    HW131709   2.804   5.352   3.667
10270SOL    HW231710   2.741   5.482   3.742
10271SOL     OW31711   4.024   2.896   0.401
10271SOL    HW131712   4.013   2.995   0.407
10271SOL    HW231713   4.095   2.866   0.464
10272SOL     OW31714   0.436   0.097   4.890
10272SOL    HW131715   0.357   0.119   4.947
10272SOL    HW231716   0.501   0.042   4.943
10273SOL     OW31717   4.250   5.141   3.615
10273SOL    HW131718   4.261   5.045   3.638
10273SOL    HW231719   4.263   5.197   3.697
10274SOL     OW31720   0.743   4.200   4.814
10274SOL    HW131721   0.704   4.256   4.741
10274SOL    HW231722   0.770   4.111   4.777
10275SOL     OW31723   0.760   6.288   2.188
10275SOL    HW131724   0.696   6.360   2.216
10275SOL    HW231725   0.763   6.283   2.088
10276SOL     OW31726   6.257   5.882   5.646
10276SOL    HW131727   6.273   5.785   5.626
10276SOL    HW231728   6.343   5.933   5.638
10277SOL     OW31729   2.700   5.491   4.148
10277SOL    HW131730   2.705   5.445   4.237
10277SOL    HW231731   2.680   5.424   4.077
10278SOL     OW31732   5.967   1.563   4.709
10278SOL    HW131733   5.869   1.542   4.705
10278SOL    HW231734   6.019   1.490   4.665
10279SOL     OW31735   2.395   5.749   4.502
10279SOL    HW131736   2.451   5.674   4.538
10279SOL    HW231737   2.397   5.826   4.565
10280SOL     OW31738   1.490   3.466   1.026
10280SOL    HW131739   1.567   3.508   0.979
10280SOL    HW231740   1.520   3.433   1.116
10281SOL     OW31741   6.350   1.613   2.774
10281SOL    HW131742   6.442   1.629   2.811
10281SOL    HW231743   6.295   1.563   2.840
10282SOL     OW31744   6.140   4.133   4.136
10282SOL    HW131745   6.159   4.198   4.209
10282SOL    HW231746   6.061   4.165   4.083
10283SOL     OW31747   0.883   3.542   0.422
10283SOL    HW131748   0.832   3.475   0.368
10283SOL    HW231749   0.862   3.529   0.519
10284SOL     OW31750   5.557   3.789   5.203
10284SOL    HW131751   5.527   3.694   5.200
10284SOL    HW231752   5.523   3.832   5.288
10285SOL     OW31753   4.752   1.346   1.346
10285SOL    HW131754   4.829   1.330   1.407
10285SOL    HW231755   4.782   1.401   1.268
10286SOL     OW31756   3.196   2.060   3.834
10286SOL    HW131757   3.185   1.968   3.796
10286SOL    HW231758   3.124   2.077   3.902
10287SOL     OW31759   2.417   6.209   1.664
10287SOL    HW131760   2.445   6.303   1.642
10287SOL    HW231761   2.440   6.190   1.759
10288SOL     OW31762   5.201   6.260   2.263
10288SOL    HW131763   5.257   6.178   2.253
10288SOL    HW231764   5.225   6.307   2.348
10289SOL     OW31765   3.095   1.007   2.136
10289SOL    HW131766   3.158   0.990   2.211
10289SOL    HW231767   3.028   0.933   2.131
10290SOL     OW31768   3.363   4.017   1.897
10290SOL    HW131769   3.407   4.074   1.966
10290SOL    HW231770   3.297   3.956   1.941
10291SOL     OW31771   4.260   1.411   4.059
10291SOL    HW131772   4.250   1.318   4.094
10291SOL    HW231773   4.338   1.455   4.103
10292SOL     OW31774   1.877   0.482   4.841
10292SOL    HW131775   1.806   0.463   4.774
10292SOL    HW231776   1.914   0.397   4.876
10293SOL     OW31777   2.243   5.871   4.064
10293SOL    HW131778   2.203   5.780   4.076
10293SOL    HW231779   2.181   5.940   4.099
10294SOL     OW31780   4.741   4.261   2.676
10294SOL    HW131781   4.819   4.199   2.688
10294SOL    HW231782   4.723   4.272   2.578
10295SOL     OW31783   6.237   5.325   5.793
10295SOL    HW131784   6.189   5.394   5.848
10295SOL    HW231785   6.256   5.245   5.850
10296SOL     OW31786   4.467   3.281   6.846
10296SOL    HW131787   4.462   3.336   6.930
10296SOL    HW231788   4.555   3.234   6.843
10297SOL     OW31789   1.802   6.607   5.554
10297SOL    HW131790   1.743   6.566   5.623
10297SOL    HW231791   1.827   6.700   5.583
10298SOL     OW31792   3.765   5.140   2.102
10298SOL    HW131793   3.834   5.145   2.030
10298SOL    HW231794   3.762   5.047   2.138
10299SOL     OW31795   4.849   4.935   2.817
10299SOL    HW131796   4.773   4.921   2.881
10299SOL    HW231797   4.813   4.943   2.724
10300SOL     OW31798   1.795   4.985   3.164
10300SOL    HW131799   1.752   4.949   3.247
10300SOL    HW231800   1.892   4.962   3.164
10301SOL     OW31801   6.276   2.457   3.361
10301SOL    HW131802   6.185   2.447   3.400
10301SOL    HW231803   6.307   2.369   3.324
10302SOL     OW31804   0.487   5.986   3.872
10302SOL    HW131805   0.553   5.927   3.825
10302SOL    HW231806   0.528   6.024   3.955
10303SOL     OW31807   2.372   5.340   1.575
10303SOL    HW131808   2.420   5.262   1.537
10303SOL    HW231809   2.340   5.399   1.501
10304SOL     OW31810   5.435   0.751   2.668
10304SOL    HW131811   5.527   0.713   2.675
10304SOL    HW231812   5.373   0.682   2.631
10305SOL     OW31813   0.613   5.052   6.936
10305SOL    HW131814   0.612   4.958   6.969
10305SOL    HW231815   0.538   5.103   6.978
10306SOL     OW31816   4.345   6.420   0.082
10306SOL    HW131817   4.412   6.492   0.100
10306SOL    HW231818   4.253   6.460   0.077
10307SOL     OW31819   2.089   2.034   4.357
10307SOL    HW131820   2.169   2.001   4.305
10307SOL    HW231821   2.120   2.070   4.445
10308SOL     OW31822   2.628   5.047   3.989
10308SOL    HW131823   2.721   5.035   4.025
10308SOL    HW231824   2.607   5.144   3.982
10309SOL     OW31825   6.113   1.068   3.481
10309SOL    HW131826   6.213   1.056   3.485
10309SOL    HW231827   6.068   0.986   3.517
10310SOL     OW31828   4.383   2.598   1.699
10310SOL    HW131829   4.412   2.607   1.603
10310SOL    HW231830   4.320   2.521   1.708
10311SOL     OW31831   0.577   5.626   1.436
10311SOL    HW131832   0.540   5.712   1.471
10311SOL    HW231833   0.529   5.549   1.478
10312SOL     OW31834   2.298   5.952   0.749
10312SOL    HW131835   2.393   5.974   0.724
10312SOL    HW231836   2.247   6.036   0.763
10313SOL     OW31837   3.847   6.948   1.374
10313SOL    HW131838   3.868   6.873   1.311
10313SOL    HW231839   3.772   7.002   1.337
10314SOL     OW31840   6.926   0.384   1.591
10314SOL    HW131841   6.839   0.336   1.602
10314SOL    HW231842   6.936   0.413   1.496
10315SOL     OW31843   6.063   5.522   4.551
10315SOL    HW131844   6.077   5.504   4.453
10315SOL    HW231845   6.025   5.614   4.562
10316SOL     OW31846   6.016   2.482   4.735
10316SOL    HW131847   6.059   2.512   4.650
10316SOL    HW231848   6.083   2.435   4.791
10317SOL     OW31849   3.489   5.979   6.240
10317SOL    HW131850   3.398   6.020   6.229
10317SOL    HW231851   3.485   5.906   6.308
10318SOL     OW31852   4.766   6.149   0.313
10318SOL    HW131853   4.766   6.051   0.296
10318SOL    HW231854   4.675   6.186   0.295
10319SOL     OW31855   1.748   2.944   5.558
10319SOL    HW131856   1.664   2.904   5.520
10319SOL    HW231857   1.727   2.989   5.645
10320SOL     OW31858   0.603   0.808   1.027
10320SOL    HW131859   0.585   0.719   1.068
10320SOL    HW231860   0.668   0.859   1.083
10321SOL     OW31861   3.998   0.473   3.787
10321SOL    HW131862   3.923   0.427   3.740
10321SOL    HW231863   3.973   0.568   3.804
10322SOL     OW31864   6.274   5.590   6.485
10322SOL    HW131865   6.219   5.591   6.402
10322SOL    HW231866   6.296   5.684   6.511
10323SOL     OW31867   6.428   3.765   5.896
10323SOL    HW131868   6.385   3.686   5.852
10323SOL    HW231869   6.435   3.748   5.995
10324SOL     OW31870   3.183   3.099   3.186
10324SOL    HW131871   3.138   3.157   3.254
10324SOL    HW231872   3.241   3.032   3.232
10325SOL     OW31873   6.677   4.383   2.950
10325SOL    HW131874   6.620   4.307   2.983
10325SOL    HW231875   6.706   4.439   3.028
10326SOL     OW31876   4.043   3.041   0.061
10326SOL    HW131877   4.123   3.020   0.118
10326SOL    HW231878   4.073   3.068   6.986
10327SOL     OW31879   2.622   1.482   1.838
10327SOL    HW131880   2.650   1.553   1.903
10327SOL    HW231881   2.697   1.463   1.775
10328SOL     OW31882   6.520   3.194   1.627
10328SOL    HW131883   6.562   3.265   1.571
10328SOL    HW231884   6.546   3.208   1.723
10329SOL     OW31885   3.730   0.300   3.910
10329SOL    HW131886   3.688   0.389   3.895
10329SOL    HW231887   3.775   0.269   3.826
10330SOL     OW31888   2.976   5.407   2.856
10330SOL    HW131889   2.882   5.377   2.875
10330SOL    HW231890   2.980   5.506   2.859
10331SOL     OW31891   6.592   0.394   3.392
10331SOL    HW131892   6.506   0.435   3.360
10331SOL    HW231893   6.667   0.459   3.379
10332SOL     OW31894   5.901   2.049   0.549
10332SOL    HW131895   5.950   1.966   0.575
10332SOL    HW231896   5.911   2.065   0.451
10333SOL     OW31897   6.527   4.172   4.383
10333SOL    HW131898   6.572   4.189   4.296
10333SOL    HW231899   6.540   4.076   4.410
10334SOL     OW31900   2.081   5.636   3.996
10334SOL    HW131901   2.011   5.706   4.011
10334SOL    HW231902   2.080   5.571   4.073
10335SOL     OW31903   2.220   4.992   6.887
10335SOL    HW131904   2.234   5.079   6.933
10335SOL    HW231905   2.149   4.939   6.935
10336SOL     OW31906   5.910   6.290   3.253
10336SOL    HW131907   5.899   6.376   3.201
10336SOL    HW231908   6.005   6.282   3.282
10337SOL     OW31909   6.498   6.694   5.166
10337SOL    HW131910   6.430   6.766   5.177
10337SOL    HW231911   6.561   6.719   5.093
10338SOL     OW31912   3.023   6.674   1.743
10338SOL    HW131913   3.027   6.771   1.766
10338SOL    HW231914   3.021   6.663   1.644
10339SOL     OW31915   3.564   4.994   0.591
10339SOL    HW131916   3.657   5.018   0.619
10339SOL    HW231917   3.520   4.939   0.662
10340SOL     OW31918   1.542   5.120   0.159
10340SOL    HW131919   1.502   5.141   0.069
10340SOL    HW231920   1.533   5.199   0.219
10341SOL     OW31921   2.214   3.386   1.640
10341SOL    HW131922   2.148   3.458   1.663
10341SOL    HW231923   2.285   3.382   1.710
10342SOL     OW31924   2.406   5.675   5.360
10342SOL    HW131925   2.463   5.754   5.383
10342SOL    HW231926   2.313   5.705   5.341
10343SOL     OW31927   2.484   3.908   0.154
10343SOL    HW131928   2.443   3.998   0.166
10343SOL    HW231929   2.419   3.847   0.108
10344SOL     OW31930   4.046   3.834   2.318
10344SOL    HW131931   4.084   3.852   2.228
10344SOL    HW231932   3.977   3.904   2.340
10345SOL     OW31933   1.798   0.550   5.963
10345SOL    HW131934   1.839   0.461   5.982
10345SOL    HW231935   1.844   0.620   6.019
10346SOL     OW31936   6.263   1.088   1.026
10346SOL    HW131937   6.346   1.131   0.992
10346SOL    HW231938   6.187   1.107   0.964
10347SOL     OW31939   5.476   2.397   1.768
10347SOL    HW131940   5.526   2.328   1.820
10347SOL    HW231941   5.509   2.488   1.793
10348SOL     OW31942   6.533   1.368   6.596
10348SOL    HW131943   6.493   1.331   6.679
10348SOL    HW231944   6.600   1.439   6.620
10349SOL     OW31945   6.680   1.624   6.945
10349SOL    HW131946   6.683   1.689   0.005
10349SOL    HW231947   6.721   1.665   6.864
10350SOL     OW31948   2.858   6.394   4.969
10350SOL    HW131949   2.903   6.482   4.954
10350SOL    HW231950   2.760   6.404   4.954
10351SOL     OW31951   6.322   5.108   5.898
10351SOL    HW131952   6.260   5.057   5.958
10351SOL    HW231953   6.355   5.047   5.826
10352SOL     OW31954   5.333   1.945   6.564
10352SOL    HW131955   5.326   1.976   6.469
10352SOL    HW231956   5.385   2.013   6.617
10353SOL     OW31957   6.880   3.005   4.410
10353SOL    HW131958   6.943   3.064   4.358
10353SOL    HW231959   6.842   2.936   4.348
10354SOL     OW31960   0.895   2.824   1.207
10354SOL    HW131961   0.799   2.845   1.226
10354SOL    HW231962   0.912   2.727   1.226
10355SOL     OW31963   1.291   0.849   0.830
10355SOL    HW131964   1.298   0.757   0.868
10355SOL    HW231965   1.352   0.858   0.751
10356SOL     OW31966   6.838   3.599   5.798
10356SOL    HW131967   6.787   3.617   5.713
10356SOL    HW231968   6.935   3.619   5.783
10357SOL     OW31969   3.828   2.408   5.739
10357SOL    HW131970   3.893   2.334   5.726
10357SOL    HW231971   3.768   2.414   5.660
10358SOL     OW31972   0.842   3.184   3.949
10358SOL    HW131973   0.745   3.205   3.941
10358SOL    HW231974   0.875   3.213   4.039
10359SOL     OW31975   5.080   2.090   1.983
10359SOL    HW131976   5.129   2.008   1.953
10359SOL    HW231977   5.125   2.171   1.947
10360SOL     OW31978   5.457   6.064   2.216
10360SOL    HW131979   5.463   5.977   2.168
10360SOL    HW231980   5.439   6.047   2.313
10361SOL     OW31981   2.643   1.251   2.599
10361SOL    HW131982   2.688   1.211   2.519
10361SOL    HW231983   2.544   1.246   2.588
10362SOL     OW31984   0.600   5.228   3.014
10362SOL    HW131985   0.628   5.318   2.981
10362SOL    HW231986   0.501   5.229   3.032
10363SOL     OW31987   5.400   2.437   1.369
10363SOL    HW131988   5.387   2.365   1.301
10363SOL    HW231989   5.461   2.404   1.442
10364SOL     OW31990   4.867   4.274   1.590
10364SOL    HW131991   4.892   4.343   1.522
10364SOL    HW231992   4.777   4.235   1.566
10365SOL     OW31993   5.900   4.675   0.129
10365SOL    HW131994   5.804   4.665   0.104
10365SOL    HW231995   5.947   4.731   0.061
10366SOL     OW31996   3.240   6.782   3.539
10366SOL    HW131997   3.224   6.752   3.633
10366SOL    HW231998   3.251   6.702   3.480
10367SOL     OW31999   0.163   2.001   1.321
10367SOL    HW132000   0.168   2.071   1.394
10367SOL    HW232001   0.099   1.929   1.349
10368SOL     OW32002   2.449   1.068   2.252
10368SOL    HW132003   2.450   1.009   2.333
10368SOL    HW232004   2.365   1.122   2.250
10369SOL     OW32005   2.686   6.744   5.923
10369SOL    HW132006   2.766   6.695   5.890
10369SOL    HW232007   2.632   6.776   5.845
10370SOL     OW32008   6.446   1.510   5.396
10370SOL    HW132009   6.544   1.520   5.412
10370SOL    HW232010   6.402   1.601   5.400
10371SOL     OW32011   2.313   6.704   4.492
10371SOL    HW132012   2.406   6.724   4.462
10371SOL    HW232013   2.252   6.779   4.466
10372SOL     OW32014   2.499   0.810   0.701
10372SOL    HW132015   2.474   0.786   0.607
10372SOL    HW232016   2.420   0.798   0.761
10373SOL     OW32017   1.056   6.901   4.856
10373SOL    HW132018   0.982   6.899   4.923
10373SOL    HW232019   1.139   6.936   4.899
10374SOL     OW32020   3.337   0.396   3.921
10374SOL    HW132021   3.380   0.319   3.969
10374SOL    HW232022   3.408   0.451   3.877
10375SOL     OW32023   2.667   2.068   5.873
10375SOL    HW132024   2.657   2.083   5.775
10375SOL    HW232025   2.725   2.140   5.912
10376SOL     OW32026   1.101   6.216   4.471
10376SOL    HW132027   1.005   6.188   4.467
10376SOL    HW232028   1.108   6.306   4.512
10377SOL     OW32029   0.428   1.218   2.082
10377SOL    HW132030   0.377   1.305   2.079
10377SOL    HW232031   0.400   1.167   2.163
10378SOL     OW32032   6.049   5.884   5.401
10378SOL    HW132033   6.126   5.947   5.386
10378SOL    HW232034   5.973   5.934   5.442
10379SOL     OW32035   3.546   5.644   4.711
10379SOL    HW132036   3.570   5.741   4.718
10379SOL    HW232037   3.487   5.630   4.631
10380SOL     OW32038   1.145   2.612   4.621
10380SOL    HW132039   1.211   2.632   4.548
10380SOL    HW232040   1.052   2.625   4.586
10381SOL     OW32041   4.402   3.916   1.383
10381SOL    HW132042   4.355   3.876   1.461
10381SOL    HW232043   4.409   3.848   1.310
10382SOL     OW32044   2.849   5.926   1.620
10382SOL    HW132045   2.766   5.921   1.564
10382SOL    HW232046   2.827   5.896   1.713
10383SOL     OW32047   0.994   4.153   0.776
10383SOL    HW132048   1.072   4.104   0.814
10383SOL    HW232049   1.023   4.204   0.695
10384SOL     OW32050   6.749   6.619   0.564
10384SOL    HW132051   6.802   6.678   0.503
10384SOL    HW232052   6.811   6.571   0.626
10385SOL     OW32053   4.242   5.910   6.345
10385SOL    HW132054   4.259   5.816   6.316
10385SOL    HW232055   4.157   5.915   6.396
10386SOL     OW32056   0.378   1.080   5.980
10386SOL    HW132057   0.452   1.048   6.040
10386SOL    HW232058   0.352   1.007   5.918
10387SOL     OW32059   4.972   2.993   2.890
10387SOL    HW132060   5.067   3.013   2.864
10387SOL    HW232061   4.946   3.052   2.967
10388SOL     OW32062   1.046   5.529   1.942
10388SOL    HW132063   1.094   5.579   1.870
10388SOL    HW232064   1.071   5.566   2.031
10389SOL     OW32065   6.330   3.931   1.224
10389SOL    HW132066   6.375   3.879   1.297
10389SOL    HW232067   6.395   3.998   1.187
10390SOL     OW32068   1.969   3.124   0.179
10390SOL    HW132069   2.014   3.122   0.269
10390SOL    HW232070   1.900   3.053   0.176
10391SOL     OW32071   0.341   6.027   4.257
10391SOL    HW132072   0.349   6.127   4.252
10391SOL    HW232073   0.373   5.995   4.346
10392SOL     OW32074   5.960   4.868   5.850
10392SOL    HW132075   5.922   4.926   5.922
10392SOL    HW232076   6.008   4.790   5.891
10393SOL     OW32077   2.194   2.988   2.907
10393SOL    HW132078   2.177   3.061   2.841
10393SOL    HW232079   2.211   3.027   2.997
10394SOL     OW32080   2.832   5.399   5.545
10394SOL    HW132081   2.794   5.322   5.597
10394SOL    HW232082   2.913   5.434   5.593
10395SOL     OW32083   0.125   0.520   1.683
10395SOL    HW132084   0.194   0.505   1.612
10395SOL    HW232085   0.040   0.473   1.658
10396SOL     OW32086   3.760   1.437   3.884
10396SOL    HW132087   3.821   1.501   3.930
10396SOL    HW232088   3.718   1.376   3.952
10397SOL     OW32089   3.826   1.012   4.415
10397SOL    HW132090   3.895   1.074   4.452
10397SOL    HW232091   3.833   0.923   4.461
10398SOL     OW32092   5.823   2.558   0.754
10398SOL    HW132093   5.821   2.536   0.851
10398SOL    HW232094   5.730   2.566   0.719
10399SOL     OW32095   4.642   1.925   3.168
10399SOL    HW132096   4.561   1.917   3.227
10399SOL    HW232097   4.612   1.941   3.074
10400SOL     OW32098   4.508   5.811   6.907
10400SOL    HW132099   4.520   5.903   6.870
10400SOL    HW232100   4.476   5.816   7.001
10401SOL     OW32101   0.153   6.292   2.790
10401SOL    HW132102   0.245   6.253   2.786
10401SOL    HW232103   0.154   6.383   2.747
10402SOL     OW32104   0.057   1.751   5.672
10402SOL    HW132105   0.140   1.712   5.712
10402SOL    HW232106   0.028   1.696   5.594
10403SOL     OW32107   4.657   2.646   2.951
10403SOL    HW132108   4.641   2.714   3.023
10403SOL    HW232109   4.731   2.677   2.891
10404SOL     OW32110   5.970   6.331   4.154
10404SOL    HW132111   5.959   6.278   4.237
10404SOL    HW232112   6.026   6.280   4.089
10405SOL     OW32113   1.282   6.361   4.747
10405SOL    HW132114   1.343   6.310   4.807
10405SOL    HW232115   1.325   6.375   4.658
10406SOL     OW32116   2.134   3.142   3.666
10406SOL    HW132117   2.199   3.066   3.659
10406SOL    HW232118   2.125   3.170   3.762
10407SOL     OW32119   2.732   6.508   6.417
10407SOL    HW132120   2.767   6.574   6.351
10407SOL    HW232121   2.648   6.543   6.458
10408SOL     OW32122   4.902   0.486   1.008
10408SOL    HW132123   4.960   0.559   0.972
10408SOL    HW232124   4.866   0.432   0.932
10409SOL     OW32125   6.629   4.936   0.958
10409SOL    HW132126   6.707   4.958   1.016
10409SOL    HW232127   6.634   4.840   0.930
10410SOL     OW32128   4.974   1.859   1.738
10410SOL    HW132129   4.974   1.840   1.639
10410SOL    HW232130   5.068   1.871   1.769
10411SOL     OW32131   3.015   6.331   3.821
10411SOL    HW132132   2.997   6.245   3.774
10411SOL    HW232133   2.935   6.356   3.875
10412SOL     OW32134   0.319   1.355   0.551
10412SOL    HW132135   0.288   1.376   0.458
10412SOL    HW232136   0.304   1.258   0.570
10413SOL     OW32137   6.751   2.765   0.753
10413SOL    HW132138   6.826   2.737   0.693
10413SOL    HW232139   6.788   2.787   0.844
10414SOL     OW32140   3.758   5.245   5.482
10414SOL    HW132141   3.781   5.237   5.385
10414SOL    HW232142   3.664   5.216   5.497
10415SOL     OW32143   1.097   3.851   4.684
10415SOL    HW132144   1.112   3.791   4.763
10415SOL    HW232145   1.069   3.796   4.605
10416SOL     OW32146   5.586   0.070   5.396
10416SOL    HW132147   5.676   0.114   5.387
10416SOL    HW232148   5.594   7.006   5.455
10417SOL     OW32149   3.311   4.881   3.940
10417SOL    HW132150   3.325   4.785   3.962
10417SOL    HW232151   3.324   4.937   4.023
10418SOL     OW32152   6.288   4.027   5.878
10418SOL    HW132153   6.262   4.045   5.972
10418SOL    HW232154   6.311   3.931   5.867
10419SOL     OW32155   3.361   6.565   6.186
10419SOL    HW132156   3.354   6.577   6.285
10419SOL    HW232157   3.456   6.549   6.161
10420SOL     OW32158   0.123   3.581   4.109
10420SOL    HW132159   0.171   3.522   4.044
10420SOL    HW232160   0.149   3.557   4.202
10421SOL     OW32161   1.468   2.673   4.004
10421SOL    HW132162   1.461   2.585   3.957
10421SOL    HW232163   1.516   2.738   3.946
10422SOL     OW32164   6.052   3.030   5.076
10422SOL    HW132165   5.954   3.044   5.065
10422SOL    HW232166   6.095   3.023   4.986
10423SOL     OW32167   5.592   5.246   5.468
10423SOL    HW132168   5.576   5.149   5.448
10423SOL    HW232169   5.674   5.277   5.421
10424SOL     OW32170   4.236   3.404   1.253
10424SOL    HW132171   4.150   3.354   1.248
10424SOL    HW232172   4.307   3.346   1.293
10425SOL     OW32173   1.331   6.810   2.023
10425SOL    HW132174   1.258   6.751   1.990
10425SOL    HW232175   1.333   6.809   2.123
10426SOL     OW32176   4.914   4.947   0.177
10426SOL    HW132177   5.011   4.962   0.195
10426SOL    HW232178   4.903   4.875   0.110
10427SOL     OW32179   4.054   1.026   6.983
10427SOL    HW132180   3.990   1.061   6.915
10427SOL    HW232181   4.073   1.096   0.035
10428SOL     OW32182   3.652   0.923   3.659
10428SOL    HW132183   3.643   0.948   3.562
10428SOL    HW232184   3.717   0.848   3.668
10429SOL     OW32185   6.907   4.114   1.699
10429SOL    HW132186   6.981   4.050   1.723
10429SOL    HW232187   6.851   4.075   1.626
10430SOL     OW32188   4.963   0.115   4.869
10430SOL    HW132189   4.911   0.091   4.787
10430SOL    HW232190   5.015   0.035   4.900
10431SOL     OW32191   2.772   6.247   4.534
10431SOL    HW132192   2.707   6.175   4.512
10431SOL    HW232193   2.730   6.336   4.516
10432SOL     OW32194   5.700   0.379   4.710
10432SOL    HW132195   5.743   0.462   4.744
10432SOL    HW232196   5.735   0.358   4.619
10433SOL     OW32197   0.861   6.002   2.465
10433SOL    HW132198   0.818   5.930   2.519
10433SOL    HW232199   0.848   5.983   2.368
10434SOL     OW32200   3.808   5.891   2.714
10434SOL    HW132201   3.823   5.823   2.642
10434SOL    HW232202   3.750   5.852   2.786
10435SOL     OW32203   0.696   0.995   5.551
10435SOL    HW132204   0.775   1.010   5.610
10435SOL    HW232205   0.727   0.975   5.458
10436SOL     OW32206   6.140   4.531   5.727
10436SOL    HW132207   6.161   4.618   5.772
10436SOL    HW232208   6.200   4.460   5.762
10437SOL     OW32209   4.311   4.064   6.111
10437SOL    HW132210   4.353   3.986   6.065
10437SOL    HW232211   4.376   4.104   6.174
10438SOL     OW32212   6.415   6.514   6.929
10438SOL    HW132213   6.465   6.453   6.868
10438SOL    HW232214   6.331   6.469   6.960
10439SOL     OW32215   3.958   1.261   4.714
10439SOL    HW132216   3.904   1.210   4.781
10439SOL    HW232217   3.896   1.310   4.652
10440SOL     OW32218   1.450   6.460   0.750
10440SOL    HW132219   1.466   6.530   0.680
10440SOL    HW232220   1.352   6.452   0.768
10441SOL     OW32221   4.043   1.505   1.392
10441SOL    HW132222   4.087   1.536   1.308
10441SOL    HW232223   4.111   1.494   1.464
10442SOL     OW32224   3.939   6.405   6.789
10442SOL    HW132225   4.004   6.481   6.777
10442SOL    HW232226   3.964   6.330   6.729
10443SOL     OW32227   4.966   3.786   3.931
10443SOL    HW132228   4.971   3.687   3.940
10443SOL    HW232229   5.058   3.824   3.926
10444SOL     OW32230   4.504   5.645   3.980
10444SOL    HW132231   4.461   5.616   3.895
10444SOL    HW232232   4.433   5.679   4.043
10445SOL     OW32233   0.945   4.650   4.246
10445SOL    HW132234   0.968   4.555   4.226
10445SOL    HW232235   0.995   4.710   4.184
10446SOL     OW32236   1.511   3.235   5.678
10446SOL    HW132237   1.588   3.175   5.695
10446SOL    HW232238   1.427   3.181   5.674
10447SOL     OW32239   0.086   1.462   2.363
10447SOL    HW132240   0.084   1.362   2.354
10447SOL    HW232241   0.145   1.501   2.293
10448SOL     OW32242   4.534   0.368   2.471
10448SOL    HW132243   4.505   0.319   2.553
10448SOL    HW232244   4.480   0.451   2.460
10449SOL     OW32245   2.028   5.484   4.856
10449SOL    HW132246   2.093   5.493   4.780
10449SOL    HW232247   2.074   5.509   4.941
10450SOL     OW32248   0.850   1.299   0.751
10450SOL    HW132249   0.768   1.295   0.693
10450SOL    HW232250   0.852   1.219   0.811
10451SOL     OW32251   2.150   5.614   2.579
10451SOL    HW132252   2.117   5.536   2.632
10451SOL    HW232253   2.075   5.678   2.563
10452SOL     OW32254   6.647   3.193   2.163
10452SOL    HW132255   6.548   3.183   2.166
10452SOL    HW232256   6.690   3.102   2.157
10453SOL     OW32257   3.863   6.725   1.233
10453SOL    HW132258   3.857   6.633   1.272
10453SOL    HW232259   3.833   6.722   1.138
10454SOL     OW32260   4.692   3.503   0.740
10454SOL    HW132261   4.699   3.573   0.669
10454SOL    HW232262   4.624   3.435   0.713
10455SOL     OW32263   6.365   6.046   3.495
10455SOL    HW132264   6.426   6.126   3.498
10455SOL    HW232265   6.343   6.025   3.400
10456SOL     OW32266   2.133   6.007   0.500
10456SOL    HW132267   2.229   6.021   0.524
10456SOL    HW232268   2.081   5.986   0.583
10457SOL     OW32269   3.505   3.190   1.540
10457SOL    HW132270   3.435   3.261   1.550
10457SOL    HW232271   3.462   3.100   1.547
10458SOL     OW32272   6.107   0.825   6.643
10458SOL    HW132273   6.186   0.883   6.663
10458SOL    HW232274   6.065   0.796   6.729
10459SOL     OW32275   5.039   5.755   1.540
10459SOL    HW132276   4.967   5.690   1.566
10459SOL    HW232277   5.117   5.745   1.602
10460SOL     OW32278   0.680   4.367   2.485
10460SOL    HW132279   0.658   4.461   2.513
10460SOL    HW232280   0.683   4.308   2.565
10461SOL     OW32281   6.863   5.071   5.943
10461SOL    HW132282   6.769   5.069   5.909
10461SOL    HW232283   6.926   5.087   5.867
10462SOL     OW32284   5.823   1.577   3.399
10462SOL    HW132285   5.870   1.543   3.318
10462SOL    HW232286   5.877   1.554   3.481
10463SOL     OW32287   4.176   3.176   5.884
10463SOL    HW132288   4.205   3.270   5.866
10463SOL    HW232289   4.088   3.160   5.839
10464SOL     OW32290   6.521   0.129   1.359
10464SOL    HW132291   6.466   0.140   1.442
10464SOL    HW232292   6.600   0.070   1.378
10465SOL     OW32293   6.504   5.363   0.888
10465SOL    HW132294   6.503   5.275   0.841
10465SOL    HW232295   6.412   5.383   0.922
10466SOL     OW32296   4.281   5.092   6.058
10466SOL    HW132297   4.185   5.075   6.036
10466SOL    HW232298   4.337   5.017   6.023
10467SOL     OW32299   2.738   1.406   6.532
10467SOL    HW132300   2.811   1.475   6.532
10467SOL    HW232301   2.757   1.337   6.602
10468SOL     OW32302   3.979   5.241   3.342
10468SOL    HW132303   4.033   5.325   3.348
10468SOL    HW232304   4.000   5.182   3.419
10469SOL     OW32305   4.204   4.330   5.525
10469SOL    HW132306   4.139   4.405   5.538
10469SOL    HW232307   4.153   4.244   5.515
10470SOL     OW32308   2.416   2.553   3.728
10470SOL    HW132309   2.445   2.604   3.646
10470SOL    HW232310   2.425   2.455   3.711
10471SOL     OW32311   2.743   2.141   1.237
10471SOL    HW132312   2.767   2.071   1.305
10471SOL    HW232313   2.726   2.228   1.283
10472SOL     OW32314   4.109   5.478   0.239
10472SOL    HW132315   4.159   5.427   0.168
10472SOL    HW232316   4.011   5.469   0.222
10473SOL     OW32317   6.707   0.349   6.388
10473SOL    HW132318   6.745   0.412   6.456
10473SOL    HW232319   6.775   0.279   6.366
10474SOL     OW32320   3.869   2.144   4.651
10474SOL    HW132321   3.967   2.166   4.652
10474SOL    HW232322   3.832   2.153   4.743
10475SOL     OW32323   4.321   6.531   1.622
10475SOL    HW132324   4.298   6.445   1.577
10475SOL    HW232325   4.418   6.550   1.610
10476SOL     OW32326   0.115   5.938   0.196
10476SOL    HW132327   0.070   5.883   0.126
10476SOL    HW232328   0.160   5.878   0.262
10477SOL     OW32329   6.871   1.801   4.304
10477SOL    HW132330   6.888   1.878   4.242
10477SOL    HW232331   6.810   1.736   4.259
10478SOL     OW32332   0.019   0.484   1.340
10478SOL    HW132333   0.063   0.397   1.361
10478SOL    HW232334   7.013   0.489   1.243
10479SOL     OW32335   0.238   2.680   1.826
10479SOL    HW132336   0.154   2.654   1.779
10479SOL    HW232337   0.236   2.778   1.846
10480SOL     OW32338   6.707   6.995   1.548
10480SOL    HW132339   6.651   6.913   1.534
10480SOL    HW232340   6.773   7.002   1.473
10481SOL     OW32341   2.268   0.110   4.719
10481SOL    HW132342   2.351   0.162   4.738
10481SOL    HW232343   2.238   0.063   4.802
10482SOL     OW32344   6.195   5.287   4.782
10482SOL    HW132345   6.271   5.299   4.718
10482SOL    HW232346   6.141   5.208   4.754
10483SOL     OW32347   6.673   4.668   0.107
10483SOL    HW132348   6.728   4.738   0.063
10483SOL    HW232349   6.658   4.592   0.044
10484SOL     OW32350   6.010   1.116   1.724
10484SOL    HW132351   5.924   1.162   1.704
10484SOL    HW232352   6.049   1.080   1.639
10485SOL     OW32353   3.312   3.860   1.382
10485SOL    HW132354   3.397   3.882   1.333
10485SOL    HW232355   3.312   3.907   1.470
10486SOL     OW32356   6.499   0.528   6.687
10486SOL    HW132357   6.468   0.442   6.727
10486SOL    HW232358   6.440   0.552   6.610
10487SOL     OW32359   4.768   1.589   2.501
10487SOL    HW132360   4.850   1.646   2.499
10487SOL    HW232361   4.731   1.580   2.409
10488SOL     OW32362   2.885   2.008   5.402
10488SOL    HW132363   2.972   2.011   5.450
10488SOL    HW232364   2.878   1.922   5.351
10489SOL     OW32365   6.483   0.018   4.416
10489SOL    HW132366   6.403   0.030   4.357
10489SOL    HW232367   6.491   0.097   4.477
10490SOL     OW32368   6.332   1.761   0.637
10490SOL    HW132369   6.244   1.807   0.629
10490SOL    HW232370   6.401   1.825   0.671
10491SOL     OW32371   2.683   2.112   5.590
10491SOL    HW132372   2.614   2.063   5.536
10491SOL    HW232373   2.769   2.115   5.539
10492SOL     OW32374   5.381   5.651   0.661
10492SOL    HW132375   5.459   5.710   0.678
10492SOL    HW232376   5.300   5.688   0.707
10493SOL     OW32377   2.997   6.715   2.072
10493SOL    HW132378   2.957   6.664   1.996
10493SOL    HW232379   2.997   6.813   2.050
10494SOL     OW32380   5.429   4.427   6.416
10494SOL    HW132381   5.433   4.527   6.408
10494SOL    HW232382   5.517   4.393   6.450
10495SOL     OW32383   0.913   6.426   1.132
10495SOL    HW132384   0.814   6.427   1.146
10495SOL    HW232385   0.958   6.475   1.206
10496SOL     OW32386   5.866   4.167   6.134
10496SOL    HW132387   5.821   4.245   6.090
10496SOL    HW232388   5.846   4.083   6.083
10497SOL     OW32389   1.773   6.946   2.256
10497SOL    HW132390   1.730   6.909   2.174
10497SOL    HW232391   1.705   6.952   2.329
10498SOL     OW32392   5.248   5.227   0.613
10498SOL    HW132393   5.241   5.148   0.553
10498SOL    HW232394   5.244   5.311   0.559
10499SOL     OW32395   4.880   0.103   2.459
10499SOL    HW132396   4.936   0.104   2.541
10499SOL    HW232397   4.785   0.082   2.483
10500SOL     OW32398   5.950   1.082   5.603
10500SOL    HW132399   6.003   1.034   5.533
10500SOL    HW232400   5.927   1.018   5.677
10501SOL     OW32401   2.289   5.483   2.386
10501SOL    HW132402   2.382   5.519   2.385
10501SOL    HW232403   2.238   5.526   2.461
10502SOL     OW32404   2.680   2.336   1.444
10502SOL    HW132405   2.670   2.431   1.415
10502SOL    HW232406   2.715   2.333   1.537
10503SOL     OW32407   5.019   2.860   1.078
10503SOL    HW132408   5.030   2.892   1.172
10503SOL    HW232409   5.037   2.762   1.073
10504SOL     OW32410   1.430   2.879   5.605
10504SOL    HW132411   1.424   2.800   5.665
10504SOL    HW232412   1.365   2.949   5.636
10505SOL     OW32413   5.612   5.197   0.855
10505SOL    HW132414   5.641   5.112   0.899
10505SOL    HW232415   5.524   5.226   0.893
10506SOL     OW32416   0.311   3.889   6.863
10506SOL    HW132417   0.275   3.866   6.773
10506SOL    HW232418   0.404   3.925   6.854
10507SOL     OW32419   1.772   5.645   0.962
10507SOL    HW132420   1.862   5.666   1.000
10507SOL    HW232421   1.782   5.575   0.891
10508SOL     OW32422   6.848   5.748   4.890
10508SOL    HW132423   6.849   5.648   4.882
10508SOL    HW232424   6.912   5.786   4.823
10509SOL     OW32425   6.704   5.341   5.092
10509SOL    HW132426   6.681   5.272   5.023
10509SOL    HW232427   6.729   5.295   5.178
10510SOL     OW32428   4.685   6.615   0.334
10510SOL    HW132429   4.659   6.601   0.430
10510SOL    HW232430   4.766   6.561   0.313
10511SOL     OW32431   2.447   1.469   2.290
10511SOL    HW132432   2.455   1.506   2.382
10511SOL    HW232433   2.536   1.437   2.259
10512SOL     OW32434   4.156   0.619   5.327
10512SOL    HW132435   4.123   0.710   5.300
10512SOL    HW232436   4.156   0.612   5.427
10513SOL     OW32437   6.476   3.474   3.712
10513SOL    HW132438   6.445   3.567   3.729
10513SOL    HW232439   6.397   3.412   3.712
10514SOL     OW32440   0.750   3.329   0.864
10514SOL    HW132441   0.665   3.302   0.820
10514SOL    HW232442   0.761   3.278   0.949
10515SOL     OW32443   1.317   3.970   4.222
10515SOL    HW132444   1.244   4.012   4.168
10515SOL    HW232445   1.350   4.036   4.289
10516SOL     OW32446   3.020   1.898   0.606
10516SOL    HW132447   3.002   1.898   0.704
10516SOL    HW232448   2.986   1.982   0.565
10517SOL     OW32449   0.703   3.072   0.547
10517SOL    HW132450   0.716   3.008   0.623
10517SOL    HW232451   0.655   3.153   0.581
10518SOL     OW32452   6.687   6.030   0.893
10518SOL    HW132453   6.591   6.059   0.902
10518SOL    HW232454   6.708   5.965   0.966
10519SOL     OW32455   3.028   3.763   0.846
10519SOL    HW132456   3.094   3.839   0.846
10519SOL    HW232457   2.980   3.760   0.933
10520SOL     OW32458   0.945   2.425   5.914
10520SOL    HW132459   1.022   2.378   5.958
10520SOL    HW232460   0.954   2.524   5.928
10521SOL     OW32461   6.406   5.118   1.125
10521SOL    HW132462   6.362   5.028   1.117
10521SOL    HW232463   6.460   5.121   1.209
10522SOL     OW32464   0.315   1.388   4.643
10522SOL    HW132465   0.241   1.421   4.584
10522SOL    HW232466   0.374   1.326   4.592
10523SOL     OW32467   0.812   4.721   2.613
10523SOL    HW132468   0.828   4.656   2.687
10523SOL    HW232469   0.877   4.797   2.620
10524SOL     OW32470   0.455   6.309   4.237
10524SOL    HW132471   0.554   6.298   4.243
10524SOL    HW232472   0.431   6.404   4.258
10525SOL     OW32473   3.833   0.635   5.420
10525SOL    HW132474   3.901   0.684   5.474
10525SOL    HW232475   3.834   0.538   5.445
10526SOL     OW32476   1.054   6.876   2.443
10526SOL    HW132477   1.113   6.951   2.470
10526SOL    HW232478   0.991   6.854   2.517
10527SOL     OW32479   0.945   0.845   5.363
10527SOL    HW132480   0.971   0.933   5.401
10527SOL    HW232481   0.943   0.776   5.435
10528SOL     OW32482   1.407   3.990   6.163
10528SOL    HW132483   1.459   4.076   6.161
10528SOL    HW232484   1.466   3.915   6.132
10529SOL     OW32485   2.517   6.539   4.289
10529SOL    HW132486   2.491   6.465   4.351
10529SOL    HW232487   2.550   6.617   4.343
10530SOL     OW32488   1.567   0.339   6.376
10530SOL    HW132489   1.556   0.416   6.438
10530SOL    HW232490   1.662   0.336   6.343
10531SOL     OW32491   1.716   2.363   4.180
10531SOL    HW132492   1.688   2.373   4.275
10531SOL    HW232493   1.776   2.439   4.155
10532SOL     OW32494   0.605   6.744   6.604
10532SOL    HW132495   0.575   6.822   6.550
10532SOL    HW232496   0.641   6.775   6.692
10533SOL     OW32497   3.123   6.943   3.169
10533SOL    HW132498   3.182   6.917   3.092
10533SOL    HW232499   3.027   6.932   3.142
10534SOL     OW32500   6.031   5.587   2.089
10534SOL    HW132501   6.085   5.541   2.159
10534SOL    HW232502   5.945   5.620   2.128
10535SOL     OW32503   1.767   2.023   2.237
10535SOL    HW132504   1.691   2.024   2.172
10535SOL    HW232505   1.737   2.063   2.324
10536SOL     OW32506   4.651   0.594   4.186
10536SOL    HW132507   4.652   0.564   4.091
10536SOL    HW232508   4.558   0.622   4.211
10537SOL     OW32509   4.334   6.510   4.459
10537SOL    HW132510   4.373   6.476   4.545
10537SOL    HW232511   4.343   6.440   4.388
10538SOL     OW32512   6.649   3.723   1.225
10538SOL    HW132513   6.742   3.689   1.213
10538SOL    HW232514   6.640   3.765   1.315
10539SOL     OW32515   6.893   4.637   0.512
10539SOL    HW132516   6.808   4.619   0.462
10539SOL    HW232517   6.969   4.589   0.468
10540SOL     OW32518   1.769   3.192   5.370
10540SOL    HW132519   1.831   3.121   5.402
10540SOL    HW232520   1.821   3.263   5.323
10541SOL     OW32521   3.645   4.118   1.967
10541SOL    HW132522   3.592   4.110   2.052
10541SOL    HW232523   3.601   4.185   1.907
10542SOL     OW32524   6.963   1.232   5.508
10542SOL    HW132525   6.878   1.229   5.561
10542SOL    HW232526   0.025   1.221   5.570
10543SOL     OW32527   0.506   1.686   4.552
10543SOL    HW132528   0.438   1.753   4.523
10543SOL    HW232529   0.505   1.678   4.652
10544SOL     OW32530   2.493   6.888   1.692
10544SOL    HW132531   2.443   6.854   1.613
10544SOL    HW232532   2.471   6.831   1.772
10545SOL     OW32533   0.566   2.065   1.023
10545SOL    HW132534   0.604   2.017   0.944
10545SOL    HW232535   0.509   2.002   1.076
10546SOL     OW32536   1.952   6.880   0.753
10546SOL    HW132537   1.980   6.798   0.803
10546SOL    HW232538   2.028   6.911   0.695
10547SOL     OW32539   5.060   2.948   3.222
10547SOL    HW132540   4.998   3.018   3.188
10547SOL    HW232541   5.050   2.864   3.168
10548SOL     OW32542   6.257   4.276   4.341
10548SOL    HW132543   6.347   4.256   4.379
10548SOL    HW232544   6.187   4.264   4.412
10549SOL     OW32545   0.655   1.259   1.524
10549SOL    HW132546   0.664   1.172   1.573
10549SOL    HW232547   0.582   1.251   1.456
10550SOL     OW32548   4.975   6.528   3.536
10550SOL    HW132549   5.058   6.582   3.522
10550SOL    HW232550   4.961   6.513   3.634
10551SOL     OW32551   1.999   2.105   6.375
10551SOL    HW132552   2.017   2.047   6.454
10551SOL    HW232553   2.083   2.114   6.321
10552SOL     OW32554   2.043   0.856   5.725
10552SOL    HW132555   2.089   0.940   5.755
10552SOL    HW232556   2.112   0.787   5.702
10553SOL     OW32557   0.267   4.573   1.595
10553SOL    HW132558   0.263   4.498   1.662
10553SOL    HW232559   0.339   4.554   1.529
10554SOL     OW32560   5.113   4.763   1.054
10554SOL    HW132561   5.098   4.732   1.148
10554SOL    HW232562   5.183   4.706   1.012
10555SOL     OW32563   2.709   2.737   1.005
10555SOL    HW132564   2.792   2.792   1.012
10555SOL    HW232565   2.727   2.646   1.045
10556SOL     OW32566   1.038   1.299   3.876
10556SOL    HW132567   0.941   1.315   3.893
10556SOL    HW232568   1.063   1.207   3.908
10557SOL     OW32569   2.149   3.136   2.659
10557SOL    HW132570   2.149   3.201   2.583
10557SOL    HW232571   2.086   3.166   2.730
10558SOL     OW32572   4.104   6.332   5.008
10558SOL    HW132573   4.026   6.275   4.985
10558SOL    HW232574   4.149   6.296   5.089
10559SOL     OW32575   4.650   1.098   1.998
10559SOL    HW132576   4.555   1.124   2.011
10559SOL    HW232577   4.665   1.073   1.903
10560SOL     OW32578   4.492   6.915   2.804
10560SOL    HW132579   4.500   6.819   2.777
10560SOL    HW232580   4.574   6.944   2.853
10561SOL     OW32581   3.710   4.560   1.677
10561SOL    HW132582   3.752   4.634   1.626
10561SOL    HW232583   3.637   4.597   1.735
10562SOL     OW32584   4.260   5.530   6.911
10562SOL    HW132585   4.295   5.621   6.932
10562SOL    HW232586   4.321   5.484   6.847
10563SOL     OW32587   0.157   1.165   2.773
10563SOL    HW132588   0.136   1.112   2.854
10563SOL    HW232589   0.257   1.174   2.764
10564SOL     OW32590   5.630   6.317   3.338
10564SOL    HW132591   5.636   6.218   3.350
10564SOL    HW232592   5.712   6.350   3.293
10565SOL     OW32593   0.039   6.658   5.840
10565SOL    HW132594   0.135   6.635   5.825
10565SOL    HW232595   0.027   6.757   5.839
10566SOL     OW32596   4.026   2.182   6.749
10566SOL    HW132597   4.077   2.185   6.835
10566SOL    HW232598   3.935   2.220   6.763
10567SOL     OW32599   2.633   2.583   5.211
10567SOL    HW132600   2.555   2.646   5.219
10567SOL    HW232601   2.622   2.526   5.130
10568SOL     OW32602   6.906   3.032   0.691
10568SOL    HW132603   6.981   2.992   0.744
10568SOL    HW232604   6.854   3.095   0.749
10569SOL     OW32605   5.718   1.354   2.237
10569SOL    HW132606   5.700   1.442   2.192
10569SOL    HW232607   5.774   1.369   2.318
10570SOL     OW32608   1.855   4.267   3.322
10570SOL    HW132609   1.770   4.227   3.354
10570SOL    HW232610   1.889   4.332   3.391
10571SOL     OW32611   0.455   4.592   4.823
10571SOL    HW132612   0.384   4.643   4.871
10571SOL    HW232613   0.531   4.574   4.886
10572SOL     OW32614   6.991   4.578   2.784
10572SOL    HW132615   6.929   4.511   2.744
10572SOL    HW232616   0.069   4.549   2.769
10573SOL     OW32617   5.324   0.803   4.954
10573SOL    HW132618   5.252   0.752   5.000
10573SOL    HW232619   5.358   0.875   5.014
10574SOL     OW32620   0.738   1.570   4.489
10574SOL    HW132621   0.652   1.622   4.492
10574SOL    HW232622   0.795   1.597   4.567
10575SOL     OW32623   6.592   1.096   3.883
10575SOL    HW132624   6.531   1.062   3.811
10575SOL    HW232625   6.682   1.054   3.872
10576SOL     OW32626   0.494   5.370   4.636
10576SOL    HW132627   0.437   5.445   4.604
10576SOL    HW232628   0.590   5.390   4.619
10577SOL     OW32629   1.986   4.584   0.404
10577SOL    HW132630   1.978   4.486   0.386
10577SOL    HW232631   1.919   4.633   0.348
10578SOL     OW32632   4.190   1.364   2.865
10578SOL    HW132633   4.288   1.349   2.875
10578SOL    HW232634   4.164   1.449   2.911
10579SOL     OW32635   4.348   2.873   1.633
10579SOL    HW132636   4.349   2.963   1.676
10579SOL    HW232637   4.348   2.802   1.704
10580SOL     OW32638   6.850   0.449   6.625
10580SOL    HW132639   6.798   0.375   6.666
10580SOL    HW232640   6.857   0.526   6.689
10581SOL     OW32641   5.674   0.441   2.832
10581SOL    HW132642   5.608   0.451   2.906
10581SOL    HW232643   5.665   0.349   2.792
10582SOL     OW32644   4.608   4.238   5.486
10582SOL    HW132645   4.675   4.165   5.506
10582SOL    HW232646   4.563   4.218   5.399
10583SOL     OW32647   3.952   1.188   4.062
10583SOL    HW132648   4.007   1.214   4.141
10583SOL    HW232649   4.003   1.206   3.978
10584SOL     OW32650   6.565   0.679   0.641
10584SOL    HW132651   6.655   0.718   0.624
10584SOL    HW232652   6.495   0.734   0.595
10585SOL     OW32653   2.812   1.742   5.329
10585SOL    HW132654   2.868   1.674   5.282
10585SOL    HW232655   2.723   1.748   5.285
10586SOL     OW32656   5.579   4.595   5.730
10586SOL    HW132657   5.536   4.506   5.749
10586SOL    HW232658   5.672   4.579   5.695
10587SOL     OW32659   6.438   4.958   0.126
10587SOL    HW132660   6.535   4.980   0.111
10587SOL    HW232661   6.425   4.929   0.221
10588SOL     OW32662   1.592   2.174   4.979
10588SOL    HW132663   1.513   2.202   5.034
10588SOL    HW232664   1.676   2.185   5.033
10589SOL     OW32665   5.787   1.097   4.418
10589SOL    HW132666   5.798   1.139   4.508
10589SOL    HW232667   5.813   1.000   4.423
10590SOL     OW32668   0.511   0.340   0.564
10590SOL    HW132669   0.578   0.277   0.603
10590SOL    HW232670   0.447   0.288   0.507
10591SOL     OW32671   1.409   2.228   6.987
10591SOL    HW132672   1.360   2.300   0.020
10591SOL    HW232673   1.360   2.207   6.902
10592SOL     OW32674   5.808   3.862   3.238
10592SOL    HW132675   5.811   3.962   3.246
10592SOL    HW232676   5.828   3.821   3.326
10593SOL     OW32677   2.782   5.901   0.888
10593SOL    HW132678   2.840   5.872   0.964
10593SOL    HW232679   2.757   5.997   0.900
10594SOL     OW32680   5.337   1.503   3.033
10594SOL    HW132681   5.417   1.520   2.975
10594SOL    HW232682   5.357   1.532   3.127
10595SOL     OW32683   5.478   6.979   0.004
10595SOL    HW132684   5.449   6.890   6.986
10595SOL    HW232685   5.527   0.012   6.948
10596SOL     OW32686   4.341   0.824   6.877
10596SOL    HW132687   4.367   0.888   6.949
10596SOL    HW232688   4.284   0.752   6.915
10597SOL     OW32689   3.454   1.253   5.808
10597SOL    HW132690   3.453   1.157   5.780
10597SOL    HW232691   3.469   1.312   5.729
10598SOL     OW32692   3.023   3.283   0.308
10598SOL    HW132693   2.977   3.194   0.318
10598SOL    HW232694   2.998   3.323   0.220
10599SOL     OW32695   5.451   3.586   6.647
10599SOL    HW132696   5.481   3.607   6.741
10599SOL    HW232697   5.524   3.611   6.583
10600SOL     OW32698   3.702   2.823   1.432
10600SOL    HW132699   3.640   2.851   1.506
10600SOL    HW232700   3.650   2.772   1.363
10601SOL     OW32701   1.296   4.694   5.089
10601SOL    HW132702   1.384   4.706   5.041
10601SOL    HW232703   1.237   4.634   5.036
10602SOL     OW32704   1.424   0.470   2.026
10602SOL    HW132705   1.481   0.392   2.049
10602SOL    HW232706   1.465   0.519   1.949
10603SOL     OW32707   4.011   0.127   3.482
10603SOL    HW132708   4.056   0.193   3.422
10603SOL    HW232709   3.918   0.111   3.449
10604SOL     OW32710   6.418   6.026   5.310
10604SOL    HW132711   6.465   5.950   5.265
10604SOL    HW232712   6.486   6.085   5.353
10605SOL     OW32713   2.009   6.651   6.435
10605SOL    HW132714   2.022   6.560   6.394
10605SOL    HW232715   1.925   6.692   6.399
10606SOL     OW32716   0.484   7.008   0.889
10606SOL    HW132717   0.510   0.040   0.973
10606SOL    HW232718   0.552   0.008   0.819
10607SOL     OW32719   4.083   5.653   6.119
10607SOL    HW132720   4.026   5.680   6.196
10607SOL    HW232721   4.044   5.572   6.075
10608SOL     OW32722   6.836   3.355   4.557
10608SOL    HW132723   6.785   3.293   4.616
10608SOL    HW232724   6.901   3.408   4.612
10609SOL     OW32725   2.813   6.913   6.651
10609SOL    HW132726   2.913   6.906   6.652
10609SOL    HW232727   2.773   6.824   6.670
10610SOL     OW32728   0.715   2.414   3.996
10610SOL    HW132729   0.647   2.433   3.926
10610SOL    HW232730   0.706   2.320   4.027
10611SOL     OW32731   2.588   4.438   0.148
10611SOL    HW132732   2.637   4.357   0.180
10611SOL    HW232733   2.571   4.500   0.224
10612SOL     OW32734   3.793   2.101   4.909
10612SOL    HW132735   3.872   2.151   4.945
10612SOL    HW232736   3.712   2.126   4.961
10613SOL     OW32737   5.841   5.902   5.957
10613SOL    HW132738   5.932   5.878   5.921
10613SOL    HW232739   5.824   5.851   6.041
10614SOL     OW32740   4.658   1.833   5.003
10614SOL    HW132741   4.573   1.822   5.056
10614SOL    HW232742   4.635   1.858   4.909
10615SOL     OW32743   3.746   0.770   5.773
10615SOL    HW132744   3.657   0.752   5.815
10615SOL    HW232745   3.801   0.687   5.773
10616SOL     OW32746   2.326   6.919   0.185
10616SOL    HW132747   2.249   6.877   0.233
10616SOL    HW232748   2.375   6.849   0.133
10617SOL     OW32749   3.144   3.949   1.020
10617SOL    HW132750   3.117   3.937   1.115
10617SOL    HW232751   3.243   3.963   1.014
10618SOL     OW32752   0.884   4.197   6.011
10618SOL    HW132753   0.931   4.284   5.995
10618SOL    HW232754   0.942   4.122   5.981
10619SOL     OW32755   0.797   3.413   3.478
10619SOL    HW132756   0.777   3.497   3.529
10619SOL    HW232757   0.891   3.416   3.445
10620SOL     OW32758   1.264   6.919   5.487
10620SOL    HW132759   1.319   6.836   5.493
10620SOL    HW232760   1.185   6.903   5.428
10621SOL     OW32761   1.021   4.880   1.642
10621SOL    HW132762   1.112   4.877   1.684
10621SOL    HW232763   1.011   4.803   1.579
10622SOL     OW32764   4.999   1.445   2.349
10622SOL    HW132765   5.011   1.346   2.348
10622SOL    HW232766   4.914   1.467   2.398
10623SOL     OW32767   0.019   5.159   5.722
10623SOL    HW132768   0.028   5.198   5.630
10623SOL    HW232769   0.096   5.098   5.740
10624SOL     OW32770   1.055   2.177   4.984
10624SOL    HW132771   1.148   2.183   5.021
10624SOL    HW232772   1.050   2.231   4.900
10625SOL     OW32773   0.172   4.656   1.149
10625SOL    HW132774   0.157   4.728   1.217
10625SOL    HW232775   0.270   4.632   1.148
10626SOL     OW32776   3.313   2.773   1.080
10626SOL    HW132777   3.311   2.873   1.070
10626SOL    HW232778   3.340   2.731   0.994
10627SOL     OW32779   5.600   1.016   6.737
10627SOL    HW132780   5.661   0.945   6.702
10627SOL    HW232781   5.559   0.985   6.823
10628SOL     OW32782   4.987   5.891   0.799
10628SOL    HW132783   5.048   5.813   0.782
10628SOL    HW232784   4.933   5.874   0.881
10629SOL     OW32785   2.537   5.252   4.846
10629SOL    HW132786   2.578   5.220   4.931
10629SOL    HW232787   2.549   5.183   4.775
10630SOL     OW32788   6.300   1.424   3.338
10630SOL    HW132789   6.268   1.356   3.272
10630SOL    HW232790   6.336   1.378   3.419
10631SOL     OW32791   3.499   5.239   5.092
10631SOL    HW132792   3.586   5.246   5.140
10631SOL    HW232793   3.428   5.283   5.147
10632SOL     OW32794   5.504   6.696   3.687
10632SOL    HW132795   5.478   6.666   3.778
10632SOL    HW232796   5.542   6.619   3.635
10633SOL     OW32797   2.858   2.522   1.074
10633SOL    HW132798   2.936   2.580   1.049
10633SOL    HW232799   2.857   2.509   1.173
10634SOL     OW32800   2.726   4.534   0.865
10634SOL    HW132801   2.817   4.502   0.893
10634SOL    HW232802   2.721   4.634   0.876
10635SOL     OW32803   2.075   3.847   6.705
10635SOL    HW132804   2.058   3.784   6.628
10635SOL    HW232805   2.010   3.829   6.778
10636SOL     OW32806   0.378   1.875   0.712
10636SOL    HW132807   0.379   1.784   0.670
10636SOL    HW232808   0.471   1.907   0.727
10637SOL     OW32809   1.327   4.738   5.873
10637SOL    HW132810   1.361   4.705   5.784
10637SOL    HW232811   1.282   4.662   5.921
10638SOL     OW32812   5.704   5.928   2.759
10638SOL    HW132813   5.723   6.026   2.762
10638SOL    HW232814   5.607   5.912   2.775
10639SOL     OW32815   1.160   3.996   3.496
10639SOL    HW132816   1.186   4.091   3.511
10639SOL    HW232817   1.096   3.991   3.419
10640SOL     OW32818   4.877   6.761   4.025
10640SOL    HW132819   4.968   6.787   3.992
10640SOL    HW232820   4.886   6.709   4.110
10641SOL     OW32821   1.716   2.141   2.479
10641SOL    HW132822   1.769   2.226   2.473
10641SOL    HW232823   1.687   2.127   2.574
10642SOL     OW32824   6.601   2.234   0.867
10642SOL    HW132825   6.637   2.180   0.943
10642SOL    HW232826   6.676   2.283   0.822
10643SOL     OW32827   1.500   5.863   4.670
10643SOL    HW132828   1.412   5.880   4.625
10643SOL    HW232829   1.515   5.929   4.743
10644SOL     OW32830   6.074   2.682   2.005
10644SOL    HW132831   6.116   2.770   1.983
10644SOL    HW232832   6.096   2.657   2.099
10645SOL     OW32833   2.036   2.470   4.755
10645SOL    HW132834   2.101   2.544   4.736
10645SOL    HW232835   2.029   2.410   4.675
10646SOL     OW32836   7.005   6.770   6.366
10646SOL    HW132837   0.041   6.691   6.396
10646SOL    HW232838   6.963   6.814   6.446
10647SOL     OW32839   3.061   5.756   4.988
10647SOL    HW132840   3.068   5.737   4.890
10647SOL    HW232841   3.052   5.669   5.037
10648SOL     OW32842   5.822   4.036   6.510
10648SOL    HW132843   5.731   4.051   6.549
10648SOL    HW232844   5.863   3.955   6.552
10649SOL     OW32845   0.057   4.438   2.373
10649SOL    HW132846   0.068   4.424   2.275
10649SOL    HW232847   0.145   4.458   2.414
10650SOL     OW32848   0.290   0.345   3.712
10650SOL    HW132849   0.333   0.277   3.653
10650SOL    HW232850   0.241   0.411   3.655
10651SOL     OW32851   5.538   6.476   6.850
10651SOL    HW132852   5.439   6.464   6.858
10651SOL    HW232853   5.560   6.515   6.760
10652SOL     OW32854   3.571   6.735   5.542
10652SOL    HW132855   3.530   6.821   5.510
10652SOL    HW232856   3.503   6.684   5.595
10653SOL     OW32857   4.264   5.498   4.078
10653SOL    HW132858   4.325   5.420   4.075
10653SOL    HW232859   4.229   5.517   3.986
10654SOL     OW32860   5.600   0.724   0.599
10654SOL    HW132861   5.607   0.754   0.694
10654SOL    HW232862   5.624   0.799   0.538
10655SOL     OW32863   2.382   5.185   0.393
10655SOL    HW132864   2.323   5.170   0.313
10655SOL    HW232865   2.418   5.278   0.390
10656SOL     OW32866   0.518   1.930   2.864
10656SOL    HW132867   0.523   1.833   2.838
10656SOL    HW232868   0.592   1.980   2.819
10657SOL     OW32869   5.262   0.436   5.589
10657SOL    HW132870   5.168   0.420   5.559
10657SOL    HW232871   5.311   0.490   5.521
10658SOL     OW32872   6.412   4.622   4.926
10658SOL    HW132873   6.390   4.643   5.022
10658SOL    HW232874   6.402   4.524   4.911
10659SOL     OW32875   0.500   5.350   1.739
10659SOL    HW132876   0.429   5.382   1.801
10659SOL    HW232877   0.535   5.262   1.770
10660SOL     OW32878   5.099   3.560   6.008
10660SOL    HW132879   5.072   3.649   6.045
10660SOL    HW232880   5.025   3.495   6.022
10661SOL     OW32881   1.364   6.897   1.572
10661SOL    HW132882   1.347   6.921   1.668
10661SOL    HW232883   1.346   6.799   1.559
10662SOL     OW32884   5.374   6.859   2.360
10662SOL    HW132885   5.386   6.957   2.379
10662SOL    HW232886   5.363   6.809   2.446
10663SOL     OW32887   0.628   2.271   3.045
10663SOL    HW132888   0.599   2.300   2.953
10663SOL    HW232889   0.721   2.236   3.041
10664SOL     OW32890   6.316   3.982   4.997
10664SOL    HW132891   6.358   4.028   5.076
10664SOL    HW232892   6.321   3.883   5.010
10665SOL     OW32893   0.580   1.900   0.478
10665SOL    HW132894   0.587   1.911   0.379
10665SOL    HW232895   0.623   1.979   0.523
10666SOL     OW32896   3.961   3.548   1.919
10666SOL    HW132897   3.960   3.552   2.018
10666SOL    HW232898   3.873   3.581   1.883
10667SOL     OW32899   5.002   2.734   4.631
10667SOL    HW132900   4.933   2.794   4.672
10667SOL    HW232901   5.054   2.785   4.562
10668SOL     OW32902   2.426   0.453   4.902
10668SOL    HW132903   2.459   0.463   4.996
10668SOL    HW232904   2.331   0.482   4.897
10669SOL     OW32905   6.027   6.849   1.756
10669SOL    HW132906   6.072   6.777   1.703
10669SOL    HW232907   5.950   6.886   1.703
10670SOL     OW32908   5.614   4.229   5.218
10670SOL    HW132909   5.539   4.230   5.152
10670SOL    HW232910   5.596   4.160   5.288
10671SOL     OW32911   2.466   2.622   3.441
10671SOL    HW132912   2.550   2.584   3.402
10671SOL    HW232913   2.442   2.706   3.393
10672SOL     OW32914   6.549   3.336   0.981
10672SOL    HW132915   6.540   3.275   0.902
10672SOL    HW232916   6.491   3.303   1.055
10673SOL     OW32917   1.102   0.958   6.684
10673SOL    HW132918   1.084   0.937   6.780
10673SOL    HW232919   1.016   0.962   6.634
10674SOL     OW32920   3.480   4.102   2.169
10674SOL    HW132921   3.472   4.015   2.219
10674SOL    HW232922   3.421   4.170   2.212
10675SOL     OW32923   1.680   6.875   6.542
10675SOL    HW132924   1.660   6.972   6.560
10675SOL    HW232925   1.707   6.830   6.628
10676SOL     OW32926   6.884   6.182   5.607
10676SOL    HW132927   6.882   6.282   5.617
10676SOL    HW232928   6.880   6.140   5.697
10677SOL     OW32929   1.213   0.535   2.221
10677SOL    HW132930   1.134   0.475   2.208
10677SOL    HW232931   1.281   0.516   2.151
10678SOL     OW32932   4.495   4.922   4.331
10678SOL    HW132933   4.477   4.838   4.281
10678SOL    HW232934   4.546   4.901   4.414
10679SOL     OW32935   4.841   5.546   6.675
10679SOL    HW132936   4.803   5.578   6.589
10679SOL    HW232937   4.856   5.447   6.671
10680SOL     OW32938   4.108   1.587   3.716
10680SOL    HW132939   4.111   1.670   3.661
10680SOL    HW232940   4.118   1.610   3.813
10681SOL     OW32941   0.867   3.801   0.405
10681SOL    HW132942   0.876   3.840   0.313
10681SOL    HW232943   0.879   3.702   0.400
10682SOL     OW32944   0.761   1.165   5.288
10682SOL    HW132945   0.847   1.204   5.255
10682SOL    HW232946   0.752   1.182   5.386
10683SOL     OW32947   3.752   2.091   3.619
10683SOL    HW132948   3.845   2.118   3.595
10683SOL    HW232949   3.747   2.072   3.717
10684SOL     OW32950   5.386   4.504   2.395
10684SOL    HW132951   5.442   4.426   2.368
10684SOL    HW232952   5.422   4.587   2.352
10685SOL     OW32953   0.613   5.560   2.565
10685SOL    HW132954   0.681   5.570   2.493
10685SOL    HW232955   0.612   5.466   2.598
10686SOL     OW32956   0.754   4.653   6.281
10686SOL    HW132957   0.750   4.750   6.307
10686SOL    HW232958   0.664   4.624   6.247
10687SOL     OW32959   6.241   5.750   2.046
10687SOL    HW132960   6.162   5.691   2.062
10687SOL    HW232961   6.315   5.697   2.006
10688SOL     OW32962   6.446   3.929   2.495
10688SOL    HW132963   6.503   3.849   2.475
10688SOL    HW232964   6.362   3.924   2.441
10689SOL     OW32965   0.472   5.798   3.509
10689SOL    HW132966   0.479   5.716   3.451
10689SOL    HW232967   0.402   5.783   3.579
10690SOL     OW32968   6.868   6.470   3.534
10690SOL    HW132969   6.860   6.384   3.485
10690SOL    HW232970   6.929   6.532   3.485
10691SOL     OW32971   0.341   2.372   2.471
10691SOL    HW132972   0.246   2.403   2.476
10691SOL    HW232973   0.378   2.394   2.380
10692SOL     OW32974   3.510   5.995   3.462
10692SOL    HW132975   3.555   5.948   3.385
10692SOL    HW232976   3.411   5.993   3.449
10693SOL     OW32977   2.259   6.409   6.762
10693SOL    HW132978   2.357   6.416   6.777
10693SOL    HW232979   2.220   6.500   6.749
10694SOL     OW32980   5.290   6.684   1.815
10694SOL    HW132981   5.232   6.603   1.807
10694SOL    HW232982   5.258   6.755   1.753
10695SOL     OW32983   6.401   2.515   3.012
10695SOL    HW132984   6.438   2.596   2.967
10695SOL    HW232985   6.471   2.474   3.070
10696SOL     OW32986   0.384   3.462   3.713
10696SOL    HW132987   0.427   3.517   3.641
10696SOL    HW232988   0.387   3.366   3.688
10697SOL     OW32989   6.989   5.919   4.703
10697SOL    HW132990   0.023   5.996   4.743
10697SOL    HW232991   0.001   5.907   4.608
10698SOL     OW32992   4.614   5.025   5.771
10698SOL    HW132993   4.625   4.946   5.832
10698SOL    HW232994   4.585   5.105   5.825
10699SOL     OW32995   4.171   3.289   1.940
10699SOL    HW132996   4.128   3.375   1.967
10699SOL    HW232997   4.257   3.278   1.991
10700SOL     OW32998   6.955   6.678   1.368
10700SOL    HW132999   7.013   6.602   1.396
10700SOL    HW233000   6.864   6.643   1.346
10701SOL     OW33001   3.537   6.203   0.181
10701SOL    HW133002   3.552   6.127   0.118
10701SOL    HW233003   3.439   6.217   0.194
10702SOL     OW33004   6.018   2.631   1.754
10702SOL    HW133005   6.090   2.581   1.706
10702SOL    HW233006   6.045   2.646   1.849
10703SOL     OW33007   2.949   3.983   5.034
10703SOL    HW133008   2.920   3.911   5.098
10703SOL    HW233009   2.911   3.965   4.944
10704SOL     OW33010   6.517   5.591   1.550
10704SOL    HW133011   6.427   5.580   1.509
10704SOL    HW233012   6.556   5.679   1.523
10705SOL     OW33013   6.503   4.613   1.429
10705SOL    HW133014   6.509   4.673   1.349
10705SOL    HW233015   6.589   4.563   1.440
10706SOL     OW33016   5.118   6.432   1.753
10706SOL    HW133017   5.141   6.392   1.665
10706SOL    HW233018   5.024   6.464   1.752
10707SOL     OW33019   0.319   6.180   3.961
10707SOL    HW133020   0.352   6.161   4.053
10707SOL    HW233021   0.340   6.103   3.901
10708SOL     OW33022   4.230   0.444   2.315
10708SOL    HW133023   4.221   0.474   2.220
10708SOL    HW233024   4.300   0.498   2.361
10709SOL     OW33025   6.352   6.193   4.996
10709SOL    HW133026   6.399   6.262   5.050
10709SOL    HW233027   6.321   6.118   5.055
10710SOL     OW33028   0.580   6.319   4.617
10710SOL    HW133029   0.648   6.290   4.685
10710SOL    HW233030   0.498   6.263   4.626
10711SOL     OW33031   1.622   6.434   3.855
10711SOL    HW133032   1.599   6.422   3.758
10711SOL    HW233033   1.554   6.388   3.911
10712SOL     OW33034   2.768   1.403   1.360
10712SOL    HW133035   2.764   1.309   1.325
10712SOL    HW233036   2.681   1.449   1.342
10713SOL     OW33037   0.923   4.016   1.713
10713SOL    HW133038   0.967   4.105   1.727
10713SOL    HW233039   0.972   3.965   1.643
10714SOL     OW33040   5.930   3.792   4.297
10714SOL    HW133041   5.838   3.818   4.267
10714SOL    HW233042   5.932   3.782   4.397
10715SOL     OW33043   5.313   6.870   2.658
10715SOL    HW133044   5.384   6.935   2.685
10715SOL    HW233045   5.236   6.875   2.721
10716SOL     OW33046   5.578   2.164   4.114
10716SOL    HW133047   5.482   2.139   4.112
10716SOL    HW233048   5.590   2.248   4.167
10717SOL     OW33049   1.167   2.799   0.621
10717SOL    HW133050   1.209   2.874   0.569
10717SOL    HW233051   1.187   2.712   0.576
10718SOL     OW33052   1.116   2.389   6.398
10718SOL    HW133053   1.154   2.304   6.362
10718SOL    HW233054   1.160   2.467   6.353
10719SOL     OW33055   5.576   5.476   1.290
10719SOL    HW133056   5.520   5.558   1.283
10719SOL    HW233057   5.551   5.425   1.372
10720SOL     OW33058   0.083   3.537   4.993
10720SOL    HW133059   0.165   3.551   4.938
10720SOL    HW233060   0.003   3.565   4.941
10721SOL     OW33061   6.089   4.141   4.900
10721SOL    HW133062   6.167   4.081   4.919
10721SOL    HW233063   6.012   4.115   4.959
10722SOL     OW33064   0.369   3.784   0.859
10722SOL    HW133065   0.307   3.740   0.795
10722SOL    HW233066   0.448   3.726   0.875
10723SOL     OW33067   0.827   3.990   6.177
10723SOL    HW133068   0.919   3.962   6.203
10723SOL    HW233069   0.830   4.080   6.134
10724SOL     OW33070   4.696   1.241   6.853
10724SOL    HW133071   4.772   1.193   6.811
10724SOL    HW233072   4.689   1.215   6.950
10725SOL     OW33073   0.565   4.263   4.563
10725SOL    HW133074   0.496   4.233   4.497
10725SOL    HW233075   0.629   4.325   4.517
10726SOL     OW33076   5.008   0.119   5.491
10726SOL    HW133077   5.059   0.059   5.552
10726SOL    HW233078   5.002   0.210   5.532
10727SOL     OW33079   0.259   4.696   4.133
10727SOL    HW133080   0.281   4.720   4.228
10727SOL    HW233081   0.167   4.729   4.111
10728SOL     OW33082   6.453   6.391   0.798
10728SOL    HW133083   6.389   6.335   0.744
10728SOL    HW233084   6.543   6.348   0.796
10729SOL     OW33085   5.852   1.178   2.575
10729SOL    HW133086   5.918   1.112   2.610
10729SOL    HW233087   5.769   1.131   2.546
10730SOL     OW33088   2.458   7.010   1.979
10730SOL    HW133089   2.455   0.009   2.078
10730SOL    HW233090   2.456   6.912   1.960
10731SOL     OW33091   3.132   5.970   0.432
10731SOL    HW133092   3.220   5.935   0.465
10731SOL    HW233093   3.148   6.034   0.356
10732SOL     OW33094   4.773   5.149   2.369
10732SOL    HW133095   4.682   5.177   2.339
10732SOL    HW233096   4.822   5.107   2.292
10733SOL     OW33097   5.171   2.148   6.990
10733SOL    HW133098   5.174   2.241   0.010
10733SOL    HW233099   5.243   2.093   0.015
10734SOL     OW33100   1.512   0.276   0.293
10734SOL    HW133101   1.596   0.324   0.269
10734SOL    HW233102   1.458   0.331   0.357
10735SOL     OW33103   1.559   4.507   2.965
10735SOL    HW133104   1.565   4.578   3.036
10735SOL    HW233105   1.566   4.550   2.875
10736SOL     OW33106   6.754   0.632   3.364
10736SOL    HW133107   6.817   0.578   3.420
10736SOL    HW233108   6.790   0.639   3.271
10737SOL     OW33109   1.378   1.752   0.252
10737SOL    HW133110   1.384   1.674   0.190
10737SOL    HW233111   1.351   1.833   0.201
10738SOL     OW33112   2.605   1.194   3.209
10738SOL    HW133113   2.655   1.117   3.248
10738SOL    HW233114   2.656   1.279   3.225
10739SOL     OW33115   0.067   0.858   1.231
10739SOL    HW133116   0.011   0.901   1.159
10739SOL    HW233117   0.131   0.926   1.267
10740SOL     OW33118   0.603   4.635   5.918
10740SOL    HW133119   0.609   4.734   5.911
10740SOL    HW233120   0.507   4.606   5.910
10741SOL     OW33121   0.455   0.752   3.159
10741SOL    HW133122   0.412   0.688   3.224
10741SOL    HW233123   0.554   0.740   3.160
10742SOL     OW33124   5.749   0.242   1.847
10742SOL    HW133125   5.821   0.202   1.904
10742SOL    HW233126   5.756   0.341   1.850
10743SOL     OW33127   2.269   1.890   5.202
10743SOL    HW133128   2.218   1.861   5.283
10743SOL    HW233129   2.230   1.975   5.167
10744SOL     OW33130   2.667   1.741   1.980
10744SOL    HW133131   2.662   1.698   2.070
10744SOL    HW233132   2.710   1.831   1.988
10745SOL     OW33133   1.118   4.549   0.702
10745SOL    HW133134   1.204   4.593   0.726
10745SOL    HW233135   1.060   4.541   0.784
10746SOL     OW33136   1.870   3.836   1.347
10746SOL    HW133137   1.827   3.847   1.436
10746SOL    HW233138   1.968   3.820   1.359
10747SOL     OW33139   4.166   0.638   3.196
10747SOL    HW133140   4.233   0.587   3.143
10747SOL    HW233141   4.166   0.605   3.291
10748SOL     OW33142   3.615   0.737   1.261
10748SOL    HW133143   3.519   0.736   1.235
10748SOL    HW233144   3.665   0.802   1.203
10749SOL     OW33145   6.915   5.133   3.257
10749SOL    HW133146   6.872   5.099   3.340
10749SOL    HW233147   7.009   5.162   3.277
10750SOL     OW33148   4.015   6.335   4.261
10750SOL    HW133149   4.031   6.382   4.174
10750SOL    HW233150   3.982   6.242   4.243
10751SOL     OW33151   1.259   4.395   4.472
10751SOL    HW133152   1.169   4.357   4.451
10751SOL    HW233153   1.321   4.321   4.498
10752SOL     OW33154   6.190   3.782   6.078
10752SOL    HW133155   6.240   3.832   6.149
10752SOL    HW233156   6.136   3.709   6.120
10753SOL     OW33157   4.064   6.829   4.571
10753SOL    HW133158   3.966   6.828   4.552
10753SOL    HW233159   4.083   6.781   4.656
10754SOL     OW33160   1.006   1.693   3.424
10754SOL    HW133161   0.925   1.659   3.378
10754SOL    HW233162   1.042   1.772   3.375
10755SOL     OW33163   0.453   2.069   6.738
10755SOL    HW133164   0.460   2.050   6.640
10755SOL    HW233165   0.535   2.035   6.784
10756SOL     OW33166   6.423   4.347   0.134
10756SOL    HW133167   6.488   4.305   0.198
10756SOL    HW233168   6.385   4.429   0.175
10757SOL     OW33169   1.215   2.757   6.762
10757SOL    HW133170   1.213   2.828   6.833
10757SOL    HW233171   1.225   2.667   6.805
10758SOL     OW33172   1.007   6.498   5.368
10758SOL    HW133173   0.982   6.559   5.443
10758SOL    HW233174   1.106   6.494   5.360
10759SOL     OW33175   2.038   2.806   6.730
10759SOL    HW133176   1.939   2.808   6.742
10759SOL    HW233177   2.077   2.732   6.784
10760SOL     OW33178   6.127   1.067   0.501
10760SOL    HW133179   6.168   1.159   0.504
10760SOL    HW233180   6.030   1.075   0.481
10761SOL     OW33181   1.571   1.673   6.243
10761SOL    HW133182   1.668   1.691   6.227
10761SOL    HW233183   1.556   1.574   6.247
10762SOL     OW33184   3.654   1.848   5.072
10762SOL    HW133185   3.636   1.941   5.105
10762SOL    HW233186   3.592   1.784   5.118
10763SOL     OW33187   4.453   6.493   1.136
10763SOL    HW133188   4.377   6.522   1.195
10763SOL    HW233189   4.431   6.404   1.097
10764SOL     OW33190   5.715   2.104   6.010
10764SOL    HW133191   5.759   2.193   5.997
10764SOL    HW233192   5.763   2.054   6.082
10765SOL     OW33193   5.879   2.785   1.081
10765SOL    HW133194   5.824   2.711   1.043
10765SOL    HW233195   5.941   2.821   1.012
10766SOL     OW33196   3.852   2.594   1.413
10766SOL    HW133197   3.826   2.689   1.429
10766SOL    HW233198   3.777   2.534   1.442
10767SOL     OW33199   1.331   0.569   0.124
10767SOL    HW133200   1.334   0.552   0.222
10767SOL    HW233201   1.424   0.581   0.090
10768SOL     OW33202   4.334   5.277   0.758
10768SOL    HW133203   4.345   5.323   0.846
10768SOL    HW233204   4.251   5.221   0.759
10769SOL     OW33205   2.173   5.238   4.643
10769SOL    HW133206   2.178   5.207   4.738
10769SOL    HW233207   2.208   5.332   4.637
10770SOL     OW33208   5.374   0.228   4.973
10770SOL    HW133209   5.408   0.274   5.055
10770SOL    HW233210   5.391   0.130   4.980
10771SOL     OW33211   5.083   0.938   4.225
10771SOL    HW133212   5.001   0.993   4.242
10771SOL    HW233213   5.160   0.978   4.275
10772SOL     OW33214   0.166   6.295   4.366
10772SOL    HW133215   0.262   6.324   4.368
10772SOL    HW233216   0.140   6.260   4.456
10773SOL     OW33217   0.262   5.431   6.975
10773SOL    HW133218   0.344   5.414   6.920
10773SOL    HW233219   0.213   5.346   6.989
10774SOL     OW33220   1.365   1.579   6.657
10774SOL    HW133221   1.422   1.624   6.726
10774SOL    HW233222   1.269   1.588   6.683
10775SOL     OW33223   0.270   2.753   0.527
10775SOL    HW133224   0.300   2.675   0.472
10775SOL    HW233225   0.341   2.823   0.528
10776SOL     OW33226   1.365   6.441   0.011
10776SOL    HW133227   1.454   6.427   6.982
10776SOL    HW233228   1.294   6.392   6.977
10777SOL     OW33229   3.745   5.925   4.224
10777SOL    HW133230   3.687   5.967   4.154
10777SOL    HW233231   3.691   5.905   4.306
10778SOL     OW33232   5.573   6.380   5.301
10778SOL    HW133233   5.646   6.317   5.329
10778SOL    HW233234   5.590   6.412   5.208
10779SOL     OW33235   6.014   4.969   3.147
10779SOL    HW133236   6.078   5.044   3.165
10779SOL    HW233237   6.058   4.882   3.166
10780SOL     OW33238   1.535   0.171   3.958
10780SOL    HW133239   1.617   0.203   4.006
10780SOL    HW233240   1.538   0.072   3.949
10781SOL     OW33241   3.954   1.066   3.008
10781SOL    HW133242   4.016   1.074   3.087
10781SOL    HW233243   3.924   0.971   2.999
10782SOL     OW33244   0.065   2.080   3.393
10782SOL    HW133245   6.997   2.028   3.405
10782SOL    HW233246   0.054   2.171   3.433
10783SOL     OW33247   1.038   3.535   3.362
10783SOL    HW133248   1.025   3.589   3.446
10783SOL    HW233249   1.120   3.478   3.372
10784SOL     OW33250   3.425   1.236   3.795
10784SOL    HW133251   3.486   1.255   3.718
10784SOL    HW233252   3.467   1.167   3.854
10785SOL     OW33253   6.952   5.091   1.363
10785SOL    HW133254   6.906   5.041   1.435
10785SOL    HW233255   0.015   5.139   1.401
10786SOL     OW33256   4.666   4.860   2.056
10786SOL    HW133257   4.591   4.925   2.068
10786SOL    HW233258   4.674   4.804   2.138
10787SOL     OW33259   3.176   1.657   4.422
10787SOL    HW133260   3.236   1.581   4.443
10787SOL    HW233261   3.170   1.719   4.501
10788SOL     OW33262   2.371   4.861   6.393
10788SOL    HW133263   2.341   4.878   6.487
10788SOL    HW233264   2.465   4.891   6.381
10789SOL     OW33265   5.982   2.844   6.992
10789SOL    HW133266   6.020   2.809   0.061
10789SOL    HW233267   5.937   2.770   6.943
10790SOL     OW33268   0.885   0.745   2.598
10790SOL    HW133269   0.789   0.725   2.618
10790SOL    HW233270   0.893   0.839   2.565
10791SOL     OW33271   0.384   7.000   0.597
10791SOL    HW133272   0.461   0.046   0.614
10791SOL    HW233273   0.392   6.962   0.505
10792SOL     OW33274   3.650   3.813   2.966
10792SOL    HW133275   3.592   3.759   2.906
10792SOL    HW233276   3.678   3.758   3.045
10793SOL     OW33277   4.990   2.589   4.100
10793SOL    HW133278   4.898   2.552   4.084
10793SOL    HW233279   5.033   2.608   4.012
10794SOL     OW33280   2.888   3.702   3.765
10794SOL    HW133281   2.923   3.791   3.795
10794SOL    HW233282   2.959   3.655   3.713
10795SOL     OW33283   0.018   4.130   3.394
10795SOL    HW133284   0.001   4.161   3.488
10795SOL    HW233285   6.981   4.186   3.330
10796SOL     OW33286   5.711   6.760   0.615
10796SOL    HW133287   5.795   6.716   0.648
10796SOL    HW233288   5.666   6.702   0.547
10797SOL     OW33289   3.737   1.833   1.554
10797SOL    HW133290   3.641   1.841   1.579
10797SOL    HW233291   3.760   1.901   1.485
10798SOL     OW33292   2.387   6.413   0.906
10798SOL    HW133293   2.364   6.504   0.872
10798SOL    HW233294   2.471   6.418   0.961
10799SOL     OW33295   3.468   0.463   2.436
10799SOL    HW133296   3.460   0.550   2.485
10799SOL    HW233297   3.393   0.453   2.372
10800SOL     OW33298   0.324   0.238   0.378
10800SOL    HW133299   0.319   0.140   0.361
10800SOL    HW233300   0.368   0.283   0.300
10801SOL     OW33301   0.665   6.578   6.058
10801SOL    HW133302   0.689   6.615   6.147
10801SOL    HW233303   0.566   6.589   6.043
10802SOL     OW33304   0.853   2.784   3.450
10802SOL    HW133305   0.859   2.833   3.363
10802SOL    HW233306   0.757   2.777   3.477
10803SOL     OW33307   3.324   3.590   5.751
10803SOL    HW133308   3.321   3.680   5.793
10803SOL    HW233309   3.235   3.568   5.711
10804SOL     OW33310   5.736   3.847   1.862
10804SOL    HW133311   5.638   3.848   1.882
10804SOL    HW233312   5.751   3.795   1.778
10805SOL     OW33313   4.125   0.015   0.210
10805SOL    HW133314   4.042   6.976   0.220
10805SOL    HW233315   4.204   6.971   0.203
10806SOL     OW33316   4.676   3.711   6.048
10806SOL    HW133317   4.717   3.758   6.127
10806SOL    HW233318   4.741   3.646   6.010
10807SOL     OW33319   1.415   0.143   2.537
10807SOL    HW133320   1.316   0.130   2.543
10807SOL    HW233321   1.445   0.209   2.606
10808SOL     OW33322   6.526   3.111   6.566
10808SOL    HW133323   6.509   3.015   6.542
10808SOL    HW233324   6.574   3.114   6.653
10809SOL     OW33325   3.199   5.976   3.965
10809SOL    HW133326   3.166   6.060   4.009
10809SOL    HW233327   3.183   5.981   3.867
10810SOL     OW33328   2.179   0.547   4.865
10810SOL    HW133329   2.152   0.643   4.857
10810SOL    HW233330   2.125   0.491   4.802
10811SOL     OW33331   4.008   4.552   5.409
10811SOL    HW133332   3.993   4.470   5.353
10811SOL    HW233333   3.932   4.615   5.397
10812SOL     OW33334   0.835   3.559   1.507
10812SOL    HW133335   0.851   3.525   1.414
10812SOL    HW233336   0.922   3.583   1.549
10813SOL     OW33337   2.307   4.908   6.656
10813SOL    HW133338   2.376   4.836   6.660
10813SOL    HW233339   2.291   4.944   6.748
10814SOL     OW33340   1.320   6.621   6.628
10814SOL    HW133341   1.302   6.576   6.541
10814SOL    HW233342   1.250   6.691   6.644
10815SOL     OW33343   4.954   4.422   3.782
10815SOL    HW133344   4.861   4.451   3.763
10815SOL    HW233345   4.962   4.323   3.766
10816SOL     OW33346   2.046   2.421   1.375
10816SOL    HW133347   2.103   2.347   1.340
10816SOL    HW233348   1.953   2.411   1.340
10817SOL     OW33349   5.058   6.594   2.910
10817SOL    HW133350   5.003   6.523   2.866
10817SOL    HW233351   5.121   6.552   2.975
10818SOL     OW33352   4.413   4.484   5.445
10818SOL    HW133353   4.472   4.404   5.436
10818SOL    HW233354   4.319   4.454   5.460
10819SOL     OW33355   6.873   4.462   6.545
10819SOL    HW133356   6.867   4.430   6.450
10819SOL    HW233357   6.883   4.561   6.547
10820SOL     OW33358   5.963   5.723   4.274
10820SOL    HW133359   6.044   5.737   4.331
10820SOL    HW233360   5.975   5.639   4.220
10821SOL     OW33361   5.503   6.762   1.962
10821SOL    HW133362   5.429   6.737   1.901
10821SOL    HW233363   5.486   6.725   2.054
10822SOL     OW33364   0.599   2.999   3.054
10822SOL    HW133365   0.628   3.065   2.985
10822SOL    HW233366   0.539   3.044   3.120
10823SOL     OW33367   1.608   5.349   1.392
10823SOL    HW133368   1.683   5.326   1.454
10823SOL    HW233369   1.539   5.402   1.441
10824SOL     OW33370   6.386   1.281   3.551
10824SOL    HW133371   6.356   1.358   3.607
10824SOL    HW233372   6.383   1.197   3.605
10825SOL     OW33373   2.826   0.657   6.201
10825SOL    HW133374   2.897   0.700   6.144
10825SOL    HW233375   2.744   0.714   6.200
10826SOL     OW33376   0.889   3.121   3.685
10826SOL    HW133377   0.875   3.140   3.782
10826SOL    HW233378   0.801   3.100   3.643
10827SOL     OW33379   5.797   4.208   4.337
10827SOL    HW133380   5.882   4.223   4.387
10827SOL    HW233381   5.763   4.116   4.355
10828SOL     OW33382   0.625   5.297   2.085
10828SOL    HW133383   0.575   5.224   2.037
10828SOL    HW233384   0.669   5.357   2.018
10829SOL     OW33385   3.868   2.095   1.160
10829SOL    HW133386   3.864   1.995   1.161
10829SOL    HW233387   3.780   2.132   1.131
10830SOL     OW33388   4.984   1.669   3.537
10830SOL    HW133389   5.081   1.691   3.540
10830SOL    HW233390   4.954   1.665   3.441
10831SOL     OW33391   3.552   5.706   2.582
10831SOL    HW133392   3.620   5.660   2.525
10831SOL    HW233393   3.503   5.639   2.637
10832SOL     OW33394   1.237   2.350   0.154
10832SOL    HW133395   1.213   2.447   0.151
10832SOL    HW233396   1.208   2.310   0.241
10833SOL     OW33397   1.581   0.943   1.801
10833SOL    HW133398   1.649   0.959   1.730
10833SOL    HW233399   1.627   0.923   1.888
10834SOL     OW33400   1.145   2.114   6.305
10834SOL    HW133401   1.103   2.031   6.342
10834SOL    HW233402   1.244   2.106   6.311
10835SOL     OW33403   6.326   2.191   6.839
10835SOL    HW133404   6.367   2.108   6.800
10835SOL    HW233405   6.333   2.266   6.774
10836SOL     OW33406   0.061   2.054   4.712
10836SOL    HW133407   0.015   2.002   4.640
10836SOL    HW233408   0.016   2.038   4.799
10837SOL     OW33409   7.014   4.769   0.702
10837SOL    HW133410   6.969   4.727   0.624
10837SOL    HW233411   0.095   4.784   0.681
10838SOL     OW33412   5.749   6.382   4.823
10838SOL    HW133413   5.674   6.315   4.822
10838SOL    HW233414   5.722   6.462   4.876
10839SOL     OW33415   4.046   3.015   1.272
10839SOL    HW133416   3.957   3.047   1.306
10839SOL    HW233417   4.035   2.925   1.231
10840SOL     OW33418   3.371   5.425   2.279
10840SOL    HW133419   3.442   5.366   2.242
10840SOL    HW233420   3.281   5.383   2.264
10841SOL     OW33421   5.202   5.345   6.844
10841SOL    HW133422   5.228   5.364   6.749
10841SOL    HW233423   5.284   5.327   6.898
10842SOL     OW33424   5.141   2.512   1.356
10842SOL    HW133425   5.237   2.506   1.383
10842SOL    HW233426   5.084   2.475   1.429
10843SOL     OW33427   1.385   2.482   1.124
10843SOL    HW133428   1.287   2.467   1.128
10843SOL    HW233429   1.417   2.472   1.030
10844SOL     OW33430   0.244   6.658   3.839
10844SOL    HW133431   0.307   6.636   3.914
10844SOL    HW233432   0.203   6.573   3.805
10845SOL     OW33433   3.008   0.173   5.545
10845SOL    HW133434   2.954   0.257   5.555
10845SOL    HW233435   3.087   0.191   5.486
10846SOL     OW33436   4.809   2.277   0.595
10846SOL    HW133437   4.837   2.209   0.663
10846SOL    HW233438   4.719   2.313   0.619
10847SOL     OW33439   4.121   3.523   6.256
10847SOL    HW133440   4.042   3.558   6.306
10847SOL    HW233441   4.125   3.564   6.165
10848SOL     OW33442   2.904   3.462   6.793
10848SOL    HW133443   2.936   3.463   6.698
10848SOL    HW233444   2.928   3.548   6.837
10849SOL     OW33445   2.794   6.010   3.295
10849SOL    HW133446   2.764   6.048   3.383
10849SOL    HW233447   2.734   5.933   3.270
10850SOL     OW33448   3.514   5.239   0.125
10850SOL    HW133449   3.457   5.157   0.124
10850SOL    HW233450   3.605   5.216   0.160
10851SOL     OW33451   2.499   2.838   6.403
10851SOL    HW133452   2.586   2.886   6.387
10851SOL    HW233453   2.445   2.887   6.471
10852SOL     OW33454   1.243   0.219   6.674
10852SOL    HW133455   1.326   0.234   6.620
10852SOL    HW233456   1.165   0.208   6.613
10853SOL     OW33457   3.059   2.210   5.835
10853SOL    HW133458   3.072   2.113   5.854
10853SOL    HW233459   3.034   2.222   5.739
10854SOL     OW33460   4.536   6.346   5.191
10854SOL    HW133461   4.633   6.320   5.198
10854SOL    HW233462   4.490   6.285   5.126
10855SOL     OW33463   2.515   6.584   1.257
10855SOL    HW133464   2.453   6.645   1.207
10855SOL    HW233465   2.562   6.636   1.328
10856SOL     OW33466   6.156   1.506   1.669
10856SOL    HW133467   6.175   1.456   1.753
10856SOL    HW233468   6.059   1.528   1.664
10857SOL     OW33469   6.170   2.664   3.269
10857SOL    HW133470   6.109   2.663   3.189
10857SOL    HW233471   6.212   2.573   3.279
10858SOL     OW33472   0.683   1.819   6.284
10858SOL    HW133473   0.728   1.894   6.332
10858SOL    HW233474   0.678   1.739   6.343
10859SOL     OW33475   2.133   3.078   4.192
10859SOL    HW133476   2.123   3.176   4.211
10859SOL    HW233477   2.060   3.027   4.238
10860SOL     OW33478   6.470   1.786   5.831
10860SOL    HW133479   6.458   1.687   5.833
10860SOL    HW233480   6.454   1.824   5.922
10861SOL     OW33481   3.823   3.400   3.225
10861SOL    HW133482   3.801   3.496   3.211
10861SOL    HW233483   3.819   3.351   3.137
10862SOL     OW33484   2.425   1.594   6.559
10862SOL    HW133485   2.518   1.570   6.587
10862SOL    HW233486   2.426   1.685   6.516
10863SOL     OW33487   3.918   0.568   3.068
10863SOL    HW133488   3.858   0.549   3.146
10863SOL    HW233489   4.002   0.611   3.102
10864SOL     OW33490   3.203   5.313   0.793
10864SOL    HW133491   3.297   5.313   0.827
10864SOL    HW233492   3.145   5.362   0.857
10865SOL     OW33493   6.243   1.436   2.960
10865SOL    HW133494   6.232   1.372   3.035
10865SOL    HW233495   6.186   1.407   2.882
10866SOL     OW33496   4.881   4.656   0.358
10866SOL    HW133497   4.816   4.654   0.282
10866SOL    HW233498   4.883   4.748   0.397
10867SOL     OW33499   3.435   4.350   0.161
10867SOL    HW133500   3.442   4.279   0.231
10867SOL    HW233501   3.483   4.432   0.193
10868SOL     OW33502   2.855   2.173   3.660
10868SOL    HW133503   2.944   2.218   3.655
10868SOL    HW233504   2.867   2.080   3.695
10869NA      NA33505   0.737   2.344   5.849
10870NA      NA33506   4.420   4.610   5.213
10871NA      NA33507   1.879   4.182   2.613
10872NA      NA33508   5.082   4.111   3.572
10873NA      NA33509   4.089   2.336   5.294
10874NA      NA33510   3.166   4.806   1.726
10875NA      NA33511   0.014   4.313   0.217
10876NA      NA33512   3.364   3.442   3.001
10877NA      NA33513   4.851   5.102   1.047
10878NA      NA33514   3.970   6.640   5.324
10879NA      NA33515   6.081   5.348   1.158
10880NA      NA33516   1.862   0.778   4.822
10881NA      NA33517   3.976   5.047   1.747
10882NA      NA33518   4.123   3.167   1.727
   7.01630   7.01630   7.01630
