Generated by trjconv : CNT in water t= 438.00000
33518
    1C        C    1   2.845   2.771   4.748
    1C        C    2   2.898   2.717   4.867
    1C        C    3   2.844   2.771   4.984
    1C        C    4   2.847   2.773   4.262
    1C        C    5   2.897   2.720   4.383
    1C        C    6   2.841   2.768   4.504
    1C        C    7   3.009   2.640   4.627
    1C        C    8   2.891   2.717   4.626
    1C        C    9   3.075   2.602   4.747
    1C        C   10   3.011   2.633   4.869
    1C        C   11   3.182   2.491   4.977
    1C        C   12   3.063   2.566   4.980
    1C        C   13   2.847   2.767   3.773
    1C        C   14   2.900   2.721   3.895
    1C        C   15   2.846   2.768   4.017
    1C        C   16   3.013   2.641   4.141
    1C        C   17   2.898   2.723   4.141
    1C        C   18   3.079   2.608   4.262
    1C        C   19   3.019   2.649   4.383
    1C        C   20   3.209   2.561   4.506
    1C        C   21   3.078   2.614   4.506
    1C        C   22   3.279   2.539   4.626
    1C        C   23   3.207   2.549   4.747
    1C        C   24   3.412   2.486   4.869
    1C        C   25   3.270   2.502   4.866
    1C        C   26   3.489   2.484   4.986
    1C        C   27   2.845   2.766   3.285
    1C        C   28   2.899   2.718   3.407
    1C        C   29   2.849   2.769   3.529
    1C        C   30   3.022   2.646   3.653
    1C        C   31   2.905   2.725   3.651
    1C        C   32   3.080   2.605   3.775
    1C        C   33   3.016   2.640   3.896
    1C        C   34   3.205   2.550   4.019
    1C        C   35   3.077   2.609   4.019
    1C        C   36   3.278   2.533   4.139
    1C        C   37   3.212   2.561   4.261
    1C        C   38   3.415   2.509   4.383
    1C        C   39   3.276   2.535   4.384
    1C        C   40   3.485   2.502   4.505
    1C        C   41   3.417   2.509   4.629
    1C        C   42   3.630   2.487   4.750
    1C        C   43   3.487   2.482   4.748
    1C        C   44   3.705   2.489   4.869
    1C        C   45   3.628   2.488   4.986
    1C        C   46   2.832   2.751   2.798
    1C        C   47   2.892   2.710   2.918
    1C        C   48   2.841   2.762   3.039
    1C        C   49   3.017   2.645   3.162
    1C        C   50   2.902   2.726   3.161
    1C        C   51   3.080   2.608   3.284
    1C        C   52   3.016   2.640   3.406
    1C        C   53   3.207   2.551   3.530
    1C        C   54   3.077   2.606   3.529
    1C        C   55   3.277   2.532   3.651
    1C        C   56   3.212   2.556   3.774
    1C        C   57   3.417   2.521   3.895
    1C        C   58   3.277   2.537   3.898
    1C        C   59   3.487   2.508   4.017
    1C        C   60   3.417   2.508   4.140
    1C        C   61   3.628   2.509   4.261
    1C        C   62   3.487   2.501   4.262
    1C        C   63   3.698   2.517   4.383
    1C        C   64   3.627   2.506   4.504
    1C        C   65   3.830   2.556   4.624
    1C        C   66   3.695   2.513   4.628
    1C        C   67   3.903   2.569   4.744
    1C        C   68   3.840   2.531   4.865
    1C        C   69   4.048   2.590   4.979
    1C        C   70   3.922   2.529   4.978
    1C        C   71   2.824   2.735   2.307
    1C        C   72   2.882   2.694   2.429
    1C        C   73   2.833   2.747   2.551
    1C        C   74   3.003   2.627   2.673
    1C        C   75   2.885   2.704   2.675
    1C        C   76   3.069   2.597   2.795
    1C        C   77   3.012   2.634   2.918
    1C        C   78   3.208   2.553   3.038
    1C        C   79   3.076   2.604   3.041
    1C        C   80   3.275   2.531   3.161
    1C        C   81   3.209   2.552   3.284
    1C        C   82   3.414   2.506   3.403
    1C        C   83   3.274   2.530   3.407
    1C        C   84   3.485   2.503   3.524
    1C        C   85   3.416   2.507   3.648
    1C        C   86   3.626   2.515   3.770
    1C        C   87   3.485   2.508   3.771
    1C        C   88   3.697   2.518   3.892
    1C        C   89   3.628   2.512   4.016
    1C        C   90   3.835   2.556   4.136
    1C        C   91   3.697   2.523   4.138
    1C        C   92   3.903   2.576   4.258
    1C        C   93   3.836   2.550   4.380
    1C        C   94   4.028   2.637   4.502
    1C        C   95   3.900   2.577   4.503
    1C        C   96   4.091   2.672   4.623
    1C        C   97   4.031   2.630   4.744
    1C        C   98   4.194   2.767   4.863
    1C        C   99   4.098   2.661   4.865
    1C        C  100   4.221   2.842   4.978
    1C        C  101   2.828   2.734   2.070
    1C        C  102   2.993   2.592   2.190
    1C        C  103   2.880   2.679   2.189
    1C        C  104   3.065   2.576   2.312
    1C        C  105   3.004   2.621   2.431
    1C        C  106   3.198   2.538   2.552
    1C        C  107   3.067   2.590   2.553
    1C        C  108   3.271   2.523   2.673
    1C        C  109   3.199   2.541   2.793
    1C        C  110   3.409   2.500   2.915
    1C        C  111   3.270   2.525   2.915
    1C        C  112   3.482   2.496   3.036
    1C        C  113   3.413   2.503   3.159
    1C        C  114   3.626   2.507   3.280
    1C        C  115   3.485   2.500   3.281
    1C        C  116   3.697   2.514   3.403
    1C        C  117   3.626   2.510   3.525
    1C        C  118   3.834   2.552   3.648
    1C        C  119   3.696   2.521   3.647
    1C        C  120   3.901   2.576   3.770
    1C        C  121   3.835   2.549   3.892
    1C        C  122   4.027   2.642   4.014
    1C        C  123   3.900   2.579   4.013
    1C        C  124   4.089   2.676   4.136
    1C        C  125   4.028   2.641   4.258
    1C        C  126   4.200   2.765   4.378
    1C        C  127   4.088   2.679   4.381
    1C        C  128   4.245   2.819   4.501
    1C        C  129   4.196   2.766   4.622
    1C        C  130   4.327   2.937   4.740
    1C        C  131   4.248   2.820   4.742
    1C        C  132   4.359   3.004   4.861
    1C        C  133   4.292   2.961   4.976
    1C        C  134   3.174   2.476   2.083
    1C        C  135   3.038   2.510   2.082
    1C        C  136   3.262   2.483   2.192
    1C        C  137   3.197   2.524   2.311
    1C        C  138   3.408   2.487   2.429
    1C        C  139   3.269   2.511   2.432
    1C        C  140   3.482   2.495   2.549
    1C        C  141   3.411   2.505   2.671
    1C        C  142   3.621   2.502   2.791
    1C        C  143   3.480   2.493   2.793
    1C        C  144   3.693   2.511   2.913
    1C        C  145   3.623   2.501   3.035
    1C        C  146   3.832   2.545   3.155
    1C        C  147   3.694   2.516   3.157
    1C        C  148   3.898   2.569   3.278
    1C        C  149   3.833   2.550   3.402
    1C        C  150   4.029   2.632   3.524
    1C        C  151   3.900   2.575   3.525
    1C        C  152   4.092   2.668   3.645
    1C        C  153   4.029   2.634   3.767
    1C        C  154   4.195   2.765   3.890
    1C        C  155   4.086   2.676   3.890
    1C        C  156   4.251   2.811   4.012
    1C        C  157   4.201   2.762   4.135
    1C        C  158   4.345   2.919   4.255
    1C        C  159   4.256   2.809   4.256
    1C        C  160   4.382   2.981   4.377
    1C        C  161   4.336   2.927   4.499
    1C        C  162   4.442   3.116   4.615
    1C        C  163   4.372   2.993   4.618
    1C        C  164   4.467   3.184   4.736
    1C        C  165   4.432   3.125   4.859
    1C        C  166   4.522   3.319   4.972
    1C        C  167   4.481   3.186   4.975
    1C        C  168   3.474   2.439   2.073
    1C        C  169   3.401   2.460   2.191
    1C        C  170   3.621   2.468   2.307
    1C        C  171   3.478   2.466   2.309
    1C        C  172   3.693   2.491   2.426
    1C        C  173   3.623   2.491   2.549
    1C        C  174   3.832   2.537   2.668
    1C        C  175   3.694   2.506   2.670
    1C        C  176   3.900   2.562   2.789
    1C        C  177   3.830   2.545   2.911
    1C        C  178   4.027   2.627   3.034
    1C        C  179   3.897   2.570   3.032
    1C        C  180   4.086   2.665   3.156
    1C        C  181   4.025   2.631   3.279
    1C        C  182   4.200   2.753   3.401
    1C        C  183   4.087   2.667   3.400
    1C        C  184   4.250   2.808   3.521
    1C        C  185   4.201   2.757   3.644
    1C        C  186   4.340   2.916   3.767
    1C        C  187   4.249   2.808   3.767
    1C        C  188   4.383   2.974   3.888
    1C        C  189   4.340   2.920   4.012
    1C        C  190   4.449   3.104   4.130
    1C        C  191   4.382   2.979   4.133
    1C        C  192   4.471   3.173   4.252
    1C        C  193   4.441   3.109   4.374
    1C        C  194   4.503   3.318   4.492
    1C        C  195   4.464   3.182   4.493
    1C        C  196   4.525   3.388   4.613
    1C        C  197   4.517   3.317   4.735
    1C        C  198   4.555   3.535   4.856
    1C        C  199   4.531   3.394   4.854
    1C        C  200   4.586   3.619   4.968
    1C        C  201   3.614   2.425   2.075
    1C        C  202   3.830   2.511   2.185
    1C        C  203   3.695   2.465   2.186
    1C        C  204   3.904   2.540   2.303
    1C        C  205   3.831   2.522   2.423
    1C        C  206   4.021   2.621   2.543
    1C        C  207   3.898   2.552   2.544
    1C        C  208   4.084   2.656   2.665
    1C        C  209   4.028   2.621   2.790
    1C        C  210   4.203   2.743   2.911
    1C        C  211   4.089   2.659   2.911
    1C        C  212   4.253   2.795   3.032
    1C        C  213   4.197   2.752   3.154
    1C        C  214   4.339   2.908   3.276
    1C        C  215   4.250   2.798   3.277
    1C        C  216   4.377   2.972   3.396
    1C        C  217   4.338   2.918   3.521
    1C        C  218   4.444   3.099   3.642
    1C        C  219   4.379   2.974   3.644
    1C        C  220   4.470   3.166   3.764
    1C        C  221   4.444   3.102   3.887
    1C        C  222   4.507   3.306   4.003
    1C        C  223   4.472   3.169   4.007
    1C        C  224   4.516   3.378   4.125
    1C        C  225   4.506   3.309   4.248
    1C        C  226   4.519   3.525   4.369
    1C        C  227   4.510   3.384   4.368
    1C        C  228   4.523   3.599   4.490
    1C        C  229   4.535   3.528   4.611
    1C        C  230   4.507   3.741   4.729
    1C        C  231   4.539   3.602   4.732
    1C        C  232   4.493   3.818   4.847
    1C        C  233   4.541   3.752   4.961
    1C        C  234   4.020   2.613   2.066
    1C        C  235   3.899   2.544   2.067
    1C        C  236   4.093   2.648   2.180
    1C        C  237   4.028   2.608   2.299
    1C        C  238   4.202   2.733   2.422
    1C        C  239   4.085   2.652   2.421
    1C        C  240   4.256   2.781   2.544
    1C        C  241   4.197   2.741   2.666
    1C        C  242   4.343   2.897   2.787
    1C        C  243   4.251   2.790   2.787
    1C        C  244   4.387   2.958   2.907
    1C        C  245   4.345   2.903   3.030
    1C        C  246   4.444   3.090   3.151
    1C        C  247   4.379   2.964   3.152
    1C        C  248   4.462   3.160   3.272
    1C        C  249   4.435   3.100   3.398
    1C        C  250   4.501   3.302   3.515
    1C        C  251   4.464   3.166   3.519
    1C        C  252   4.516   3.372   3.637
    1C        C  253   4.504   3.303   3.760
    1C        C  254   4.521   3.516   3.880
    1C        C  255   4.519   3.375   3.881
    1C        C  256   4.515   3.589   4.002
    1C        C  257   4.522   3.519   4.124
    1C        C  258   4.482   3.730   4.243
    1C        C  259   4.516   3.593   4.245
    1C        C  260   4.461   3.800   4.364
    1C        C  261   4.485   3.735   4.487
    1C        C  262   4.428   3.939   4.605
    1C        C  263   4.473   3.806   4.609
    1C        C  264   4.400   4.008   4.725
    1C        C  265   4.436   3.947   4.847
    1C        C  266   4.328   4.134   4.958
    1C        C  267   4.391   4.011   4.964
    1C        C  268   4.262   2.777   2.062
    1C        C  269   4.208   2.729   2.182
    1C        C  270   4.357   2.884   2.298
    1C        C  271   4.262   2.778   2.303
    1C        C  272   4.388   2.950   2.419
    1C        C  273   4.342   2.892   2.540
    1C        C  274   4.443   3.079   2.661
    1C        C  275   4.380   2.952   2.662
    1C        C  276   4.472   3.147   2.781
    1C        C  277   4.452   3.084   2.905
    1C        C  278   4.507   3.288   3.024
    1C        C  279   4.475   3.151   3.028
    1C        C  280   4.511   3.362   3.145
    1C        C  281   4.494   3.298   3.270
    1C        C  282   4.512   3.510   3.391
    1C        C  283   4.505   3.369   3.391
    1C        C  284   4.514   3.581   3.513
    1C        C  285   4.521   3.513   3.636
    1C        C  286   4.486   3.724   3.753
    1C        C  287   4.514   3.586   3.757
    1C        C  288   4.468   3.794   3.875
    1C        C  289   4.487   3.727   3.998
    1C        C  290   4.425   3.931   4.118
    1C        C  291   4.471   3.797   4.119
    1C        C  292   4.397   4.000   4.238
    1C        C  293   4.421   3.936   4.362
    1C        C  294   4.333   4.130   4.481
    1C        C  295   4.395   4.003   4.483
    1C        C  296   4.288   4.188   4.601
    1C        C  297   4.325   4.129   4.725
    1C        C  298   4.204   4.317   4.837
    1C        C  299   4.282   4.198   4.842
    1C        C  300   4.173   4.402   4.948
    1C        C  301   4.352   2.883   2.060
    1C        C  302   4.474   3.066   2.179
    1C        C  303   4.405   2.940   2.176
    1C        C  304   4.490   3.141   2.299
    1C        C  305   4.453   3.075   2.418
    1C        C  306   4.510   3.280   2.536
    1C        C  307   4.477   3.143   2.540
    1C        C  308   4.516   3.355   2.656
    1C        C  309   4.498   3.286   2.778
    1C        C  310   4.515   3.497   2.900
    1C        C  311   4.514   3.356   2.900
    1C        C  312   4.508   3.571   3.020
    1C        C  313   4.512   3.503   3.144
    1C        C  314   4.483   3.715   3.266
    1C        C  315   4.508   3.575   3.265
    1C        C  316   4.466   3.788   3.385
    1C        C  317   4.490   3.721   3.507
    1C        C  318   4.423   3.922   3.627
    1C        C  319   4.472   3.790   3.629
    1C        C  320   4.392   3.988   3.748
    1C        C  321   4.420   3.927   3.872
    1C        C  322   4.316   4.110   3.993
    1C        C  323   4.391   3.990   3.995
    1C        C  324   4.282   4.175   4.114
    1C        C  325   4.328   4.123   4.237
    1C        C  326   4.196   4.289   4.355
    1C        C  327   4.292   4.186   4.358
    1C        C  328   4.140   4.340   4.474
    1C        C  329   4.193   4.293   4.597
    1C        C  330   4.031   4.440   4.713
    1C        C  331   4.146   4.357   4.713
    1C        C  332   3.974   4.489   4.832
    1C        C  333   4.057   4.480   4.945
    1C        C  334   4.556   3.267   2.062
    1C        C  335   4.536   3.128   2.066
    1C        C  336   4.544   3.349   2.174
    1C        C  337   4.522   3.279   2.295
    1C        C  338   4.521   3.494   2.412
    1C        C  339   4.523   3.353   2.416
    1C        C  340   4.514   3.565   2.533
    1C        C  341   4.522   3.496   2.657
    1C        C  342   4.490   3.707   2.776
    1C        C  343   4.512   3.568   2.778
    1C        C  344   4.475   3.778   2.897
    1C        C  345   4.488   3.711   3.020
    1C        C  346   4.421   3.914   3.139
    1C        C  347   4.467   3.780   3.141
    1C        C  348   4.393   3.985   3.258
    1C        C  349   4.418   3.921   3.381
    1C        C  350   4.319   4.107   3.504
    1C        C  351   4.392   3.986   3.504
    1C        C  352   4.278   4.167   3.625
    1C        C  353   4.321   4.110   3.748
    1C        C  354   4.182   4.271   3.868
    1C        C  355   4.277   4.166   3.870
    1C        C  356   4.131   4.324   3.988
    1C        C  357   4.184   4.277   4.111
    1C        C  358   4.016   4.403   4.233
    1C        C  359   4.137   4.330   4.233
    1C        C  360   3.953   4.444   4.352
    1C        C  361   4.023   4.418   4.472
    1C        C  362   3.833   4.518   4.592
    1C        C  363   3.965   4.468   4.591
    1C        C  364   3.766   4.547   4.713
    1C        C  365   3.844   4.544   4.831
    1C        C  366   3.634   4.593   4.948
    1C        C  367   3.772   4.577   4.947
    1C        C  368   4.508   3.563   2.052
    1C        C  369   4.526   3.489   2.170
    1C        C  370   4.506   3.705   2.286
    1C        C  371   4.518   3.564   2.289
    1C        C  372   4.487   3.774   2.407
    1C        C  373   4.500   3.705   2.530
    1C        C  374   4.424   3.904   2.650
    1C        C  375   4.480   3.774   2.652
    1C        C  376   4.394   3.972   2.770
    1C        C  377   4.424   3.910   2.894
    1C        C  378   4.322   4.097   3.014
    1C        C  379   4.397   3.977   3.016
    1C        C  380   4.273   4.156   3.132
    1C        C  381   4.316   4.104   3.256
    1C        C  382   4.181   4.264   3.379
    1C        C  383   4.276   4.159   3.380
    1C        C  384   4.126   4.314   3.499
    1C        C  385   4.179   4.267   3.621
    1C        C  386   4.010   4.393   3.744
    1C        C  387   4.127   4.313   3.744
    1C        C  388   3.952   4.436   3.865
    1C        C  389   4.014   4.403   3.987
    1C        C  390   3.821   4.485   4.109
    1C        C  391   3.955   4.439   4.110
    1C        C  392   3.754   4.511   4.230
    1C        C  393   3.825   4.504   4.352
    1C        C  394   3.618   4.549   4.474
    1C        C  395   3.758   4.531   4.473
    1C        C  396   3.549   4.560   4.597
    1C        C  397   3.625   4.563   4.715
    1C        C  398   3.413   4.553   4.840
    1C        C  399   3.553   4.569   4.836
    1C        C  400   3.347   4.513   4.957
    1C        C  401   4.509   3.702   2.052
    1C        C  402   4.456   3.916   2.165
    1C        C  403   4.494   3.780   2.167
    1C        C  404   4.416   3.976   2.287
    1C        C  405   4.439   3.907   2.408
    1C        C  406   4.322   4.089   2.524
    1C        C  407   4.397   3.969   2.528
    1C        C  408   4.278   4.146   2.645
    1C        C  409   4.319   4.091   2.769
    1C        C  410   4.179   4.250   2.889
    1C        C  411   4.281   4.152   2.890
    1C        C  412   4.125   4.300   3.010
    1C        C  413   4.176   4.259   3.135
    1C        C  414   4.005   4.383   3.253
    1C        C  415   4.122   4.304   3.257
    1C        C  416   3.945   4.422   3.375
    1C        C  417   4.006   4.388   3.498
    1C        C  418   3.817   4.478   3.619
    1C        C  419   3.948   4.426   3.621
    1C        C  420   3.752   4.505   3.741
    1C        C  421   3.820   4.488   3.864
    1C        C  422   3.615   4.533   3.986
    1C        C  423   3.753   4.504   3.987
    1C        C  424   3.545   4.539   4.109
    1C        C  425   3.615   4.538   4.231
    1C        C  426   3.403   4.544   4.356
    1C        C  427   3.545   4.547   4.353
    1C        C  428   3.333   4.546   4.478
    1C        C  429   3.408   4.551   4.598
    1C        C  430   3.198   4.517   4.723
    1C        C  431   3.338   4.542   4.720
    1C        C  432   3.128   4.494   4.845
    1C        C  433   3.210   4.489   4.958
    1C        C  434   4.385   4.121   2.053
    1C        C  435   4.458   4.001   2.053
    1C        C  436   4.306   4.163   2.164
    1C        C  437   4.335   4.093   2.285
    1C        C  438   4.184   4.251   2.403
    1C        C  439   4.284   4.151   2.403
    1C        C  440   4.125   4.293   2.524
    1C        C  441   4.183   4.250   2.646
    1C        C  442   4.009   4.375   2.767
    1C        C  443   4.127   4.297   2.767
    1C        C  444   3.947   4.417   2.887
    1C        C  445   4.010   4.382   3.008
    1C        C  446   3.815   4.470   3.129
    1C        C  447   3.946   4.416   3.129
    1C        C  448   3.749   4.493   3.252
    1C        C  449   3.814   4.474   3.376
    1C        C  450   3.608   4.525   3.497
    1C        C  451   3.746   4.497   3.498
    1C        C  452   3.542   4.534   3.622
    1C        C  453   3.614   4.535   3.743
    1C        C  454   3.401   4.538   3.866
    1C        C  455   3.542   4.543   3.865
    1C        C  456   3.333   4.527   3.990
    1C        C  457   3.404   4.529   4.112
    1C        C  458   3.195   4.500   4.239
    1C        C  459   3.334   4.527   4.234
    1C        C  460   3.127   4.486   4.362
    1C        C  461   3.195   4.515   4.483
    1C        C  462   2.998   4.433   4.604
    1C        C  463   3.126   4.494   4.604
    1C        C  464   2.934   4.403   4.727
    1C        C  465   2.992   4.449   4.848
    1C        C  466   2.809   4.335   4.960
    1C        C  467   2.910   4.431   4.965
    1C        C  468   4.127   4.292   2.045
    1C        C  469   4.194   4.251   2.161
    1C        C  470   4.009   4.370   2.278
    1C        C  471   4.133   4.299   2.281
    1C        C  472   3.944   4.404   2.399
    1C        C  473   4.005   4.368   2.521
    1C        C  474   3.813   4.454   2.643
    1C        C  475   3.945   4.403   2.644
    1C        C  476   3.749   4.487   2.764
    1C        C  477   3.816   4.470   2.887
    1C        C  478   3.608   4.522   3.008
    1C        C  479   3.747   4.496   3.008
    1C        C  480   3.538   4.530   3.131
    1C        C  481   3.610   4.518   3.252
    1C        C  482   3.398   4.527   3.375
    1C        C  483   3.539   4.530   3.373
    1C        C  484   3.329   4.527   3.499
    1C        C  485   3.400   4.536   3.621
    1C        C  486   3.193   4.503   3.745
    1C        C  487   3.331   4.532   3.744
    1C        C  488   3.130   4.478   3.869
    1C        C  489   3.195   4.496   3.993
    1C        C  490   3.002   4.418   4.116
    1C        C  491   3.128   4.480   4.117
    1C        C  492   2.943   4.382   4.239
    1C        C  493   3.003   4.419   4.362
    1C        C  494   2.827   4.302   4.485
    1C        C  495   2.939   4.388   4.484
    1C        C  496   2.771   4.260   4.608
    1C        C  497   2.819   4.319   4.727
    1C        C  498   2.665   4.168   4.846
    1C        C  499   2.754   4.278   4.845
    1C        C  500   2.598   4.119   4.958
    1C        C  501   4.006   4.360   2.042
    1C        C  502   3.814   4.462   2.158
    1C        C  503   3.943   4.404   2.159
    1C        C  504   3.745   4.483   2.280
    1C        C  505   3.814   4.457   2.400
    1C        C  506   3.607   4.509   2.521
    1C        C  507   3.744   4.478   2.522
    1C        C  508   3.538   4.518   2.644
    1C        C  509   3.611   4.518   2.765
    1C        C  510   3.396   4.524   2.888
    1C        C  511   3.537   4.523   2.886
    1C        C  512   3.325   4.521   3.009
    1C        C  513   3.396   4.531   3.131
    1C        C  514   3.189   4.491   3.257
    1C        C  515   3.327   4.523   3.253
    1C        C  516   3.127   4.466   3.381
    1C        C  517   3.191   4.497   3.503
    1C        C  518   2.999   4.411   3.628
    1C        C  519   3.123   4.479   3.625
    1C        C  520   2.943   4.372   3.752
    1C        C  521   3.004   4.414   3.872
    1C        C  522   2.836   4.285   3.997
    1C        C  523   2.943   4.378   3.994
    1C        C  524   2.786   4.241   4.121
    1C        C  525   2.829   4.299   4.242
    1C        C  526   2.691   4.137   4.365
    1C        C  527   2.779   4.247   4.364
    1C        C  528   2.653   4.079   4.488
    1C        C  529   2.688   4.146   4.607
    1C        C  530   2.587   3.961   4.735
    1C        C  531   2.641   4.093   4.729
    1C        C  532   2.541   3.902   4.856
    1C        C  533   2.527   3.998   4.961
    1C        C  534   3.619   4.552   2.039
    1C        C  535   3.752   4.511   2.043
    1C        C  536   3.538   4.532   2.155
    1C        C  537   3.605   4.507   2.278
    1C        C  538   3.394   4.523   2.402
    1C        C  539   3.535   4.520   2.400
    1C        C  540   3.322   4.512   2.524
    1C        C  541   3.397   4.513   2.644
    1C        C  542   3.187   4.484   2.765
    1C        C  543   3.326   4.508   2.766
    1C        C  544   3.121   4.463   2.889
    1C        C  545   3.188   4.486   3.011
    1C        C  546   2.994   4.406   3.136
    1C        C  547   3.122   4.466   3.135
    1C        C  548   2.939   4.368   3.260
    1C        C  549   3.001   4.402   3.383
    1C        C  550   2.829   4.284   3.505
    1C        C  551   2.938   4.374   3.506
    1C        C  552   2.782   4.234   3.628
    1C        C  553   2.833   4.283   3.750
    1C        C  554   2.704   4.120   3.879
    1C        C  555   2.788   4.233   3.874
    1C        C  556   2.663   4.063   4.002
    1C        C  557   2.699   4.129   4.122
    1C        C  558   2.592   3.947   4.246
    1C        C  559   2.656   4.073   4.244
    1C        C  560   2.572   3.883   4.371
    1C        C  561   2.597   3.949   4.493
    1C        C  562   2.537   3.749   4.616
    1C        C  563   2.571   3.886   4.617
    1C        C  564   2.519   3.680   4.738
    1C        C  565   2.521   3.760   4.856
    1C        C  566   2.535   3.550   4.978
    1C        C  567   2.522   3.688   4.976
    1C        C  568   3.327   4.475   2.041
    1C        C  569   3.398   4.509   2.157
    1C        C  570   3.188   4.474   2.280
    1C        C  571   3.326   4.511   2.279
    1C        C  572   3.118   4.457   2.401
    1C        C  573   3.186   4.475   2.524
    1C        C  574   2.986   4.404   2.649
    1C        C  575   3.115   4.460   2.646
    1C        C  576   2.929   4.366   2.773
    1C        C  577   2.994   4.403   2.893
    1C        C  578   2.823   4.279   3.017
    1C        C  579   2.931   4.369   3.015
    1C        C  580   2.779   4.226   3.141
    1C        C  581   2.831   4.277   3.261
    1C        C  582   2.695   4.117   3.386
    1C        C  583   2.780   4.229   3.384
    1C        C  584   2.661   4.059   3.510
    1C        C  585   2.695   4.122   3.632
    1C        C  586   2.595   3.939   3.756
    1C        C  587   2.662   4.064   3.757
    1C        C  588   2.569   3.873   3.878
    1C        C  589   2.602   3.935   4.000
    1C        C  590   2.538   3.741   4.130
    1C        C  591   2.570   3.878   4.125
    1C        C  592   2.524   3.673   4.253
    1C        C  593   2.536   3.746   4.373
    1C        C  594   2.520   3.535   4.500
    1C        C  595   2.528   3.676   4.495
    1C        C  596   2.520   3.463   4.622
    1C        C  597   2.521   3.538   4.742
    1C        C  598   2.541   3.328   4.868
    1C        C  599   2.534   3.469   4.864
    1C        C  600   2.536   3.248   4.983
    1C        C  601   3.192   4.445   2.042
    1C        C  602   2.980   4.401   2.163
    1C        C  603   3.119   4.436   2.162
    1C        C  604   2.921   4.364   2.287
    1C        C  605   2.987   4.405   2.406
    1C        C  606   2.816   4.280   2.530
    1C        C  607   2.923   4.372   2.527
    1C        C  608   2.767   4.226   2.652
    1C        C  609   2.821   4.275   2.773
    1C        C  610   2.687   4.113   2.896
    1C        C  611   2.771   4.227   2.896
    1C        C  612   2.650   4.055   3.019
    1C        C  613   2.693   4.114   3.141
    1C        C  614   2.596   3.930   3.267
    1C        C  615   2.653   4.059   3.264
    1C        C  616   2.574   3.865   3.391
    1C        C  617   2.601   3.931   3.513
    1C        C  618   2.535   3.732   3.640
    1C        C  619   2.573   3.868   3.636
    1C        C  620   2.522   3.665   3.763
    1C        C  621   2.532   3.737   3.885
    1C        C  622   2.520   3.528   4.010
    1C        C  623   2.529   3.669   4.009
    1C        C  624   2.522   3.458   4.133
    1C        C  625   2.520   3.531   4.254
    1C        C  626   2.544   3.324   4.380
    1C        C  627   2.522   3.463   4.378
    1C        C  628   2.556   3.253   4.502
    1C        C  629   2.535   3.323   4.623
    1C        C  630   2.594   3.120   4.747
    1C        C  631   2.553   3.257   4.746
    1C        C  632   2.622   3.053   4.869
    1C        C  633   2.566   3.111   4.987
    1C        C  634   2.782   4.308   2.059
    1C        C  635   2.892   4.394   2.051
    1C        C  636   2.746   4.232   2.171
    1C        C  637   2.809   4.277   2.289
    1C        C  638   2.681   4.109   2.409
    1C        C  639   2.760   4.226   2.412
    1C        C  640   2.644   4.050   2.532
    1C        C  641   2.688   4.109   2.652
    1C        C  642   2.593   3.921   2.777
    1C        C  643   2.651   4.050   2.775
    1C        C  644   2.570   3.858   2.902
    1C        C  645   2.589   3.928   3.023
    1C        C  646   2.531   3.726   3.149
    1C        C  647   2.566   3.863   3.147
    1C        C  648   2.517   3.658   3.272
    1C        C  649   2.533   3.730   3.393
    1C        C  650   2.515   3.522   3.520
    1C        C  651   2.523   3.663   3.517
    1C        C  652   2.520   3.454   3.643
    1C        C  653   2.518   3.524   3.766
    1C        C  654   2.551   3.316   3.891
    1C        C  655   2.523   3.455   3.889
    1C        C  656   2.558   3.249   4.015
    1C        C  657   2.537   3.318   4.136
    1C        C  658   2.605   3.120   4.260
    1C        C  659   2.552   3.250   4.260
    1C        C  660   2.629   3.052   4.381
    1C        C  661   2.604   3.120   4.502
    1C        C  662   2.712   2.942   4.626
    1C        C  663   2.631   3.058   4.626
    1C        C  664   2.752   2.878   4.746
    1C        C  665   2.700   2.932   4.867
    1C        C  666   2.748   2.872   4.984
    1C        C  667   2.683   4.024   2.055
    1C        C  668   2.685   4.105   2.169
    1C        C  669   2.585   3.915   2.291
    1C        C  670   2.645   4.043   2.289
    1C        C  671   2.559   3.850   2.415
    1C        C  672   2.589   3.920   2.534
    1C        C  673   2.523   3.719   2.659
    1C        C  674   2.566   3.853   2.656
    1C        C  675   2.516   3.652   2.784
    1C        C  676   2.532   3.722   2.905
    1C        C  677   2.504   3.513   3.032
    1C        C  678   2.519   3.653   3.028
    1C        C  679   2.507   3.443   3.155
    1C        C  680   2.511   3.517   3.276
    1C        C  681   2.535   3.308   3.403
    1C        C  682   2.514   3.448   3.399
    1C        C  683   2.557   3.241   3.526
    1C        C  684   2.539   3.314   3.646
    1C        C  685   2.604   3.112   3.773
    1C        C  686   2.560   3.247   3.768
    1C        C  687   2.639   3.051   3.896
    1C        C  688   2.605   3.116   4.017
    1C        C  689   2.710   2.933   4.141
    1C        C  690   2.635   3.052   4.139
    1C        C  691   2.752   2.878   4.264
    1C        C  692   2.708   2.935   4.386
    1C        C  693   2.753   2.878   4.507
    1C        C  694   2.629   3.895   2.055
    1C        C  695   2.534   3.704   2.177
    1C        C  696   2.577   3.839   2.173
    1C        C  697   2.509   3.639   2.300
    1C        C  698   2.526   3.713   2.419
    1C        C  699   2.494   3.504   2.546
    1C        C  700   2.505   3.645   2.541
    1C        C  701   2.498   3.436   2.670
    1C        C  702   2.503   3.512   2.789
    1C        C  703   2.529   3.301   2.910
    1C        C  704   2.504   3.440   2.911
    1C        C  705   2.548   3.237   3.034
    1C        C  706   2.534   3.305   3.157
    1C        C  707   2.595   3.105   3.279
    1C        C  708   2.550   3.239   3.281
    1C        C  709   2.632   3.045   3.401
    1C        C  710   2.608   3.109   3.525
    1C        C  711   2.710   2.930   3.651
    1C        C  712   2.635   3.050   3.650
    1C        C  713   2.753   2.874   3.773
    1C        C  714   2.717   2.933   3.896
    1C        C  715   2.755   2.876   4.020
    1C        C  716   2.453   3.498   2.062
    1C        C  717   2.494   3.632   2.064
    1C        C  718   2.469   3.425   2.185
    1C        C  719   2.483   3.499   2.305
    1C        C  720   2.515   3.289   2.426
    1C        C  721   2.490   3.428   2.427
    1C        C  722   2.537   3.221   2.548
    1C        C  723   2.524   3.298   2.666
    1C        C  724   2.593   3.098   2.790
    1C        C  725   2.543   3.230   2.789
    1C        C  726   2.622   3.036   2.913
    1C        C  727   2.593   3.103   3.034
    1C        C  728   2.701   2.922   3.161
    1C        C  729   2.621   3.039   3.157
    1C        C  730   2.750   2.871   3.283
    1C        C  731   2.712   2.929   3.406
    1C        C  732   2.752   2.873   3.529
    1C        C  733   2.490   3.199   2.076
    1C        C  734   2.490   3.283   2.188
    1C        C  735   2.581   3.083   2.307
    1C        C  736   2.526   3.214   2.307
    1C        C  737   2.610   3.016   2.428
    1C        C  738   2.582   3.087   2.547
    1C        C  739   2.697   2.911   2.673
    1C        C  740   2.618   3.028   2.670
    1C        C  741   2.734   2.853   2.796
    1C        C  742   2.694   2.914   2.917
    1C        C  743   2.743   2.864   3.039
    1C        C  744   2.551   3.074   2.071
    1C        C  745   2.685   2.899   2.185
    1C        C  746   2.609   3.018   2.185
    1C        C  747   2.731   2.842   2.305
    1C        C  748   2.692   2.901   2.428
    1C        C  749   2.740   2.853   2.551
    1C        C  750   2.740   2.842   2.070
    1C        C  751   3.660   2.337   1.966
    1C        O  752   3.667   2.211   1.959
    1C        O  753   3.702   2.393   1.845
    1C        C  754   4.622   3.053   1.972
    1C        O  755   4.588   3.016   1.857
    1C        O  756   4.758   3.079   1.992
    1C        C  757   4.452   4.222   1.969
    1C        O  758   4.535   4.299   2.024
    1C        O  759   4.456   4.208   1.829
    1C        C  760   3.581   4.647   1.931
    1C        O  761   3.562   4.771   1.948
    1C        O  762   3.622   4.618   1.801
    1C        C  763   2.889   4.491   1.938
    1C        O  764   2.910   4.455   1.819
    1C        O  765   2.821   4.612   1.954
    1C        C  766   2.355   3.464   1.957
    1C        O  767   2.378   3.509   1.842
    1C        O  768   2.219   3.432   1.971
    1C        C  769   4.717   3.603   5.035
    1C        O  770   4.742   3.594   5.158
    1C        O  771   4.825   3.677   4.984
    1C        C  772   4.274   4.462   5.039
    1C        O  773   4.283   4.441   5.162
    1C        O  774   4.385   4.530   4.985
    1C        C  775   4.153   2.525   5.060
    1C        O  776   4.202   2.414   5.027
    1C        O  777   4.127   2.521   5.198
    1C        C  778   2.910   4.511   5.090
    1C        O  779   2.847   4.618   5.111
    1C        O  780   2.977   4.462   5.203
    1C        C  781   2.463   3.047   5.072
    1C        O  782   2.355   2.997   5.030
    1C        O  783   2.494   3.013   5.203
    1C        C  784   2.426   3.987   5.069
    1C        O  785   2.307   4.020   5.043
    1C        O  786   2.455   3.972   5.205
    1C        C  787   2.957   2.439   1.981
    1C        O  788   2.966   2.469   1.860
    1C        O  789   2.920   2.305   1.990
    1C        C  790   3.166   2.355   5.034
    1C        O  791   3.065   2.283   5.010
    1C        O  792   3.232   2.325   5.154
    1C        H  793   4.258   3.036   5.045
    1C        H  794   4.196   2.801   5.074
    1C        H  795   4.502   3.126   5.062
    1C        H  796   4.489   3.371   5.060
    1C        H  797   4.588   3.809   5.038
    1C        H  798   4.389   3.950   5.052
    1C        H  799   4.323   4.192   5.048
    1C        H  800   4.041   4.537   5.034
    1C        H  801   3.829   4.619   5.027
    1C        H  802   3.595   4.629   5.041
    1C        H  803   3.401   4.476   5.042
    1C        H  804   3.166   4.512   5.053
    1C        H  805   3.879   2.496   5.070
    1C        H  806   3.672   2.457   5.079
    1C        H  807   2.990   2.526   5.047
    1C        H  808   3.438   2.499   5.080
    1C        H  809   2.891   2.755   5.079
    1C        H  810   2.695   2.893   5.075
    1C        H  811   2.536   3.301   5.076
    1C        H  812   2.513   3.503   5.072
    1C        H  813   2.490   3.741   5.063
    1C        H  814   2.602   4.178   5.047
    1C        H  815   2.807   4.276   5.050
    1C        H  816   2.721   2.891   1.977
    1C        H  817   2.842   2.680   1.979
    1C        H  818   3.198   2.397   2.015
    1C        H  819   3.433   2.483   1.984
    1C        H  820   3.841   2.548   1.977
    1C        H  821   4.042   2.660   1.972
    1C        H  822   4.268   2.716   1.974
    1C        H  823   4.353   2.944   1.971
    1C        H  824   4.615   3.301   1.980
    1C        H  825   4.487   3.510   1.961
    1C        H  826   4.576   3.749   1.983
    1C        H  827   3.820   4.576   1.992
    1C        H  828   3.964   4.382   1.945
    1C        H  829   4.150   4.232   1.960
    1C        H  830   4.515   3.975   1.967
    1C        H  831   2.658   3.832   1.973
    1C        H  832   2.761   4.039   1.983
    1C        H  833   2.706   4.320   1.985
    1C        H  834   3.386   4.437   1.961
    1C        H  835   3.154   4.406   1.950
    1C        H  836   2.597   3.052   1.977
    1C        H  837   2.455   3.232   1.980
    1C        H  838   2.488   3.683   1.971
    2V3OU   H29  839   2.807   3.549   5.065
    2V3OU   C27  840   2.779   3.501   5.162
    2V3OU   H27  841   2.722   3.570   5.229
    2V3OU   H28  842   2.729   3.402   5.144
    2V3OU   O11  843   2.904   3.484   5.229
    2V3OU   C15  844   2.921   3.401   5.337
    2V3OU   C13  845   3.050   3.379   5.391
    2V3OU   C14  846   3.073   3.275   5.482
    2V3OU   C16  847   2.971   3.190   5.522
    2V3OU    H6  848   2.992   3.103   5.587
    2V3OU   C12  849   3.211   3.231   5.514
    2V3OU    O2  850   3.238   3.121   5.566
    2V3OU   C10  851   3.325   3.302   5.453
    2V3OU    C8  852   3.459   3.270   5.472
    2V3OU   O10  853   3.494   3.149   5.522
    2V3OU   H26  854   3.410   3.111   5.553
    2V3OU    C6  855   3.567   3.354   5.430
    2V3OU    C5  856   3.537   3.472   5.362
    2V3OU    C4  857   3.704   3.296   5.424
    2V3OU    H4  858   3.726   3.229   5.512
    2V3OU    H5  859   3.710   3.237   5.328
    2V3OU    C2  860   3.819   3.398   5.425
    2V3OU    O6  861   3.809   3.474   5.546
    2V3OU   H21  862   3.764   3.557   5.524
    2V3OU    C3  863   3.785   3.499   5.316
    2V3OU    H2  864   3.864   3.577   5.302
    2V3OU    H3  865   3.788   3.442   5.220
    2V3OU   C25  866   3.956   3.333   5.404
    2V3OU    O7  867   3.996   3.309   5.290
    2V3OU   C26  868   4.029   3.293   5.531
    2V3OU   H22  869   4.066   3.392   5.567
    2V3OU   H23  870   4.115   3.227   5.507
    2V3OU    O8  871   3.964   3.214   5.628
    2V3OU   H24  872   3.923   3.271   5.695
    2V3OU    C1  873   3.650   3.567   5.333
    2V3OU    H1  874   3.624   3.618   5.236
    2V3OU    O3  875   3.652   3.655   5.445
    2V3OU   C19  876   3.618   3.793   5.425
    2V3OU    H9  877   3.516   3.804   5.379
    2V3OU    O4  878   3.718   3.846   5.342
    2V3OU   C20  879   3.844   3.874   5.403
    2V3OU   H10  880   3.889   3.771   5.413
    2V3OU   C24  881   3.610   3.860   5.562
    2V3OU   H16  882   3.543   3.796   5.624
    2V3OU   H17  883   3.563   3.958   5.533
    2V3OU   C23  884   3.748   3.876   5.628
    2V3OU   H15  885   3.791   3.771   5.640
    2V3OU    N1  886   3.738   3.952   5.751
    2V3OU   H19  887   3.813   3.932   5.814
    2V3OU   H20  888   3.646   3.937   5.786
    2V3OU   C21  889   3.851   3.950   5.536
    2V3OU   H11  890   3.948   3.929   5.591
    2V3OU    O5  891   3.835   4.091   5.535
    2V3OU   H18  892   3.774   4.112   5.608
    2V3OU   C22  893   3.916   3.952   5.295
    2V3OU   H12  894   3.866   4.051   5.280
    2V3OU   H13  895   3.909   3.895   5.198
    2V3OU   H14  896   4.023   3.960   5.326
    2V3OU   C11  897   3.162   3.470   5.363
    2V3OU    O1  898   3.138   3.584   5.317
    2V3OU    C9  899   3.300   3.427   5.390
    2V3OU    C7  900   3.401   3.510   5.342
    2V3OU    O9  901   3.389   3.619   5.259
    2V3OU   H25  902   3.293   3.634   5.262
    2V3OU   C17  903   2.821   3.315   5.388
    2V3OU    H7  904   2.717   3.344   5.367
    2V3OU   C18  905   2.842   3.208   5.474
    2V3OU    H8  906   2.764   3.148   5.522
    3SOL     OW  907   3.922   3.996   4.052
    3SOL    HW1  908   3.860   4.051   4.106
    3SOL    HW2  909   3.883   3.980   3.961
    4SOL     OW  910   6.731   0.542   0.535
    4SOL    HW1  911   6.670   0.537   0.614
    4SOL    HW2  912   6.681   0.580   0.457
    5SOL     OW  913   4.812   1.541   1.291
    5SOL    HW1  914   4.911   1.529   1.288
    5SOL    HW2  915   4.788   1.635   1.266
    6SOL     OW  916   5.710   0.493   2.684
    6SOL    HW1  917   5.726   0.460   2.777
    6SOL    HW2  918   5.734   0.590   2.678
    7SOL     OW  919   2.031   4.494   3.837
    7SOL    HW1  920   1.973   4.422   3.799
    7SOL    HW2  921   2.101   4.453   3.896
    8SOL     OW  922   1.807   3.053   5.424
    8SOL    HW1  923   1.798   3.037   5.522
    8SOL    HW2  924   1.897   3.092   5.404
    9SOL     OW  925   6.528   1.146   6.787
    9SOL    HW1  926   6.547   1.051   6.760
    9SOL    HW2  927   6.581   1.168   6.869
   10SOL     OW  928   4.463   4.706   2.900
   10SOL    HW1  929   4.537   4.771   2.915
   10SOL    HW2  930   4.499   4.613   2.896
   11SOL     OW  931   2.782   1.092   0.319
   11SOL    HW1  932   2.730   1.007   0.307
   11SOL    HW2  933   2.727   1.169   0.286
   12SOL     OW  934   2.829   5.232   3.080
   12SOL    HW1  935   2.788   5.319   3.056
   12SOL    HW2  936   2.785   5.158   3.028
   13SOL     OW  937   5.084   6.150   1.386
   13SOL    HW1  938   5.122   6.058   1.388
   13SOL    HW2  939   5.157   6.217   1.403
   14SOL     OW  940   4.444   5.561   5.261
   14SOL    HW1  941   4.501   5.519   5.190
   14SOL    HW2  942   4.488   5.645   5.293
   15SOL     OW  943   6.711   5.903   6.381
   15SOL    HW1  944   6.759   5.821   6.350
   15SOL    HW2  945   6.767   5.951   6.448
   16SOL     OW  946   1.031   4.198   5.003
   16SOL    HW1  947   0.958   4.130   4.994
   16SOL    HW2  948   1.053   4.210   5.100
   17SOL     OW  949   5.986   1.632   5.066
   17SOL    HW1  950   5.902   1.642   5.013
   17SOL    HW2  951   6.055   1.584   5.011
   18SOL     OW  952   2.780   0.755   5.630
   18SOL    HW1  953   2.713   0.807   5.683
   18SOL    HW2  954   2.867   0.754   5.678
   19SOL     OW  955   1.889   1.216   2.899
   19SOL    HW1  956   1.972   1.220   2.844
   19SOL    HW2  957   1.865   1.120   2.916
   20SOL     OW  958   6.168   1.662   5.484
   20SOL    HW1  959   6.088   1.650   5.542
   20SOL    HW2  960   6.142   1.718   5.405
   21SOL     OW  961   2.845   4.774   2.931
   21SOL    HW1  962   2.810   4.685   2.901
   21SOL    HW2  963   2.772   4.826   2.974
   22SOL     OW  964   1.912   6.114   6.099
   22SOL    HW1  965   1.815   6.100   6.121
   22SOL    HW2  966   1.969   6.068   6.167
   23SOL     OW  967   5.517   4.307   1.399
   23SOL    HW1  968   5.589   4.356   1.448
   23SOL    HW2  969   5.431   4.314   1.449
   24SOL     OW  970   4.447   1.047   1.240
   24SOL    HW1  971   4.473   1.065   1.335
   24SOL    HW2  972   4.527   1.055   1.181
   25SOL     OW  973   1.956   1.145   4.456
   25SOL    HW1  974   1.966   1.088   4.374
   25SOL    HW2  975   2.025   1.217   4.455
   26SOL     OW  976   1.317   2.942   6.937
   26SOL    HW1  977   1.322   3.010   7.011
   26SOL    HW2  978   1.228   2.898   6.939
   27SOL     OW  979   6.567   0.814   1.117
   27SOL    HW1  980   6.593   0.884   1.050
   27SOL    HW2  981   6.648   0.760   1.141
   28SOL     OW  982   2.733   1.000   5.144
   28SOL    HW1  983   2.710   0.928   5.209
   28SOL    HW2  984   2.719   0.967   5.051
   29SOL     OW  985   0.430   0.441   1.275
   29SOL    HW1  986   0.519   0.478   1.247
   29SOL    HW2  987   0.436   0.409   1.369
   30SOL     OW  988   3.938   0.547   4.732
   30SOL    HW1  989   4.027   0.526   4.772
   30SOL    HW2  990   3.944   0.632   4.679
   31SOL     OW  991   1.022   3.784   5.087
   31SOL    HW1  992   1.084   3.810   5.161
   31SOL    HW2  993   0.984   3.867   5.045
   32SOL     OW  994   2.898   0.679   1.003
   32SOL    HW1  995   2.978   0.632   1.041
   32SOL    HW2  996   2.854   0.733   1.074
   33SOL     OW  997   0.643   5.349   5.271
   33SOL    HW1  998   0.681   5.295   5.347
   33SOL    HW2  999   0.557   5.307   5.241
   34SOL     OW 1000   2.326   5.690   5.101
   34SOL    HW1 1001   2.254   5.726   5.160
   34SOL    HW2 1002   2.312   5.591   5.090
   35SOL     OW 1003   2.796   3.098   0.128
   35SOL    HW1 1004   2.822   3.071   0.221
   35SOL    HW2 1005   2.700   3.127   0.127
   36SOL     OW 1006   4.159   0.806   4.696
   36SOL    HW1 1007   4.194   0.733   4.755
   36SOL    HW2 1008   4.217   0.887   4.704
   37SOL     OW 1009   2.675   0.614   4.388
   37SOL    HW1 1010   2.753   0.553   4.403
   37SOL    HW2 1011   2.638   0.645   4.476
   38SOL     OW 1012   6.716   4.287   2.654
   38SOL    HW1 1013   6.723   4.318   2.749
   38SOL    HW2 1014   6.704   4.366   2.594
   39SOL     OW 1015   0.033   5.375   6.533
   39SOL    HW1 1016   0.103   5.404   6.598
   39SOL    HW2 1017   6.993   5.448   6.519
   40SOL     OW 1018   4.063   0.581   5.990
   40SOL    HW1 1019   4.017   0.634   6.060
   40SOL    HW2 1020   4.060   0.630   5.903
   41SOL     OW 1021   6.028   4.505   1.455
   41SOL    HW1 1022   6.087   4.481   1.378
   41SOL    HW2 1023   6.017   4.604   1.458
   42SOL     OW 1024   2.382   5.218   6.415
   42SOL    HW1 1025   2.481   5.213   6.409
   42SOL    HW2 1026   2.350   5.161   6.491
   43SOL     OW 1027   4.435   6.619   4.424
   43SOL    HW1 1028   4.437   6.716   4.401
   43SOL    HW2 1029   4.468   6.566   4.346
   44SOL     OW 1030   6.769   1.639   6.106
   44SOL    HW1 1031   6.858   1.672   6.137
   44SOL    HW2 1032   6.711   1.717   6.083
   45SOL     OW 1033   3.460   5.075   0.056
   45SOL    HW1 1034   3.441   5.141   0.129
   45SOL    HW2 1035   3.387   5.080   7.013
   46SOL     OW 1036   0.388   2.488   4.190
   46SOL    HW1 1037   0.343   2.575   4.211
   46SOL    HW2 1038   0.329   2.412   4.219
   47SOL     OW 1039   5.918   2.656   1.232
   47SOL    HW1 1040   5.838   2.605   1.199
   47SOL    HW2 1041   5.996   2.594   1.237
   48SOL     OW 1042   6.812   3.489   0.742
   48SOL    HW1 1043   6.803   3.463   0.839
   48SOL    HW2 1044   6.753   3.567   0.723
   49SOL     OW 1045   4.110   3.416   6.849
   49SOL    HW1 1046   4.169   3.438   6.927
   49SOL    HW2 1047   4.038   3.485   6.842
   50SOL     OW 1048   6.305   3.195   6.719
   50SOL    HW1 1049   6.218   3.183   6.671
   50SOL    HW2 1050   6.295   3.265   6.789
   51SOL     OW 1051   2.542   6.340   2.592
   51SOL    HW1 1052   2.554   6.241   2.589
   51SOL    HW2 1053   2.485   6.364   2.671
   52SOL     OW 1054   5.680   2.474   1.170
   52SOL    HW1 1055   5.672   2.381   1.206
   52SOL    HW2 1056   5.704   2.471   1.073
   53SOL     OW 1057   4.096   0.526   2.457
   53SOL    HW1 1058   4.188   0.562   2.476
   53SOL    HW2 1059   4.089   0.503   2.361
   54SOL     OW 1060   5.687   6.444   0.033
   54SOL    HW1 1061   5.783   6.471   0.039
   54SOL    HW2 1062   5.630   6.516   0.073
   55SOL     OW 1063   0.511   3.328   6.636
   55SOL    HW1 1064   0.524   3.263   6.560
   55SOL    HW2 1065   0.463   3.409   6.603
   56SOL     OW 1066   0.694   2.683   6.737
   56SOL    HW1 1067   0.701   2.585   6.754
   56SOL    HW2 1068   0.614   2.720   6.785
   57SOL     OW 1069   4.673   0.333   0.287
   57SOL    HW1 1070   4.630   0.248   0.257
   57SOL    HW2 1071   4.772   0.321   0.293
   58SOL     OW 1072   1.014   0.229   6.120
   58SOL    HW1 1073   0.945   0.216   6.049
   58SOL    HW2 1074   1.021   0.326   6.142
   59SOL     OW 1075   4.976   3.269   5.466
   59SOL    HW1 1076   4.985   3.346   5.529
   59SOL    HW2 1077   4.914   3.295   5.391
   60SOL     OW 1078   5.573   0.789   2.752
   60SOL    HW1 1079   5.518   0.758   2.830
   60SOL    HW2 1080   5.522   0.776   2.667
   61SOL     OW 1081   6.568   6.057   5.149
   61SOL    HW1 1082   6.572   6.155   5.169
   61SOL    HW2 1083   6.616   6.006   5.220
   62SOL     OW 1084   6.357   2.163   2.246
   62SOL    HW1 1085   6.287   2.095   2.225
   62SOL    HW2 1086   6.447   2.127   2.218
   63SOL     OW 1087   4.576   6.021   5.149
   63SOL    HW1 1088   4.666   5.985   5.122
   63SOL    HW2 1089   4.541   5.968   5.226
   64SOL     OW 1090   0.071   4.637   6.800
   64SOL    HW1 1091   0.077   4.542   6.833
   64SOL    HW2 1092   7.020   4.683   6.845
   65SOL     OW 1093   0.789   0.178   5.449
   65SOL    HW1 1094   0.709   0.177   5.509
   65SOL    HW2 1095   0.854   0.246   5.482
   66SOL     OW 1096   4.456   1.126   2.565
   66SOL    HW1 1097   4.524   1.104   2.496
   66SOL    HW2 1098   4.502   1.155   2.649
   67SOL     OW 1099   1.247   2.552   1.167
   67SOL    HW1 1100   1.208   2.577   1.078
   67SOL    HW2 1101   1.176   2.558   1.238
   68SOL     OW 1102   0.485   1.958   5.136
   68SOL    HW1 1103   0.403   1.913   5.100
   68SOL    HW2 1104   0.460   2.009   5.219
   69SOL     OW 1105   1.120   6.053   6.244
   69SOL    HW1 1106   1.171   5.969   6.263
   69SOL    HW2 1107   1.153   6.094   6.159
   70SOL     OW 1108   4.846   3.704   3.910
   70SOL    HW1 1109   4.922   3.755   3.951
   70SOL    HW2 1110   4.780   3.768   3.871
   71SOL     OW 1111   4.714   1.529   4.581
   71SOL    HW1 1112   4.626   1.493   4.550
   71SOL    HW2 1113   4.700   1.616   4.629
   72SOL     OW 1114   0.424   0.572   3.832
   72SOL    HW1 1115   0.346   0.560   3.770
   72SOL    HW2 1116   0.509   0.550   3.783
   73SOL     OW 1117   2.935   0.945   0.710
   73SOL    HW1 1118   3.011   0.902   0.759
   73SOL    HW2 1119   2.890   0.878   0.652
   74SOL     OW 1120   1.948   2.674   0.696
   74SOL    HW1 1121   2.037   2.666   0.741
   74SOL    HW2 1122   1.923   2.771   0.689
   75SOL     OW 1123   3.802   3.108   0.195
   75SOL    HW1 1124   3.749   3.158   0.263
   75SOL    HW2 1125   3.893   3.089   0.230
   76SOL     OW 1126   3.283   4.813   5.173
   76SOL    HW1 1127   3.246   4.767   5.092
   76SOL    HW2 1128   3.247   4.770   5.256
   77SOL     OW 1129   1.479   4.499   4.621
   77SOL    HW1 1130   1.462   4.566   4.549
   77SOL    HW2 1131   1.434   4.413   4.598
   78SOL     OW 1132   5.237   1.657   0.948
   78SOL    HW1 1133   5.258   1.690   1.039
   78SOL    HW2 1134   5.137   1.652   0.937
   79SOL     OW 1135   1.527   5.102   2.750
   79SOL    HW1 1136   1.435   5.141   2.752
   79SOL    HW2 1137   1.580   5.147   2.678
   80SOL     OW 1138   4.545   1.663   4.770
   80SOL    HW1 1139   4.556   1.723   4.850
   80SOL    HW2 1140   4.455   1.621   4.774
   81SOL     OW 1141   3.957   5.738   1.338
   81SOL    HW1 1142   4.043   5.787   1.349
   81SOL    HW2 1143   3.933   5.736   1.241
   82SOL     OW 1144   2.089   5.900   1.480
   82SOL    HW1 1145   2.175   5.901   1.532
   82SOL    HW2 1146   2.107   5.874   1.386
   83SOL     OW 1147   5.226   1.365   4.804
   83SOL    HW1 1148   5.162   1.354   4.728
   83SOL    HW2 1149   5.319   1.343   4.774
   84SOL     OW 1150   5.306   2.319   2.124
   84SOL    HW1 1151   5.214   2.346   2.154
   84SOL    HW2 1152   5.329   2.230   2.163
   85SOL     OW 1153   2.004   0.549   3.857
   85SOL    HW1 1154   1.971   0.506   3.941
   85SOL    HW2 1155   2.081   0.609   3.878
   86SOL     OW 1156   5.485   0.414   6.561
   86SOL    HW1 1157   5.580   0.384   6.552
   86SOL    HW2 1158   5.436   0.351   6.621
   87SOL     OW 1159   2.741   4.331   0.105
   87SOL    HW1 1160   2.804   4.382   0.047
   87SOL    HW2 1161   2.780   4.323   0.197
   88SOL     OW 1162   3.146   3.995   7.024
   88SOL    HW1 1163   3.049   4.002   0.021
   88SOL    HW2 1164   3.196   4.070   0.043
   89SOL     OW 1165   3.032   3.790   3.367
   89SOL    HW1 1166   2.991   3.825   3.451
   89SOL    HW2 1167   2.967   3.798   3.292
   90SOL     OW 1168   4.763   4.248   3.185
   90SOL    HW1 1169   4.861   4.271   3.182
   90SOL    HW2 1170   4.744   4.199   3.270
   91SOL     OW 1171   4.551   5.196   5.599
   91SOL    HW1 1172   4.466   5.249   5.605
   91SOL    HW2 1173   4.535   5.104   5.635
   92SOL     OW 1174   6.060   3.937   6.640
   92SOL    HW1 1175   6.137   3.941   6.703
   92SOL    HW2 1176   5.984   3.990   6.678
   93SOL     OW 1177   3.021   3.801   1.823
   93SOL    HW1 1178   2.951   3.730   1.815
   93SOL    HW2 1179   3.090   3.773   1.890
   94SOL     OW 1180   3.093   1.867   5.268
   94SOL    HW1 1181   3.006   1.821   5.283
   94SOL    HW2 1182   3.083   1.934   5.194
   95SOL     OW 1183   0.586   0.681   4.407
   95SOL    HW1 1184   0.633   0.731   4.480
   95SOL    HW2 1185   0.635   0.596   4.387
   96SOL     OW 1186   5.862   5.128   0.585
   96SOL    HW1 1187   5.769   5.094   0.597
   96SOL    HW2 1188   5.915   5.112   0.668
   97SOL     OW 1189   2.774   4.891   5.823
   97SOL    HW1 1190   2.774   4.801   5.779
   97SOL    HW2 1191   2.684   4.933   5.810
   98SOL     OW 1192   1.412   2.071   3.652
   98SOL    HW1 1193   1.497   2.021   3.669
   98SOL    HW2 1194   1.399   2.083   3.554
   99SOL     OW 1195   4.088   3.299   5.041
   99SOL    HW1 1196   4.166   3.362   5.035
   99SOL    HW2 1197   4.050   3.302   5.133
  100SOL     OW 1198   6.870   0.796   4.216
  100SOL    HW1 1199   6.877   0.784   4.117
  100SOL    HW2 1200   6.775   0.791   4.244
  101SOL     OW 1201   6.556   4.066   2.541
  101SOL    HW1 1202   6.534   4.017   2.625
  101SOL    HW2 1203   6.615   4.144   2.562
  102SOL     OW 1204   3.274   0.533   6.941
  102SOL    HW1 1205   3.201   0.482   6.896
  102SOL    HW2 1206   3.361   0.486   6.928
  103SOL     OW 1207   2.806   0.624   1.855
  103SOL    HW1 1208   2.826   0.689   1.928
  103SOL    HW2 1209   2.765   0.541   1.895
  104SOL     OW 1210   0.486   4.265   1.477
  104SOL    HW1 1211   0.484   4.348   1.532
  104SOL    HW2 1212   0.413   4.203   1.506
  105SOL     OW 1213   5.762   1.157   5.690
  105SOL    HW1 1214   5.772   1.072   5.639
  105SOL    HW2 1215   5.806   1.231   5.639
  106SOL     OW 1216   5.730   4.597   2.079
  106SOL    HW1 1217   5.633   4.597   2.100
  106SOL    HW2 1218   5.763   4.503   2.074
  107SOL     OW 1219   5.734   0.199   1.295
  107SOL    HW1 1220   5.651   0.150   1.323
  107SOL    HW2 1221   5.815   0.149   1.326
  108SOL     OW 1222   1.768   0.846   5.658
  108SOL    HW1 1223   1.784   0.811   5.750
  108SOL    HW2 1224   1.716   0.780   5.605
  109SOL     OW 1225   1.775   1.065   3.909
  109SOL    HW1 1226   1.689   1.103   3.943
  109SOL    HW2 1227   1.768   1.048   3.810
  110SOL     OW 1228   3.357   4.167   5.333
  110SOL    HW1 1229   3.450   4.202   5.321
  110SOL    HW2 1230   3.311   4.220   5.404
  111SOL     OW 1231   6.746   1.614   1.086
  111SOL    HW1 1232   6.651   1.624   1.057
  111SOL    HW2 1233   6.749   1.592   1.183
  112SOL     OW 1234   4.699   7.025   6.626
  112SOL    HW1 1235   4.792   7.025   6.589
  112SOL    HW2 1236   4.660   6.934   6.619
  113SOL     OW 1237   0.151   5.842   2.105
  113SOL    HW1 1238   0.098   5.818   2.024
  113SOL    HW2 1239   0.111   5.923   2.148
  114SOL     OW 1240   0.412   3.533   3.299
  114SOL    HW1 1241   0.498   3.497   3.335
  114SOL    HW2 1242   0.352   3.457   3.274
  115SOL     OW 1243   5.717   0.670   4.122
  115SOL    HW1 1244   5.631   0.640   4.078
  115SOL    HW2 1245   5.791   0.668   4.054
  116SOL     OW 1246   0.466   4.622   0.175
  116SOL    HW1 1247   0.537   4.651   0.239
  116SOL    HW2 1248   0.505   4.561   0.106
  117SOL     OW 1249   2.652   2.236   7.025
  117SOL    HW1 1250   2.594   2.276   0.070
  117SOL    HW2 1251   2.630   2.277   6.937
  118SOL     OW 1252   1.140   1.954   4.241
  118SOL    HW1 1253   1.075   1.988   4.173
  118SOL    HW2 1254   1.218   2.016   4.246
  119SOL     OW 1255   6.569   6.263   6.597
  119SOL    HW1 1256   6.494   6.277   6.661
  119SOL    HW2 1257   6.536   6.214   6.517
  120SOL     OW 1258   4.773   2.057   4.669
  120SOL    HW1 1259   4.689   2.111   4.669
  120SOL    HW2 1260   4.783   2.010   4.757
  121SOL     OW 1261   1.326   4.827   6.882
  121SOL    HW1 1262   1.339   4.731   6.908
  121SOL    HW2 1263   1.314   4.834   6.783
  122SOL     OW 1264   0.499   3.931   6.612
  122SOL    HW1 1265   0.554   3.902   6.691
  122SOL    HW2 1266   0.403   3.934   6.639
  123SOL     OW 1267   1.235   1.487   1.623
  123SOL    HW1 1268   1.170   1.416   1.595
  123SOL    HW2 1269   1.328   1.457   1.604
  124SOL     OW 1270   2.390   2.478   0.808
  124SOL    HW1 1271   2.437   2.410   0.751
  124SOL    HW2 1272   2.340   2.431   0.881
  125SOL     OW 1273   3.811   3.561   0.051
  125SOL    HW1 1274   3.776   3.468   0.052
  125SOL    HW2 1275   3.900   3.564   0.096
  126SOL     OW 1276   4.106   3.552   4.290
  126SOL    HW1 1277   4.118   3.494   4.209
  126SOL    HW2 1278   4.124   3.497   4.372
  127SOL     OW 1279   0.628   5.900   5.840
  127SOL    HW1 1280   0.543   5.851   5.824
  127SOL    HW2 1281   0.609   5.995   5.862
  128SOL     OW 1282   4.710   3.408   0.607
  128SOL    HW1 1283   4.670   3.367   0.525
  128SOL    HW2 1284   4.647   3.398   0.684
  129SOL     OW 1285   1.108   5.651   0.961
  129SOL    HW1 1286   1.037   5.601   0.912
  129SOL    HW2 1287   1.097   5.638   1.059
  130SOL     OW 1288   5.591   2.443   5.185
  130SOL    HW1 1289   5.590   2.542   5.178
  130SOL    HW2 1290   5.659   2.415   5.253
  131SOL     OW 1291   0.150   2.004   3.853
  131SOL    HW1 1292   0.071   1.946   3.833
  131SOL    HW2 1293   0.120   2.099   3.856
  132SOL     OW 1294   4.116   3.585   1.998
  132SOL    HW1 1295   4.119   3.550   1.905
  132SOL    HW2 1296   4.142   3.681   1.998
  133SOL     OW 1297   5.335   6.512   5.970
  133SOL    HW1 1298   5.338   6.538   6.066
  133SOL    HW2 1299   5.248   6.466   5.950
  134SOL     OW 1300   4.900   1.096   1.956
  134SOL    HW1 1301   4.814   1.107   1.906
  134SOL    HW2 1302   4.937   1.005   1.940
  135SOL     OW 1303   4.895   3.417   3.342
  135SOL    HW1 1304   4.857   3.350   3.279
  135SOL    HW2 1305   4.956   3.370   3.406
  136SOL     OW 1306   3.355   7.011   6.114
  136SOL    HW1 1307   3.440   7.001   6.165
  136SOL    HW2 1308   3.355   0.072   6.065
  137SOL     OW 1309   3.169   2.596   5.698
  137SOL    HW1 1310   3.199   2.691   5.691
  137SOL    HW2 1311   3.073   2.593   5.724
  138SOL     OW 1312   0.937   5.763   6.326
  138SOL    HW1 1313   0.958   5.666   6.321
  138SOL    HW2 1314   0.992   5.813   6.260
  139SOL     OW 1315   2.226   5.753   0.053
  139SOL    HW1 1316   2.278   5.675   0.089
  139SOL    HW2 1317   2.279   5.837   0.065
  140SOL     OW 1318   2.827   0.225   1.824
  140SOL    HW1 1319   2.828   0.258   1.729
  140SOL    HW2 1320   2.920   0.201   1.851
  141SOL     OW 1321   6.533   3.292   0.551
  141SOL    HW1 1322   6.520   3.205   0.597
  141SOL    HW2 1323   6.621   3.291   0.502
  142SOL     OW 1324   1.409   3.950   2.173
  142SOL    HW1 1325   1.382   3.948   2.077
  142SOL    HW2 1326   1.506   3.972   2.181
  143SOL     OW 1327   4.829   6.593   2.273
  143SOL    HW1 1328   4.856   6.587   2.369
  143SOL    HW2 1329   4.789   6.683   2.255
  144SOL     OW 1330   3.559   5.031   3.439
  144SOL    HW1 1331   3.485   4.995   3.496
  144SOL    HW2 1332   3.573   5.128   3.459
  145SOL     OW 1333   6.891   4.985   3.135
  145SOL    HW1 1334   6.949   5.011   3.058
  145SOL    HW2 1335   6.943   4.929   3.199
  146SOL     OW 1336   5.571   1.525   6.683
  146SOL    HW1 1337   5.669   1.527   6.667
  146SOL    HW2 1338   5.524   1.485   6.604
  147SOL     OW 1339   5.191   0.961   5.436
  147SOL    HW1 1340   5.274   0.974   5.489
  147SOL    HW2 1341   5.190   0.870   5.395
  148SOL     OW 1342   0.860   5.380   0.768
  148SOL    HW1 1343   0.847   5.479   0.776
  148SOL    HW2 1344   0.770   5.335   0.765
  149SOL     OW 1345   2.062   2.791   5.661
  149SOL    HW1 1346   2.073   2.837   5.750
  149SOL    HW2 1347   2.122   2.834   5.594
  150SOL     OW 1348   4.206   1.834   4.822
  150SOL    HW1 1349   4.252   1.923   4.824
  150SOL    HW2 1350   4.180   1.808   4.915
  151SOL     OW 1351   3.884   2.758   0.541
  151SOL    HW1 1352   3.960   2.781   0.602
  151SOL    HW2 1353   3.833   2.842   0.520
  152SOL     OW 1354   1.251   2.252   0.682
  152SOL    HW1 1355   1.306   2.322   0.726
  152SOL    HW2 1356   1.307   2.170   0.665
  153SOL     OW 1357   3.254   1.026   3.520
  153SOL    HW1 1358   3.200   0.960   3.468
  153SOL    HW2 1359   3.351   1.002   3.514
  154SOL     OW 1360   6.188   1.536   1.664
  154SOL    HW1 1361   6.179   1.436   1.660
  154SOL    HW2 1362   6.273   1.563   1.619
  155SOL     OW 1363   1.487   6.680   2.384
  155SOL    HW1 1364   1.501   6.694   2.286
  155SOL    HW2 1365   1.392   6.699   2.407
  156SOL     OW 1366   4.862   2.021   0.445
  156SOL    HW1 1367   4.807   2.089   0.397
  156SOL    HW2 1368   4.889   2.057   0.534
  157SOL     OW 1369   4.361   5.232   6.813
  157SOL    HW1 1370   4.310   5.245   6.728
  157SOL    HW2 1371   4.381   5.135   6.825
  158SOL     OW 1372   6.993   2.947   3.008
  158SOL    HW1 1373   0.031   3.021   2.984
  158SOL    HW2 1374   0.006   2.891   3.081
  159SOL     OW 1375   5.990   5.415   0.663
  159SOL    HW1 1376   5.979   5.504   0.621
  159SOL    HW2 1377   5.963   5.343   0.599
  160SOL     OW 1378   6.346   0.022   1.615
  160SOL    HW1 1379   6.249   0.004   1.628
  160SOL    HW2 1380   6.371   0.004   1.520
  161SOL     OW 1381   0.109   6.623   0.534
  161SOL    HW1 1382   0.150   6.701   0.486
  161SOL    HW2 1383   0.180   6.576   0.587
  162SOL     OW 1384   4.297   0.246   0.537
  162SOL    HW1 1385   4.246   0.243   0.622
  162SOL    HW2 1386   4.292   0.157   0.492
  163SOL     OW 1387   6.762   3.824   2.920
  163SOL    HW1 1388   6.808   3.909   2.947
  163SOL    HW2 1389   6.797   3.794   2.831
  164SOL     OW 1390   2.196   2.101   3.686
  164SOL    HW1 1391   2.283   2.134   3.651
  164SOL    HW2 1392   2.162   2.027   3.627
  165SOL     OW 1393   0.743   6.325   3.404
  165SOL    HW1 1394   0.706   6.265   3.475
  165SOL    HW2 1395   0.769   6.413   3.445
  166SOL     OW 1396   0.121   3.630   3.117
  166SOL    HW1 1397   0.035   3.615   3.069
  166SOL    HW2 1398   0.105   3.638   3.215
  167SOL     OW 1399   4.340   2.291   0.442
  167SOL    HW1 1400   4.400   2.238   0.383
  167SOL    HW2 1401   4.295   2.230   0.507
  168SOL     OW 1402   5.150   4.247   1.933
  168SOL    HW1 1403   5.235   4.210   1.896
  168SOL    HW2 1404   5.128   4.200   2.019
  169SOL     OW 1405   5.565   2.280   1.351
  169SOL    HW1 1406   5.492   2.282   1.283
  169SOL    HW2 1407   5.538   2.221   1.427
  170SOL     OW 1408   0.678   5.443   2.822
  170SOL    HW1 1409   0.604   5.387   2.785
  170SOL    HW2 1410   0.643   5.535   2.842
  171SOL     OW 1411   3.200   4.398   0.570
  171SOL    HW1 1412   3.203   4.368   0.474
  171SOL    HW2 1413   3.116   4.450   0.586
  172SOL     OW 1414   6.788   2.329   0.168
  172SOL    HW1 1415   6.716   2.397   0.174
  172SOL    HW2 1416   6.785   2.285   0.078
  173SOL     OW 1417   0.095   1.811   4.621
  173SOL    HW1 1418   0.058   1.795   4.530
  173SOL    HW2 1419   0.085   1.908   4.644
  174SOL     OW 1420   5.799   5.412   5.421
  174SOL    HW1 1421   5.878   5.455   5.465
  174SOL    HW2 1422   5.799   5.435   5.324
  175SOL     OW 1423   0.659   0.123   1.302
  175SOL    HW1 1424   0.633   0.176   1.221
  175SOL    HW2 1425   0.751   0.085   1.289
  176SOL     OW 1426   5.482   4.535   2.031
  176SOL    HW1 1427   5.546   4.494   1.966
  176SOL    HW2 1428   5.389   4.524   1.997
  177SOL     OW 1429   5.871   2.578   4.627
  177SOL    HW1 1430   5.902   2.649   4.564
  177SOL    HW2 1431   5.875   2.613   4.721
  178SOL     OW 1432   1.933   6.238   5.220
  178SOL    HW1 1433   1.957   6.270   5.311
  178SOL    HW2 1434   1.968   6.303   5.152
  179SOL     OW 1435   3.535   4.716   1.394
  179SOL    HW1 1436   3.486   4.653   1.454
  179SOL    HW2 1437   3.494   4.807   1.401
  180SOL     OW 1438   3.916   1.492   0.685
  180SOL    HW1 1439   3.907   1.444   0.598
  180SOL    HW2 1440   4.002   1.543   0.685
  181SOL     OW 1441   3.151   2.542   5.376
  181SOL    HW1 1442   3.205   2.539   5.460
  181SOL    HW2 1443   3.088   2.464   5.374
  182SOL     OW 1444   4.624   2.418   6.992
  182SOL    HW1 1445   4.607   2.506   6.947
  182SOL    HW2 1446   4.553   2.353   6.967
  183SOL     OW 1447   3.318   1.543   3.480
  183SOL    HW1 1448   3.354   1.630   3.446
  183SOL    HW2 1449   3.342   1.532   3.576
  184SOL     OW 1450   5.650   6.112   3.719
  184SOL    HW1 1451   5.559   6.071   3.710
  184SOL    HW2 1452   5.718   6.050   3.678
  185SOL     OW 1453   6.560   1.412   4.037
  185SOL    HW1 1454   6.502   1.494   4.041
  185SOL    HW2 1455   6.578   1.380   4.129
  186SOL     OW 1456   4.586   6.134   3.826
  186SOL    HW1 1457   4.603   6.224   3.866
  186SOL    HW2 1458   4.658   6.113   3.760
  187SOL     OW 1459   4.600   6.457   1.632
  187SOL    HW1 1460   4.615   6.454   1.731
  187SOL    HW2 1461   4.506   6.487   1.614
  188SOL     OW 1462   1.610   3.350   3.289
  188SOL    HW1 1463   1.606   3.253   3.312
  188SOL    HW2 1464   1.703   3.374   3.258
  189SOL     OW 1465   6.266   5.208   6.333
  189SOL    HW1 1466   6.176   5.196   6.291
  189SOL    HW2 1467   6.261   5.180   6.429
  190SOL     OW 1468   6.131   0.380   0.144
  190SOL    HW1 1469   6.102   0.475   0.156
  190SOL    HW2 1470   6.149   0.339   0.234
  191SOL     OW 1471   6.876   1.115   5.729
  191SOL    HW1 1472   6.897   1.071   5.642
  191SOL    HW2 1473   6.961   1.146   5.772
  192SOL     OW 1474   0.583   5.548   0.991
  192SOL    HW1 1475   0.651   5.525   1.061
  192SOL    HW2 1476   0.507   5.483   0.996
  193SOL     OW 1477   2.547   6.007   6.774
  193SOL    HW1 1478   2.509   5.931   6.827
  193SOL    HW2 1479   2.552   5.981   6.678
  194SOL     OW 1480   4.256   6.620   2.348
  194SOL    HW1 1481   4.162   6.615   2.380
  194SOL    HW2 1482   4.265   6.694   2.281
  195SOL     OW 1483   3.777   0.639   1.431
  195SOL    HW1 1484   3.813   0.638   1.525
  195SOL    HW2 1485   3.853   0.643   1.366
  196SOL     OW 1486   2.328   1.493   0.573
  196SOL    HW1 1487   2.365   1.407   0.610
  196SOL    HW2 1488   2.402   1.543   0.527
  197SOL     OW 1489   2.169   6.449   0.411
  197SOL    HW1 1490   2.204   6.542   0.400
  197SOL    HW2 1491   2.246   6.385   0.417
  198SOL     OW 1492   4.234   0.299   6.563
  198SOL    HW1 1493   4.248   0.226   6.495
  198SOL    HW2 1494   4.194   0.260   6.646
  199SOL     OW 1495   6.812   6.664   3.241
  199SOL    HW1 1496   6.755   6.745   3.246
  199SOL    HW2 1497   6.755   6.582   3.246
  200SOL     OW 1498   0.366   3.697   3.497
  200SOL    HW1 1499   0.295   3.635   3.531
  200SOL    HW2 1500   0.390   3.671   3.403
  201SOL     OW 1501   3.605   1.094   6.290
  201SOL    HW1 1502   3.634   0.999   6.287
  201SOL    HW2 1503   3.665   1.150   6.234
  202SOL     OW 1504   3.460   0.258   2.830
  202SOL    HW1 1505   3.415   0.169   2.831
  202SOL    HW2 1506   3.523   0.263   2.753
  203SOL     OW 1507   5.549   3.463   6.461
  203SOL    HW1 1508   5.534   3.551   6.505
  203SOL    HW2 1509   5.514   3.465   6.368
  204SOL     OW 1510   2.192   6.513   1.026
  204SOL    HW1 1511   2.212   6.607   1.056
  204SOL    HW2 1512   2.103   6.485   1.063
  205SOL     OW 1513   6.386   1.855   0.410
  205SOL    HW1 1514   6.397   1.786   0.481
  205SOL    HW2 1515   6.347   1.813   0.328
  206SOL     OW 1516   0.712   4.423   1.805
  206SOL    HW1 1517   0.729   4.329   1.778
  206SOL    HW2 1518   0.787   4.481   1.773
  207SOL     OW 1519   4.673   0.572   5.670
  207SOL    HW1 1520   4.632   0.548   5.582
  207SOL    HW2 1521   4.706   0.666   5.666
  208SOL     OW 1522   4.220   5.578   6.206
  208SOL    HW1 1523   4.247   5.488   6.241
  208SOL    HW2 1524   4.234   5.581   6.107
  209SOL     OW 1525   6.725   5.774   5.879
  209SOL    HW1 1526   6.684   5.723   5.803
  209SOL    HW2 1527   6.815   5.735   5.900
  210SOL     OW 1528   4.015   3.378   1.020
  210SOL    HW1 1529   4.000   3.280   1.008
  210SOL    HW2 1530   4.085   3.408   0.956
  211SOL     OW 1531   1.893   1.468   1.136
  211SOL    HW1 1532   1.816   1.532   1.131
  211SOL    HW2 1533   1.858   1.374   1.134
  212SOL     OW 1534   0.167   4.841   3.890
  212SOL    HW1 1535   0.219   4.806   3.968
  212SOL    HW2 1536   0.129   4.931   3.913
  213SOL     OW 1537   5.035   1.948   0.248
  213SOL    HW1 1538   4.974   1.928   0.171
  213SOL    HW2 1539   4.980   1.966   0.329
  214SOL     OW 1540   1.391   0.481   2.820
  214SOL    HW1 1541   1.408   0.492   2.722
  214SOL    HW2 1542   1.323   0.410   2.835
  215SOL     OW 1543   3.488   3.496   2.743
  215SOL    HW1 1544   3.391   3.508   2.724
  215SOL    HW2 1545   3.506   3.400   2.765
  216SOL     OW 1546   0.998   6.731   5.714
  216SOL    HW1 1547   0.912   6.694   5.679
  216SOL    HW2 1548   1.054   6.763   5.638
  217SOL     OW 1549   0.743   2.564   3.063
  217SOL    HW1 1550   0.779   2.579   3.156
  217SOL    HW2 1551   0.647   2.591   3.060
  218SOL     OW 1552   1.155   3.934   5.295
  218SOL    HW1 1553   1.175   3.898   5.386
  218SOL    HW2 1554   1.133   4.031   5.301
  219SOL     OW 1555   4.640   5.356   6.991
  219SOL    HW1 1556   4.561   5.409   6.960
  219SOL    HW2 1557   4.704   5.416   0.013
  220SOL     OW 1558   2.752   5.327   0.400
  220SOL    HW1 1559   2.775   5.250   0.341
  220SOL    HW2 1560   2.668   5.370   0.369
  221SOL     OW 1561   5.640   2.090   4.544
  221SOL    HW1 1562   5.556   2.053   4.585
  221SOL    HW2 1563   5.616   2.145   4.463
  222SOL     OW 1564   0.789   6.221   5.442
  222SOL    HW1 1565   0.819   6.190   5.351
  222SOL    HW2 1566   0.733   6.150   5.485
  223SOL     OW 1567   6.820   3.633   1.712
  223SOL    HW1 1568   6.903   3.669   1.755
  223SOL    HW2 1569   6.747   3.701   1.718
  224SOL     OW 1570   3.078   2.309   1.679
  224SOL    HW1 1571   3.036   2.368   1.748
  224SOL    HW2 1572   3.058   2.214   1.701
  225SOL     OW 1573   6.525   0.834   6.737
  225SOL    HW1 1574   6.582   0.753   6.726
  225SOL    HW2 1575   6.524   0.887   6.652
  226SOL     OW 1576   6.918   5.879   1.051
  226SOL    HW1 1577   6.934   5.826   0.967
  226SOL    HW2 1578   6.952   5.828   1.130
  227SOL     OW 1579   1.393   3.328   3.636
  227SOL    HW1 1580   1.327   3.390   3.679
  227SOL    HW2 1581   1.389   3.239   3.682
  228SOL     OW 1582   4.460   6.777   3.812
  228SOL    HW1 1583   4.408   6.695   3.834
  228SOL    HW2 1584   4.433   6.852   3.873
  229SOL     OW 1585   5.740   5.800   2.515
  229SOL    HW1 1586   5.797   5.721   2.495
  229SOL    HW2 1587   5.647   5.769   2.536
  230SOL     OW 1588   2.319   4.367   5.025
  230SOL    HW1 1589   2.229   4.333   4.998
  230SOL    HW2 1590   2.321   4.385   5.123
  231SOL     OW 1591   0.775   2.388   6.174
  231SOL    HW1 1592   0.791   2.486   6.166
  231SOL    HW2 1593   0.861   2.341   6.193
  232SOL     OW 1594   1.989   4.815   6.256
  232SOL    HW1 1595   2.054   4.844   6.186
  232SOL    HW2 1596   1.904   4.868   6.248
  233SOL     OW 1597   2.052   0.930   6.248
  233SOL    HW1 1598   1.992   1.008   6.230
  233SOL    HW2 1599   2.140   0.945   6.203
  234SOL     OW 1600   2.751   5.425   6.855
  234SOL    HW1 1601   2.723   5.489   6.927
  234SOL    HW2 1602   2.851   5.423   6.851
  235SOL     OW 1603   2.900   3.334   4.738
  235SOL    HW1 1604   2.884   3.431   4.753
  235SOL    HW2 1605   2.909   3.287   4.826
  236SOL     OW 1606   6.617   2.042   5.270
  236SOL    HW1 1607   6.569   2.014   5.353
  236SOL    HW2 1608   6.699   1.986   5.259
  237SOL     OW 1609   0.584   0.147   1.544
  237SOL    HW1 1610   0.608   0.126   1.449
  237SOL    HW2 1611   0.539   0.236   1.549
  238SOL     OW 1612   5.923   2.292   2.675
  238SOL    HW1 1613   5.895   2.379   2.716
  238SOL    HW2 1614   6.017   2.271   2.704
  239SOL     OW 1615   0.142   5.847   0.513
  239SOL    HW1 1616   0.232   5.816   0.543
  239SOL    HW2 1617   0.111   5.920   0.574
  240SOL     OW 1618   0.460   4.005   5.720
  240SOL    HW1 1619   0.369   4.044   5.706
  240SOL    HW2 1620   0.458   3.938   5.794
  241SOL     OW 1621   0.449   0.686   3.264
  241SOL    HW1 1622   0.540   0.727   3.274
  241SOL    HW2 1623   0.451   0.592   3.298
  242SOL     OW 1624   1.782   4.023   4.283
  242SOL    HW1 1625   1.866   3.969   4.276
  242SOL    HW2 1626   1.718   3.978   4.345
  243SOL     OW 1627   5.292   0.056   5.573
  243SOL    HW1 1628   5.317   6.998   5.525
  243SOL    HW2 1629   5.286   0.037   5.671
  244SOL     OW 1630   6.038   2.213   6.154
  244SOL    HW1 1631   6.064   2.170   6.240
  244SOL    HW2 1632   6.102   2.185   6.082
  245SOL     OW 1633   5.628   2.035   4.198
  245SOL    HW1 1634   5.652   1.973   4.124
  245SOL    HW2 1635   5.682   2.119   4.190
  246SOL     OW 1636   5.137   3.142   3.115
  246SOL    HW1 1637   5.190   3.156   3.199
  246SOL    HW2 1638   5.040   3.138   3.138
  247SOL     OW 1639   2.475   1.439   3.771
  247SOL    HW1 1640   2.408   1.406   3.704
  247SOL    HW2 1641   2.567   1.430   3.734
  248SOL     OW 1642   6.332   1.422   3.373
  248SOL    HW1 1643   6.281   1.469   3.446
  248SOL    HW2 1644   6.305   1.458   3.284
  249SOL     OW 1645   2.845   6.892   3.827
  249SOL    HW1 1646   2.898   6.807   3.827
  249SOL    HW2 1647   2.872   6.948   3.748
  250SOL     OW 1648   5.133   2.882   6.111
  250SOL    HW1 1649   5.088   2.946   6.174
  250SOL    HW2 1650   5.101   2.899   6.018
  251SOL     OW 1651   3.714   2.548   0.542
  251SOL    HW1 1652   3.784   2.619   0.537
  251SOL    HW2 1653   3.652   2.557   0.464
  252SOL     OW 1654   0.285   0.701   5.812
  252SOL    HW1 1655   0.294   0.788   5.763
  252SOL    HW2 1656   0.206   0.705   5.873
  253SOL     OW 1657   3.003   3.441   6.913
  253SOL    HW1 1658   2.988   3.345   6.939
  253SOL    HW2 1659   3.078   3.446   6.848
  254SOL     OW 1660   5.898   3.289   5.229
  254SOL    HW1 1661   5.873   3.193   5.228
  254SOL    HW2 1662   5.848   3.338   5.157
  255SOL     OW 1663   2.716   1.952   3.559
  255SOL    HW1 1664   2.625   1.958   3.518
  255SOL    HW2 1665   2.754   2.045   3.568
  256SOL     OW 1666   5.878   4.971   6.848
  256SOL    HW1 1667   5.897   5.069   6.856
  256SOL    HW2 1668   5.818   4.943   6.923
  257SOL     OW 1669   3.310   6.590   6.127
  257SOL    HW1 1670   3.366   6.508   6.139
  257SOL    HW2 1671   3.326   6.653   6.203
  258SOL     OW 1672   5.468   4.426   4.520
  258SOL    HW1 1673   5.407   4.352   4.493
  258SOL    HW2 1674   5.562   4.392   4.522
  259SOL     OW 1675   1.520   2.164   2.204
  259SOL    HW1 1676   1.530   2.157   2.303
  259SOL    HW2 1677   1.610   2.177   2.162
  260SOL     OW 1678   5.504   0.408   5.913
  260SOL    HW1 1679   5.423   0.361   5.949
  260SOL    HW2 1680   5.557   0.344   5.857
  261SOL     OW 1681   0.723   3.473   2.538
  261SOL    HW1 1682   0.798   3.408   2.524
  261SOL    HW2 1683   0.716   3.494   2.635
  262SOL     OW 1684   0.828   4.743   1.944
  262SOL    HW1 1685   0.758   4.808   1.915
  262SOL    HW2 1686   0.900   4.739   1.875
  263SOL     OW 1687   0.976   2.090   4.080
  263SOL    HW1 1688   0.905   2.133   4.135
  263SOL    HW2 1689   0.934   2.029   4.013
  264SOL     OW 1690   2.595   4.447   6.418
  264SOL    HW1 1691   2.515   4.497   6.451
  264SOL    HW2 1692   2.586   4.350   6.441
  265SOL     OW 1693   5.589   3.897   4.659
  265SOL    HW1 1694   5.599   3.865   4.565
  265SOL    HW2 1695   5.493   3.922   4.675
  266SOL     OW 1696   4.046   1.576   0.342
  266SOL    HW1 1697   4.141   1.607   0.330
  266SOL    HW2 1698   3.987   1.656   0.353
  267SOL     OW 1699   0.971   2.586   5.858
  267SOL    HW1 1700   1.037   2.511   5.863
  267SOL    HW2 1701   0.991   2.654   5.928
  268SOL     OW 1702   3.856   4.903   4.535
  268SOL    HW1 1703   3.901   4.992   4.528
  268SOL    HW2 1704   3.773   4.904   4.479
  269SOL     OW 1705   0.520   1.282   5.551
  269SOL    HW1 1706   0.607   1.235   5.536
  269SOL    HW2 1707   0.537   1.378   5.573
  270SOL     OW 1708   4.879   0.968   3.897
  270SOL    HW1 1709   4.956   0.916   3.933
  270SOL    HW2 1710   4.904   1.009   3.809
  271SOL     OW 1711   1.472   0.945   0.358
  271SOL    HW1 1712   1.501   0.911   0.448
  271SOL    HW2 1713   1.403   0.883   0.321
  272SOL     OW 1714   3.288   5.437   3.374
  272SOL    HW1 1715   3.269   5.529   3.409
  272SOL    HW2 1716   3.329   5.443   3.283
  273SOL     OW 1717   2.752   6.434   5.594
  273SOL    HW1 1718   2.720   6.515   5.544
  273SOL    HW2 1719   2.724   6.442   5.690
  274SOL     OW 1720   6.269   2.065   1.340
  274SOL    HW1 1721   6.316   2.140   1.387
  274SOL    HW2 1722   6.337   2.006   1.297
  275SOL     OW 1723   6.297   5.984   5.249
  275SOL    HW1 1724   6.366   6.055   5.235
  275SOL    HW2 1725   6.296   5.922   5.170
  276SOL     OW 1726   6.457   6.156   3.670
  276SOL    HW1 1727   6.553   6.137   3.646
  276SOL    HW2 1728   6.417   6.216   3.601
  277SOL     OW 1729   4.855   1.374   5.367
  277SOL    HW1 1730   4.844   1.420   5.456
  277SOL    HW2 1731   4.919   1.298   5.377
  278SOL     OW 1732   6.028   3.210   2.539
  278SOL    HW1 1733   5.984   3.155   2.610
  278SOL    HW2 1734   6.038   3.156   2.456
  279SOL     OW 1735   6.795   2.696   4.291
  279SOL    HW1 1736   6.850   2.770   4.252
  279SOL    HW2 1737   6.836   2.608   4.269
  280SOL     OW 1738   3.119   0.925   4.093
  280SOL    HW1 1739   3.210   0.899   4.125
  280SOL    HW2 1740   3.055   0.850   4.110
  281SOL     OW 1741   5.292   6.104   3.964
  281SOL    HW1 1742   5.346   6.185   3.987
  281SOL    HW2 1743   5.298   6.038   4.039
  282SOL     OW 1744   3.631   1.678   0.511
  282SOL    HW1 1745   3.577   1.741   0.454
  282SOL    HW2 1746   3.606   1.584   0.489
  283SOL     OW 1747   6.287   1.538   5.074
  283SOL    HW1 1748   6.383   1.526   5.098
  283SOL    HW2 1749   6.229   1.508   5.150
  284SOL     OW 1750   5.471   5.775   3.784
  284SOL    HW1 1751   5.449   5.805   3.877
  284SOL    HW2 1752   5.551   5.716   3.787
  285SOL     OW 1753   4.594   0.487   5.920
  285SOL    HW1 1754   4.646   0.507   5.837
  285SOL    HW2 1755   4.496   0.489   5.900
  286SOL     OW 1756   2.595   5.169   5.085
  286SOL    HW1 1757   2.587   5.260   5.127
  286SOL    HW2 1758   2.689   5.135   5.098
  287SOL     OW 1759   3.064   6.859   5.826
  287SOL    HW1 1760   3.005   6.940   5.831
  287SOL    HW2 1761   3.149   6.884   5.780
  288SOL     OW 1762   3.788   1.059   1.169
  288SOL    HW1 1763   3.742   1.145   1.148
  288SOL    HW2 1764   3.764   1.030   1.262
  289SOL     OW 1765   6.027   6.247   4.058
  289SOL    HW1 1766   6.077   6.312   4.001
  289SOL    HW2 1767   5.989   6.295   4.137
  290SOL     OW 1768   3.586   1.319   5.277
  290SOL    HW1 1769   3.549   1.388   5.215
  290SOL    HW2 1770   3.624   1.364   5.357
  291SOL     OW 1771   3.813   6.790   5.113
  291SOL    HW1 1772   3.750   6.733   5.060
  291SOL    HW2 1773   3.833   6.746   5.201
  292SOL     OW 1774   4.784   0.137   3.770
  292SOL    HW1 1775   4.690   0.103   3.767
  292SOL    HW2 1776   4.833   0.105   3.690
  293SOL     OW 1777   5.629   6.551   2.473
  293SOL    HW1 1778   5.660   6.641   2.442
  293SOL    HW2 1779   5.622   6.551   2.572
  294SOL     OW 1780   5.973   0.742   5.500
  294SOL    HW1 1781   6.044   0.747   5.429
  294SOL    HW2 1782   6.004   0.683   5.574
  295SOL     OW 1783   1.764   1.469   4.939
  295SOL    HW1 1784   1.782   1.455   5.036
  295SOL    HW2 1785   1.846   1.449   4.886
  296SOL     OW 1786   0.014   2.690   1.141
  296SOL    HW1 1787   0.093   2.706   1.201
  296SOL    HW2 1788   6.982   2.618   1.179
  297SOL     OW 1789   5.398   3.517   4.046
  297SOL    HW1 1790   5.302   3.538   4.030
  297SOL    HW2 1791   5.410   3.418   4.055
  298SOL     OW 1792   3.763   0.927   6.541
  298SOL    HW1 1793   3.696   0.889   6.478
  298SOL    HW2 1794   3.818   0.853   6.580
  299SOL     OW 1795   2.089   0.761   6.455
  299SOL    HW1 1796   2.182   0.777   6.488
  299SOL    HW2 1797   2.064   0.832   6.390
  300SOL     OW 1798   4.248   0.098   3.186
  300SOL    HW1 1799   4.196   0.049   3.256
  300SOL    HW2 1800   4.202   0.184   3.164
  301SOL     OW 1801   6.581   5.332   0.971
  301SOL    HW1 1802   6.652   5.384   1.019
  301SOL    HW2 1803   6.495   5.338   1.022
  302SOL     OW 1804   6.390   5.945   1.457
  302SOL    HW1 1805   6.461   5.983   1.398
  302SOL    HW2 1806   6.432   5.893   1.531
  303SOL     OW 1807   5.355   5.595   2.279
  303SOL    HW1 1808   5.374   5.693   2.282
  303SOL    HW2 1809   5.440   5.545   2.263
  304SOL     OW 1810   2.762   6.305   5.120
  304SOL    HW1 1811   2.767   6.258   5.208
  304SOL    HW2 1812   2.667   6.312   5.091
  305SOL     OW 1813   1.106   2.744   2.209
  305SOL    HW1 1814   1.128   2.767   2.304
  305SOL    HW2 1815   1.007   2.727   2.201
  306SOL     OW 1816   6.640   0.277   2.737
  306SOL    HW1 1817   6.690   0.248   2.656
  306SOL    HW2 1818   6.644   0.376   2.747
  307SOL     OW 1819   3.328   2.996   3.257
  307SOL    HW1 1820   3.388   3.035   3.328
  307SOL    HW2 1821   3.379   2.987   3.172
  308SOL     OW 1822   5.660   1.903   3.660
  308SOL    HW1 1823   5.590   1.886   3.729
  308SOL    HW2 1824   5.695   1.996   3.670
  309SOL     OW 1825   1.263   6.212   6.030
  309SOL    HW1 1826   1.276   6.294   6.086
  309SOL    HW2 1827   1.221   6.238   5.943
  310SOL     OW 1828   5.322   6.294   4.954
  310SOL    HW1 1829   5.277   6.383   4.948
  310SOL    HW2 1830   5.330   6.255   4.862
  311SOL     OW 1831   2.121   5.157   2.792
  311SOL    HW1 1832   2.113   5.256   2.808
  311SOL    HW2 1833   2.173   5.141   2.708
  312SOL     OW 1834   4.607   2.142   2.974
  312SOL    HW1 1835   4.704   2.126   2.957
  312SOL    HW2 1836   4.593   2.164   3.071
  313SOL     OW 1837   4.088   3.184   2.905
  313SOL    HW1 1838   4.144   3.264   2.879
  313SOL    HW2 1839   4.122   3.146   2.991
  314SOL     OW 1840   2.541   6.322   6.052
  314SOL    HW1 1841   2.464   6.380   6.024
  314SOL    HW2 1842   2.532   6.300   6.149
  315SOL     OW 1843   6.596   1.637   3.381
  315SOL    HW1 1844   6.645   1.553   3.404
  315SOL    HW2 1845   6.553   1.674   3.464
  316SOL     OW 1846   3.748   1.364   5.502
  316SOL    HW1 1847   3.818   1.431   5.477
  316SOL    HW2 1848   3.718   1.379   5.596
  317SOL     OW 1849   1.475   1.395   1.519
  317SOL    HW1 1850   1.469   1.340   1.435
  317SOL    HW2 1851   1.561   1.446   1.518
  318SOL     OW 1852   0.632   0.624   5.527
  318SOL    HW1 1853   0.717   0.605   5.477
  318SOL    HW2 1854   0.558   0.568   5.489
  319SOL     OW 1855   1.326   2.107   2.634
  319SOL    HW1 1856   1.334   2.109   2.734
  319SOL    HW2 1857   1.300   2.015   2.605
  320SOL     OW 1858   5.873   2.192   6.495
  320SOL    HW1 1859   5.825   2.173   6.581
  320SOL    HW2 1860   5.839   2.277   6.456
  321SOL     OW 1861   4.316   3.209   0.919
  321SOL    HW1 1862   4.250   3.143   0.883
  321SOL    HW2 1863   4.348   3.179   1.008
  322SOL     OW 1864   3.706   3.210   6.151
  322SOL    HW1 1865   3.744   3.235   6.240
  322SOL    HW2 1866   3.608   3.225   6.151
  323SOL     OW 1867   0.472   2.975   3.104
  323SOL    HW1 1868   0.469   3.067   3.066
  323SOL    HW2 1869   0.550   2.925   3.066
  324SOL     OW 1870   0.181   6.900   4.042
  324SOL    HW1 1871   0.241   6.980   4.039
  324SOL    HW2 1872   0.236   6.818   4.063
  325SOL     OW 1873   0.473   3.969   2.714
  325SOL    HW1 1874   0.562   3.965   2.669
  325SOL    HW2 1875   0.456   4.062   2.746
  326SOL     OW 1876   0.650   6.403   6.549
  326SOL    HW1 1877   0.677   6.499   6.540
  326SOL    HW2 1878   0.560   6.390   6.507
  327SOL     OW 1879   3.888   5.188   3.501
  327SOL    HW1 1880   3.967   5.169   3.559
  327SOL    HW2 1881   3.914   5.180   3.405
  328SOL     OW 1882   2.091   3.722   2.765
  328SOL    HW1 1883   2.129   3.630   2.765
  328SOL    HW2 1884   2.083   3.755   2.859
  329SOL     OW 1885   3.162   4.026   2.322
  329SOL    HW1 1886   3.164   3.985   2.231
  329SOL    HW2 1887   3.248   4.073   2.339
  330SOL     OW 1888   3.508   4.964   0.801
  330SOL    HW1 1889   3.573   4.889   0.791
  330SOL    HW2 1890   3.446   4.964   0.723
  331SOL     OW 1891   5.078   5.209   6.586
  331SOL    HW1 1892   5.135   5.156   6.649
  331SOL    HW2 1893   4.982   5.201   6.615
  332SOL     OW 1894   5.306   2.527   3.109
  332SOL    HW1 1895   5.219   2.577   3.105
  332SOL    HW2 1896   5.329   2.494   3.017
  333SOL     OW 1897   3.501   1.255   5.957
  333SOL    HW1 1898   3.434   1.298   6.017
  333SOL    HW2 1899   3.477   1.274   5.862
  334SOL     OW 1900   3.507   3.288   2.975
  334SOL    HW1 1901   3.419   3.261   3.015
  334SOL    HW2 1902   3.546   3.364   3.028
  335SOL     OW 1903   3.326   0.311   5.730
  335SOL    HW1 1904   3.230   0.288   5.746
  335SOL    HW2 1905   3.332   0.399   5.683
  336SOL     OW 1906   2.882   1.727   3.208
  336SOL    HW1 1907   2.829   1.785   3.147
  336SOL    HW2 1908   2.932   1.658   3.154
  337SOL     OW 1909   2.365   6.910   5.904
  337SOL    HW1 1910   2.441   6.870   5.853
  337SOL    HW2 1911   2.328   6.987   5.853
  338SOL     OW 1912   4.907   1.891   1.488
  338SOL    HW1 1913   4.898   1.830   1.567
  338SOL    HW2 1914   4.848   1.859   1.414
  339SOL     OW 1915   4.086   5.022   5.035
  339SOL    HW1 1916   4.053   5.089   5.102
  339SOL    HW2 1917   4.041   5.038   4.947
  340SOL     OW 1918   4.782   2.061   3.470
  340SOL    HW1 1919   4.882   2.058   3.470
  340SOL    HW2 1920   4.749   2.083   3.562
  341SOL     OW 1921   5.442   0.109   3.875
  341SOL    HW1 1922   5.413   0.025   3.829
  341SOL    HW2 1923   5.419   0.188   3.818
  342SOL     OW 1924   4.774   2.266   1.634
  342SOL    HW1 1925   4.767   2.348   1.692
  342SOL    HW2 1926   4.734   2.285   1.545
  343SOL     OW 1927   0.539   5.670   2.909
  343SOL    HW1 1928   0.593   5.639   2.987
  343SOL    HW2 1929   0.446   5.693   2.939
  344SOL     OW 1930   2.121   1.450   1.958
  344SOL    HW1 1931   2.188   1.502   1.904
  344SOL    HW2 1932   2.150   1.355   1.964
  345SOL     OW 1933   6.080   3.443   4.370
  345SOL    HW1 1934   6.081   3.509   4.295
  345SOL    HW2 1935   5.999   3.459   4.427
  346SOL     OW 1936   1.657   6.762   3.217
  346SOL    HW1 1937   1.740   6.779   3.271
  346SOL    HW2 1938   1.679   6.766   3.120
  347SOL     OW 1939   2.925   5.341   0.666
  347SOL    HW1 1940   2.880   5.350   0.577
  347SOL    HW2 1941   2.887   5.410   0.729
  348SOL     OW 1942   4.965   5.732   2.198
  348SOL    HW1 1943   4.949   5.695   2.289
  348SOL    HW2 1944   4.997   5.826   2.205
  349SOL     OW 1945   6.146   4.425   1.218
  349SOL    HW1 1946   6.166   4.499   1.154
  349SOL    HW2 1947   6.156   4.337   1.171
  350SOL     OW 1948   3.224   3.131   0.232
  350SOL    HW1 1949   3.266   3.202   0.174
  350SOL    HW2 1950   3.255   3.143   0.326
  351SOL     OW 1951   2.915   4.515   1.177
  351SOL    HW1 1952   2.994   4.470   1.219
  351SOL    HW2 1953   2.888   4.594   1.232
  352SOL     OW 1954   3.576   6.751   3.086
  352SOL    HW1 1955   3.532   6.677   3.036
  352SOL    HW2 1956   3.650   6.790   3.031
  353SOL     OW 1957   2.114   6.095   6.785
  353SOL    HW1 1958   2.206   6.118   6.817
  353SOL    HW2 1959   2.065   6.180   6.763
  354SOL     OW 1960   6.756   2.598   0.582
  354SOL    HW1 1961   6.720   2.597   0.675
  354SOL    HW2 1962   6.780   2.504   0.555
  355SOL     OW 1963   1.972   2.064   2.650
  355SOL    HW1 1964   2.040   2.069   2.724
  355SOL    HW2 1965   1.992   2.132   2.581
  356SOL     OW 1966   1.029   6.770   6.262
  356SOL    HW1 1967   0.988   6.740   6.175
  356SOL    HW2 1968   1.127   6.747   6.262
  357SOL     OW 1969   5.865   6.365   4.666
  357SOL    HW1 1970   5.821   6.282   4.633
  357SOL    HW2 1971   5.956   6.373   4.624
  358SOL     OW 1972   4.914   5.879   0.447
  358SOL    HW1 1973   4.977   5.955   0.462
  358SOL    HW2 1974   4.823   5.903   0.481
  359SOL     OW 1975   3.083   2.123   2.110
  359SOL    HW1 1976   3.088   2.046   2.046
  359SOL    HW2 1977   3.017   2.190   2.077
  360SOL     OW 1978   1.584   4.664   4.212
  360SOL    HW1 1979   1.633   4.614   4.141
  360SOL    HW2 1980   1.522   4.730   4.171
  361SOL     OW 1981   6.517   6.557   3.206
  361SOL    HW1 1982   6.539   6.490   3.136
  361SOL    HW2 1983   6.509   6.647   3.164
  362SOL     OW 1984   3.690   4.340   1.171
  362SOL    HW1 1985   3.781   4.382   1.171
  362SOL    HW2 1986   3.685   4.273   1.097
  363SOL     OW 1987   5.610   5.514   2.504
  363SOL    HW1 1988   5.542   5.452   2.543
  363SOL    HW2 1989   5.620   5.496   2.406
  364SOL     OW 1990   0.660   5.673   6.686
  364SOL    HW1 1991   0.725   5.606   6.722
  364SOL    HW2 1992   0.621   5.639   6.600
  365SOL     OW 1993   3.723   1.945   2.792
  365SOL    HW1 1994   3.628   1.964   2.769
  365SOL    HW2 1995   3.782   2.014   2.750
  366SOL     OW 1996   5.811   2.432   0.405
  366SOL    HW1 1997   5.871   2.475   0.337
  366SOL    HW2 1998   5.798   2.336   0.382
  367SOL     OW 1999   4.443   1.930   5.565
  367SOL    HW1 2000   4.354   1.890   5.543
  367SOL    HW2 2001   4.461   1.923   5.663
  368SOL     OW 2002   6.627   2.216   5.943
  368SOL    HW1 2003   6.548   2.276   5.927
  368SOL    HW2 2004   6.699   2.267   5.989
  369SOL     OW 2005   5.571   3.400   2.288
  369SOL    HW1 2006   5.624   3.360   2.214
  369SOL    HW2 2007   5.493   3.340   2.309
  370SOL     OW 2008   2.051   3.301   4.320
  370SOL    HW1 2009   2.088   3.387   4.355
  370SOL    HW2 2010   1.959   3.286   4.358
  371SOL     OW 2011   1.299   4.199   6.523
  371SOL    HW1 2012   1.363   4.266   6.487
  371SOL    HW2 2013   1.208   4.239   6.528
  372SOL     OW 2014   3.069   6.616   5.953
  372SOL    HW1 2015   3.139   6.622   6.024
  372SOL    HW2 2016   3.068   6.700   5.898
  373SOL     OW 2017   6.407   6.242   4.409
  373SOL    HW1 2018   6.381   6.178   4.337
  373SOL    HW2 2019   6.369   6.212   4.496
  374SOL     OW 2020   2.478   1.526   2.647
  374SOL    HW1 2021   2.396   1.557   2.694
  374SOL    HW2 2022   2.476   1.557   2.552
  375SOL     OW 2023   0.969   4.572   5.164
  375SOL    HW1 2024   0.918   4.526   5.092
  375SOL    HW2 2025   1.050   4.616   5.125
  376SOL     OW 2026   2.539   0.776   4.235
  376SOL    HW1 2027   2.449   0.749   4.269
  376SOL    HW2 2028   2.610   0.723   4.283
  377SOL     OW 2029   1.553   2.554   6.436
  377SOL    HW1 2030   1.516   2.605   6.359
  377SOL    HW2 2031   1.482   2.496   6.476
  378SOL     OW 2032   3.039   1.779   1.508
  378SOL    HW1 2033   3.137   1.777   1.489
  378SOL    HW2 2034   3.005   1.685   1.518
  379SOL     OW 2035   6.013   2.478   6.117
  379SOL    HW1 2036   6.005   2.380   6.137
  379SOL    HW2 2037   6.109   2.500   6.099
  380SOL     OW 2038   3.888   1.569   1.365
  380SOL    HW1 2039   3.797   1.573   1.408
  380SOL    HW2 2040   3.890   1.494   1.299
  381SOL     OW 2041   1.466   4.534   3.374
  381SOL    HW1 2042   1.549   4.588   3.390
  381SOL    HW2 2043   1.434   4.548   3.280
  382SOL     OW 2044   5.928   0.394   0.470
  382SOL    HW1 2045   5.998   0.365   0.404
  382SOL    HW2 2046   5.958   0.477   0.516
  383SOL     OW 2047   3.834   2.728   1.306
  383SOL    HW1 2048   3.762   2.695   1.367
  383SOL    HW2 2049   3.916   2.750   1.360
  384SOL     OW 2050   6.436   4.294   4.631
  384SOL    HW1 2051   6.360   4.340   4.585
  384SOL    HW2 2052   6.523   4.333   4.601
  385SOL     OW 2053   4.742   4.910   6.682
  385SOL    HW1 2054   4.708   4.872   6.768
  385SOL    HW2 2055   4.771   4.835   6.622
  386SOL     OW 2056   3.844   0.142   3.895
  386SOL    HW1 2057   3.911   0.197   3.944
  386SOL    HW2 2058   3.884   0.110   3.809
  387SOL     OW 2059   2.147   5.534   3.751
  387SOL    HW1 2060   2.080   5.605   3.772
  387SOL    HW2 2061   2.114   5.446   3.787
  388SOL     OW 2062   2.304   2.452   6.714
  388SOL    HW1 2063   2.342   2.520   6.651
  388SOL    HW2 2064   2.286   2.496   6.802
  389SOL     OW 2065   2.964   3.540   3.788
  389SOL    HW1 2066   2.900   3.550   3.713
  389SOL    HW2 2067   3.056   3.521   3.752
  390SOL     OW 2068   2.251   1.905   4.322
  390SOL    HW1 2069   2.229   1.856   4.238
  390SOL    HW2 2070   2.347   1.934   4.320
  391SOL     OW 2071   0.977   2.679   6.595
  391SOL    HW1 2072   1.023   2.590   6.601
  391SOL    HW2 2073   0.893   2.677   6.649
  392SOL     OW 2074   2.492   5.267   1.978
  392SOL    HW1 2075   2.591   5.251   1.973
  392SOL    HW2 2076   2.475   5.355   2.023
  393SOL     OW 2077   5.878   4.547   5.323
  393SOL    HW1 2078   5.939   4.595   5.386
  393SOL    HW2 2079   5.877   4.450   5.344
  394SOL     OW 2080   0.292   6.690   0.110
  394SOL    HW1 2081   0.298   6.789   0.096
  394SOL    HW2 2082   0.211   6.655   0.064
  395SOL     OW 2083   5.313   3.856   2.269
  395SOL    HW1 2084   5.315   3.831   2.366
  395SOL    HW2 2085   5.367   3.790   2.217
  396SOL     OW 2086   3.258   4.093   3.618
  396SOL    HW1 2087   3.288   4.148   3.540
  396SOL    HW2 2088   3.246   3.998   3.589
  397SOL     OW 2089   4.454   2.212   5.485
  397SOL    HW1 2090   4.426   2.123   5.520
  397SOL    HW2 2091   4.400   2.235   5.404
  398SOL     OW 2092   1.075   5.473   2.300
  398SOL    HW1 2093   1.104   5.567   2.287
  398SOL    HW2 2094   1.087   5.423   2.214
  399SOL     OW 2095   4.948   5.626   1.348
  399SOL    HW1 2096   4.938   5.713   1.396
  399SOL    HW2 2097   4.922   5.551   1.408
  400SOL     OW 2098   0.035   6.385   5.491
  400SOL    HW1 2099   0.006   6.385   5.396
  400SOL    HW2 2100   0.126   6.424   5.498
  401SOL     OW 2101   4.839   1.476   6.230
  401SOL    HW1 2102   4.869   1.568   6.255
  401SOL    HW2 2103   4.771   1.482   6.157
  402SOL     OW 2104   6.402   5.975   2.852
  402SOL    HW1 2105   6.473   6.045   2.847
  402SOL    HW2 2106   6.378   5.958   2.948
  403SOL     OW 2107   4.877   2.263   5.966
  403SOL    HW1 2108   4.842   2.355   5.977
  403SOL    HW2 2109   4.801   2.198   5.958
  404SOL     OW 2110   1.156   6.702   4.118
  404SOL    HW1 2111   1.176   6.650   4.034
  404SOL    HW2 2112   1.096   6.779   4.096
  405SOL     OW 2113   1.951   2.586   0.434
  405SOL    HW1 2114   1.941   2.495   0.474
  405SOL    HW2 2115   1.960   2.653   0.507
  406SOL     OW 2116   1.333   2.149   4.315
  406SOL    HW1 2117   1.341   2.223   4.248
  406SOL    HW2 2118   1.364   2.182   4.404
  407SOL     OW 2119   3.014   0.070   4.783
  407SOL    HW1 2120   3.099   0.058   4.835
  407SOL    HW2 2121   2.978   7.007   4.757
  408SOL     OW 2122   1.567   0.070   3.658
  408SOL    HW1 2123   1.633   0.080   3.584
  408SOL    HW2 2124   1.506   0.150   3.660
  409SOL     OW 2125   6.309   2.919   3.108
  409SOL    HW1 2126   6.310   2.891   3.204
  409SOL    HW2 2127   6.368   2.998   3.096
  410SOL     OW 2128   2.011   0.165   6.908
  410SOL    HW1 2129   2.090   0.218   6.940
  410SOL    HW2 2130   1.929   0.198   6.954
  411SOL     OW 2131   5.777   5.035   6.133
  411SOL    HW1 2132   5.701   5.052   6.070
  411SOL    HW2 2133   5.810   4.941   6.120
  412SOL     OW 2134   3.585   6.473   2.851
  412SOL    HW1 2135   3.493   6.473   2.890
  412SOL    HW2 2136   3.635   6.394   2.885
  413SOL     OW 2137   3.249   5.554   0.524
  413SOL    HW1 2138   3.272   5.550   0.427
  413SOL    HW2 2139   3.285   5.472   0.570
  414SOL     OW 2140   4.668   4.951   1.335
  414SOL    HW1 2141   4.626   4.860   1.329
  414SOL    HW2 2142   4.697   4.981   1.244
  415SOL     OW 2143   1.708   5.905   1.134
  415SOL    HW1 2144   1.750   5.994   1.153
  415SOL    HW2 2145   1.724   5.881   1.038
  416SOL     OW 2146   3.722   5.978   4.993
  416SOL    HW1 2147   3.707   5.881   4.971
  416SOL    HW2 2148   3.643   6.031   4.964
  417SOL     OW 2149   3.146   6.099   2.173
  417SOL    HW1 2150   3.134   6.001   2.181
  417SOL    HW2 2151   3.057   6.143   2.158
  418SOL     OW 2152   4.723   6.281   0.691
  418SOL    HW1 2153   4.750   6.374   0.669
  418SOL    HW2 2154   4.788   6.241   0.756
  419SOL     OW 2155   0.093   0.546   1.031
  419SOL    HW1 2156   0.106   0.561   0.933
  419SOL    HW2 2157   0.182   0.545   1.076
  420SOL     OW 2158   5.510   3.929   0.730
  420SOL    HW1 2159   5.570   3.961   0.803
  420SOL    HW2 2160   5.512   3.829   0.727
  421SOL     OW 2161   1.875   5.100   5.992
  421SOL    HW1 2162   1.944   5.152   6.042
  421SOL    HW2 2163   1.802   5.073   6.055
  422SOL     OW 2164   6.195   4.986   0.158
  422SOL    HW1 2165   6.227   5.076   0.189
  422SOL    HW2 2166   6.120   4.955   0.217
  423SOL     OW 2167   5.971   2.947   6.848
  423SOL    HW1 2168   5.899   3.015   6.864
  423SOL    HW2 2169   6.059   2.983   6.881
  424SOL     OW 2170   2.718   4.126   6.922
  424SOL    HW1 2171   2.686   4.162   7.009
  424SOL    HW2 2172   2.773   4.043   6.939
  425SOL     OW 2173   5.323   1.613   1.265
  425SOL    HW1 2174   5.326   1.708   1.296
  425SOL    HW2 2175   5.227   1.584   1.257
  426SOL     OW 2176   5.106   2.560   5.820
  426SOL    HW1 2177   5.158   2.627   5.767
  426SOL    HW2 2178   5.063   2.494   5.758
  427SOL     OW 2179   5.606   4.401   1.809
  427SOL    HW1 2180   5.581   4.427   1.716
  427SOL    HW2 2181   5.702   4.423   1.825
  428SOL     OW 2182   3.529   0.653   5.458
  428SOL    HW1 2183   3.491   0.719   5.393
  428SOL    HW2 2184   3.624   0.678   5.478
  429SOL     OW 2185   1.724   5.185   0.847
  429SOL    HW1 2186   1.719   5.178   0.947
  429SOL    HW2 2187   1.791   5.254   0.822
  430SOL     OW 2188   1.341   6.643   4.318
  430SOL    HW1 2189   1.278   6.703   4.267
  430SOL    HW2 2190   1.289   6.586   4.381
  431SOL     OW 2191   3.397   1.214   6.794
  431SOL    HW1 2192   3.403   1.304   6.837
  431SOL    HW2 2193   3.433   1.219   6.701
  432SOL     OW 2194   0.062   1.984   0.119
  432SOL    HW1 2195   0.125   2.059   0.137
  432SOL    HW2 2196   7.008   1.992   0.178
  433SOL     OW 2197   2.830   6.948   4.353
  433SOL    HW1 2198   2.930   6.944   4.347
  433SOL    HW2 2199   2.804   7.008   4.429
  434SOL     OW 2200   5.848   4.208   0.911
  434SOL    HW1 2201   5.915   4.217   0.837
  434SOL    HW2 2202   5.895   4.205   0.999
  435SOL     OW 2203   3.298   3.319   5.864
  435SOL    HW1 2204   3.199   3.309   5.869
  435SOL    HW2 2205   3.338   3.232   5.833
  436SOL     OW 2206   1.530   0.187   1.043
  436SOL    HW1 2207   1.614   0.220   0.999
  436SOL    HW2 2208   1.516   0.236   1.129
  437SOL     OW 2209   6.616   0.111   6.543
  437SOL    HW1 2210   6.636   0.113   6.445
  437SOL    HW2 2211   6.688   0.061   6.591
  438SOL     OW 2212   1.690   2.817   2.066
  438SOL    HW1 2213   1.619   2.827   2.135
  438SOL    HW2 2214   1.752   2.744   2.094
  439SOL     OW 2215   6.277   4.698   2.716
  439SOL    HW1 2216   6.343   4.623   2.715
  439SOL    HW2 2217   6.325   4.785   2.731
  440SOL     OW 2218   0.691   2.322   4.605
  440SOL    HW1 2219   0.781   2.365   4.612
  440SOL    HW2 2220   0.622   2.382   4.646
  441SOL     OW 2221   1.636   1.669   3.476
  441SOL    HW1 2222   1.733   1.691   3.486
  441SOL    HW2 2223   1.617   1.642   3.381
  442SOL     OW 2224   0.510   4.370   6.786
  442SOL    HW1 2225   0.508   4.271   6.803
  442SOL    HW2 2226   0.473   4.389   6.695
  443SOL     OW 2227   1.221   4.574   4.751
  443SOL    HW1 2228   1.307   4.581   4.699
  443SOL    HW2 2229   1.154   4.637   4.712
  444SOL     OW 2230   4.367   2.624   5.879
  444SOL    HW1 2231   4.293   2.643   5.814
  444SOL    HW2 2232   4.329   2.619   5.972
  445SOL     OW 2233   2.091   5.798   3.099
  445SOL    HW1 2234   2.063   5.893   3.086
  445SOL    HW2 2235   2.166   5.794   3.165
  446SOL     OW 2236   3.545   4.982   3.872
  446SOL    HW1 2237   3.540   4.925   3.954
  446SOL    HW2 2238   3.632   5.030   3.869
  447SOL     OW 2239   6.878   4.100   6.631
  447SOL    HW1 2240   6.901   4.191   6.597
  447SOL    HW2 2241   6.951   4.036   6.606
  448SOL     OW 2242   3.690   0.950   4.765
  448SOL    HW1 2243   3.630   1.022   4.801
  448SOL    HW2 2244   3.686   0.871   4.826
  449SOL     OW 2245   5.519   1.260   5.065
  449SOL    HW1 2246   5.491   1.350   5.030
  449SOL    HW2 2247   5.439   1.213   5.101
  450SOL     OW 2248   7.006   5.788   3.564
  450SOL    HW1 2249   6.935   5.773   3.496
  450SOL    HW2 2250   0.060   5.831   3.521
  451SOL     OW 2251   0.704   2.369   2.247
  451SOL    HW1 2252   0.657   2.335   2.165
  451SOL    HW2 2253   0.707   2.297   2.316
  452SOL     OW 2254   6.907   5.632   0.113
  452SOL    HW1 2255   6.922   5.714   0.058
  452SOL    HW2 2256   6.969   5.632   0.191
  453SOL     OW 2257   3.001   0.805   6.419
  453SOL    HW1 2258   3.047   0.719   6.442
  453SOL    HW2 2259   3.063   0.861   6.363
  454SOL     OW 2260   6.879   6.237   6.095
  454SOL    HW1 2261   6.867   6.188   6.182
  454SOL    HW2 2262   6.798   6.293   6.078
  455SOL     OW 2263   6.179   0.194   4.653
  455SOL    HW1 2264   6.210   0.270   4.711
  455SOL    HW2 2265   6.257   0.137   4.629
  456SOL     OW 2266   4.018   5.845   5.874
  456SOL    HW1 2267   3.957   5.923   5.858
  456SOL    HW2 2268   4.024   5.828   5.973
  457SOL     OW 2269   2.036   4.179   3.319
  457SOL    HW1 2270   2.022   4.273   3.349
  457SOL    HW2 2271   1.954   4.146   3.273
  458SOL     OW 2272   5.439   5.494   5.221
  458SOL    HW1 2273   5.525   5.450   5.198
  458SOL    HW2 2274   5.456   5.576   5.276
  459SOL     OW 2275   1.231   0.235   2.913
  459SOL    HW1 2276   1.208   0.137   2.916
  459SOL    HW2 2277   1.260   0.265   3.004
  460SOL     OW 2278   0.325   1.538   2.348
  460SOL    HW1 2279   0.370   1.626   2.365
  460SOL    HW2 2280   0.340   1.478   2.427
  461SOL     OW 2281   4.479   6.756   4.870
  461SOL    HW1 2282   4.525   6.723   4.788
  461SOL    HW2 2283   4.537   6.822   4.917
  462SOL     OW 2284   4.143   2.311   5.891
  462SOL    HW1 2285   4.232   2.286   5.854
  462SOL    HW2 2286   4.150   2.398   5.939
  463SOL     OW 2287   6.272   5.476   2.825
  463SOL    HW1 2288   6.330   5.558   2.816
  463SOL    HW2 2289   6.328   5.394   2.815
  464SOL     OW 2290   2.614   1.715   6.365
  464SOL    HW1 2291   2.596   1.672   6.453
  464SOL    HW2 2292   2.656   1.805   6.380
  465SOL     OW 2293   0.916   1.619   4.621
  465SOL    HW1 2294   0.912   1.719   4.619
  465SOL    HW2 2295   1.012   1.590   4.623
  466SOL     OW 2296   0.069   6.215   3.516
  466SOL    HW1 2297   7.025   6.229   3.445
  466SOL    HW2 2298   0.033   6.153   3.586
  467SOL     OW 2299   1.349   0.001   6.429
  467SOL    HW1 2300   1.345   6.927   6.417
  467SOL    HW2 2301   1.365   0.021   6.526
  468SOL     OW 2302   3.552   5.812   0.458
  468SOL    HW1 2303   3.485   5.782   0.391
  468SOL    HW2 2304   3.512   5.807   0.550
  469SOL     OW 2305   2.711   4.932   0.103
  469SOL    HW1 2306   2.642   4.867   0.135
  469SOL    HW2 2307   2.757   4.894   0.022
  470SOL     OW 2308   3.739   0.793   2.115
  470SOL    HW1 2309   3.792   0.708   2.113
  470SOL    HW2 2310   3.644   0.773   2.138
  471SOL     OW 2311   1.206   2.517   4.171
  471SOL    HW1 2312   1.292   2.533   4.218
  471SOL    HW2 2313   1.208   2.428   4.127
  472SOL     OW 2314   4.804   3.854   6.680
  472SOL    HW1 2315   4.785   3.952   6.688
  472SOL    HW2 2316   4.733   3.811   6.624
  473SOL     OW 2317   0.480   2.686   1.420
  473SOL    HW1 2318   0.396   2.705   1.369
  473SOL    HW2 2319   0.559   2.708   1.364
  474SOL     OW 2320   4.060   5.183   3.745
  474SOL    HW1 2321   4.140   5.156   3.799
  474SOL    HW2 2322   3.977   5.165   3.798
  475SOL     OW 2323   6.922   0.321   6.738
  475SOL    HW1 2324   6.892   0.394   6.677
  475SOL    HW2 2325   6.842   0.275   6.776
  476SOL     OW 2326   7.018   4.189   2.286
  476SOL    HW1 2327   0.048   4.235   2.217
  476SOL    HW2 2328   0.050   4.158   2.361
  477SOL     OW 2329   2.234   4.874   4.793
  477SOL    HW1 2330   2.327   4.847   4.819
  477SOL    HW2 2331   2.200   4.811   4.722
  478SOL     OW 2332   2.930   6.336   2.114
  478SOL    HW1 2333   2.971   6.380   2.035
  478SOL    HW2 2334   2.832   6.354   2.116
  479SOL     OW 2335   3.861   1.804   0.435
  479SOL    HW1 2336   3.911   1.822   0.520
  479SOL    HW2 2337   3.791   1.735   0.452
  480SOL     OW 2338   1.598   6.895   1.027
  480SOL    HW1 2339   1.679   6.898   1.086
  480SOL    HW2 2340   1.594   6.979   0.973
  481SOL     OW 2341   2.403   0.570   0.846
  481SOL    HW1 2342   2.469   0.604   0.913
  481SOL    HW2 2343   2.330   0.521   0.894
  482SOL     OW 2344   4.689   4.957   2.308
  482SOL    HW1 2345   4.659   5.041   2.263
  482SOL    HW2 2346   4.611   4.896   2.322
  483SOL     OW 2347   5.607   2.096   1.570
  483SOL    HW1 2348   5.655   2.092   1.657
  483SOL    HW2 2349   5.509   2.112   1.586
  484SOL     OW 2350   1.018   2.636   5.319
  484SOL    HW1 2351   1.062   2.654   5.407
  484SOL    HW2 2352   1.043   2.545   5.287
  485SOL     OW 2353   4.010   5.388   2.161
  485SOL    HW1 2354   3.967   5.323   2.098
  485SOL    HW2 2355   4.069   5.339   2.225
  486SOL     OW 2356   0.926   1.816   1.005
  486SOL    HW1 2357   0.828   1.833   1.014
  486SOL    HW2 2358   0.975   1.903   1.007
  487SOL     OW 2359   1.075   1.480   7.025
  487SOL    HW1 2360   0.999   1.506   0.058
  487SOL    HW2 2361   1.041   1.464   6.932
  488SOL     OW 2362   1.136   0.694   1.392
  488SOL    HW1 2363   1.037   0.686   1.392
  488SOL    HW2 2364   1.166   0.741   1.309
  489SOL     OW 2365   3.730   5.964   0.025
  489SOL    HW1 2366   3.647   5.909   0.013
  489SOL    HW2 2367   3.710   6.059   0.004
  490SOL     OW 2368   6.456   5.799   4.273
  490SOL    HW1 2369   6.529   5.858   4.306
  490SOL    HW2 2370   6.383   5.855   4.235
  491SOL     OW 2371   6.880   2.479   3.444
  491SOL    HW1 2372   6.974   2.446   3.451
  491SOL    HW2 2373   6.865   2.552   3.510
  492SOL     OW 2374   3.117   0.319   5.035
  492SOL    HW1 2375   3.143   0.225   5.056
  492SOL    HW2 2376   3.017   0.325   5.031
  493SOL     OW 2377   5.367   5.014   6.497
  493SOL    HW1 2378   5.286   5.024   6.440
  493SOL    HW2 2379   5.341   5.006   6.593
  494SOL     OW 2380   0.651   6.334   0.052
  494SOL    HW1 2381   0.614   6.419   0.090
  494SOL    HW2 2382   0.667   6.345   6.980
  495SOL     OW 2383   5.236   5.607   2.788
  495SOL    HW1 2384   5.177   5.610   2.707
  495SOL    HW2 2385   5.186   5.571   2.866
  496SOL     OW 2386   5.501   2.701   2.575
  496SOL    HW1 2387   5.548   2.769   2.519
  496SOL    HW2 2388   5.405   2.696   2.548
  497SOL     OW 2389   3.537   1.573   5.210
  497SOL    HW1 2390   3.450   1.617   5.191
  497SOL    HW2 2391   3.572   1.604   5.299
  498SOL     OW 2392   1.522   3.773   1.784
  498SOL    HW1 2393   1.620   3.789   1.773
  498SOL    HW2 2394   1.486   3.730   1.701
  499SOL     OW 2395   2.967   0.641   4.096
  499SOL    HW1 2396   3.046   0.599   4.052
  499SOL    HW2 2397   2.893   0.573   4.103
  500SOL     OW 2398   1.043   4.281   3.682
  500SOL    HW1 2399   1.080   4.200   3.727
  500SOL    HW2 2400   1.052   4.272   3.583
  501SOL     OW 2401   3.107   1.204   0.698
  501SOL    HW1 2402   3.035   1.135   0.696
  501SOL    HW2 2403   3.157   1.204   0.611
  502SOL     OW 2404   5.602   4.198   6.118
  502SOL    HW1 2405   5.599   4.268   6.189
  502SOL    HW2 2406   5.553   4.117   6.150
  503SOL     OW 2407   5.812   4.718   5.713
  503SOL    HW1 2408   5.845   4.691   5.623
  503SOL    HW2 2409   5.722   4.677   5.729
  504SOL     OW 2410   2.581   6.555   3.962
  504SOL    HW1 2411   2.674   6.521   3.976
  504SOL    HW2 2412   2.572   6.646   4.003
  505SOL     OW 2413   3.785   0.391   5.529
  505SOL    HW1 2414   3.817   0.471   5.478
  505SOL    HW2 2415   3.756   0.420   5.620
  506SOL     OW 2416   1.920   5.192   4.519
  506SOL    HW1 2417   2.013   5.213   4.488
  506SOL    HW2 2418   1.923   5.160   4.613
  507SOL     OW 2419   3.032   0.428   4.372
  507SOL    HW1 2420   3.036   0.410   4.470
  507SOL    HW2 2421   3.071   0.519   4.353
  508SOL     OW 2422   6.248   3.564   2.416
  508SOL    HW1 2423   6.260   3.638   2.482
  508SOL    HW2 2424   6.302   3.484   2.446
  509SOL     OW 2425   3.470   1.358   1.736
  509SOL    HW1 2426   3.446   1.391   1.645
  509SOL    HW2 2427   3.488   1.436   1.796
  510SOL     OW 2428   6.979   4.411   5.976
  510SOL    HW1 2429   6.918   4.335   5.955
  510SOL    HW2 2430   6.926   4.496   5.977
  511SOL     OW 2431   6.995   6.673   6.552
  511SOL    HW1 2432   6.966   6.583   6.520
  511SOL    HW2 2433   0.067   6.686   6.533
  512SOL     OW 2434   0.024   3.691   0.171
  512SOL    HW1 2435   6.951   3.674   0.174
  512SOL    HW2 2436   0.057   3.708   0.264
  513SOL     OW 2437   5.622   6.454   3.173
  513SOL    HW1 2438   5.720   6.435   3.176
  513SOL    HW2 2439   5.572   6.368   3.164
  514SOL     OW 2440   6.631   2.220   4.177
  514SOL    HW1 2441   6.710   2.234   4.117
  514SOL    HW2 2442   6.659   2.232   4.272
  515SOL     OW 2443   2.000   6.471   6.197
  515SOL    HW1 2444   1.997   6.420   6.111
  515SOL    HW2 2445   1.962   6.414   6.270
  516SOL     OW 2446   2.723   4.520   1.626
  516SOL    HW1 2447   2.787   4.518   1.702
  516SOL    HW2 2448   2.631   4.542   1.661
  517SOL     OW 2449   5.060   6.195   2.467
  517SOL    HW1 2450   5.116   6.143   2.531
  517SOL    HW2 2451   5.103   6.283   2.449
  518SOL     OW 2452   2.987   1.879   1.787
  518SOL    HW1 2453   2.993   1.859   1.689
  518SOL    HW2 2454   2.964   1.975   1.801
  519SOL     OW 2455   6.972   0.446   4.937
  519SOL    HW1 2456   6.958   0.545   4.936
  519SOL    HW2 2457   6.928   0.404   4.858
  520SOL     OW 2458   5.583   4.743   6.526
  520SOL    HW1 2459   5.506   4.807   6.530
  520SOL    HW2 2460   5.653   4.771   6.592
  521SOL     OW 2461   6.327   2.172   6.813
  521SOL    HW1 2462   6.247   2.211   6.768
  521SOL    HW2 2463   6.360   2.094   6.761
  522SOL     OW 2464   4.056   3.042   5.283
  522SOL    HW1 2465   4.025   3.137   5.279
  522SOL    HW2 2466   3.985   2.983   5.244
  523SOL     OW 2467   6.810   5.353   3.604
  523SOL    HW1 2468   6.803   5.259   3.569
  523SOL    HW2 2469   6.790   5.417   3.531
  524SOL     OW 2470   2.616   1.103   6.754
  524SOL    HW1 2471   2.610   1.201   6.773
  524SOL    HW2 2472   2.552   1.054   6.813
  525SOL     OW 2473   2.544   3.510   6.470
  525SOL    HW1 2474   2.445   3.506   6.487
  525SOL    HW2 2475   2.562   3.568   6.390
  526SOL     OW 2476   2.488   6.336   5.022
  526SOL    HW1 2477   2.437   6.290   4.949
  526SOL    HW2 2478   2.431   6.342   5.104
  527SOL     OW 2479   6.150   2.736   6.156
  527SOL    HW1 2480   6.219   2.742   6.229
  527SOL    HW2 2481   6.060   2.753   6.195
  528SOL     OW 2482   1.574   1.168   4.046
  528SOL    HW1 2483   1.553   1.266   4.039
  528SOL    HW2 2484   1.602   1.148   4.140
  529SOL     OW 2485   0.740   5.113   4.715
  529SOL    HW1 2486   0.791   5.085   4.634
  529SOL    HW2 2487   0.802   5.157   4.780
  530SOL     OW 2488   2.744   2.904   5.315
  530SOL    HW1 2489   2.664   2.965   5.311
  530SOL    HW2 2490   2.716   2.811   5.291
  531SOL     OW 2491   0.426   1.224   1.327
  531SOL    HW1 2492   0.366   1.304   1.327
  531SOL    HW2 2493   0.370   1.141   1.332
  532SOL     OW 2494   1.174   2.719   6.091
  532SOL    HW1 2495   1.207   2.796   6.145
  532SOL    HW2 2496   1.162   2.639   6.150
  533SOL     OW 2497   4.694   5.996   4.337
  533SOL    HW1 2498   4.690   6.095   4.327
  533SOL    HW2 2499   4.740   5.957   4.257
  534SOL     OW 2500   5.073   5.451   3.561
  534SOL    HW1 2501   5.042   5.413   3.648
  534SOL    HW2 2502   5.105   5.544   3.574
  535SOL     OW 2503   0.851   4.304   4.239
  535SOL    HW1 2504   0.911   4.358   4.180
  535SOL    HW2 2505   0.902   4.272   4.319
  536SOL     OW 2506   0.045   5.277   1.730
  536SOL    HW1 2507   0.014   5.370   1.746
  536SOL    HW2 2508   0.108   5.276   1.652
  537SOL     OW 2509   2.341   6.456   3.587
  537SOL    HW1 2510   2.375   6.444   3.680
  537SOL    HW2 2511   2.414   6.496   3.530
  538SOL     OW 2512   1.246   5.372   3.447
  538SOL    HW1 2513   1.219   5.276   3.444
  538SOL    HW2 2514   1.343   5.379   3.469
  539SOL     OW 2515   0.253   5.592   0.692
  539SOL    HW1 2516   0.328   5.637   0.644
  539SOL    HW2 2517   0.289   5.522   0.753
  540SOL     OW 2518   0.209   2.215   2.095
  540SOL    HW1 2519   0.145   2.290   2.078
  540SOL    HW2 2520   0.268   2.237   2.173
  541SOL     OW 2521   3.238   6.811   4.546
  541SOL    HW1 2522   3.149   6.816   4.500
  541SOL    HW2 2523   3.306   6.859   4.491
  542SOL     OW 2524   6.602   6.839   0.160
  542SOL    HW1 2525   6.628   6.812   0.253
  542SOL    HW2 2526   6.502   6.838   0.152
  543SOL     OW 2527   0.567   5.227   5.998
  543SOL    HW1 2528   0.521   5.225   5.909
  543SOL    HW2 2529   0.563   5.320   6.035
  544SOL     OW 2530   1.026   4.428   1.055
  544SOL    HW1 2531   1.124   4.415   1.041
  544SOL    HW2 2532   0.991   4.497   0.992
  545SOL     OW 2533   3.397   1.806   3.462
  545SOL    HW1 2534   3.303   1.824   3.490
  545SOL    HW2 2535   3.421   1.863   3.384
  546SOL     OW 2536   1.627   3.452   1.789
  546SOL    HW1 2537   1.556   3.388   1.759
  546SOL    HW2 2538   1.608   3.482   1.882
  547SOL     OW 2539   2.480   1.782   6.989
  547SOL    HW1 2540   2.500   1.691   7.023
  547SOL    HW2 2541   2.401   1.820   0.011
  548SOL     OW 2542   3.491   2.970   2.759
  548SOL    HW1 2543   3.406   2.985   2.708
  548SOL    HW2 2544   3.565   2.949   2.695
  549SOL     OW 2545   4.444   3.603   1.490
  549SOL    HW1 2546   4.511   3.529   1.485
  549SOL    HW2 2547   4.352   3.565   1.478
  550SOL     OW 2548   6.915   3.293   2.709
  550SOL    HW1 2549   6.880   3.308   2.617
  550SOL    HW2 2550   6.861   3.220   2.753
  551SOL     OW 2551   0.053   2.118   0.720
  551SOL    HW1 2552   0.100   2.206   0.714
  551SOL    HW2 2553   6.990   2.125   0.676
  552SOL     OW 2554   3.880   5.503   0.467
  552SOL    HW1 2555   3.908   5.569   0.397
  552SOL    HW2 2556   3.862   5.552   0.553
  553SOL     OW 2557   1.957   0.050   2.568
  553SOL    HW1 2558   1.952   0.039   2.468
  553SOL    HW2 2559   1.867   0.032   2.607
  554SOL     OW 2560   4.961   6.560   6.618
  554SOL    HW1 2561   5.002   6.645   6.585
  554SOL    HW2 2562   4.959   6.493   6.544
  555SOL     OW 2563   1.922   4.917   4.118
  555SOL    HW1 2564   1.907   4.828   4.076
  555SOL    HW2 2565   1.950   4.905   4.213
  556SOL     OW 2566   5.899   2.376   4.449
  556SOL    HW1 2567   5.951   2.305   4.497
  556SOL    HW2 2568   5.884   2.453   4.511
  557SOL     OW 2569   6.902   5.987   6.620
  557SOL    HW1 2570   6.846   5.922   6.672
  557SOL    HW2 2571   6.997   5.981   6.650
  558SOL     OW 2572   4.152   3.800   5.179
  558SOL    HW1 2573   4.092   3.873   5.147
  558SOL    HW2 2574   4.160   3.730   5.108
  559SOL     OW 2575   6.949   6.339   6.899
  559SOL    HW1 2576   6.895   6.303   6.823
  559SOL    HW2 2577   0.009   6.288   6.907
  560SOL     OW 2578   3.889   6.122   0.537
  560SOL    HW1 2579   3.965   6.186   0.552
  560SOL    HW2 2580   3.897   6.081   0.447
  561SOL     OW 2581   5.751   6.998   0.212
  561SOL    HW1 2582   5.721   6.954   0.127
  561SOL    HW2 2583   5.819   0.042   0.192
  562SOL     OW 2584   4.977   1.106   6.297
  562SOL    HW1 2585   4.893   1.135   6.343
  562SOL    HW2 2586   5.012   1.180   6.240
  563SOL     OW 2587   2.740   6.627   3.677
  563SOL    HW1 2588   2.832   6.629   3.716
  563SOL    HW2 2589   2.673   6.622   3.751
  564SOL     OW 2590   2.107   2.367   6.069
  564SOL    HW1 2591   2.156   2.450   6.039
  564SOL    HW2 2592   2.072   2.381   6.162
  565SOL     OW 2593   4.346   2.948   5.703
  565SOL    HW1 2594   4.315   2.853   5.702
  565SOL    HW2 2595   4.335   2.985   5.796
  566SOL     OW 2596   4.403   4.554   3.235
  566SOL    HW1 2597   4.342   4.581   3.161
  566SOL    HW2 2598   4.375   4.598   3.320
  567SOL     OW 2599   3.478   3.415   4.165
  567SOL    HW1 2600   3.499   3.496   4.220
  567SOL    HW2 2601   3.423   3.441   4.086
  568SOL     OW 2602   3.734   2.354   0.284
  568SOL    HW1 2603   3.793   2.377   0.362
  568SOL    HW2 2604   3.757   2.262   0.251
  569SOL     OW 2605   1.440   2.908   0.314
  569SOL    HW1 2606   1.399   2.864   0.394
  569SOL    HW2 2607   1.426   2.851   0.234
  570SOL     OW 2608   1.297   6.655   0.613
  570SOL    HW1 2609   1.378   6.613   0.653
  570SOL    HW2 2610   1.221   6.651   0.678
  571SOL     OW 2611   3.512   5.764   2.625
  571SOL    HW1 2612   3.490   5.767   2.723
  571SOL    HW2 2613   3.495   5.854   2.585
  572SOL     OW 2614   2.177   4.262   5.566
  572SOL    HW1 2615   2.255   4.229   5.514
  572SOL    HW2 2616   2.176   4.219   5.656
  573SOL     OW 2617   3.843   1.172   6.099
  573SOL    HW1 2618   3.937   1.136   6.100
  573SOL    HW2 2619   3.836   1.248   6.163
  574SOL     OW 2620   2.165   2.165   4.396
  574SOL    HW1 2621   2.185   2.124   4.485
  574SOL    HW2 2622   2.166   2.095   4.325
  575SOL     OW 2623   6.327   3.503   0.568
  575SOL    HW1 2624   6.253   3.500   0.501
  575SOL    HW2 2625   6.390   3.427   0.552
  576SOL     OW 2626   1.500   2.311   1.736
  576SOL    HW1 2627   1.438   2.348   1.667
  576SOL    HW2 2628   1.537   2.385   1.792
  577SOL     OW 2629   2.460   1.877   3.761
  577SOL    HW1 2630   2.551   1.838   3.745
  577SOL    HW2 2631   2.396   1.803   3.783
  578SOL     OW 2632   0.721   3.134   3.272
  578SOL    HW1 2633   0.643   3.190   3.244
  578SOL    HW2 2634   0.688   3.050   3.316
  579SOL     OW 2635   4.260   2.148   1.091
  579SOL    HW1 2636   4.210   2.212   1.033
  579SOL    HW2 2637   4.242   2.170   1.187
  580SOL     OW 2638   1.167   4.810   6.149
  580SOL    HW1 2639   1.126   4.886   6.198
  580SOL    HW2 2640   1.247   4.777   6.198
  581SOL     OW 2641   3.728   3.106   3.192
  581SOL    HW1 2642   3.642   3.153   3.172
  581SOL    HW2 2643   3.753   3.047   3.115
  582SOL     OW 2644   5.760   4.028   2.569
  582SOL    HW1 2645   5.834   3.966   2.594
  582SOL    HW2 2646   5.723   4.001   2.480
  583SOL     OW 2647   2.930   4.472   6.984
  583SOL    HW1 2648   2.880   4.453   6.900
  583SOL    HW2 2649   2.970   4.564   6.979
  584SOL     OW 2650   0.191   4.508   5.203
  584SOL    HW1 2651   0.245   4.514   5.287
  584SOL    HW2 2652   0.248   4.531   5.124
  585SOL     OW 2653   0.248   2.242   5.766
  585SOL    HW1 2654   0.275   2.227   5.861
  585SOL    HW2 2655   0.302   2.316   5.726
  586SOL     OW 2656   2.598   0.022   0.422
  586SOL    HW1 2657   2.681   0.075   0.436
  586SOL    HW2 2658   2.520   0.084   0.414
  587SOL     OW 2659   1.601   2.476   5.480
  587SOL    HW1 2660   1.543   2.443   5.406
  587SOL    HW2 2661   1.629   2.400   5.538
  588SOL     OW 2662   3.897   0.056   1.680
  588SOL    HW1 2663   3.857   0.085   1.767
  588SOL    HW2 2664   3.859   0.111   1.606
  589SOL     OW 2665   3.719   5.038   1.806
  589SOL    HW1 2666   3.752   5.130   1.825
  589SOL    HW2 2667   3.634   5.022   1.857
  590SOL     OW 2668   0.012   2.752   2.179
  590SOL    HW1 2669   7.004   2.804   2.258
  590SOL    HW2 2670   0.081   2.806   2.131
  591SOL     OW 2671   4.199   0.456   3.872
  591SOL    HW1 2672   4.235   0.449   3.965
  591SOL    HW2 2673   4.274   0.457   3.807
  592SOL     OW 2674   4.966   0.858   0.391
  592SOL    HW1 2675   5.048   0.801   0.385
  592SOL    HW2 2676   4.951   0.904   0.304
  593SOL     OW 2677   4.447   2.477   4.309
  593SOL    HW1 2678   4.408   2.447   4.222
  593SOL    HW2 2679   4.532   2.526   4.293
  594SOL     OW 2680   3.976   3.825   0.054
  594SOL    HW1 2681   3.921   3.791   7.003
  594SOL    HW2 2682   4.040   3.754   0.083
  595SOL     OW 2683   4.039   6.773   4.303
  595SOL    HW1 2684   3.968   6.786   4.234
  595SOL    HW2 2685   4.003   6.716   4.377
  596SOL     OW 2686   0.919   4.270   2.400
  596SOL    HW1 2687   0.833   4.242   2.442
  596SOL    HW2 2688   0.992   4.210   2.431
  597SOL     OW 2689   3.764   0.345   0.170
  597SOL    HW1 2690   3.820   0.351   0.088
  597SOL    HW2 2691   3.819   0.307   0.245
  598SOL     OW 2692   4.118   4.615   0.339
  598SOL    HW1 2693   4.085   4.704   0.370
  598SOL    HW2 2694   4.089   4.545   0.403
  599SOL     OW 2695   6.964   0.119   2.981
  599SOL    HW1 2696   6.967   0.215   2.954
  599SOL    HW2 2697   6.892   0.105   3.048
  600SOL     OW 2698   1.127   6.686   0.818
  600SOL    HW1 2699   1.121   6.627   0.898
  600SOL    HW2 2700   1.036   6.720   0.795
  601SOL     OW 2701   2.659   5.948   2.898
  601SOL    HW1 2702   2.745   5.975   2.854
  601SOL    HW2 2703   2.650   5.996   2.985
  602SOL     OW 2704   1.241   0.088   1.140
  602SOL    HW1 2705   1.217   0.185   1.149
  602SOL    HW2 2706   1.315   0.079   1.073
  603SOL     OW 2707   4.200   1.992   3.647
  603SOL    HW1 2708   4.160   1.908   3.611
  603SOL    HW2 2709   4.171   2.069   3.591
  604SOL     OW 2710   1.295   3.477   6.678
  604SOL    HW1 2711   1.360   3.402   6.685
  604SOL    HW2 2712   1.202   3.441   6.677
  605SOL     OW 2713   6.834   5.760   3.325
  605SOL    HW1 2714   6.818   5.662   3.332
  605SOL    HW2 2715   6.780   5.798   3.251
  606SOL     OW 2716   3.998   0.386   4.403
  606SOL    HW1 2717   4.078   0.328   4.422
  606SOL    HW2 2718   4.016   0.479   4.434
  607SOL     OW 2719   5.203   1.446   4.168
  607SOL    HW1 2720   5.191   1.524   4.229
  607SOL    HW2 2721   5.253   1.475   4.086
  608SOL     OW 2722   3.248   0.495   0.179
  608SOL    HW1 2723   3.272   0.509   0.083
  608SOL    HW2 2724   3.163   0.544   0.200
  609SOL     OW 2725   3.606   2.901   3.926
  609SOL    HW1 2726   3.668   2.832   3.889
  609SOL    HW2 2727   3.610   2.899   4.026
  610SOL     OW 2728   5.028   2.408   3.922
  610SOL    HW1 2729   5.111   2.371   3.880
  610SOL    HW2 2730   4.959   2.421   3.851
  611SOL     OW 2731   0.564   0.459   0.026
  611SOL    HW1 2732   0.607   0.541   7.014
  611SOL    HW2 2733   0.465   0.462   0.010
  612SOL     OW 2734   3.394   5.449   6.196
  612SOL    HW1 2735   3.475   5.502   6.170
  612SOL    HW2 2736   3.337   5.433   6.115
  613SOL     OW 2737   4.112   1.525   6.142
  613SOL    HW1 2738   4.110   1.435   6.185
  613SOL    HW2 2739   4.039   1.530   6.073
  614SOL     OW 2740   6.439   4.912   0.660
  614SOL    HW1 2741   6.417   4.936   0.755
  614SOL    HW2 2742   6.385   4.968   0.598
  615SOL     OW 2743   0.485   6.897   0.520
  615SOL    HW1 2744   0.413   6.894   0.451
  615SOL    HW2 2745   0.566   6.941   0.483
  616SOL     OW 2746   5.616   1.705   4.612
  616SOL    HW1 2747   5.576   1.759   4.686
  616SOL    HW2 2748   5.635   1.765   4.534
  617SOL     OW 2749   0.424   4.652   5.687
  617SOL    HW1 2750   0.455   4.603   5.769
  617SOL    HW2 2751   0.400   4.746   5.712
  618SOL     OW 2752   5.869   3.572   1.131
  618SOL    HW1 2753   5.848   3.628   1.051
  618SOL    HW2 2754   5.968   3.561   1.140
  619SOL     OW 2755   3.436   0.286   0.309
  619SOL    HW1 2756   3.350   0.331   0.284
  619SOL    HW2 2757   3.500   0.355   0.344
  620SOL     OW 2758   5.498   3.317   1.939
  620SOL    HW1 2759   5.420   3.379   1.939
  620SOL    HW2 2760   5.469   3.225   1.911
  621SOL     OW 2761   2.383   0.296   6.100
  621SOL    HW1 2762   2.350   0.234   6.171
  621SOL    HW2 2763   2.317   0.370   6.088
  622SOL     OW 2764   1.166   2.071   5.350
  622SOL    HW1 2765   1.143   2.004   5.420
  622SOL    HW2 2766   1.110   2.055   5.268
  623SOL     OW 2767   6.335   6.758   4.304
  623SOL    HW1 2768   6.431   6.736   4.319
  623SOL    HW2 2769   6.318   6.854   4.326
  624SOL     OW 2770   6.503   1.492   6.972
  624SOL    HW1 2771   6.482   1.590   6.982
  624SOL    HW2 2772   6.444   1.453   6.901
  625SOL     OW 2773   2.581   1.237   0.117
  625SOL    HW1 2774   2.667   1.251   0.069
  625SOL    HW2 2775   2.525   1.170   0.067
  626SOL     OW 2776   1.322   5.726   3.889
  626SOL    HW1 2777   1.419   5.743   3.904
  626SOL    HW2 2778   1.283   5.802   3.836
  627SOL     OW 2779   6.383   0.140   0.041
  627SOL    HW1 2780   6.452   0.189   0.095
  627SOL    HW2 2781   6.355   0.197   6.989
  628SOL     OW 2782   5.241   4.427   5.611
  628SOL    HW1 2783   5.297   4.353   5.646
  628SOL    HW2 2784   5.236   4.501   5.679
  629SOL     OW 2785   6.988   0.598   0.131
  629SOL    HW1 2786   0.033   0.656   0.092
  629SOL    HW2 2787   7.020   0.503   0.135
  630SOL     OW 2788   0.100   1.557   1.105
  630SOL    HW1 2789   0.101   1.654   1.129
  630SOL    HW2 2790   0.127   1.503   1.184
  631SOL     OW 2791   2.319   2.758   4.893
  631SOL    HW1 2792   2.264   2.787   4.814
  631SOL    HW2 2793   2.344   2.838   4.947
  632SOL     OW 2794   4.598   3.275   0.412
  632SOL    HW1 2795   4.514   3.255   0.463
  632SOL    HW2 2796   4.621   3.198   0.353
  633SOL     OW 2797   1.429   5.409   1.257
  633SOL    HW1 2798   1.522   5.421   1.292
  633SOL    HW2 2799   1.430   5.413   1.157
  634SOL     OW 2800   3.087   3.490   4.188
  634SOL    HW1 2801   3.028   3.570   4.175
  634SOL    HW2 2802   3.171   3.501   4.134
  635SOL     OW 2803   5.510   1.094   6.534
  635SOL    HW1 2804   5.586   1.084   6.598
  635SOL    HW2 2805   5.488   1.191   6.523
  636SOL     OW 2806   3.024   0.220   6.338
  636SOL    HW1 2807   2.989   0.308   6.369
  636SOL    HW2 2808   3.056   0.229   6.243
  637SOL     OW 2809   6.828   1.269   1.697
  637SOL    HW1 2810   6.812   1.208   1.775
  637SOL    HW2 2811   6.741   1.306   1.666
  638SOL     OW 2812   6.005   3.515   3.775
  638SOL    HW1 2813   5.997   3.613   3.757
  638SOL    HW2 2814   5.963   3.494   3.863
  639SOL     OW 2815   5.263   5.014   3.328
  639SOL    HW1 2816   5.242   5.100   3.375
  639SOL    HW2 2817   5.270   4.940   3.395
  640SOL     OW 2818   0.447   2.902   2.466
  640SOL    HW1 2819   0.461   2.890   2.367
  640SOL    HW2 2820   0.423   2.998   2.484
  641SOL     OW 2821   2.059   4.643   5.252
  641SOL    HW1 2822   2.076   4.692   5.166
  641SOL    HW2 2823   1.988   4.574   5.238
  642SOL     OW 2824   1.095   3.544   4.500
  642SOL    HW1 2825   1.019   3.576   4.444
  642SOL    HW2 2826   1.061   3.513   4.588
  643SOL     OW 2827   4.743   5.741   6.523
  643SOL    HW1 2828   4.673   5.746   6.594
  643SOL    HW2 2829   4.713   5.794   6.443
  644SOL     OW 2830   0.161   6.843   4.810
  644SOL    HW1 2831   0.189   6.938   4.823
  644SOL    HW2 2832   0.062   6.836   4.819
  645SOL     OW 2833   3.488   4.888   2.991
  645SOL    HW1 2834   3.577   4.863   2.954
  645SOL    HW2 2835   3.433   4.932   2.920
  646SOL     OW 2836   3.840   1.183   5.306
  646SOL    HW1 2837   3.818   1.257   5.369
  646SOL    HW2 2838   3.764   1.170   5.242
  647SOL     OW 2839   5.008   1.998   4.574
  647SOL    HW1 2840   5.072   2.012   4.650
  647SOL    HW2 2841   4.916   2.025   4.602
  648SOL     OW 2842   6.303   1.763   2.572
  648SOL    HW1 2843   6.204   1.755   2.569
  648SOL    HW2 2844   6.334   1.769   2.667
  649SOL     OW 2845   2.717   5.007   0.462
  649SOL    HW1 2846   2.742   5.057   0.379
  649SOL    HW2 2847   2.706   5.071   0.538
  650SOL     OW 2848   6.751   5.514   0.751
  650SOL    HW1 2849   6.787   5.596   0.706
  650SOL    HW2 2850   6.657   5.498   0.720
  651SOL     OW 2851   1.423   0.423   5.695
  651SOL    HW1 2852   1.512   0.426   5.742
  651SOL    HW2 2853   1.354   0.387   5.757
  652SOL     OW 2854   4.340   0.766   2.284
  652SOL    HW1 2855   4.326   0.865   2.284
  652SOL    HW2 2856   4.363   0.735   2.376
  653SOL     OW 2857   0.055   6.930   1.183
  653SOL    HW1 2858   7.013   6.883   1.127
  653SOL    HW2 2859   0.013   6.956   1.271
  654SOL     OW 2860   6.581   6.697   5.879
  654SOL    HW1 2861   6.574   6.679   5.977
  654SOL    HW2 2862   6.642   6.630   5.837
  655SOL     OW 2863   0.049   4.993   1.817
  655SOL    HW1 2864   0.021   4.947   1.732
  655SOL    HW2 2865   0.049   5.092   1.802
  656SOL     OW 2866   3.410   6.520   0.567
  656SOL    HW1 2867   3.423   6.423   0.550
  656SOL    HW2 2868   3.324   6.534   0.615
  657SOL     OW 2869   3.286   2.706   1.814
  657SOL    HW1 2870   3.283   2.626   1.754
  657SOL    HW2 2871   3.351   2.772   1.777
  658SOL     OW 2872   2.099   4.503   4.427
  658SOL    HW1 2873   2.110   4.552   4.340
  658SOL    HW2 2874   2.008   4.463   4.432
  659SOL     OW 2875   3.439   6.312   6.116
  659SOL    HW1 2876   3.430   6.270   6.206
  659SOL    HW2 2877   3.536   6.322   6.094
  660SOL     OW 2878   4.931   4.657   2.591
  660SOL    HW1 2879   4.859   4.641   2.659
  660SOL    HW2 2880   4.961   4.569   2.554
  661SOL     OW 2881   4.872   4.731   4.133
  661SOL    HW1 2882   4.873   4.689   4.043
  661SOL    HW2 2883   4.954   4.703   4.184
  662SOL     OW 2884   5.021   3.028   0.190
  662SOL    HW1 2885   5.084   2.957   0.160
  662SOL    HW2 2886   5.064   3.082   0.263
  663SOL     OW 2887   6.961   4.193   0.040
  663SOL    HW1 2888   7.017   4.258   7.014
  663SOL    HW2 2889   6.865   4.205   0.014
  664SOL     OW 2890   1.672   6.027   6.143
  664SOL    HW1 2891   1.619   6.054   6.063
  664SOL    HW2 2892   1.665   5.928   6.156
  665SOL     OW 2893   4.097   5.236   1.296
  665SOL    HW1 2894   4.048   5.300   1.237
  665SOL    HW2 2895   4.057   5.145   1.287
  666SOL     OW 2896   3.892   1.637   0.052
  666SOL    HW1 2897   3.959   1.585   0.000
  666SOL    HW2 2898   3.924   1.652   0.145
  667SOL     OW 2899   0.521   3.284   3.567
  667SOL    HW1 2900   0.444   3.291   3.631
  667SOL    HW2 2901   0.497   3.219   3.495
  668SOL     OW 2902   4.932   6.770   0.146
  668SOL    HW1 2903   4.960   6.775   0.242
  668SOL    HW2 2904   5.009   6.796   0.087
  669SOL     OW 2905   0.950   6.758   3.657
  669SOL    HW1 2906   0.861   6.800   3.670
  669SOL    HW2 2907   0.984   6.779   3.565
  670SOL     OW 2908   3.182   3.531   3.148
  670SOL    HW1 2909   3.213   3.620   3.179
  670SOL    HW2 2910   3.113   3.543   3.077
  671SOL     OW 2911   1.660   6.675   6.170
  671SOL    HW1 2912   1.604   6.623   6.106
  671SOL    HW2 2913   1.713   6.744   6.121
  672SOL     OW 2914   1.421   3.223   4.548
  672SOL    HW1 2915   1.494   3.216   4.480
  672SOL    HW2 2916   1.341   3.172   4.517
  673SOL     OW 2917   5.205   0.549   6.939
  673SOL    HW1 2918   5.243   0.593   6.857
  673SOL    HW2 2919   5.149   0.615   6.989
  674SOL     OW 2920   0.610   2.468   3.523
  674SOL    HW1 2921   0.652   2.500   3.609
  674SOL    HW2 2922   0.569   2.378   3.538
  675SOL     OW 2923   0.242   2.585   4.925
  675SOL    HW1 2924   0.338   2.604   4.945
  675SOL    HW2 2925   0.187   2.604   5.006
  676SOL     OW 2926   2.447   4.701   4.481
  676SOL    HW1 2927   2.399   4.653   4.555
  676SOL    HW2 2928   2.442   4.646   4.397
  677SOL     OW 2929   6.341   0.694   0.684
  677SOL    HW1 2930   6.294   0.683   0.596
  677SOL    HW2 2931   6.402   0.773   0.680
  678SOL     OW 2932   2.288   0.673   5.909
  678SOL    HW1 2933   2.366   0.637   5.858
  678SOL    HW2 2934   2.235   0.597   5.946
  679SOL     OW 2935   3.693   0.617   2.989
  679SOL    HW1 2936   3.643   0.537   3.020
  679SOL    HW2 2937   3.629   0.684   2.951
  680SOL     OW 2938   4.855   3.907   5.702
  680SOL    HW1 2939   4.953   3.892   5.691
  680SOL    HW2 2940   4.805   3.862   5.627
  681SOL     OW 2941   7.007   6.570   1.273
  681SOL    HW1 2942   6.980   6.476   1.292
  681SOL    HW2 2943   0.077   6.572   1.244
  682SOL     OW 2944   1.727   5.950   0.160
  682SOL    HW1 2945   1.708   5.852   0.152
  682SOL    HW2 2946   1.801   5.964   0.225
  683SOL     OW 2947   3.914   1.294   6.585
  683SOL    HW1 2948   3.873   1.304   6.494
  683SOL    HW2 2949   3.843   1.306   6.655
  684SOL     OW 2950   0.370   6.724   6.017
  684SOL    HW1 2951   0.464   6.757   6.019
  684SOL    HW2 2952   0.350   6.682   5.929
  685SOL     OW 2953   5.034   0.196   6.613
  685SOL    HW1 2954   5.058   0.220   6.519
  685SOL    HW2 2955   4.941   0.230   6.633
  686SOL     OW 2956   5.567   3.027   3.380
  686SOL    HW1 2957   5.650   2.974   3.364
  686SOL    HW2 2958   5.487   2.974   3.353
  687SOL     OW 2959   6.548   2.859   6.206
  687SOL    HW1 2960   6.531   2.920   6.128
  687SOL    HW2 2961   6.588   2.912   6.281
  688SOL     OW 2962   1.513   4.165   0.028
  688SOL    HW1 2963   1.539   4.197   6.963
  688SOL    HW2 2964   1.427   4.114   0.021
  689SOL     OW 2965   6.980   4.015   6.314
  689SOL    HW1 2966   7.019   3.994   6.404
  689SOL    HW2 2967   6.983   3.934   6.257
  690SOL     OW 2968   1.653   1.959   3.733
  690SOL    HW1 2969   1.686   2.028   3.798
  690SOL    HW2 2970   1.651   1.870   3.778
  691SOL     OW 2971   1.122   2.528   6.280
  691SOL    HW1 2972   1.096   2.543   6.375
  691SOL    HW2 2973   1.198   2.463   6.275
  692SOL     OW 2974   2.339   6.969   2.940
  692SOL    HW1 2975   2.265   6.988   2.876
  692SOL    HW2 2976   2.404   6.906   2.898
  693SOL     OW 2977   6.753   2.601   2.172
  693SOL    HW1 2978   6.846   2.624   2.143
  693SOL    HW2 2979   6.729   2.655   2.253
  694SOL     OW 2980   2.736   5.870   1.160
  694SOL    HW1 2981   2.743   5.786   1.107
  694SOL    HW2 2982   2.643   5.905   1.155
  695SOL     OW 2983   4.980   5.518   5.076
  695SOL    HW1 2984   5.037   5.566   5.143
  695SOL    HW2 2985   4.995   5.419   5.083
  696SOL     OW 2986   3.777   5.048   2.663
  696SOL    HW1 2987   3.809   5.132   2.707
  696SOL    HW2 2988   3.733   5.071   2.576
  697SOL     OW 2989   0.809   3.140   4.774
  697SOL    HW1 2990   0.856   3.065   4.822
  697SOL    HW2 2991   0.728   3.167   4.826
  698SOL     OW 2992   4.238   0.492   3.584
  698SOL    HW1 2993   4.282   0.481   3.495
  698SOL    HW2 2994   4.170   0.420   3.596
  699SOL     OW 2995   1.602   4.214   1.211
  699SOL    HW1 2996   1.542   4.142   1.178
  699SOL    HW2 2997   1.568   4.303   1.178
  700SOL     OW 2998   2.342   2.598   4.567
  700SOL    HW1 2999   2.343   2.590   4.467
  700SOL    HW2 3000   2.257   2.642   4.596
  701SOL     OW 3001   0.556   4.663   6.739
  701SOL    HW1 3002   0.468   4.707   6.759
  701SOL    HW2 3003   0.564   4.579   6.792
  702SOL     OW 3004   4.949   6.678   5.192
  702SOL    HW1 3005   5.048   6.672   5.205
  702SOL    HW2 3006   4.918   6.601   5.137
  703SOL     OW 3007   4.225   3.562   6.086
  703SOL    HW1 3008   4.131   3.528   6.078
  703SOL    HW2 3009   4.262   3.576   5.994
  704SOL     OW 3010   1.551   0.391   6.990
  704SOL    HW1 3011   1.651   0.397   7.000
  704SOL    HW2 3012   1.511   0.482   6.999
  705SOL     OW 3013   4.964   1.085   3.671
  705SOL    HW1 3014   5.064   1.074   3.675
  705SOL    HW2 3015   4.929   1.042   3.588
  706SOL     OW 3016   3.592   2.135   3.958
  706SOL    HW1 3017   3.592   2.101   3.864
  706SOL    HW2 3018   3.685   2.156   3.986
  707SOL     OW 3019   5.008   0.819   1.253
  707SOL    HW1 3020   4.922   0.827   1.202
  707SOL    HW2 3021   5.080   0.785   1.191
  708SOL     OW 3022   4.282   0.550   1.043
  708SOL    HW1 3023   4.246   0.577   0.954
  708SOL    HW2 3024   4.265   0.624   1.109
  709SOL     OW 3025   0.931   5.110   0.817
  709SOL    HW1 3026   0.967   5.039   0.756
  709SOL    HW2 3027   0.934   5.198   0.771
  710SOL     OW 3028   3.256   4.120   2.798
  710SOL    HW1 3029   3.184   4.147   2.734
  710SOL    HW2 3030   3.323   4.063   2.751
  711SOL     OW 3031   6.583   1.782   4.849
  711SOL    HW1 3032   6.606   1.879   4.841
  711SOL    HW2 3033   6.662   1.732   4.884
  712SOL     OW 3034   1.004   3.836   1.666
  712SOL    HW1 3035   0.984   3.741   1.690
  712SOL    HW2 3036   0.922   3.878   1.627
  713SOL     OW 3037   3.379   3.422   2.367
  713SOL    HW1 3038   3.412   3.419   2.273
  713SOL    HW2 3039   3.324   3.504   2.380
  714SOL     OW 3040   5.855   4.711   5.074
  714SOL    HW1 3041   5.917   4.788   5.087
  714SOL    HW2 3042   5.873   4.641   5.143
  715SOL     OW 3043   4.042   5.816   6.151
  715SOL    HW1 3044   4.062   5.902   6.198
  715SOL    HW2 3045   4.103   5.744   6.186
  716SOL     OW 3046   0.470   5.415   1.554
  716SOL    HW1 3047   0.512   5.482   1.616
  716SOL    HW2 3048   0.542   5.357   1.514
  717SOL     OW 3049   6.074   4.293   6.981
  717SOL    HW1 3050   6.029   4.302   6.892
  717SOL    HW2 3051   6.027   4.223   0.009
  718SOL     OW 3052   3.485   3.100   5.908
  718SOL    HW1 3053   3.574   3.137   5.884
  718SOL    HW2 3054   3.458   3.133   5.998
  719SOL     OW 3055   6.909   3.210   1.248
  719SOL    HW1 3056   6.870   3.243   1.163
  719SOL    HW2 3057   6.849   3.233   1.324
  720SOL     OW 3058   2.476   2.221   5.772
  720SOL    HW1 3059   2.565   2.195   5.809
  720SOL    HW2 3060   2.488   2.292   5.702
  721SOL     OW 3061   1.769   0.144   5.414
  721SOL    HW1 3062   1.850   0.110   5.368
  721SOL    HW2 3063   1.688   0.120   5.361
  722SOL     OW 3064   4.340   6.582   5.024
  722SOL    HW1 3065   4.397   6.643   4.969
  722SOL    HW2 3066   4.253   6.567   4.977
  723SOL     OW 3067   1.814   2.627   2.226
  723SOL    HW1 3068   1.795   2.630   2.324
  723SOL    HW2 3069   1.884   2.557   2.208
  724SOL     OW 3070   0.931   1.606   5.040
  724SOL    HW1 3071   0.863   1.639   5.105
  724SOL    HW2 3072   0.923   1.507   5.030
  725SOL     OW 3073   2.860   5.130   2.351
  725SOL    HW1 3074   2.892   5.169   2.265
  725SOL    HW2 3075   2.859   5.030   2.343
  726SOL     OW 3076   2.968   5.660   6.803
  726SOL    HW1 3077   2.912   5.706   6.872
  726SOL    HW2 3078   2.974   5.716   6.721
  727SOL     OW 3079   3.111   5.443   4.237
  727SOL    HW1 3080   3.173   5.522   4.245
  727SOL    HW2 3081   3.083   5.413   4.328
  728SOL     OW 3082   0.334   4.031   5.385
  728SOL    HW1 3083   0.357   3.954   5.444
  728SOL    HW2 3084   0.241   4.020   5.349
  729SOL     OW 3085   2.273   0.945   0.134
  729SOL    HW1 3086   2.302   0.896   0.216
  729SOL    HW2 3087   2.175   0.963   0.139
  730SOL     OW 3088   6.301   0.340   4.161
  730SOL    HW1 3089   6.355   0.319   4.242
  730SOL    HW2 3090   6.282   0.255   4.111
  731SOL     OW 3091   5.112   2.831   5.178
  731SOL    HW1 3092   5.032   2.817   5.237
  731SOL    HW2 3093   5.094   2.793   5.088
  732SOL     OW 3094   0.616   2.716   1.001
  732SOL    HW1 3095   0.526   2.696   0.962
  732SOL    HW2 3096   0.679   2.641   0.981
  733SOL     OW 3097   4.992   4.413   3.663
  733SOL    HW1 3098   5.036   4.473   3.596
  733SOL    HW2 3099   5.062   4.371   3.721
  734SOL     OW 3100   6.697   4.148   1.259
  734SOL    HW1 3101   6.679   4.246   1.262
  734SOL    HW2 3102   6.767   4.125   1.327
  735SOL     OW 3103   1.437   3.307   0.255
  735SOL    HW1 3104   1.474   3.273   0.342
  735SOL    HW2 3105   1.411   3.230   0.197
  736SOL     OW 3106   6.375   0.276   3.349
  736SOL    HW1 3107   6.405   0.189   3.387
  736SOL    HW2 3108   6.332   0.261   3.260
  737SOL     OW 3109   4.797   3.458   1.395
  737SOL    HW1 3110   4.802   3.558   1.389
  737SOL    HW2 3111   4.827   3.418   1.308
  738SOL     OW 3112   7.025   4.001   4.197
  738SOL    HW1 3113   0.018   3.945   4.116
  738SOL    HW2 3114   0.076   3.995   4.260
  739SOL     OW 3115   4.539   6.810   5.924
  739SOL    HW1 3116   4.504   6.826   6.016
  739SOL    HW2 3117   4.633   6.843   5.918
  740SOL     OW 3118   5.773   0.366   1.060
  740SOL    HW1 3119   5.685   0.414   1.066
  740SOL    HW2 3120   5.788   0.313   1.143
  741SOL     OW 3121   1.138   6.258   3.313
  741SOL    HW1 3122   1.039   6.275   3.309
  741SOL    HW2 3123   1.180   6.328   3.371
  742SOL     OW 3124   1.848   6.746   3.508
  742SOL    HW1 3125   1.750   6.758   3.521
  742SOL    HW2 3126   1.887   6.694   3.584
  743SOL     OW 3127   1.241   4.604   4.031
  743SOL    HW1 3128   1.338   4.627   4.039
  743SOL    HW2 3129   1.223   4.568   3.939
  744SOL     OW 3130   6.803   6.287   0.106
  744SOL    HW1 3131   6.854   6.272   0.021
  744SOL    HW2 3132   6.770   6.382   0.108
  745SOL     OW 3133   0.891   5.338   3.466
  745SOL    HW1 3134   0.942   5.411   3.511
  745SOL    HW2 3135   0.867   5.366   3.374
  746SOL     OW 3136   0.175   6.630   5.073
  746SOL    HW1 3137   0.249   6.687   5.037
  746SOL    HW2 3138   0.125   6.588   4.998
  747SOL     OW 3139   4.432   4.864   3.542
  747SOL    HW1 3140   4.482   4.778   3.554
  747SOL    HW2 3141   4.495   4.940   3.557
  748SOL     OW 3142   4.882   4.416   0.811
  748SOL    HW1 3143   4.844   4.325   0.825
  748SOL    HW2 3144   4.820   4.471   0.756
  749SOL     OW 3145   0.030   2.699   5.096
  749SOL    HW1 3146   7.004   2.613   5.093
  749SOL    HW2 3147   0.012   2.745   5.183
  750SOL     OW 3148   3.031   2.802   0.831
  750SOL    HW1 3149   3.007   2.895   0.801
  750SOL    HW2 3150   3.056   2.803   0.927
  751SOL     OW 3151   4.387   1.159   0.787
  751SOL    HW1 3152   4.380   1.147   0.688
  751SOL    HW2 3153   4.322   1.099   0.833
  752SOL     OW 3154   4.309   2.360   2.225
  752SOL    HW1 3155   4.221   2.315   2.209
  752SOL    HW2 3156   4.333   2.417   2.147
  753SOL     OW 3157   1.867   3.297   4.744
  753SOL    HW1 3158   1.853   3.396   4.746
  753SOL    HW2 3159   1.824   3.256   4.824
  754SOL     OW 3160   5.147   4.194   6.881
  754SOL    HW1 3161   5.158   4.114   6.822
  754SOL    HW2 3162   5.207   4.268   6.849
  755SOL     OW 3163   0.427   6.005   6.942
  755SOL    HW1 3164   0.524   6.010   6.921
  755SOL    HW2 3165   0.407   6.064   7.021
  756SOL     OW 3166   5.195   0.578   2.152
  756SOL    HW1 3167   5.209   0.513   2.077
  756SOL    HW2 3168   5.103   0.567   2.189
  757SOL     OW 3169   0.211   6.545   4.151
  757SOL    HW1 3170   0.291   6.604   4.135
  757SOL    HW2 3171   0.160   6.534   4.066
  758SOL     OW 3172   3.315   2.426   1.371
  758SOL    HW1 3173   3.247   2.353   1.372
  758SOL    HW2 3174   3.319   2.469   1.461
  759SOL     OW 3175   1.197   1.360   0.265
  759SOL    HW1 3176   1.282   1.408   0.285
  759SOL    HW2 3177   1.170   1.377   0.170
  760SOL     OW 3178   4.849   1.931   0.045
  760SOL    HW1 3179   4.761   1.905   0.085
  760SOL    HW2 3180   4.894   1.849   0.009
  761SOL     OW 3181   6.058   3.173   0.358
  761SOL    HW1 3182   5.991   3.181   0.284
  761SOL    HW2 3183   6.144   3.139   0.321
  762SOL     OW 3184   2.397   5.969   3.716
  762SOL    HW1 3185   2.344   6.045   3.679
  762SOL    HW2 3186   2.472   6.005   3.773
  763SOL     OW 3187   4.274   5.875   0.098
  763SOL    HW1 3188   4.323   5.879   0.010
  763SOL    HW2 3189   4.243   5.781   0.114
  764SOL     OW 3190   3.195   1.178   2.965
  764SOL    HW1 3191   3.151   1.217   2.884
  764SOL    HW2 3192   3.184   1.241   3.042
  765SOL     OW 3193   1.189   6.597   1.986
  765SOL    HW1 3194   1.185   6.636   1.894
  765SOL    HW2 3195   1.135   6.513   1.989
  766SOL     OW 3196   6.972   0.607   6.578
  766SOL    HW1 3197   6.929   0.612   6.488
  766SOL    HW2 3198   0.044   0.591   6.568
  767SOL     OW 3199   0.408   6.674   2.184
  767SOL    HW1 3200   0.412   6.737   2.107
  767SOL    HW2 3201   0.495   6.674   2.233
  768SOL     OW 3202   2.435   0.378   2.492
  768SOL    HW1 3203   2.532   0.363   2.474
  768SOL    HW2 3204   2.404   0.318   2.566
  769SOL     OW 3205   3.676   0.280   4.925
  769SOL    HW1 3206   3.719   0.294   4.836
  769SOL    HW2 3207   3.588   0.329   4.928
  770SOL     OW 3208   2.861   5.612   3.615
  770SOL    HW1 3209   2.812   5.535   3.575
  770SOL    HW2 3210   2.917   5.656   3.545
  771SOL     OW 3211   2.112   5.471   2.759
  771SOL    HW1 3212   2.034   5.457   2.820
  771SOL    HW2 3213   2.196   5.479   2.813
  772SOL     OW 3214   0.104   4.410   0.320
  772SOL    HW1 3215   0.098   4.310   0.313
  772SOL    HW2 3216   0.195   4.436   0.351
  773SOL     OW 3217   6.628   2.869   3.494
  773SOL    HW1 3218   6.588   2.788   3.536
  773SOL    HW2 3219   6.703   2.843   3.434
  774SOL     OW 3220   1.702   2.006   1.857
  774SOL    HW1 3221   1.630   1.939   1.875
  774SOL    HW2 3222   1.784   1.982   1.910
  775SOL     OW 3223   0.905   1.784   3.894
  775SOL    HW1 3224   0.995   1.741   3.891
  775SOL    HW2 3225   0.884   1.824   3.804
  776SOL     OW 3226   1.467   6.527   5.998
  776SOL    HW1 3227   1.499   6.454   5.938
  776SOL    HW2 3228   1.414   6.487   6.073
  777SOL     OW 3229   4.067   0.900   1.460
  777SOL    HW1 3230   4.120   0.848   1.393
  777SOL    HW2 3231   4.125   0.973   1.497
  778SOL     OW 3232   3.838   0.811   3.537
  778SOL    HW1 3233   3.849   0.762   3.450
  778SOL    HW2 3234   3.864   0.907   3.525
  779SOL     OW 3235   0.392   1.752   2.062
  779SOL    HW1 3236   0.355   1.813   1.992
  779SOL    HW2 3237   0.480   1.714   2.031
  780SOL     OW 3238   6.178   2.587   4.494
  780SOL    HW1 3239   6.218   2.509   4.542
  780SOL    HW2 3240   6.079   2.576   4.491
  781SOL     OW 3241   6.032   1.344   6.235
  781SOL    HW1 3242   6.007   1.334   6.138
  781SOL    HW2 3243   6.068   1.436   6.250
  782SOL     OW 3244   0.636   3.443   1.225
  782SOL    HW1 3245   0.721   3.421   1.179
  782SOL    HW2 3246   0.564   3.460   1.158
  783SOL     OW 3247   2.897   5.535   0.231
  783SOL    HW1 3248   2.848   5.531   0.144
  783SOL    HW2 3249   2.849   5.479   0.298
  784SOL     OW 3250   4.152   0.601   5.359
  784SOL    HW1 3251   4.243   0.642   5.351
  784SOL    HW2 3252   4.125   0.563   5.271
  785SOL     OW 3253   6.304   1.808   2.318
  785SOL    HW1 3254   6.320   1.798   2.416
  785SOL    HW2 3255   6.359   1.741   2.268
  786SOL     OW 3256   0.048   0.411   0.388
  786SOL    HW1 3257   6.985   0.370   0.368
  786SOL    HW2 3258   0.121   0.356   0.347
  787SOL     OW 3259   2.602   0.900   5.789
  787SOL    HW1 3260   2.503   0.897   5.803
  787SOL    HW2 3261   2.646   0.935   5.871
  788SOL     OW 3262   2.141   3.543   4.379
  788SOL    HW1 3263   2.138   3.621   4.316
  788SOL    HW2 3264   2.065   3.550   4.444
  789SOL     OW 3265   6.075   4.156   2.045
  789SOL    HW1 3266   6.143   4.226   2.021
  789SOL    HW2 3267   6.012   4.144   1.968
  790SOL     OW 3268   2.096   1.326   4.260
  790SOL    HW1 3269   2.034   1.299   4.186
  790SOL    HW2 3270   2.055   1.401   4.312
  791SOL     OW 3271   3.988   0.361   3.696
  791SOL    HW1 3272   4.002   0.405   3.608
  791SOL    HW2 3273   4.038   0.412   3.767
  792SOL     OW 3274   6.519   0.338   2.423
  792SOL    HW1 3275   6.441   0.318   2.364
  792SOL    HW2 3276   6.507   0.428   2.466
  793SOL     OW 3277   5.002   6.377   1.565
  793SOL    HW1 3278   5.036   6.470   1.550
  793SOL    HW2 3279   5.035   6.317   1.491
  794SOL     OW 3280   2.829   4.863   5.498
  794SOL    HW1 3281   2.858   4.775   5.460
  794SOL    HW2 3282   2.732   4.877   5.481
  795SOL     OW 3283   3.920   4.949   5.939
  795SOL    HW1 3284   3.867   4.929   6.022
  795SOL    HW2 3285   3.868   4.920   5.859
  796SOL     OW 3286   0.307   2.337   5.152
  796SOL    HW1 3287   0.383   2.402   5.153
  796SOL    HW2 3288   0.238   2.367   5.217
  797SOL     OW 3289   5.616   2.258   3.013
  797SOL    HW1 3290   5.554   2.311   2.955
  797SOL    HW2 3291   5.562   2.198   3.072
  798SOL     OW 3292   4.744   0.537   0.586
  798SOL    HW1 3293   4.650   0.516   0.610
  798SOL    HW2 3294   4.772   0.622   0.631
  799SOL     OW 3295   6.290   2.220   3.276
  799SOL    HW1 3296   6.207   2.167   3.293
  799SOL    HW2 3297   6.281   2.311   3.317
  800SOL     OW 3298   5.421   0.431   1.885
  800SOL    HW1 3299   5.403   0.333   1.878
  800SOL    HW2 3300   5.428   0.457   1.982
  801SOL     OW 3301   1.368   2.819   3.270
  801SOL    HW1 3302   1.281   2.837   3.316
  801SOL    HW2 3303   1.352   2.810   3.171
  802SOL     OW 3304   5.001   1.317   0.260
  802SOL    HW1 3305   5.006   1.217   0.255
  802SOL    HW2 3306   5.072   1.351   0.321
  803SOL     OW 3307   6.113   5.598   4.403
  803SOL    HW1 3308   6.021   5.630   4.426
  803SOL    HW2 3309   6.116   5.574   4.306
  804SOL     OW 3310   6.965   6.810   0.294
  804SOL    HW1 3311   6.880   6.808   0.348
  804SOL    HW2 3312   6.975   6.722   0.246
  805SOL     OW 3313   3.949   2.702   5.799
  805SOL    HW1 3314   3.905   2.787   5.769
  805SOL    HW2 3315   3.917   2.627   5.741
  806SOL     OW 3316   4.462   1.320   6.235
  806SOL    HW1 3317   4.488   1.320   6.332
  806SOL    HW2 3318   4.445   1.414   6.205
  807SOL     OW 3319   1.002   0.863   3.549
  807SOL    HW1 3320   0.953   0.780   3.524
  807SOL    HW2 3321   1.094   0.861   3.510
  808SOL     OW 3322   5.321   3.188   5.843
  808SOL    HW1 3323   5.241   3.199   5.785
  808SOL    HW2 3324   5.323   3.096   5.881
  809SOL     OW 3325   1.062   4.891   1.250
  809SOL    HW1 3326   1.116   4.807   1.264
  809SOL    HW2 3327   1.119   4.960   1.205
  810SOL     OW 3328   4.552   3.794   1.313
  810SOL    HW1 3329   4.649   3.804   1.335
  810SOL    HW2 3330   4.519   3.705   1.344
  811SOL     OW 3331   5.012   5.776   3.213
  811SOL    HW1 3332   4.931   5.835   3.207
  811SOL    HW2 3333   4.988   5.691   3.260
  812SOL     OW 3334   0.089   0.371   1.490
  812SOL    HW1 3335   0.076   0.470   1.484
  812SOL    HW2 3336   0.101   0.334   1.397
  813SOL     OW 3337   4.308   6.186   3.395
  813SOL    HW1 3338   4.328   6.167   3.299
  813SOL    HW2 3339   4.258   6.272   3.402
  814SOL     OW 3340   5.150   6.677   2.767
  814SOL    HW1 3341   5.224   6.692   2.833
  814SOL    HW2 3342   5.108   6.587   2.783
  815SOL     OW 3343   5.994   2.743   1.805
  815SOL    HW1 3344   5.905   2.715   1.842
  815SOL    HW2 3345   6.062   2.672   1.825
  816SOL     OW 3346   0.005   6.255   0.265
  816SOL    HW1 3347   6.946   6.276   0.216
  816SOL    HW2 3348   0.000   6.291   0.358
  817SOL     OW 3349   1.865   3.886   2.254
  817SOL    HW1 3350   1.861   3.985   2.267
  817SOL    HW2 3351   1.890   3.842   2.341
  818SOL     OW 3352   5.910   2.136   0.803
  818SOL    HW1 3353   5.894   2.108   0.897
  818SOL    HW2 3354   5.904   2.236   0.796
  819SOL     OW 3355   6.584   2.558   4.375
  819SOL    HW1 3356   6.655   2.627   4.365
  819SOL    HW2 3357   6.624   2.471   4.404
  820SOL     OW 3358   1.393   2.878   4.831
  820SOL    HW1 3359   1.416   2.973   4.810
  820SOL    HW2 3360   1.346   2.874   4.919
  821SOL     OW 3361   1.600   4.434   0.837
  821SOL    HW1 3362   1.553   4.363   0.890
  821SOL    HW2 3363   1.675   4.472   0.892
  822SOL     OW 3364   0.529   4.151   4.876
  822SOL    HW1 3365   0.491   4.073   4.827
  822SOL    HW2 3366   0.518   4.137   4.975
  823SOL     OW 3367   5.155   4.347   6.180
  823SOL    HW1 3368   5.249   4.364   6.149
  823SOL    HW2 3369   5.103   4.305   6.106
  824SOL     OW 3370   4.606   1.808   4.995
  824SOL    HW1 3371   4.705   1.815   4.989
  824SOL    HW2 3372   4.566   1.899   5.005
  825SOL     OW 3373   2.130   3.357   2.385
  825SOL    HW1 3374   2.199   3.427   2.404
  825SOL    HW2 3375   2.113   3.353   2.286
  826SOL     OW 3376   5.916   3.240   0.594
  826SOL    HW1 3377   5.933   3.178   0.518
  826SOL    HW2 3378   5.888   3.188   0.674
  827SOL     OW 3379   3.108   5.243   6.308
  827SOL    HW1 3380   3.032   5.206   6.361
  827SOL    HW2 3381   3.159   5.308   6.364
  828SOL     OW 3382   6.179   0.785   5.322
  828SOL    HW1 3383   6.207   0.756   5.230
  828SOL    HW2 3384   6.177   0.885   5.325
  829SOL     OW 3385   2.968   3.232   3.937
  829SOL    HW1 3386   2.941   3.328   3.933
  829SOL    HW2 3387   2.941   3.192   4.025
  830SOL     OW 3388   4.726   4.738   5.817
  830SOL    HW1 3389   4.780   4.774   5.893
  830SOL    HW2 3390   4.661   4.671   5.850
  831SOL     OW 3391   6.446   0.113   4.588
  831SOL    HW1 3392   6.526   0.058   4.565
  831SOL    HW2 3393   6.429   0.179   4.515
  832SOL     OW 3394   2.740   1.523   0.259
  832SOL    HW1 3395   2.837   1.519   0.280
  832SOL    HW2 3396   2.725   1.583   0.180
  833SOL     OW 3397   6.194   6.807   6.729
  833SOL    HW1 3398   6.107   6.763   6.705
  833SOL    HW2 3399   6.259   6.738   6.758
  834SOL     OW 3400   3.385   3.687   3.846
  834SOL    HW1 3401   3.480   3.707   3.868
  834SOL    HW2 3402   3.364   3.718   3.753
  835SOL     OW 3403   4.109   6.848   3.980
  835SOL    HW1 3404   4.177   6.917   4.004
  835SOL    HW2 3405   4.018   6.881   4.004
  836SOL     OW 3406   3.576   6.646   6.929
  836SOL    HW1 3407   3.545   6.590   7.005
  836SOL    HW2 3408   3.608   6.734   6.963
  837SOL     OW 3409   5.493   0.205   6.995
  837SOL    HW1 3410   5.566   0.267   6.967
  837SOL    HW2 3411   5.456   0.235   0.057
  838SOL     OW 3412   1.080   6.228   4.955
  838SOL    HW1 3413   1.089   6.189   5.047
  838SOL    HW2 3414   1.169   6.226   4.910
  839SOL     OW 3415   3.056   1.231   3.665
  839SOL    HW1 3416   3.137   1.178   3.639
  839SOL    HW2 3417   3.037   1.299   3.594
  840SOL     OW 3418   1.394   1.415   0.066
  840SOL    HW1 3419   1.479   1.427   0.015
  840SOL    HW2 3420   1.388   1.321   0.100
  841SOL     OW 3421   6.425   3.805   0.089
  841SOL    HW1 3422   6.377   3.728   0.130
  841SOL    HW2 3423   6.457   3.779   7.024
  842SOL     OW 3424   3.967   5.450   3.133
  842SOL    HW1 3425   3.972   5.538   3.180
  842SOL    HW2 3426   4.000   5.459   3.040
  843SOL     OW 3427   5.856   2.130   1.379
  843SOL    HW1 3428   5.795   2.062   1.419
  843SOL    HW2 3429   5.839   2.219   1.422
  844SOL     OW 3430   5.235   6.345   0.801
  844SOL    HW1 3431   5.151   6.390   0.831
  844SOL    HW2 3432   5.314   6.391   0.842
  845SOL     OW 3433   6.086   3.242   5.027
  845SOL    HW1 3434   6.170   3.277   5.067
  845SOL    HW2 3435   6.015   3.237   5.097
  846SOL     OW 3436   5.550   1.240   0.170
  846SOL    HW1 3437   5.585   1.306   0.236
  846SOL    HW2 3438   5.453   1.222   0.188
  847SOL     OW 3439   6.175   3.616   0.828
  847SOL    HW1 3440   6.149   3.554   0.902
  847SOL    HW2 3441   6.120   3.595   0.747
  848SOL     OW 3442   6.661   0.472   5.862
  848SOL    HW1 3443   6.567   0.449   5.887
  848SOL    HW2 3444   6.712   0.498   5.944
  849SOL     OW 3445   0.332   5.768   4.861
  849SOL    HW1 3446   0.294   5.686   4.905
  849SOL    HW2 3447   0.272   5.795   4.785
  850SOL     OW 3448   4.782   0.760   3.335
  850SOL    HW1 3449   4.834   0.787   3.253
  850SOL    HW2 3450   4.714   0.831   3.356
  851SOL     OW 3451   0.664   0.926   0.102
  851SOL    HW1 3452   0.752   0.973   0.097
  851SOL    HW2 3453   0.591   0.994   0.109
  852SOL     OW 3454   2.250   3.000   6.803
  852SOL    HW1 3455   2.336   3.047   6.783
  852SOL    HW2 3456   2.226   3.014   6.898
  853SOL     OW 3457   1.157   2.373   1.923
  853SOL    HW1 3458   1.203   2.323   1.996
  853SOL    HW2 3459   1.143   2.312   1.845
  854SOL     OW 3460   5.372   6.357   2.627
  854SOL    HW1 3461   5.436   6.312   2.566
  854SOL    HW2 3462   5.285   6.373   2.579
  855SOL     OW 3463   5.655   0.195   1.643
  855SOL    HW1 3464   5.729   0.257   1.616
  855SOL    HW2 3465   5.664   0.173   1.741
  856SOL     OW 3466   1.824   6.838   5.450
  856SOL    HW1 3467   1.878   6.796   5.523
  856SOL    HW2 3468   1.774   6.917   5.487
  857SOL     OW 3469   6.095   3.875   0.993
  857SOL    HW1 3470   6.155   3.798   0.973
  857SOL    HW2 3471   6.116   3.912   1.083
  858SOL     OW 3472   2.848   4.994   1.652
  858SOL    HW1 3473   2.920   5.018   1.587
  858SOL    HW2 3474   2.867   4.903   1.690
  859SOL     OW 3475   6.734   4.790   6.558
  859SOL    HW1 3476   6.710   4.816   6.651
  859SOL    HW2 3477   6.789   4.707   6.559
  860SOL     OW 3478   3.293   4.830   0.327
  860SOL    HW1 3479   3.375   4.784   0.361
  860SOL    HW2 3480   3.273   4.798   0.234
  861SOL     OW 3481   3.121   6.494   5.045
  861SOL    HW1 3482   3.178   6.498   4.963
  861SOL    HW2 3483   3.159   6.428   5.110
  862SOL     OW 3484   5.736   4.351   4.874
  862SOL    HW1 3485   5.754   4.258   4.843
  862SOL    HW2 3486   5.639   4.370   4.866
  863SOL     OW 3487   0.635   0.955   0.830
  863SOL    HW1 3488   0.565   1.027   0.824
  863SOL    HW2 3489   0.669   0.950   0.924
  864SOL     OW 3490   5.023   4.319   3.215
  864SOL    HW1 3491   5.048   4.333   3.119
  864SOL    HW2 3492   5.100   4.345   3.274
  865SOL     OW 3493   1.240   0.021   3.612
  865SOL    HW1 3494   1.335   0.040   3.588
  865SOL    HW2 3495   1.220   6.950   3.594
  866SOL     OW 3496   2.687   1.891   1.749
  866SOL    HW1 3497   2.650   1.908   1.841
  866SOL    HW2 3498   2.783   1.917   1.746
  867SOL     OW 3499   2.855   3.076   6.883
  867SOL    HW1 3500   2.955   3.086   6.883
  867SOL    HW2 3501   2.825   3.043   6.972
  868SOL     OW 3502   6.039   0.398   3.151
  868SOL    HW1 3503   6.110   0.336   3.116
  868SOL    HW2 3504   6.082   0.471   3.203
  869SOL     OW 3505   6.159   5.878   2.705
  869SOL    HW1 3506   6.067   5.913   2.688
  869SOL    HW2 3507   6.202   5.930   2.779
  870SOL     OW 3508   0.260   2.742   1.258
  870SOL    HW1 3509   0.313   2.808   1.204
  870SOL    HW2 3510   0.206   2.790   1.326
  871SOL     OW 3511   6.489   2.556   2.083
  871SOL    HW1 3512   6.586   2.560   2.107
  871SOL    HW2 3513   6.447   2.645   2.097
  872SOL     OW 3514   6.368   2.798   4.733
  872SOL    HW1 3515   6.375   2.884   4.783
  872SOL    HW2 3516   6.361   2.817   4.635
  873SOL     OW 3517   3.737   6.731   3.680
  873SOL    HW1 3518   3.713   6.827   3.673
  873SOL    HW2 3519   3.665   6.675   3.637
  874SOL     OW 3520   1.361   4.508   5.189
  874SOL    HW1 3521   1.391   4.413   5.189
  874SOL    HW2 3522   1.435   4.565   5.227
  875SOL     OW 3523   5.593   4.364   0.563
  875SOL    HW1 3524   5.624   4.371   0.469
  875SOL    HW2 3525   5.531   4.287   0.572
  876SOL     OW 3526   6.604   3.515   2.561
  876SOL    HW1 3527   6.530   3.508   2.629
  876SOL    HW2 3528   6.586   3.594   2.502
  877SOL     OW 3529   4.937   5.124   0.099
  877SOL    HW1 3530   4.844   5.156   0.114
  877SOL    HW2 3531   4.936   5.025   0.080
  878SOL     OW 3532   3.312   5.271   0.627
  878SOL    HW1 3533   3.372   5.192   0.644
  878SOL    HW2 3534   3.245   5.247   0.557
  879SOL     OW 3535   4.148   1.908   2.625
  879SOL    HW1 3536   4.070   1.909   2.562
  879SOL    HW2 3537   4.226   1.953   2.583
  880SOL     OW 3538   3.751   5.096   0.370
  880SOL    HW1 3539   3.709   5.040   0.442
  880SOL    HW2 3540   3.729   5.056   0.280
  881SOL     OW 3541   4.251   4.952   4.113
  881SOL    HW1 3542   4.195   5.021   4.159
  881SOL    HW2 3543   4.214   4.861   4.132
  882SOL     OW 3544   0.921   0.608   4.640
  882SOL    HW1 3545   0.991   0.627   4.708
  882SOL    HW2 3546   0.877   0.694   4.613
  883SOL     OW 3547   3.128   5.278   6.715
  883SOL    HW1 3548   3.158   5.334   6.638
  883SOL    HW2 3549   3.123   5.334   6.797
  884SOL     OW 3550   6.091   3.626   1.655
  884SOL    HW1 3551   5.994   3.608   1.639
  884SOL    HW2 3552   6.100   3.695   1.727
  885SOL     OW 3553   6.022   6.421   0.730
  885SOL    HW1 3554   6.006   6.510   0.774
  885SOL    HW2 3555   5.969   6.416   0.646
  886SOL     OW 3556   4.063   1.096   7.024
  886SOL    HW1 3557   3.972   1.077   6.986
  886SOL    HW2 3558   4.093   1.019   0.053
  887SOL     OW 3559   3.953   0.138   5.852
  887SOL    HW1 3560   4.052   0.136   5.841
  887SOL    HW2 3561   3.923   0.231   5.873
  888SOL     OW 3562   6.672   6.473   3.435
  888SOL    HW1 3563   6.607   6.507   3.367
  888SOL    HW2 3564   6.716   6.390   3.401
  889SOL     OW 3565   6.995   6.472   5.257
  889SOL    HW1 3566   6.935   6.460   5.178
  889SOL    HW2 3567   0.048   6.528   5.231
  890SOL     OW 3568   2.746   4.692   2.223
  890SOL    HW1 3569   2.654   4.680   2.262
  890SOL    HW2 3570   2.757   4.630   2.145
  891SOL     OW 3571   5.470   2.485   0.764
  891SOL    HW1 3572   5.496   2.419   0.835
  891SOL    HW2 3573   5.440   2.570   0.807
  892SOL     OW 3574   2.795   3.800   0.903
  892SOL    HW1 3575   2.862   3.753   0.845
  892SOL    HW2 3576   2.840   3.876   0.950
  893SOL     OW 3577   1.298   0.870   0.123
  893SOL    HW1 3578   1.264   0.800   0.186
  893SOL    HW2 3579   1.244   0.868   0.039
  894SOL     OW 3580   1.328   5.969   4.153
  894SOL    HW1 3581   1.230   5.986   4.147
  894SOL    HW2 3582   1.372   6.045   4.201
  895SOL     OW 3583   2.256   6.949   4.253
  895SOL    HW1 3584   2.252   6.850   4.240
  895SOL    HW2 3585   2.165   6.988   4.239
  896SOL     OW 3586   5.757   6.562   3.419
  896SOL    HW1 3587   5.692   6.497   3.380
  896SOL    HW2 3588   5.731   6.583   3.513
  897SOL     OW 3589   4.648   2.934   6.428
  897SOL    HW1 3590   4.633   2.988   6.345
  897SOL    HW2 3591   4.561   2.893   6.457
  898SOL     OW 3592   5.490   6.665   3.568
  898SOL    HW1 3593   5.416   6.598   3.570
  898SOL    HW2 3594   5.470   6.735   3.500
  899SOL     OW 3595   0.489   4.456   6.210
  899SOL    HW1 3596   0.484   4.422   6.116
  899SOL    HW2 3597   0.567   4.416   6.257
  900SOL     OW 3598   0.368   6.213   3.510
  900SOL    HW1 3599   0.275   6.249   3.511
  900SOL    HW2 3600   0.398   6.198   3.416
  901SOL     OW 3601   6.212   1.167   4.013
  901SOL    HW1 3602   6.141   1.157   3.944
  901SOL    HW2 3603   6.184   1.237   4.079
  902SOL     OW 3604   0.232   0.005   6.861
  902SOL    HW1 3605   0.282   6.999   6.940
  902SOL    HW2 3606   0.295   0.018   6.784
  903SOL     OW 3607   0.541   4.910   0.803
  903SOL    HW1 3608   0.484   4.894   0.722
  903SOL    HW2 3609   0.556   5.008   0.814
  904SOL     OW 3610   1.904   1.679   3.481
  904SOL    HW1 3611   1.911   1.675   3.381
  904SOL    HW2 3612   1.935   1.592   3.520
  905SOL     OW 3613   5.195   1.836   5.832
  905SOL    HW1 3614   5.240   1.873   5.914
  905SOL    HW2 3615   5.121   1.897   5.805
  906SOL     OW 3616   0.168   3.973   5.874
  906SOL    HW1 3617   0.148   3.881   5.839
  906SOL    HW2 3618   0.232   3.966   5.950
  907SOL     OW 3619   5.932   2.357   2.410
  907SOL    HW1 3620   5.933   2.308   2.497
  907SOL    HW2 3621   5.889   2.300   2.339
  908SOL     OW 3622   1.956   0.108   4.037
  908SOL    HW1 3623   1.959   0.013   4.004
  908SOL    HW2 3624   2.008   0.167   3.976
  909SOL     OW 3625   3.795   1.191   1.586
  909SOL    HW1 3626   3.782   1.139   1.671
  909SOL    HW2 3627   3.783   1.131   1.507
  910SOL     OW 3628   1.993   1.781   0.597
  910SOL    HW1 3629   2.001   1.749   0.502
  910SOL    HW2 3630   1.960   1.706   0.654
  911SOL     OW 3631   0.329   4.599   1.336
  911SOL    HW1 3632   0.324   4.589   1.236
  911SOL    HW2 3633   0.282   4.683   1.363
  912SOL     OW 3634   6.939   0.254   5.890
  912SOL    HW1 3635   6.986   0.169   5.915
  912SOL    HW2 3636   6.973   0.328   5.948
  913SOL     OW 3637   2.641   0.918   2.253
  913SOL    HW1 3638   2.708   0.904   2.181
  913SOL    HW2 3639   2.681   0.972   2.327
  914SOL     OW 3640   2.660   5.735   3.331
  914SOL    HW1 3641   2.609   5.750   3.416
  914SOL    HW2 3642   2.758   5.746   3.349
  915SOL     OW 3643   0.702   2.557   0.306
  915SOL    HW1 3644   0.723   2.638   0.360
  915SOL    HW2 3645   0.655   2.584   0.222
  916SOL     OW 3646   2.579   2.536   3.147
  916SOL    HW1 3647   2.674   2.553   3.119
  916SOL    HW2 3648   2.517   2.575   3.079
  917SOL     OW 3649   4.070   1.640   1.537
  917SOL    HW1 3650   4.155   1.608   1.494
  917SOL    HW2 3651   3.994   1.631   1.473
  918SOL     OW 3652   2.447   6.052   6.273
  918SOL    HW1 3653   2.528   5.997   6.252
  918SOL    HW2 3654   2.391   6.005   6.341
  919SOL     OW 3655   1.709   5.940   1.451
  919SOL    HW1 3656   1.611   5.918   1.444
  919SOL    HW2 3657   1.724   6.033   1.419
  920SOL     OW 3658   2.667   0.749   3.711
  920SOL    HW1 3659   2.748   0.796   3.677
  920SOL    HW2 3660   2.656   0.769   3.808
  921SOL     OW 3661   5.837   5.392   4.334
  921SOL    HW1 3662   5.923   5.344   4.353
  921SOL    HW2 3663   5.773   5.329   4.290
  922SOL     OW 3664   3.260   3.728   6.881
  922SOL    HW1 3665   3.223   3.764   6.795
  922SOL    HW2 3666   3.210   3.767   6.958
  923SOL     OW 3667   2.834   6.768   6.621
  923SOL    HW1 3668   2.787   6.824   6.690
  923SOL    HW2 3669   2.928   6.798   6.611
  924SOL     OW 3670   5.969   3.834   2.586
  924SOL    HW1 3671   6.027   3.901   2.539
  924SOL    HW2 3672   6.024   3.782   2.651
  925SOL     OW 3673   0.160   1.462   4.569
  925SOL    HW1 3674   0.064   1.436   4.565
  925SOL    HW2 3675   0.186   1.481   4.663
  926SOL     OW 3676   5.401   5.855   0.109
  926SOL    HW1 3677   5.499   5.847   0.129
  926SOL    HW2 3678   5.378   5.951   0.092
  927SOL     OW 3679   4.397   4.628   4.382
  927SOL    HW1 3680   4.480   4.654   4.333
  927SOL    HW2 3681   4.419   4.607   4.477
  928SOL     OW 3682   2.175   0.914   1.387
  928SOL    HW1 3683   2.181   0.923   1.288
  928SOL    HW2 3684   2.208   0.997   1.431
  929SOL     OW 3685   6.846   2.836   2.787
  929SOL    HW1 3686   6.798   2.782   2.857
  929SOL    HW2 3687   6.912   2.897   2.831
  930SOL     OW 3688   5.109   4.988   4.183
  930SOL    HW1 3689   5.116   4.945   4.093
  930SOL    HW2 3690   5.194   4.973   4.233
  931SOL     OW 3691   1.107   2.184   2.445
  931SOL    HW1 3692   1.054   2.201   2.528
  931SOL    HW2 3693   1.149   2.270   2.414
  932SOL     OW 3694   4.659   6.158   1.098
  932SOL    HW1 3695   4.572   6.203   1.119
  932SOL    HW2 3696   4.712   6.148   1.182
  933SOL     OW 3697   1.868   5.384   2.873
  933SOL    HW1 3698   1.854   5.310   2.939
  933SOL    HW2 3699   1.788   5.391   2.813
  934SOL     OW 3700   3.144   1.551   5.108
  934SOL    HW1 3701   3.203   1.618   5.152
  934SOL    HW2 3702   3.133   1.472   5.168
  935SOL     OW 3703   3.886   3.309   6.368
  935SOL    HW1 3704   3.912   3.302   6.464
  935SOL    HW2 3705   3.969   3.306   6.311
  936SOL     OW 3706   0.353   0.462   0.979
  936SOL    HW1 3707   0.280   0.478   0.912
  936SOL    HW2 3708   0.392   0.550   1.007
  937SOL     OW 3709   4.282   1.609   4.674
  937SOL    HW1 3710   4.271   1.692   4.728
  937SOL    HW2 3711   4.252   1.530   4.728
  938SOL     OW 3712   0.489   2.761   6.348
  938SOL    HW1 3713   0.574   2.716   6.375
  938SOL    HW2 3714   0.501   2.807   6.260
  939SOL     OW 3715   5.694   1.355   6.115
  939SOL    HW1 3716   5.601   1.330   6.140
  939SOL    HW2 3717   5.695   1.450   6.084
  940SOL     OW 3718   6.751   1.056   4.113
  940SOL    HW1 3719   6.851   1.054   4.119
  940SOL    HW2 3720   6.714   1.092   4.199
  941SOL     OW 3721   5.474   1.923   3.886
  941SOL    HW1 3722   5.455   1.831   3.920
  941SOL    HW2 3723   5.560   1.956   3.925
  942SOL     OW 3724   4.787   6.464   5.347
  942SOL    HW1 3725   4.831   6.547   5.382
  942SOL    HW2 3726   4.771   6.473   5.249
  943SOL     OW 3727   5.932   2.220   1.677
  943SOL    HW1 3728   5.875   2.274   1.615
  943SOL    HW2 3729   5.873   2.166   1.737
  944SOL     OW 3730   5.604   3.793   4.393
  944SOL    HW1 3731   5.691   3.774   4.347
  944SOL    HW2 3732   5.539   3.720   4.372
  945SOL     OW 3733   5.110   4.369   4.218
  945SOL    HW1 3734   5.039   4.387   4.150
  945SOL    HW2 3735   5.102   4.275   4.250
  946SOL     OW 3736   6.032   2.776   5.897
  946SOL    HW1 3737   5.943   2.741   5.868
  946SOL    HW2 3738   6.060   2.731   5.982
  947SOL     OW 3739   2.730   2.523   6.588
  947SOL    HW1 3740   2.642   2.569   6.574
  947SOL    HW2 3741   2.759   2.481   6.502
  948SOL     OW 3742   3.899   2.143   0.944
  948SOL    HW1 3743   3.919   2.171   1.038
  948SOL    HW2 3744   3.928   2.214   0.881
  949SOL     OW 3745   6.480   5.356   6.327
  949SOL    HW1 3746   6.394   5.305   6.320
  949SOL    HW2 3747   6.507   5.388   6.237
  950SOL     OW 3748   4.085   5.529   0.884
  950SOL    HW1 3749   4.143   5.572   0.953
  950SOL    HW2 3750   4.129   5.445   0.851
  951SOL     OW 3751   0.992   1.289   1.769
  951SOL    HW1 3752   1.015   1.219   1.836
  951SOL    HW2 3753   1.040   1.270   1.683
  952SOL     OW 3754   5.273   0.773   3.555
  952SOL    HW1 3755   5.324   0.839   3.499
  952SOL    HW2 3756   5.176   0.783   3.537
  953SOL     OW 3757   4.025   6.097   6.181
  953SOL    HW1 3758   4.056   6.147   6.262
  953SOL    HW2 3759   4.070   6.134   6.100
  954SOL     OW 3760   6.218   0.407   1.589
  954SOL    HW1 3761   6.260   0.344   1.655
  954SOL    HW2 3762   6.232   0.501   1.619
  955SOL     OW 3763   0.924   5.878   2.948
  955SOL    HW1 3764   0.842   5.922   2.984
  955SOL    HW2 3765   1.005   5.917   2.991
  956SOL     OW 3766   2.161   2.065   1.038
  956SOL    HW1 3767   2.220   2.055   1.118
  956SOL    HW2 3768   2.167   1.982   0.982
  957SOL     OW 3769   1.649   4.906   4.747
  957SOL    HW1 3770   1.699   4.820   4.739
  957SOL    HW2 3771   1.557   4.895   4.711
  958SOL     OW 3772   5.487   1.813   1.476
  958SOL    HW1 3773   5.391   1.797   1.500
  958SOL    HW2 3774   5.542   1.821   1.559
  959SOL     OW 3775   2.913   4.770   3.252
  959SOL    HW1 3776   3.003   4.729   3.240
  959SOL    HW2 3777   2.909   4.857   3.202
  960SOL     OW 3778   1.817   5.683   4.685
  960SOL    HW1 3779   1.873   5.727   4.615
  960SOL    HW2 3780   1.877   5.643   4.754
  961SOL     OW 3781   4.507   6.751   1.832
  961SOL    HW1 3782   4.442   6.710   1.896
  961SOL    HW2 3783   4.537   6.840   1.867
  962SOL     OW 3784   1.557   1.032   3.390
  962SOL    HW1 3785   1.563   0.938   3.423
  962SOL    HW2 3786   1.520   1.033   3.297
  963SOL     OW 3787   6.627   0.731   1.625
  963SOL    HW1 3788   6.568   0.654   1.604
  963SOL    HW2 3789   6.668   0.719   1.716
  964SOL     OW 3790   5.226   3.556   1.435
  964SOL    HW1 3791   5.198   3.544   1.340
  964SOL    HW2 3792   5.271   3.645   1.445
  965SOL     OW 3793   0.460   1.711   0.375
  965SOL    HW1 3794   0.438   1.764   0.457
  965SOL    HW2 3795   0.377   1.670   0.338
  966SOL     OW 3796   6.769   1.744   2.755
  966SOL    HW1 3797   6.865   1.769   2.742
  966SOL    HW2 3798   6.763   1.661   2.811
  967SOL     OW 3799   0.784   5.641   0.770
  967SOL    HW1 3800   0.791   5.740   0.760
  967SOL    HW2 3801   0.717   5.619   0.841
  968SOL     OW 3802   4.697   2.698   2.135
  968SOL    HW1 3803   4.780   2.744   2.167
  968SOL    HW2 3804   4.710   2.599   2.140
  969SOL     OW 3805   4.632   6.257   5.783
  969SOL    HW1 3806   4.653   6.329   5.718
  969SOL    HW2 3807   4.575   6.294   5.856
  970SOL     OW 3808   4.329   2.275   5.253
  970SOL    HW1 3809   4.324   2.354   5.193
  970SOL    HW2 3810   4.237   2.243   5.274
  971SOL     OW 3811   6.859   1.752   1.487
  971SOL    HW1 3812   6.821   1.800   1.566
  971SOL    HW2 3813   6.959   1.746   1.497
  972SOL     OW 3814   6.526   5.542   0.614
  972SOL    HW1 3815   6.435   5.500   0.614
  972SOL    HW2 3816   6.538   5.595   0.529
  973SOL     OW 3817   6.615   4.557   6.065
  973SOL    HW1 3818   6.556   4.592   5.992
  973SOL    HW2 3819   6.610   4.457   6.067
  974SOL     OW 3820   3.036   0.863   3.396
  974SOL    HW1 3821   3.007   0.833   3.487
  974SOL    HW2 3822   3.071   0.784   3.346
  975SOL     OW 3823   2.735   5.913   5.631
  975SOL    HW1 3824   2.650   5.865   5.652
  975SOL    HW2 3825   2.745   5.993   5.690
  976SOL     OW 3826   6.783   3.390   3.103
  976SOL    HW1 3827   6.734   3.390   3.190
  976SOL    HW2 3828   6.754   3.311   3.049
  977SOL     OW 3829   1.592   1.122   3.647
  977SOL    HW1 3830   1.590   1.115   3.547
  977SOL    HW2 3831   1.549   1.041   3.686
  978SOL     OW 3832   5.581   4.107   4.392
  978SOL    HW1 3833   5.483   4.090   4.393
  978SOL    HW2 3834   5.630   4.020   4.395
  979SOL     OW 3835   6.421   0.956   3.382
  979SOL    HW1 3836   6.396   0.941   3.287
  979SOL    HW2 3837   6.419   1.054   3.403
  980SOL     OW 3838   5.215   2.189   4.306
  980SOL    HW1 3839   5.291   2.173   4.243
  980SOL    HW2 3840   5.152   2.255   4.265
  981SOL     OW 3841   1.761   1.540   4.230
  981SOL    HW1 3842   1.744   1.513   4.325
  981SOL    HW2 3843   1.683   1.514   4.174
  982SOL     OW 3844   1.285   2.380   1.555
  982SOL    HW1 3845   1.218   2.347   1.488
  982SOL    HW2 3846   1.274   2.479   1.566
  983SOL     OW 3847   6.021   2.127   3.300
  983SOL    HW1 3848   6.007   2.134   3.399
  983SOL    HW2 3849   5.935   2.147   3.253
  984SOL     OW 3850   4.836   1.600   5.173
  984SOL    HW1 3851   4.859   1.531   5.241
  984SOL    HW2 3852   4.736   1.609   5.166
  985SOL     OW 3853   3.089   5.785   0.844
  985SOL    HW1 3854   3.134   5.738   0.920
  985SOL    HW2 3855   3.136   5.763   0.759
  986SOL     OW 3856   4.521   5.459   6.127
  986SOL    HW1 3857   4.480   5.418   6.045
  986SOL    HW2 3858   4.458   5.449   6.203
  987SOL     OW 3859   3.254   6.466   1.617
  987SOL    HW1 3860   3.285   6.462   1.712
  987SOL    HW2 3861   3.166   6.420   1.609
  988SOL     OW 3862   4.035   3.104   0.989
  988SOL    HW1 3863   3.941   3.071   0.978
  988SOL    HW2 3864   4.080   3.054   1.063
  989SOL     OW 3865   0.558   0.208   5.558
  989SOL    HW1 3866   0.482   0.268   5.533
  989SOL    HW2 3867   0.521   0.121   5.591
  990SOL     OW 3868   4.145   0.650   4.221
  990SOL    HW1 3869   4.171   0.744   4.245
  990SOL    HW2 3870   4.069   0.621   4.278
  991SOL     OW 3871   0.923   2.476   4.709
  991SOL    HW1 3872   0.877   2.491   4.797
  991SOL    HW2 3873   1.017   2.445   4.724
  992SOL     OW 3874   0.189   3.263   6.873
  992SOL    HW1 3875   0.277   3.215   6.877
  992SOL    HW2 3876   0.142   3.252   6.960
  993SOL     OW 3877   3.136   4.860   2.505
  993SOL    HW1 3878   3.089   4.837   2.420
  993SOL    HW2 3879   3.224   4.813   2.508
  994SOL     OW 3880   3.519   3.437   2.131
  994SOL    HW1 3881   3.605   3.488   2.122
  994SOL    HW2 3882   3.529   3.347   2.088
  995SOL     OW 3883   1.830   2.343   6.177
  995SOL    HW1 3884   1.806   2.268   6.115
  995SOL    HW2 3885   1.870   2.305   6.261
  996SOL     OW 3886   2.111   3.423   2.718
  996SOL    HW1 3887   2.098   3.393   2.624
  996SOL    HW2 3888   2.112   3.343   2.779
  997SOL     OW 3889   0.552   0.870   1.275
  997SOL    HW1 3890   0.514   0.899   1.362
  997SOL    HW2 3891   0.598   0.782   1.286
  998SOL     OW 3892   4.222   6.820   2.167
  998SOL    HW1 3893   4.302   6.872   2.197
  998SOL    HW2 3894   4.138   6.865   2.197
  999SOL     OW 3895   6.111   5.564   1.396
  999SOL    HW1 3896   6.121   5.475   1.439
  999SOL    HW2 3897   6.062   5.555   1.309
 1000SOL     OW 3898   2.322   2.595   3.783
 1000SOL    HW1 3899   2.237   2.543   3.782
 1000SOL    HW2 3900   2.375   2.575   3.701
 1001SOL     OW 3901   4.461   6.476   6.539
 1001SOL    HW1 3902   4.425   6.569   6.534
 1001SOL    HW2 3903   4.559   6.478   6.557
 1002SOL     OW 3904   5.701   1.506   0.020
 1002SOL    HW1 3905   5.648   1.437   6.997
 1002SOL    HW2 3906   5.652   1.534   0.103
 1003SOL     OW 3907   3.101   6.451   2.419
 1003SOL    HW1 3908   3.049   6.458   2.334
 1003SOL    HW2 3909   3.063   6.513   2.487
 1004SOL     OW 3910   0.145   0.210   6.657
 1004SOL    HW1 3911   0.067   0.257   6.697
 1004SOL    HW2 3912   0.193   0.158   6.728
 1005SOL     OW 3913   0.629   0.337   2.602
 1005SOL    HW1 3914   0.553   0.341   2.667
 1005SOL    HW2 3915   0.614   0.263   2.537
 1006SOL     OW 3916   2.470   5.366   1.686
 1006SOL    HW1 3917   2.493   5.305   1.763
 1006SOL    HW2 3918   2.511   5.331   1.602
 1007SOL     OW 3919   6.623   1.485   3.691
 1007SOL    HW1 3920   6.637   1.584   3.689
 1007SOL    HW2 3921   6.664   1.446   3.773
 1008SOL     OW 3922   0.974   2.889   3.836
 1008SOL    HW1 3923   0.911   2.858   3.907
 1008SOL    HW2 3924   0.991   2.987   3.847
 1009SOL     OW 3925   0.057   5.682   4.226
 1009SOL    HW1 3926   0.128   5.750   4.207
 1009SOL    HW2 3927   0.027   5.691   4.321
 1010SOL     OW 3928   4.158   1.612   0.684
 1010SOL    HW1 3929   4.170   1.525   0.731
 1010SOL    HW2 3930   4.231   1.675   0.712
 1011SOL     OW 3931   2.718   5.374   3.863
 1011SOL    HW1 3932   2.797   5.392   3.803
 1011SOL    HW2 3933   2.675   5.461   3.889
 1012SOL     OW 3934   6.189   5.378   0.325
 1012SOL    HW1 3935   6.101   5.341   0.355
 1012SOL    HW2 3936   6.262   5.333   0.376
 1013SOL     OW 3937   0.934   0.735   0.242
 1013SOL    HW1 3938   0.924   0.761   0.146
 1013SOL    HW2 3939   0.845   0.711   0.279
 1014SOL     OW 3940   3.867   5.596   6.076
 1014SOL    HW1 3941   3.908   5.684   6.101
 1014SOL    HW2 3942   3.923   5.553   6.004
 1015SOL     OW 3943   3.621   6.518   5.082
 1015SOL    HW1 3944   3.557   6.444   5.064
 1015SOL    HW2 3945   3.714   6.482   5.082
 1016SOL     OW 3946   3.371   2.752   1.476
 1016SOL    HW1 3947   3.284   2.787   1.512
 1016SOL    HW2 3948   3.377   2.769   1.378
 1017SOL     OW 3949   4.619   2.474   0.764
 1017SOL    HW1 3950   4.634   2.446   0.669
 1017SOL    HW2 3951   4.544   2.540   0.768
 1018SOL     OW 3952   1.263   3.079   3.718
 1018SOL    HW1 3953   1.284   3.009   3.787
 1018SOL    HW2 3954   1.166   3.074   3.694
 1019SOL     OW 3955   6.955   1.292   0.393
 1019SOL    HW1 3956   6.999   1.270   0.305
 1019SOL    HW2 3957   7.017   1.267   0.468
 1020SOL     OW 3958   3.123   0.406   0.465
 1020SOL    HW1 3959   3.209   0.457   0.467
 1020SOL    HW2 3960   3.052   0.462   0.422
 1021SOL     OW 3961   7.010   1.275   1.501
 1021SOL    HW1 3962   6.966   1.278   1.411
 1021SOL    HW2 3963   6.941   1.286   1.572
 1022SOL     OW 3964   4.669   3.196   5.934
 1022SOL    HW1 3965   4.659   3.284   5.981
 1022SOL    HW2 3966   4.580   3.151   5.927
 1023SOL     OW 3967   5.531   0.296   2.604
 1023SOL    HW1 3968   5.530   0.229   2.677
 1023SOL    HW2 3969   5.601   0.365   2.623
 1024SOL     OW 3970   6.502   1.608   4.503
 1024SOL    HW1 3971   6.445   1.686   4.528
 1024SOL    HW2 3972   6.597   1.638   4.491
 1025SOL     OW 3973   3.288   4.462   0.897
 1025SOL    HW1 3974   3.319   4.395   0.830
 1025SOL    HW2 3975   3.202   4.503   0.866
 1026SOL     OW 3976   2.213   1.926   0.128
 1026SOL    HW1 3977   2.232   1.836   0.090
 1026SOL    HW2 3978   2.244   1.996   0.064
 1027SOL     OW 3979   2.736   5.187   1.844
 1027SOL    HW1 3980   2.730   5.088   1.834
 1027SOL    HW2 3981   2.747   5.229   1.754
 1028SOL     OW 3982   1.881   5.968   0.411
 1028SOL    HW1 3983   1.976   5.960   0.440
 1028SOL    HW2 3984   1.826   5.898   0.457
 1029SOL     OW 3985   1.683   0.599   0.269
 1029SOL    HW1 3986   1.600   0.611   0.215
 1029SOL    HW2 3987   1.761   0.583   0.208
 1030SOL     OW 3988   3.948   3.551   4.748
 1030SOL    HW1 3989   3.849   3.555   4.738
 1030SOL    HW2 3990   3.977   3.455   4.755
 1031SOL     OW 3991   3.127   5.081   1.463
 1031SOL    HW1 3992   3.110   4.990   1.500
 1031SOL    HW2 3993   3.075   5.093   1.379
 1032SOL     OW 3994   1.872   1.735   4.907
 1032SOL    HW1 3995   1.899   1.723   5.002
 1032SOL    HW2 3996   1.896   1.652   4.855
 1033SOL     OW 3997   2.337   5.597   1.704
 1033SOL    HW1 3998   2.351   5.501   1.678
 1033SOL    HW2 3999   2.250   5.629   1.667
 1034SOL     OW 4000   2.604   5.981   3.909
 1034SOL    HW1 4001   2.570   5.889   3.931
 1034SOL    HW2 4002   2.704   5.980   3.908
 1035SOL     OW 4003   2.928   1.497   4.561
 1035SOL    HW1 4004   2.859   1.445   4.512
 1035SOL    HW2 4005   2.972   1.439   4.630
 1036SOL     OW 4006   4.719   1.804   1.289
 1036SOL    HW1 4007   4.701   1.791   1.191
 1036SOL    HW2 4008   4.633   1.825   1.336
 1037SOL     OW 4009   1.716   1.126   0.596
 1037SOL    HW1 4010   1.770   1.207   0.572
 1037SOL    HW2 4011   1.631   1.126   0.545
 1038SOL     OW 4012   1.161   0.987   5.422
 1038SOL    HW1 4013   1.242   0.962   5.370
 1038SOL    HW2 4014   1.169   1.082   5.454
 1039SOL     OW 4015   3.774   1.662   4.567
 1039SOL    HW1 4016   3.764   1.740   4.504
 1039SOL    HW2 4017   3.693   1.605   4.562
 1040SOL     OW 4018   5.985   3.745   2.291
 1040SOL    HW1 4019   6.049   3.668   2.291
 1040SOL    HW2 4020   5.995   3.797   2.376
 1041SOL     OW 4021   6.785   0.416   4.122
 1041SOL    HW1 4022   6.880   0.438   4.103
 1041SOL    HW2 4023   6.727   0.449   4.048
 1042SOL     OW 4024   5.000   5.043   0.703
 1042SOL    HW1 4025   5.088   5.016   0.740
 1042SOL    HW2 4026   5.006   5.050   0.603
 1043SOL     OW 4027   3.478   1.785   6.528
 1043SOL    HW1 4028   3.391   1.817   6.490
 1043SOL    HW2 4029   3.531   1.863   6.559
 1044SOL     OW 4030   3.629   2.652   1.458
 1044SOL    HW1 4031   3.530   2.666   1.454
 1044SOL    HW2 4032   3.656   2.634   1.552
 1045SOL     OW 4033   2.911   1.198   2.626
 1045SOL    HW1 4034   2.859   1.194   2.711
 1045SOL    HW2 4035   2.960   1.112   2.613
 1046SOL     OW 4036   3.278   6.918   0.499
 1046SOL    HW1 4037   3.369   6.936   0.537
 1046SOL    HW2 4038   3.223   7.001   0.506
 1047SOL     OW 4039   1.109   5.079   2.880
 1047SOL    HW1 4040   1.101   4.989   2.838
 1047SOL    HW2 4041   1.132   5.069   2.977
 1048SOL     OW 4042   5.024   5.013   4.806
 1048SOL    HW1 4043   5.057   5.108   4.801
 1048SOL    HW2 4044   4.926   5.013   4.826
 1049SOL     OW 4045   6.838   3.635   4.980
 1049SOL    HW1 4046   6.902   3.705   5.012
 1049SOL    HW2 4047   6.778   3.675   4.911
 1050SOL     OW 4048   3.839   0.344   6.873
 1050SOL    HW1 4049   3.851   0.433   6.916
 1050SOL    HW2 4050   3.904   0.334   6.798
 1051SOL     OW 4051   4.730   4.618   0.658
 1051SOL    HW1 4052   4.660   4.686   0.678
 1051SOL    HW2 4053   4.815   4.664   0.631
 1052SOL     OW 4054   3.886   0.127   4.787
 1052SOL    HW1 4055   3.976   0.171   4.776
 1052SOL    HW2 4056   3.888   0.070   4.869
 1053SOL     OW 4057   4.860   5.224   3.692
 1053SOL    HW1 4058   4.933   5.250   3.755
 1053SOL    HW2 4059   4.798   5.302   3.679
 1054SOL     OW 4060   3.084   5.324   5.177
 1054SOL    HW1 4061   3.157   5.392   5.183
 1054SOL    HW2 4062   3.123   5.235   5.154
 1055SOL     OW 4063   4.708   5.398   4.797
 1055SOL    HW1 4064   4.751   5.309   4.816
 1055SOL    HW2 4065   4.778   5.469   4.802
 1056SOL     OW 4066   1.841   6.042   5.037
 1056SOL    HW1 4067   1.829   5.947   5.066
 1056SOL    HW2 4068   1.896   6.091   5.105
 1057SOL     OW 4069   2.967   3.551   2.950
 1057SOL    HW1 4070   2.980   3.455   2.925
 1057SOL    HW2 4071   2.932   3.602   2.871
 1058SOL     OW 4072   3.630   1.334   2.172
 1058SOL    HW1 4073   3.657   1.250   2.127
 1058SOL    HW2 4074   3.700   1.359   2.239
 1059SOL     OW 4075   4.252   1.263   2.007
 1059SOL    HW1 4076   4.157   1.277   2.033
 1059SOL    HW2 4077   4.257   1.243   1.909
 1060SOL     OW 4078   0.836   3.682   5.735
 1060SOL    HW1 4079   0.909   3.621   5.765
 1060SOL    HW2 4080   0.748   3.648   5.767
 1061SOL     OW 4081   3.078   5.070   1.862
 1061SOL    HW1 4082   3.023   5.120   1.796
 1061SOL    HW2 4083   3.042   4.977   1.871
 1062SOL     OW 4084   6.858   5.548   5.640
 1062SOL    HW1 4085   6.794   5.624   5.626
 1062SOL    HW2 4086   6.868   5.497   5.554
 1063SOL     OW 4087   1.503   3.528   0.975
 1063SOL    HW1 4088   1.420   3.583   0.966
 1063SOL    HW2 4089   1.516   3.504   1.071
 1064SOL     OW 4090   1.148   3.234   2.269
 1064SOL    HW1 4091   1.048   3.229   2.271
 1064SOL    HW2 4092   1.186   3.184   2.347
 1065SOL     OW 4093   5.271   0.390   4.034
 1065SOL    HW1 4094   5.173   0.389   4.053
 1065SOL    HW2 4095   5.317   0.325   4.095
 1066SOL     OW 4096   4.792   0.575   3.942
 1066SOL    HW1 4097   4.728   0.650   3.956
 1066SOL    HW2 4098   4.877   0.610   3.903
 1067SOL     OW 4099   1.978   2.707   1.948
 1067SOL    HW1 4100   2.078   2.714   1.949
 1067SOL    HW2 4101   1.939   2.797   1.931
 1068SOL     OW 4102   0.427   3.356   2.557
 1068SOL    HW1 4103   0.521   3.346   2.591
 1068SOL    HW2 4104   0.396   3.450   2.571
 1069SOL     OW 4105   4.139   4.610   0.853
 1069SOL    HW1 4106   4.221   4.564   0.820
 1069SOL    HW2 4107   4.143   4.707   0.829
 1070SOL     OW 4108   1.977   1.119   0.257
 1070SOL    HW1 4109   1.889   1.081   0.229
 1070SOL    HW2 4110   1.976   1.136   0.355
 1071SOL     OW 4111   4.085   6.326   2.690
 1071SOL    HW1 4112   3.998   6.370   2.713
 1071SOL    HW2 4113   4.150   6.341   2.764
 1072SOL     OW 4114   3.259   6.628   2.273
 1072SOL    HW1 4115   3.231   6.578   2.355
 1072SOL    HW2 4116   3.356   6.612   2.256
 1073SOL     OW 4117   2.886   4.890   2.652
 1073SOL    HW1 4118   2.980   4.875   2.621
 1073SOL    HW2 4119   2.875   4.854   2.745
 1074SOL     OW 4120   0.737   4.793   1.605
 1074SOL    HW1 4121   0.680   4.779   1.686
 1074SOL    HW2 4122   0.716   4.881   1.564
 1075SOL     OW 4123   5.451   4.293   3.568
 1075SOL    HW1 4124   5.490   4.385   3.578
 1075SOL    HW2 4125   5.449   4.248   3.657
 1076SOL     OW 4126   0.443   3.978   4.595
 1076SOL    HW1 4127   0.466   3.887   4.630
 1076SOL    HW2 4128   0.519   4.013   4.541
 1077SOL     OW 4129   5.432   6.948   1.024
 1077SOL    HW1 4130   5.531   6.960   1.031
 1077SOL    HW2 4131   5.392   6.947   1.116
 1078SOL     OW 4132   1.658   2.076   1.282
 1078SOL    HW1 4133   1.559   2.082   1.295
 1078SOL    HW2 4134   1.705   2.108   1.365
 1079SOL     OW 4135   2.436   5.753   3.536
 1079SOL    HW1 4136   2.420   5.684   3.606
 1079SOL    HW2 4137   2.421   5.844   3.575
 1080SOL     OW 4138   2.428   5.568   3.726
 1080SOL    HW1 4139   2.454   5.480   3.686
 1080SOL    HW2 4140   2.328   5.576   3.727
 1081SOL     OW 4141   1.807   0.898   6.532
 1081SOL    HW1 4142   1.844   0.806   6.546
 1081SOL    HW2 4143   1.727   0.893   6.472
 1082SOL     OW 4144   1.644   0.310   6.095
 1082SOL    HW1 4145   1.577   0.258   6.148
 1082SOL    HW2 4146   1.609   0.402   6.078
 1083SOL     OW 4147   3.873   3.293   1.869
 1083SOL    HW1 4148   3.815   3.259   1.943
 1083SOL    HW2 4149   3.894   3.390   1.886
 1084SOL     OW 4150   6.011   4.552   0.805
 1084SOL    HW1 4151   5.936   4.498   0.767
 1084SOL    HW2 4152   6.096   4.500   0.798
 1085SOL     OW 4153   1.719   5.039   4.023
 1085SOL    HW1 4154   1.808   5.005   4.055
 1085SOL    HW2 4155   1.728   5.071   3.928
 1086SOL     OW 4156   4.918   5.790   2.811
 1086SOL    HW1 4157   4.957   5.765   2.722
 1086SOL    HW2 4158   4.840   5.730   2.831
 1087SOL     OW 4159   4.699   3.054   5.267
 1087SOL    HW1 4160   4.624   2.998   5.305
 1087SOL    HW2 4161   4.680   3.150   5.284
 1088SOL     OW 4162   5.160   4.877   3.952
 1088SOL    HW1 4163   5.119   4.940   3.887
 1088SOL    HW2 4164   5.166   4.786   3.911
 1089SOL     OW 4165   0.103   0.250   5.011
 1089SOL    HW1 4166   0.149   0.287   5.092
 1089SOL    HW2 4167   0.032   0.314   4.981
 1090SOL     OW 4168   1.780   1.434   6.114
 1090SOL    HW1 4169   1.714   1.429   6.038
 1090SOL    HW2 4170   1.844   1.508   6.097
 1091SOL     OW 4171   1.580   1.705   4.967
 1091SOL    HW1 4172   1.514   1.689   5.040
 1091SOL    HW2 4173   1.654   1.638   4.974
 1092SOL     OW 4174   2.177   4.229   1.322
 1092SOL    HW1 4175   2.269   4.269   1.322
 1092SOL    HW2 4176   2.131   4.251   1.408
 1093SOL     OW 4177   1.176   2.422   2.338
 1093SOL    HW1 4178   1.093   2.463   2.375
 1093SOL    HW2 4179   1.206   2.474   2.258
 1094SOL     OW 4180   0.715   6.545   1.777
 1094SOL    HW1 4181   0.781   6.598   1.830
 1094SOL    HW2 4182   0.647   6.505   1.840
 1095SOL     OW 4183   6.042   3.042   6.286
 1095SOL    HW1 4184   5.947   3.064   6.264
 1095SOL    HW2 4185   6.058   2.944   6.273
 1096SOL     OW 4186   3.205   4.685   1.684
 1096SOL    HW1 4187   3.169   4.592   1.696
 1096SOL    HW2 4188   3.298   4.680   1.646
 1097SOL     OW 4189   1.142   4.880   4.817
 1097SOL    HW1 4190   1.235   4.881   4.780
 1097SOL    HW2 4191   1.132   4.953   4.885
 1098SOL     OW 4192   4.917   2.192   2.413
 1098SOL    HW1 4193   4.831   2.141   2.404
 1098SOL    HW2 4194   4.904   2.285   2.378
 1099SOL     OW 4195   4.185   2.281   4.397
 1099SOL    HW1 4196   4.229   2.197   4.426
 1099SOL    HW2 4197   4.243   2.359   4.421
 1100SOL     OW 4198   1.280   1.025   6.583
 1100SOL    HW1 4199   1.348   1.080   6.536
 1100SOL    HW2 4200   1.259   1.065   6.672
 1101SOL     OW 4201   4.869   3.323   0.880
 1101SOL    HW1 4202   4.925   3.397   0.842
 1101SOL    HW2 4203   4.778   3.325   0.839
 1102SOL     OW 4204   0.202   4.036   4.410
 1102SOL    HW1 4205   0.169   4.119   4.456
 1102SOL    HW2 4206   0.301   4.030   4.420
 1103SOL     OW 4207   2.072   1.646   1.527
 1103SOL    HW1 4208   2.063   1.735   1.484
 1103SOL    HW2 4209   2.018   1.579   1.477
 1104SOL     OW 4210   3.043   4.428   6.406
 1104SOL    HW1 4211   3.105   4.424   6.485
 1104SOL    HW2 4212   2.959   4.477   6.431
 1105SOL     OW 4213   4.941   4.133   6.525
 1105SOL    HW1 4214   4.959   4.064   6.595
 1105SOL    HW2 4215   5.016   4.134   6.459
 1106SOL     OW 4216   6.829   2.550   5.209
 1106SOL    HW1 4217   6.829   2.460   5.251
 1106SOL    HW2 4218   6.770   2.612   5.261
 1107SOL     OW 4219   1.067   0.637   0.664
 1107SOL    HW1 4220   1.016   0.721   0.684
 1107SOL    HW2 4221   1.055   0.571   0.738
 1108SOL     OW 4222   1.654   0.789   6.245
 1108SOL    HW1 4223   1.605   0.739   6.317
 1108SOL    HW2 4224   1.733   0.735   6.216
 1109SOL     OW 4225   4.183   6.052   3.986
 1109SOL    HW1 4226   4.199   6.136   3.934
 1109SOL    HW2 4227   4.173   5.975   3.922
 1110SOL     OW 4228   3.177   3.167   1.996
 1110SOL    HW1 4229   3.139   3.074   1.999
 1110SOL    HW2 4230   3.187   3.201   2.089
 1111SOL     OW 4231   5.623   0.599   0.314
 1111SOL    HW1 4232   5.561   0.594   0.236
 1111SOL    HW2 4233   5.672   0.513   0.323
 1112SOL     OW 4234   6.612   0.856   2.283
 1112SOL    HW1 4235   6.597   0.825   2.190
 1112SOL    HW2 4236   6.582   0.951   2.292
 1113SOL     OW 4237   6.394   3.536   2.730
 1113SOL    HW1 4238   6.322   3.470   2.749
 1113SOL    HW2 4239   6.429   3.573   2.816
 1114SOL     OW 4240   4.585   0.916   6.115
 1114SOL    HW1 4241   4.561   0.822   6.089
 1114SOL    HW2 4242   4.614   0.918   6.211
 1115SOL     OW 4243   3.522   3.448   0.797
 1115SOL    HW1 4244   3.457   3.380   0.831
 1115SOL    HW2 4245   3.498   3.538   0.833
 1116SOL     OW 4246   4.539   5.992   4.050
 1116SOL    HW1 4247   4.535   6.035   3.960
 1116SOL    HW2 4248   4.572   5.898   4.041
 1117SOL     OW 4249   2.507   2.889   1.464
 1117SOL    HW1 4250   2.606   2.881   1.479
 1117SOL    HW2 4251   2.464   2.930   1.545
 1118SOL     OW 4252   2.240   4.596   3.079
 1118SOL    HW1 4253   2.175   4.520   3.068
 1118SOL    HW2 4254   2.216   4.648   3.161
 1119SOL     OW 4255   4.327   4.013   1.737
 1119SOL    HW1 4256   4.389   3.944   1.700
 1119SOL    HW2 4257   4.379   4.088   1.776
 1120SOL     OW 4258   4.841   0.081   6.240
 1120SOL    HW1 4259   4.938   0.100   6.229
 1120SOL    HW2 4260   4.797   0.076   6.150
 1121SOL     OW 4261   4.915   2.870   1.918
 1121SOL    HW1 4262   4.863   2.948   1.954
 1121SOL    HW2 4263   4.852   2.795   1.897
 1122SOL     OW 4264   5.804   3.244   6.637
 1122SOL    HW1 4265   5.743   3.181   6.590
 1122SOL    HW2 4266   5.756   3.330   6.654
 1123SOL     OW 4267   4.602   1.115   2.325
 1123SOL    HW1 4268   4.531   1.084   2.261
 1123SOL    HW2 4269   4.673   1.165   2.275
 1124SOL     OW 4270   6.454   3.466   5.350
 1124SOL    HW1 4271   6.533   3.472   5.289
 1124SOL    HW2 4272   6.474   3.513   5.435
 1125SOL     OW 4273   3.167   3.392   5.064
 1125SOL    HW1 4274   3.160   3.490   5.080
 1125SOL    HW2 4275   3.076   3.351   5.061
 1126SOL     OW 4276   4.902   7.019   1.197
 1126SOL    HW1 4277   4.804   7.009   1.178
 1126SOL    HW2 4278   4.954   6.960   1.135
 1127SOL     OW 4279   2.592   4.778   0.788
 1127SOL    HW1 4280   2.498   4.763   0.818
 1127SOL    HW2 4281   2.646   4.695   0.803
 1128SOL     OW 4282   3.433   1.898   3.851
 1128SOL    HW1 4283   3.477   1.951   3.779
 1128SOL    HW2 4284   3.504   1.855   3.908
 1129SOL     OW 4285   4.795   0.585   6.693
 1129SOL    HW1 4286   4.768   0.652   6.624
 1129SOL    HW2 4287   4.891   0.561   6.680
 1130SOL     OW 4288   1.014   3.932   0.203
 1130SOL    HW1 4289   1.008   3.832   0.201
 1130SOL    HW2 4290   0.988   3.964   0.294
 1131SOL     OW 4291   0.276   6.116   5.622
 1131SOL    HW1 4292   0.308   6.186   5.558
 1131SOL    HW2 4293   0.250   6.034   5.572
 1132SOL     OW 4294   4.889   0.162   5.553
 1132SOL    HW1 4295   4.968   0.162   5.491
 1132SOL    HW2 4296   4.824   0.232   5.525
 1133SOL     OW 4297   0.821   3.006   1.489
 1133SOL    HW1 4298   0.842   3.038   1.581
 1133SOL    HW2 4299   0.748   3.061   1.450
 1134SOL     OW 4300   5.419   2.257   0.058
 1134SOL    HW1 4301   5.338   2.218   0.102
 1134SOL    HW2 4302   5.487   2.185   0.044
 1135SOL     OW 4303   3.125   2.238   3.675
 1135SOL    HW1 4304   3.191   2.216   3.747
 1135SOL    HW2 4305   3.035   2.253   3.716
 1136SOL     OW 4306   2.710   5.366   3.532
 1136SOL    HW1 4307   2.668   5.327   3.614
 1136SOL    HW2 4308   2.738   5.292   3.470
 1137SOL     OW 4309   1.510   1.478   6.275
 1137SOL    HW1 4310   1.584   1.425   6.317
 1137SOL    HW2 4311   1.443   1.502   6.345
 1138SOL     OW 4312   1.850   3.388   6.270
 1138SOL    HW1 4313   1.787   3.465   6.274
 1138SOL    HW2 4314   1.921   3.405   6.201
 1139SOL     OW 4315   1.559   6.331   2.963
 1139SOL    HW1 4316   1.484   6.302   3.022
 1139SOL    HW2 4317   1.635   6.363   3.020
 1140SOL     OW 4318   3.230   1.883   3.246
 1140SOL    HW1 4319   3.159   1.859   3.312
 1140SOL    HW2 4320   3.246   1.981   3.248
 1141SOL     OW 4321   6.035   5.890   5.059
 1141SOL    HW1 4322   6.114   5.835   5.089
 1141SOL    HW2 4323   6.068   5.976   5.021
 1142SOL     OW 4324   5.233   0.024   4.416
 1142SOL    HW1 4325   5.300   0.012   4.344
 1142SOL    HW2 4326   5.279   0.035   4.504
 1143SOL     OW 4327   3.829   2.086   3.116
 1143SOL    HW1 4328   3.923   2.108   3.092
 1143SOL    HW2 4329   3.819   2.080   3.215
 1144SOL     OW 4330   0.643   4.177   4.114
 1144SOL    HW1 4331   0.726   4.224   4.145
 1144SOL    HW2 4332   0.603   4.227   4.038
 1145SOL     OW 4333   6.943   5.465   4.589
 1145SOL    HW1 4334   6.906   5.501   4.674
 1145SOL    HW2 4335   6.906   5.374   4.573
 1146SOL     OW 4336   5.789   2.111   1.094
 1146SOL    HW1 4337   5.742   2.024   1.082
 1146SOL    HW2 4338   5.822   2.119   1.188
 1147SOL     OW 4339   0.218   4.104   2.456
 1147SOL    HW1 4340   0.199   4.044   2.534
 1147SOL    HW2 4341   0.253   4.191   2.489
 1148SOL     OW 4342   3.560   6.970   6.608
 1148SOL    HW1 4343   3.525   6.878   6.623
 1148SOL    HW2 4344   3.660   6.969   6.614
 1149SOL     OW 4345   6.316   3.710   3.060
 1149SOL    HW1 4346   6.406   3.671   3.043
 1149SOL    HW2 4347   6.285   3.760   2.979
 1150SOL     OW 4348   2.010   5.212   1.058
 1150SOL    HW1 4349   1.935   5.277   1.071
 1150SOL    HW2 4350   2.022   5.194   0.961
 1151SOL     OW 4351   5.837   5.077   6.400
 1151SOL    HW1 4352   5.913   5.022   6.435
 1151SOL    HW2 4353   5.816   5.048   6.307
 1152SOL     OW 4354   1.176   0.377   4.842
 1152SOL    HW1 4355   1.077   0.369   4.842
 1152SOL    HW2 4356   1.215   0.317   4.912
 1153SOL     OW 4357   2.454   5.409   2.614
 1153SOL    HW1 4358   2.537   5.363   2.584
 1153SOL    HW2 4359   2.464   5.508   2.602
 1154SOL     OW 4360   0.552   3.606   2.363
 1154SOL    HW1 4361   0.587   3.539   2.428
 1154SOL    HW2 4362   0.457   3.629   2.387
 1155SOL     OW 4363   3.836   5.811   1.775
 1155SOL    HW1 4364   3.746   5.853   1.762
 1155SOL    HW2 4365   3.867   5.825   1.869
 1156SOL     OW 4366   1.979   0.549   4.145
 1156SOL    HW1 4367   1.953   0.526   4.239
 1156SOL    HW2 4368   2.027   0.636   4.143
 1157SOL     OW 4369   6.960   2.408   4.002
 1157SOL    HW1 4370   6.906   2.343   3.948
 1157SOL    HW2 4371   6.940   2.501   3.972
 1158SOL     OW 4372   5.794   4.992   5.793
 1158SOL    HW1 4373   5.874   5.014   5.739
 1158SOL    HW2 4374   5.786   4.893   5.803
 1159SOL     OW 4375   4.237   5.635   2.971
 1159SOL    HW1 4376   4.216   5.662   2.877
 1159SOL    HW2 4377   4.213   5.539   2.985
 1160SOL     OW 4378   4.131   3.342   2.168
 1160SOL    HW1 4379   4.086   3.254   2.184
 1160SOL    HW2 4380   4.228   3.335   2.195
 1161SOL     OW 4381   5.963   0.591   3.523
 1161SOL    HW1 4382   5.988   0.494   3.528
 1161SOL    HW2 4383   5.923   0.619   3.610
 1162SOL     OW 4384   3.537   4.133   2.130
 1162SOL    HW1 4385   3.479   4.213   2.146
 1162SOL    HW2 4386   3.610   4.157   2.066
 1163SOL     OW 4387   5.006   2.436   1.977
 1163SOL    HW1 4388   5.055   2.373   1.917
 1163SOL    HW2 4389   4.925   2.472   1.930
 1164SOL     OW 4390   5.847   2.886   3.413
 1164SOL    HW1 4391   5.803   2.860   3.326
 1164SOL    HW2 4392   5.942   2.909   3.397
 1165SOL     OW 4393   1.025   3.199   3.544
 1165SOL    HW1 4394   1.037   3.200   3.444
 1165SOL    HW2 4395   0.928   3.210   3.565
 1166SOL     OW 4396   4.146   2.235   6.430
 1166SOL    HW1 4397   4.187   2.165   6.488
 1166SOL    HW2 4398   4.100   2.191   6.352
 1167SOL     OW 4399   4.692   1.114   5.003
 1167SOL    HW1 4400   4.618   1.134   5.068
 1167SOL    HW2 4401   4.715   1.197   4.953
 1168SOL     OW 4402   0.051   6.491   3.584
 1168SOL    HW1 4403   0.056   6.395   3.559
 1168SOL    HW2 4404   7.016   6.503   3.662
 1169SOL     OW 4405   1.179   3.481   1.600
 1169SOL    HW1 4406   1.133   3.428   1.671
 1169SOL    HW2 4407   1.111   3.517   1.535
 1170SOL     OW 4408   3.242   1.558   2.256
 1170SOL    HW1 4409   3.270   1.652   2.237
 1170SOL    HW2 4410   3.145   1.548   2.235
 1171SOL     OW 4411   3.161   5.728   1.327
 1171SOL    HW1 4412   3.066   5.723   1.356
 1171SOL    HW2 4413   3.220   5.740   1.407
 1172SOL     OW 4414   3.007   3.979   4.559
 1172SOL    HW1 4415   2.958   3.894   4.539
 1172SOL    HW2 4416   2.999   4.042   4.481
 1173SOL     OW 4417   2.928   0.944   5.929
 1173SOL    HW1 4418   2.864   1.011   5.967
 1173SOL    HW2 4419   2.948   0.874   5.997
 1174SOL     OW 4420   2.719   5.956   0.481
 1174SOL    HW1 4421   2.678   6.010   0.554
 1174SOL    HW2 4422   2.691   5.991   0.392
 1175SOL     OW 4423   6.219   4.701   6.105
 1175SOL    HW1 4424   6.289   4.670   6.042
 1175SOL    HW2 4425   6.209   4.636   6.180
 1176SOL     OW 4426   5.727   4.874   0.874
 1176SOL    HW1 4427   5.701   4.849   0.781
 1176SOL    HW2 4428   5.721   4.794   0.933
 1177SOL     OW 4429   6.901   3.298   5.950
 1177SOL    HW1 4430   6.934   3.390   5.933
 1177SOL    HW2 4431   6.936   3.236   5.880
 1178SOL     OW 4432   5.384   3.586   2.181
 1178SOL    HW1 4433   5.377   3.583   2.081
 1178SOL    HW2 4434   5.474   3.552   2.209
 1179SOL     OW 4435   1.749   4.789   7.023
 1179SOL    HW1 4436   1.786   4.820   6.935
 1179SOL    HW2 4437   1.752   4.865   0.063
 1180SOL     OW 4438   2.272   1.748   4.090
 1180SOL    HW1 4439   2.200   1.796   4.039
 1180SOL    HW2 4440   2.283   1.656   4.054
 1181SOL     OW 4441   1.622   4.547   3.948
 1181SOL    HW1 4442   1.594   4.451   3.944
 1181SOL    HW2 4443   1.632   4.582   3.855
 1182SOL     OW 4444   2.403   4.320   3.756
 1182SOL    HW1 4445   2.355   4.275   3.832
 1182SOL    HW2 4446   2.456   4.397   3.791
 1183SOL     OW 4447   4.277   6.263   1.569
 1183SOL    HW1 4448   4.232   6.318   1.498
 1183SOL    HW2 4449   4.322   6.184   1.527
 1184SOL     OW 4450   3.059   3.051   5.213
 1184SOL    HW1 4451   3.110   2.972   5.249
 1184SOL    HW2 4452   2.984   3.073   5.276
 1185SOL     OW 4453   1.782   0.190   0.101
 1185SOL    HW1 4454   1.842   0.147   0.169
 1185SOL    HW2 4455   1.724   0.120   0.059
 1186SOL     OW 4456   5.716   0.420   4.612
 1186SOL    HW1 4457   5.787   0.389   4.549
 1186SOL    HW2 4458   5.754   0.490   4.673
 1187SOL     OW 4459   6.027   6.799   5.179
 1187SOL    HW1 4460   6.083   6.750   5.112
 1187SOL    HW2 4461   6.084   6.822   5.258
 1188SOL     OW 4462   1.923   6.606   5.899
 1188SOL    HW1 4463   1.931   6.650   5.988
 1188SOL    HW2 4464   1.954   6.511   5.905
 1189SOL     OW 4465   5.823   1.289   1.207
 1189SOL    HW1 4466   5.731   1.252   1.196
 1189SOL    HW2 4467   5.872   1.285   1.120
 1190SOL     OW 4468   4.514   5.053   2.879
 1190SOL    HW1 4469   4.474   5.136   2.918
 1190SOL    HW2 4470   4.581   5.015   2.943
 1191SOL     OW 4471   2.977   5.195   5.836
 1191SOL    HW1 4472   2.986   5.165   5.741
 1191SOL    HW2 4473   2.989   5.295   5.840
 1192SOL     OW 4474   5.934   5.267   3.045
 1192SOL    HW1 4475   5.935   5.314   2.957
 1192SOL    HW2 4476   5.988   5.183   3.038
 1193SOL     OW 4477   4.599   0.640   4.286
 1193SOL    HW1 4478   4.574   0.696   4.207
 1193SOL    HW2 4479   4.689   0.668   4.319
 1194SOL     OW 4480   6.499   0.943   0.668
 1194SOL    HW1 4481   6.507   0.940   0.568
 1194SOL    HW2 4482   6.582   0.906   0.709
 1195SOL     OW 4483   5.416   0.699   6.167
 1195SOL    HW1 4484   5.435   0.781   6.221
 1195SOL    HW2 4485   5.479   0.626   6.192
 1196SOL     OW 4486   0.056   5.307   2.558
 1196SOL    HW1 4487   0.072   5.399   2.596
 1196SOL    HW2 4488   0.127   5.286   2.490
 1197SOL     OW 4489   3.730   5.832   5.565
 1197SOL    HW1 4490   3.673   5.846   5.646
 1197SOL    HW2 4491   3.678   5.781   5.496
 1198SOL     OW 4492   3.217   2.152   3.201
 1198SOL    HW1 4493   3.259   2.233   3.161
 1198SOL    HW2 4494   3.134   2.179   3.252
 1199SOL     OW 4495   3.148   4.144   1.605
 1199SOL    HW1 4496   3.123   4.124   1.700
 1199SOL    HW2 4497   3.132   4.064   1.548
 1200SOL     OW 4498   4.276   4.369   6.473
 1200SOL    HW1 4499   4.348   4.385   6.540
 1200SOL    HW2 4500   4.253   4.272   6.471
 1201SOL     OW 4501   1.382   1.580   4.517
 1201SOL    HW1 4502   1.435   1.573   4.602
 1201SOL    HW2 4503   1.378   1.675   4.488
 1202SOL     OW 4504   5.641   0.191   4.554
 1202SOL    HW1 4505   5.556   0.163   4.600
 1202SOL    HW2 4506   5.672   0.278   4.591
 1203SOL     OW 4507   5.168   0.385   1.069
 1203SOL    HW1 4508   5.083   0.358   1.024
 1203SOL    HW2 4509   5.184   0.325   1.148
 1204SOL     OW 4510   3.680   0.801   0.536
 1204SOL    HW1 4511   3.681   0.880   0.475
 1204SOL    HW2 4512   3.592   0.755   0.531
 1205SOL     OW 4513   6.000   1.934   5.638
 1205SOL    HW1 4514   5.952   2.007   5.687
 1205SOL    HW2 4515   5.939   1.895   5.569
 1206SOL     OW 4516   2.014   1.520   4.830
 1206SOL    HW1 4517   2.087   1.523   4.898
 1206SOL    HW2 4518   2.045   1.472   4.749
 1207SOL     OW 4519   5.957   0.138   0.148
 1207SOL    HW1 4520   5.975   0.215   0.087
 1207SOL    HW2 4521   6.030   0.131   0.215
 1208SOL     OW 4522   3.894   3.813   2.640
 1208SOL    HW1 4523   3.821   3.747   2.621
 1208SOL    HW2 4524   3.867   3.871   2.717
 1209SOL     OW 4525   6.074   5.380   4.750
 1209SOL    HW1 4526   6.012   5.449   4.712
 1209SOL    HW2 4527   6.048   5.289   4.717
 1210SOL     OW 4528   4.347   0.141   2.859
 1210SOL    HW1 4529   4.337   0.237   2.836
 1210SOL    HW2 4530   4.399   0.133   2.944
 1211SOL     OW 4531   1.520   3.995   3.881
 1211SOL    HW1 4532   1.450   3.989   3.810
 1211SOL    HW2 4533   1.483   3.962   3.968
 1212SOL     OW 4534   1.077   3.904   4.494
 1212SOL    HW1 4535   1.133   3.879   4.573
 1212SOL    HW2 4536   1.002   3.962   4.524
 1213SOL     OW 4537   6.283   2.715   5.570
 1213SOL    HW1 4538   6.272   2.620   5.542
 1213SOL    HW2 4539   6.254   2.775   5.495
 1214SOL     OW 4540   1.436   3.535   3.977
 1214SOL    HW1 4541   1.509   3.487   4.026
 1214SOL    HW2 4542   1.477   3.589   3.903
 1215SOL     OW 4543   1.502   3.907   3.039
 1215SOL    HW1 4544   1.552   3.832   3.082
 1215SOL    HW2 4545   1.455   3.961   3.109
 1216SOL     OW 4546   1.251   0.236   1.770
 1216SOL    HW1 4547   1.333   0.282   1.736
 1216SOL    HW2 4548   1.189   0.218   1.693
 1217SOL     OW 4549   1.434   6.656   1.246
 1217SOL    HW1 4550   1.397   6.564   1.234
 1217SOL    HW2 4551   1.446   6.700   1.157
 1218SOL     OW 4552   0.214   3.359   4.379
 1218SOL    HW1 4553   0.115   3.370   4.380
 1218SOL    HW2 4554   0.250   3.373   4.471
 1219SOL     OW 4555   3.709   5.929   1.321
 1219SOL    HW1 4556   3.747   5.989   1.391
 1219SOL    HW2 4557   3.775   5.858   1.298
 1220SOL     OW 4558   5.972   2.724   3.043
 1220SOL    HW1 4559   6.012   2.657   3.106
 1220SOL    HW2 4560   5.915   2.787   3.095
 1221SOL     OW 4561   4.997   3.397   0.559
 1221SOL    HW1 4562   5.008   3.483   0.509
 1221SOL    HW2 4563   4.901   3.386   0.586
 1222SOL     OW 4564   0.259   6.735   1.189
 1222SOL    HW1 4565   0.203   6.813   1.217
 1222SOL    HW2 4566   0.356   6.761   1.193
 1223SOL     OW 4567   6.049   0.082   6.062
 1223SOL    HW1 4568   5.989   0.162   6.069
 1223SOL    HW2 4569   6.090   0.063   6.151
 1224SOL     OW 4570   4.186   5.648   1.098
 1224SOL    HW1 4571   4.216   5.744   1.100
 1224SOL    HW2 4572   4.251   5.592   1.149
 1225SOL     OW 4573   4.786   1.790   0.575
 1225SOL    HW1 4574   4.788   1.800   0.675
 1225SOL    HW2 4575   4.799   1.879   0.532
 1226SOL     OW 4576   6.210   6.190   1.464
 1226SOL    HW1 4577   6.228   6.099   1.428
 1226SOL    HW2 4578   6.266   6.257   1.415
 1227SOL     OW 4579   5.442   3.900   5.565
 1227SOL    HW1 4580   5.367   3.865   5.622
 1227SOL    HW2 4581   5.491   3.824   5.523
 1228SOL     OW 4582   3.628   3.152   2.385
 1228SOL    HW1 4583   3.558   3.187   2.447
 1228SOL    HW2 4584   3.590   3.140   2.293
 1229SOL     OW 4585   1.738   6.155   2.521
 1229SOL    HW1 4586   1.728   6.244   2.476
 1229SOL    HW2 4587   1.827   6.116   2.498
 1230SOL     OW 4588   4.888   5.003   1.496
 1230SOL    HW1 4589   4.802   4.986   1.448
 1230SOL    HW2 4590   4.964   4.969   1.441
 1231SOL     OW 4591   1.814   2.279   6.582
 1231SOL    HW1 4592   1.868   2.281   6.498
 1231SOL    HW2 4593   1.776   2.370   6.599
 1232SOL     OW 4594   3.182   0.710   5.265
 1232SOL    HW1 4595   3.213   0.649   5.192
 1232SOL    HW2 4596   3.084   0.696   5.280
 1233SOL     OW 4597   0.161   5.467   3.952
 1233SOL    HW1 4598   0.143   5.562   3.927
 1233SOL    HW2 4599   0.240   5.463   4.013
 1234SOL     OW 4600   6.663   3.334   6.700
 1234SOL    HW1 4601   6.670   3.260   6.633
 1234SOL    HW2 4602   6.753   3.376   6.712
 1235SOL     OW 4603   6.245   5.050   0.517
 1235SOL    HW1 4604   6.303   5.117   0.471
 1235SOL    HW2 4605   6.175   5.017   0.453
 1236SOL     OW 4606   2.464   0.785   1.251
 1236SOL    HW1 4607   2.458   0.813   1.155
 1236SOL    HW2 4608   2.493   0.863   1.307
 1237SOL     OW 4609   1.291   0.215   5.058
 1237SOL    HW1 4610   1.251   0.146   5.119
 1237SOL    HW2 4611   1.343   0.281   5.113
 1238SOL     OW 4612   0.047   0.095   3.898
 1238SOL    HW1 4613   0.084   0.006   3.923
 1238SOL    HW2 4614   6.991   0.083   3.841
 1239SOL     OW 4615   5.759   5.124   4.245
 1239SOL    HW1 4616   5.853   5.124   4.278
 1239SOL    HW2 4617   5.705   5.059   4.298
 1240SOL     OW 4618   5.419   4.772   2.846
 1240SOL    HW1 4619   5.392   4.757   2.940
 1240SOL    HW2 4620   5.338   4.782   2.788
 1241SOL     OW 4621   5.563   5.319   4.205
 1241SOL    HW1 4622   5.617   5.246   4.247
 1241SOL    HW2 4623   5.471   5.319   4.245
 1242SOL     OW 4624   1.379   4.527   6.945
 1242SOL    HW1 4625   1.427   4.483   7.021
 1242SOL    HW2 4626   1.280   4.521   6.961
 1243SOL     OW 4627   1.194   4.294   4.686
 1243SOL    HW1 4628   1.197   4.241   4.771
 1243SOL    HW2 4629   1.182   4.391   4.708
 1244SOL     OW 4630   5.417   6.148   4.717
 1244SOL    HW1 4631   5.418   6.221   4.649
 1244SOL    HW2 4632   5.509   6.135   4.754
 1245SOL     OW 4633   5.474   6.203   2.273
 1245SOL    HW1 4634   5.414   6.284   2.270
 1245SOL    HW2 4635   5.429   6.128   2.225
 1246SOL     OW 4636   4.812   1.907   0.833
 1246SOL    HW1 4637   4.762   1.843   0.891
 1246SOL    HW2 4638   4.799   2.000   0.868
 1247SOL     OW 4639   6.676   6.738   3.560
 1247SOL    HW1 4640   6.699   6.645   3.532
 1247SOL    HW2 4641   6.589   6.738   3.610
 1248SOL     OW 4642   0.402   6.800   5.038
 1248SOL    HW1 4643   0.414   6.879   4.977
 1248SOL    HW2 4644   0.483   6.742   5.034
 1249SOL     OW 4645   6.918   4.585   0.290
 1249SOL    HW1 4646   6.969   4.499   0.292
 1249SOL    HW2 4647   6.868   4.596   0.376
 1250SOL     OW 4648   5.741   2.863   5.467
 1250SOL    HW1 4649   5.704   2.779   5.506
 1250SOL    HW2 4650   5.841   2.860   5.471
 1251SOL     OW 4651   2.629   0.602   2.482
 1251SOL    HW1 4652   2.650   0.506   2.461
 1251SOL    HW2 4653   2.579   0.642   2.406
 1252SOL     OW 4654   2.028   5.226   0.394
 1252SOL    HW1 4655   2.101   5.217   0.462
 1252SOL    HW2 4656   2.036   5.152   0.327
 1253SOL     OW 4657   3.202   1.104   1.382
 1253SOL    HW1 4658   3.222   1.198   1.411
 1253SOL    HW2 4659   3.274   1.072   1.321
 1254SOL     OW 4660   6.599   1.457   2.522
 1254SOL    HW1 4661   6.541   1.418   2.450
 1254SOL    HW2 4662   6.599   1.557   2.514
 1255SOL     OW 4663   5.419   1.712   4.827
 1255SOL    HW1 4664   5.357   1.688   4.752
 1255SOL    HW2 4665   5.418   1.639   4.895
 1256SOL     OW 4666   0.314   6.142   4.483
 1256SOL    HW1 4667   0.384   6.077   4.453
 1256SOL    HW2 4668   0.308   6.218   4.418
 1257SOL     OW 4669   0.400   4.915   3.681
 1257SOL    HW1 4670   0.333   4.987   3.668
 1257SOL    HW2 4671   0.371   4.854   3.754
 1258SOL     OW 4672   3.274   6.447   4.815
 1258SOL    HW1 4673   3.249   6.363   4.768
 1258SOL    HW2 4674   3.353   6.488   4.769
 1259SOL     OW 4675   5.381   0.067   4.657
 1259SOL    HW1 4676   5.411   0.015   4.738
 1259SOL    HW2 4677   5.349   0.157   4.685
 1260SOL     OW 4678   1.750   0.371   1.731
 1260SOL    HW1 4679   1.775   0.292   1.676
 1260SOL    HW2 4680   1.832   0.426   1.750
 1261SOL     OW 4681   0.006   4.651   6.271
 1261SOL    HW1 4682   0.067   4.572   6.270
 1261SOL    HW2 4683   6.974   4.648   6.352
 1262SOL     OW 4684   5.542   5.543   0.592
 1262SOL    HW1 4685   5.602   5.548   0.672
 1262SOL    HW2 4686   5.450   5.517   0.622
 1263SOL     OW 4687   0.740   2.412   1.341
 1263SOL    HW1 4688   0.744   2.503   1.299
 1263SOL    HW2 4689   0.801   2.410   1.420
 1264SOL     OW 4690   0.942   3.507   3.370
 1264SOL    HW1 4691   0.988   3.563   3.439
 1264SOL    HW2 4692   0.867   3.456   3.412
 1265SOL     OW 4693   6.761   4.574   4.775
 1265SOL    HW1 4694   6.788   4.663   4.739
 1265SOL    HW2 4695   6.681   4.584   4.833
 1266SOL     OW 4696   2.902   1.662   5.267
 1266SOL    HW1 4697   2.994   1.623   5.257
 1266SOL    HW2 4698   2.846   1.638   5.188
 1267SOL     OW 4699   0.082   5.255   3.333
 1267SOL    HW1 4700   0.117   5.162   3.346
 1267SOL    HW2 4701   7.022   5.251   3.282
 1268SOL     OW 4702   5.178   2.649   6.607
 1268SOL    HW1 4703   5.141   2.602   6.687
 1268SOL    HW2 4704   5.278   2.642   6.607
 1269SOL     OW 4705   6.898   5.753   5.333
 1269SOL    HW1 4706   6.892   5.832   5.394
 1269SOL    HW2 4707   6.818   5.751   5.273
 1270SOL     OW 4708   2.103   3.867   4.561
 1270SOL    HW1 4709   2.109   3.856   4.462
 1270SOL    HW2 4710   2.013   3.902   4.586
 1271SOL     OW 4711   3.102   1.785   2.607
 1271SOL    HW1 4712   3.056   1.734   2.534
 1271SOL    HW2 4713   3.072   1.881   2.605
 1272SOL     OW 4714   6.671   5.331   1.573
 1272SOL    HW1 4715   6.736   5.255   1.576
 1272SOL    HW2 4716   6.602   5.318   1.645
 1273SOL     OW 4717   2.418   4.587   6.570
 1273SOL    HW1 4718   2.346   4.596   6.639
 1273SOL    HW2 4719   2.442   4.677   6.535
 1274SOL     OW 4720   6.961   2.706   1.892
 1274SOL    HW1 4721   6.983   2.739   1.984
 1274SOL    HW2 4722   6.904   2.773   1.845
 1275SOL     OW 4723   4.382   0.997   4.822
 1275SOL    HW1 4724   4.416   1.068   4.760
 1275SOL    HW2 4725   4.459   0.954   4.868
 1276SOL     OW 4726   0.170   0.886   2.606
 1276SOL    HW1 4727   0.086   0.888   2.661
 1276SOL    HW2 4728   0.156   0.938   2.522
 1277SOL     OW 4729   6.826   0.840   4.714
 1277SOL    HW1 4730   6.910   0.893   4.706
 1277SOL    HW2 4731   6.756   0.880   4.655
 1278SOL     OW 4732   2.217   1.763   5.282
 1278SOL    HW1 4733   2.271   1.731   5.359
 1278SOL    HW2 4734   2.230   1.861   5.270
 1279SOL     OW 4735   2.693   6.200   0.224
 1279SOL    HW1 4736   2.680   6.291   0.184
 1279SOL    HW2 4737   2.615   6.141   0.199
 1280SOL     OW 4738   2.222   0.203   3.101
 1280SOL    HW1 4739   2.306   0.224   3.051
 1280SOL    HW2 4740   2.210   0.104   3.107
 1281SOL     OW 4741   1.393   6.168   3.304
 1281SOL    HW1 4742   1.430   6.258   3.282
 1281SOL    HW2 4743   1.293   6.172   3.298
 1282SOL     OW 4744   0.839   1.656   1.284
 1282SOL    HW1 4745   0.839   1.705   1.371
 1282SOL    HW2 4746   0.887   1.710   1.215
 1283SOL     OW 4747   5.417   4.500   5.368
 1283SOL    HW1 4748   5.499   4.549   5.400
 1283SOL    HW2 4749   5.359   4.479   5.446
 1284SOL     OW 4750   2.954   2.700   1.670
 1284SOL    HW1 4751   2.917   2.661   1.586
 1284SOL    HW2 4752   2.944   2.634   1.745
 1285SOL     OW 4753   4.854   2.537   5.973
 1285SOL    HW1 4754   4.761   2.552   5.938
 1285SOL    HW2 4755   4.920   2.549   5.899
 1286SOL     OW 4756   5.488   4.104   2.262
 1286SOL    HW1 4757   5.438   4.017   2.257
 1286SOL    HW2 4758   5.568   4.099   2.203
 1287SOL     OW 4759   5.933   5.703   0.114
 1287SOL    HW1 4760   5.995   5.627   0.096
 1287SOL    HW2 4761   5.934   5.766   0.036
 1288SOL     OW 4762   0.066   2.880   7.003
 1288SOL    HW1 4763   0.020   2.963   0.008
 1288SOL    HW2 4764   0.090   2.889   6.906
 1289SOL     OW 4765   6.629   6.143   2.447
 1289SOL    HW1 4766   6.533   6.133   2.420
 1289SOL    HW2 4767   6.640   6.226   2.500
 1290SOL     OW 4768   0.876   0.199   6.771
 1290SOL    HW1 4769   0.912   0.159   6.687
 1290SOL    HW2 4770   0.787   0.240   6.753
 1291SOL     OW 4771   1.170   5.611   6.264
 1291SOL    HW1 4772   1.243   5.678   6.276
 1291SOL    HW2 4773   1.208   5.519   6.270
 1292SOL     OW 4774   0.201   4.822   0.622
 1292SOL    HW1 4775   0.165   4.870   0.702
 1292SOL    HW2 4776   0.183   4.875   0.540
 1293SOL     OW 4777   1.791   1.847   6.961
 1293SOL    HW1 4778   1.846   1.881   0.012
 1293SOL    HW2 4779   1.788   1.917   6.890
 1294SOL     OW 4780   0.872   3.192   2.305
 1294SOL    HW1 4781   0.845   3.097   2.296
 1294SOL    HW2 4782   0.882   3.216   2.401
 1295SOL     OW 4783   5.689   3.244   2.113
 1295SOL    HW1 4784   5.630   3.279   2.039
 1295SOL    HW2 4785   5.719   3.152   2.090
 1296SOL     OW 4786   3.506   2.219   6.602
 1296SOL    HW1 4787   3.527   2.221   6.700
 1296SOL    HW2 4788   3.438   2.290   6.581
 1297SOL     OW 4789   6.702   1.531   5.850
 1297SOL    HW1 4790   6.668   1.607   5.795
 1297SOL    HW2 4791   6.726   1.565   5.941
 1298SOL     OW 4792   5.400   3.200   2.349
 1298SOL    HW1 4793   5.367   3.137   2.278
 1298SOL    HW2 4794   5.415   3.150   2.434
 1299SOL     OW 4795   1.399   4.240   3.704
 1299SOL    HW1 4796   1.395   4.316   3.638
 1299SOL    HW2 4797   1.435   4.273   3.791
 1300SOL     OW 4798   2.868   3.574   1.771
 1300SOL    HW1 4799   2.882   3.490   1.823
 1300SOL    HW2 4800   2.771   3.585   1.750
 1301SOL     OW 4801   0.624   6.716   3.914
 1301SOL    HW1 4802   0.680   6.638   3.943
 1301SOL    HW2 4803   0.552   6.685   3.853
 1302SOL     OW 4804   3.074   6.721   5.565
 1302SOL    HW1 4805   3.095   6.798   5.504
 1302SOL    HW2 4806   3.034   6.755   5.649
 1303SOL     OW 4807   4.030   1.762   1.189
 1303SOL    HW1 4808   4.046   1.705   1.269
 1303SOL    HW2 4809   3.943   1.736   1.147
 1304SOL     OW 4810   1.867   0.227   6.286
 1304SOL    HW1 4811   1.891   0.145   6.337
 1304SOL    HW2 4812   1.915   0.227   6.199
 1305SOL     OW 4813   4.906   6.422   4.449
 1305SOL    HW1 4814   4.968   6.362   4.399
 1305SOL    HW2 4815   4.900   6.511   4.403
 1306SOL     OW 4816   0.817   4.078   4.503
 1306SOL    HW1 4817   0.779   4.011   4.439
 1306SOL    HW2 4818   0.770   4.070   4.591
 1307SOL     OW 4819   1.284   3.324   5.194
 1307SOL    HW1 4820   1.240   3.333   5.284
 1307SOL    HW2 4821   1.382   3.306   5.207
 1308SOL     OW 4822   4.314   5.593   4.400
 1308SOL    HW1 4823   4.261   5.667   4.442
 1308SOL    HW2 4824   4.260   5.509   4.401
 1309SOL     OW 4825   5.478   2.669   5.014
 1309SOL    HW1 4826   5.418   2.598   5.054
 1309SOL    HW2 4827   5.431   2.757   5.015
 1310SOL     OW 4828   6.101   4.328   4.228
 1310SOL    HW1 4829   6.028   4.290   4.170
 1310SOL    HW2 4830   6.168   4.374   4.171
 1311SOL     OW 4831   5.896   6.828   4.591
 1311SOL    HW1 4832   5.933   6.783   4.672
 1311SOL    HW2 4833   5.970   6.866   4.536
 1312SOL     OW 4834   0.988   0.058   0.223
 1312SOL    HW1 4835   1.000   0.063   0.322
 1312SOL    HW2 4836   1.065   0.011   0.181
 1313SOL     OW 4837   3.279   5.524   5.116
 1313SOL    HW1 4838   3.360   5.505   5.171
 1313SOL    HW2 4839   3.240   5.612   5.144
 1314SOL     OW 4840   1.424   1.260   5.706
 1314SOL    HW1 4841   1.351   1.252   5.774
 1314SOL    HW2 4842   1.449   1.170   5.673
 1315SOL     OW 4843   2.245   1.327   0.918
 1315SOL    HW1 4844   2.159   1.326   0.867
 1315SOL    HW2 4845   2.321   1.347   0.856
 1316SOL     OW 4846   2.453   0.111   3.340
 1316SOL    HW1 4847   2.500   0.027   3.368
 1316SOL    HW2 4848   2.358   0.091   3.317
 1317SOL     OW 4849   0.564   4.128   4.379
 1317SOL    HW1 4850   0.610   4.207   4.420
 1317SOL    HW2 4851   0.573   4.134   4.279
 1318SOL     OW 4852   0.311   0.862   0.792
 1318SOL    HW1 4853   0.225   0.878   0.841
 1318SOL    HW2 4854   0.304   0.776   0.740
 1319SOL     OW 4855   0.038   1.223   0.903
 1319SOL    HW1 4856   0.102   1.183   0.968
 1319SOL    HW2 4857   6.988   1.265   0.953
 1320SOL     OW 4858   5.883   4.485   6.202
 1320SOL    HW1 4859   5.887   4.583   6.225
 1320SOL    HW2 4860   5.939   4.433   6.266
 1321SOL     OW 4861   4.117   3.803   6.608
 1321SOL    HW1 4862   4.197   3.846   6.650
 1321SOL    HW2 4863   4.035   3.823   6.664
 1322SOL     OW 4864   6.006   1.138   3.683
 1322SOL    HW1 4865   6.024   1.072   3.756
 1322SOL    HW2 4866   5.962   1.092   3.606
 1323SOL     OW 4867   6.985   1.361   5.249
 1323SOL    HW1 4868   6.933   1.277   5.254
 1323SOL    HW2 4869   6.972   1.413   5.334
 1324SOL     OW 4870   1.411   2.955   1.565
 1324SOL    HW1 4871   1.383   2.909   1.650
 1324SOL    HW2 4872   1.368   2.910   1.487
 1325SOL     OW 4873   1.690   6.120   3.335
 1325SOL    HW1 4874   1.702   6.024   3.360
 1325SOL    HW2 4875   1.594   6.146   3.345
 1326SOL     OW 4876   5.184   2.425   4.855
 1326SOL    HW1 4877   5.104   2.475   4.891
 1326SOL    HW2 4878   5.258   2.429   4.922
 1327SOL     OW 4879   2.739   5.300   2.791
 1327SOL    HW1 4880   2.649   5.263   2.769
 1327SOL    HW2 4881   2.808   5.228   2.786
 1328SOL     OW 4882   1.899   1.836   6.292
 1328SOL    HW1 4883   1.908   1.749   6.342
 1328SOL    HW2 4884   1.986   1.883   6.291
 1329SOL     OW 4885   0.675   1.546   0.329
 1329SOL    HW1 4886   0.735   1.522   0.405
 1329SOL    HW2 4887   0.603   1.608   0.361
 1330SOL     OW 4888   6.804   0.991   0.965
 1330SOL    HW1 4889   6.774   1.052   1.038
 1330SOL    HW2 4890   6.874   0.929   1.001
 1331SOL     OW 4891   6.161   0.855   2.049
 1331SOL    HW1 4892   6.134   0.758   2.053
 1331SOL    HW2 4893   6.168   0.891   2.142
 1332SOL     OW 4894   4.268   2.007   1.484
 1332SOL    HW1 4895   4.240   1.945   1.557
 1332SOL    HW2 4896   4.275   2.100   1.520
 1333SOL     OW 4897   3.790   4.145   4.670
 1333SOL    HW1 4898   3.837   4.202   4.737
 1333SOL    HW2 4899   3.857   4.097   4.614
 1334SOL     OW 4900   1.468   3.942   4.954
 1334SOL    HW1 4901   1.514   3.969   4.870
 1334SOL    HW2 4902   1.466   3.842   4.961
 1335SOL     OW 4903   2.436   6.318   2.873
 1335SOL    HW1 4904   2.427   6.406   2.919
 1335SOL    HW2 4905   2.533   6.293   2.866
 1336SOL     OW 4906   1.268   1.563   6.565
 1336SOL    HW1 4907   1.249   1.656   6.533
 1336SOL    HW2 4908   1.190   1.504   6.546
 1337SOL     OW 4909   1.961   2.214   6.365
 1337SOL    HW1 4910   2.051   2.252   6.387
 1337SOL    HW2 4911   1.969   2.115   6.354
 1338SOL     OW 4912   4.116   4.511   6.303
 1338SOL    HW1 4913   4.179   4.442   6.337
 1338SOL    HW2 4914   4.035   4.466   6.265
 1339SOL     OW 4915   0.216   4.469   6.318
 1339SOL    HW1 4916   0.275   4.450   6.239
 1339SOL    HW2 4917   0.247   4.414   6.396
 1340SOL     OW 4918   1.327   2.376   0.060
 1340SOL    HW1 4919   1.387   2.314   0.010
 1340SOL    HW2 4920   1.234   2.339   0.059
 1341SOL     OW 4921   3.342   0.860   4.233
 1341SOL    HW1 4922   3.433   0.900   4.245
 1341SOL    HW2 4923   3.295   0.856   4.321
 1342SOL     OW 4924   0.612   6.170   5.919
 1342SOL    HW1 4925   0.672   6.221   5.858
 1342SOL    HW2 4926   0.647   6.174   6.013
 1343SOL     OW 4927   3.728   6.270   2.333
 1343SOL    HW1 4928   3.675   6.259   2.249
 1343SOL    HW2 4929   3.776   6.185   2.353
 1344SOL     OW 4930   6.496   1.533   2.963
 1344SOL    HW1 4931   6.580   1.488   2.935
 1344SOL    HW2 4932   6.442   1.557   2.882
 1345SOL     OW 4933   0.707   0.846   3.306
 1345SOL    HW1 4934   0.654   0.918   3.351
 1345SOL    HW2 4935   0.760   0.886   3.232
 1346SOL     OW 4936   0.376   6.943   3.773
 1346SOL    HW1 4937   0.376   6.853   3.817
 1346SOL    HW2 4938   0.297   6.950   3.712
 1347SOL     OW 4939   6.452   6.249   2.765
 1347SOL    HW1 4940   6.432   6.344   2.787
 1347SOL    HW2 4941   6.367   6.201   2.743
 1348SOL     OW 4942   5.550   4.385   4.018
 1348SOL    HW1 4943   5.594   4.468   3.983
 1348SOL    HW2 4944   5.487   4.410   4.092
 1349SOL     OW 4945   4.041   2.723   0.044
 1349SOL    HW1 4946   4.111   2.676   7.015
 1349SOL    HW2 4947   3.958   2.733   7.016
 1350SOL     OW 4948   3.263   6.390   6.953
 1350SOL    HW1 4949   3.218   6.308   6.990
 1350SOL    HW2 4950   3.344   6.412   7.007
 1351SOL     OW 4951   0.166   0.758   4.529
 1351SOL    HW1 4952   0.137   0.667   4.558
 1351SOL    HW2 4953   0.114   0.827   4.579
 1352SOL     OW 4954   6.676   0.879   3.174
 1352SOL    HW1 4955   6.627   0.928   3.102
 1352SOL    HW2 4956   6.690   0.940   3.252
 1353SOL     OW 4957   0.227   4.123   5.094
 1353SOL    HW1 4958   0.162   4.184   5.140
 1353SOL    HW2 4959   0.218   4.031   5.133
 1354SOL     OW 4960   0.470   0.812   1.577
 1354SOL    HW1 4961   0.447   0.720   1.608
 1354SOL    HW2 4962   0.443   0.879   1.646
 1355SOL     OW 4963   5.337   3.978   0.031
 1355SOL    HW1 4964   5.253   4.025   0.002
 1355SOL    HW2 4965   5.332   3.882   0.002
 1356SOL     OW 4966   3.445   3.972   2.647
 1356SOL    HW1 4967   3.460   3.908   2.572
 1356SOL    HW2 4968   3.517   4.042   2.645
 1357SOL     OW 4969   2.332   3.360   6.208
 1357SOL    HW1 4970   2.311   3.269   6.170
 1357SOL    HW2 4971   2.376   3.415   6.137
 1358SOL     OW 4972   2.188   2.653   6.482
 1358SOL    HW1 4973   2.246   2.734   6.473
 1358SOL    HW2 4974   2.136   2.660   6.567
 1359SOL     OW 4975   6.289   3.743   1.205
 1359SOL    HW1 4976   6.363   3.810   1.201
 1359SOL    HW2 4977   6.257   3.733   1.299
 1360SOL     OW 4978   3.583   3.483   3.125
 1360SOL    HW1 4979   3.548   3.577   3.116
 1360SOL    HW2 4980   3.664   3.483   3.183
 1361SOL     OW 4981   0.912   6.324   6.034
 1361SOL    HW1 4982   0.819   6.314   6.070
 1361SOL    HW2 4983   0.977   6.332   6.110
 1362SOL     OW 4984   3.011   3.319   5.841
 1362SOL    HW1 4985   2.923   3.271   5.833
 1362SOL    HW2 4986   2.996   3.417   5.825
 1363SOL     OW 4987   6.568   6.104   3.083
 1363SOL    HW1 4988   6.667   6.100   3.097
 1363SOL    HW2 4989   6.547   6.178   3.019
 1364SOL     OW 4990   6.596   3.275   0.875
 1364SOL    HW1 4991   6.597   3.177   0.854
 1364SOL    HW2 4992   6.514   3.316   0.837
 1365SOL     OW 4993   0.765   3.274   6.179
 1365SOL    HW1 4994   0.685   3.223   6.212
 1365SOL    HW2 4995   0.823   3.214   6.124
 1366SOL     OW 4996   6.996   2.623   0.726
 1366SOL    HW1 4997   6.994   2.714   0.767
 1366SOL    HW2 4998   6.903   2.598   0.697
 1367SOL     OW 4999   0.556   4.349   3.885
 1367SOL    HW1 5000   0.498   4.431   3.890
 1367SOL    HW2 5001   0.559   4.316   3.791
 1368SOL     OW 5002   6.829   0.266   4.541
 1368SOL    HW1 5003   6.929   0.258   4.545
 1368SOL    HW2 5004   6.797   0.234   4.452
 1369SOL     OW 5005   1.930   6.006   2.349
 1369SOL    HW1 5006   1.942   5.910   2.326
 1369SOL    HW2 5007   1.852   6.043   2.300
 1370SOL     OW 5008   6.879   2.069   4.171
 1370SOL    HW1 5009   6.851   2.068   4.075
 1370SOL    HW2 5010   6.958   2.009   4.183
 1371SOL     OW 5011   5.772   1.149   4.471
 1371SOL    HW1 5012   5.709   1.074   4.490
 1371SOL    HW2 5013   5.814   1.180   4.557
 1372SOL     OW 5014   6.646   3.019   0.388
 1372SOL    HW1 5015   6.655   2.920   0.378
 1372SOL    HW2 5016   6.630   3.041   0.485
 1373SOL     OW 5017   4.462   2.655   1.662
 1373SOL    HW1 5018   4.534   2.705   1.709
 1373SOL    HW2 5019   4.502   2.579   1.611
 1374SOL     OW 5020   5.005   3.351   0.271
 1374SOL    HW1 5021   5.007   3.306   0.360
 1374SOL    HW2 5022   5.039   3.445   0.280
 1375SOL     OW 5023   6.806   6.158   5.388
 1375SOL    HW1 5024   6.826   6.063   5.409
 1375SOL    HW2 5025   6.783   6.207   5.472
 1376SOL     OW 5026   2.972   4.927   6.012
 1376SOL    HW1 5027   2.891   4.929   5.953
 1376SOL    HW2 5028   2.952   4.875   6.095
 1377SOL     OW 5029   1.416   2.566   3.385
 1377SOL    HW1 5030   1.403   2.638   3.317
 1377SOL    HW2 5031   1.435   2.607   3.474
 1378SOL     OW 5032   3.788   2.072   4.712
 1378SOL    HW1 5033   3.739   2.097   4.795
 1378SOL    HW2 5034   3.734   2.098   4.632
 1379SOL     OW 5035   5.348   5.157   1.497
 1379SOL    HW1 5036   5.354   5.093   1.574
 1379SOL    HW2 5037   5.256   5.198   1.495
 1380SOL     OW 5038   6.563   5.885   1.683
 1380SOL    HW1 5039   6.624   5.962   1.667
 1380SOL    HW2 5040   6.561   5.864   1.781
 1381SOL     OW 5041   6.111   2.239   5.749
 1381SOL    HW1 5042   6.015   2.220   5.771
 1381SOL    HW2 5043   6.129   2.212   5.654
 1382SOL     OW 5044   4.552   2.443   1.528
 1382SOL    HW1 5045   4.551   2.464   1.430
 1382SOL    HW2 5046   4.555   2.344   1.541
 1383SOL     OW 5047   1.533   0.559   2.054
 1383SOL    HW1 5048   1.565   0.619   2.128
 1383SOL    HW2 5049   1.570   0.467   2.069
 1384SOL     OW 5050   5.221   0.535   0.312
 1384SOL    HW1 5051   5.176   0.446   0.300
 1384SOL    HW2 5052   5.208   0.566   0.407
 1385SOL     OW 5053   1.533   5.157   3.602
 1385SOL    HW1 5054   1.468   5.197   3.667
 1385SOL    HW2 5055   1.626   5.176   3.633
 1386SOL     OW 5056   2.951   6.409   4.223
 1386SOL    HW1 5057   3.005   6.339   4.270
 1386SOL    HW2 5058   2.859   6.412   4.263
 1387SOL     OW 5059   3.775   5.577   1.462
 1387SOL    HW1 5060   3.812   5.628   1.384
 1387SOL    HW2 5061   3.737   5.641   1.528
 1388SOL     OW 5062   6.167   0.682   1.669
 1388SOL    HW1 5063   6.107   0.735   1.609
 1388SOL    HW2 5064   6.229   0.744   1.718
 1389SOL     OW 5065   6.587   1.276   3.126
 1389SOL    HW1 5066   6.497   1.313   3.146
 1389SOL    HW2 5067   6.652   1.309   3.195
 1390SOL     OW 5068   1.099   3.312   6.595
 1390SOL    HW1 5069   1.003   3.327   6.621
 1390SOL    HW2 5070   1.127   3.221   6.624
 1391SOL     OW 5071   6.930   1.534   3.994
 1391SOL    HW1 5072   6.858   1.572   4.051
 1391SOL    HW2 5073   6.991   1.607   3.964
 1392SOL     OW 5074   5.491   4.999   5.671
 1392SOL    HW1 5075   5.580   4.988   5.715
 1392SOL    HW2 5076   5.441   5.073   5.716
 1393SOL     OW 5077   5.953   5.866   5.507
 1393SOL    HW1 5078   6.011   5.815   5.570
 1393SOL    HW2 5079   6.007   5.939   5.465
 1394SOL     OW 5080   3.009   6.128   5.418
 1394SOL    HW1 5081   2.922   6.177   5.419
 1394SOL    HW2 5082   2.999   6.043   5.469
 1395SOL     OW 5083   2.960   4.269   5.656
 1395SOL    HW1 5084   2.869   4.266   5.697
 1395SOL    HW2 5085   2.973   4.190   5.596
 1396SOL     OW 5086   0.798   0.113   3.750
 1396SOL    HW1 5087   0.718   0.065   3.712
 1396SOL    HW2 5088   0.767   0.188   3.808
 1397SOL     OW 5089   6.261   0.407   4.786
 1397SOL    HW1 5090   6.269   0.506   4.771
 1397SOL    HW2 5091   6.326   0.379   4.857
 1398SOL     OW 5092   1.498   0.894   4.741
 1398SOL    HW1 5093   1.596   0.876   4.734
 1398SOL    HW2 5094   1.449   0.847   4.668
 1399SOL     OW 5095   3.625   6.465   1.460
 1399SOL    HW1 5096   3.696   6.462   1.390
 1399SOL    HW2 5097   3.614   6.375   1.501
 1400SOL     OW 5098   0.199   1.744   3.200
 1400SOL    HW1 5099   0.215   1.815   3.269
 1400SOL    HW2 5100   0.282   1.733   3.145
 1401SOL     OW 5101   0.653   1.519   5.350
 1401SOL    HW1 5102   0.558   1.542   5.372
 1401SOL    HW2 5103   0.692   1.589   5.291
 1402SOL     OW 5104   6.920   3.764   6.699
 1402SOL    HW1 5105   6.826   3.786   6.724
 1402SOL    HW2 5106   6.970   3.735   6.780
 1403SOL     OW 5107   3.501   1.082   1.882
 1403SOL    HW1 5108   3.449   1.160   1.848
 1403SOL    HW2 5109   3.549   1.108   1.966
 1404SOL     OW 5110   5.513   0.336   0.482
 1404SOL    HW1 5111   5.594   0.281   0.461
 1404SOL    HW2 5112   5.541   0.424   0.521
 1405SOL     OW 5113   2.240   4.043   0.952
 1405SOL    HW1 5114   2.170   4.108   0.980
 1405SOL    HW2 5115   2.198   3.955   0.930
 1406SOL     OW 5116   1.489   5.116   1.667
 1406SOL    HW1 5117   1.529   5.083   1.753
 1406SOL    HW2 5118   1.390   5.114   1.674
 1407SOL     OW 5119   0.263   1.332   2.178
 1407SOL    HW1 5120   0.262   1.427   2.209
 1407SOL    HW2 5121   0.287   1.329   2.081
 1408SOL     OW 5122   5.196   0.531   6.047
 1408SOL    HW1 5123   5.121   0.590   6.017
 1408SOL    HW2 5124   5.255   0.582   6.110
 1409SOL     OW 5125   0.645   6.852   5.316
 1409SOL    HW1 5126   0.725   6.865   5.374
 1409SOL    HW2 5127   0.649   6.917   5.240
 1410SOL     OW 5128   2.101   3.737   6.392
 1410SOL    HW1 5129   2.158   3.818   6.408
 1410SOL    HW2 5130   2.006   3.766   6.378
 1411SOL     OW 5131   2.701   6.360   2.879
 1411SOL    HW1 5132   2.785   6.320   2.841
 1411SOL    HW2 5133   2.718   6.391   2.973
 1412SOL     OW 5134   0.401   2.476   6.840
 1412SOL    HW1 5135   0.497   2.496   6.860
 1412SOL    HW2 5136   0.373   2.395   6.890
 1413SOL     OW 5137   1.738   0.846   5.104
 1413SOL    HW1 5138   1.746   0.897   5.018
 1413SOL    HW2 5139   1.755   0.749   5.086
 1414SOL     OW 5140   2.788   1.013   1.604
 1414SOL    HW1 5141   2.867   1.011   1.543
 1414SOL    HW2 5142   2.758   1.107   1.618
 1415SOL     OW 5143   2.732   0.116   4.531
 1415SOL    HW1 5144   2.765   0.188   4.592
 1415SOL    HW2 5145   2.633   0.108   4.538
 1416SOL     OW 5146   4.624   4.425   3.487
 1416SOL    HW1 5147   4.651   4.332   3.515
 1416SOL    HW2 5148   4.536   4.422   3.440
 1417SOL     OW 5149   2.272   2.317   0.125
 1417SOL    HW1 5150   2.348   2.297   0.186
 1417SOL    HW2 5151   2.232   2.406   0.149
 1418SOL     OW 5152   3.123   3.130   3.535
 1418SOL    HW1 5153   3.196   3.100   3.473
 1418SOL    HW2 5154   3.090   3.052   3.587
 1419SOL     OW 5155   3.529   6.550   4.684
 1419SOL    HW1 5156   3.551   6.592   4.596
 1419SOL    HW2 5157   3.498   6.620   4.748
 1420SOL     OW 5158   1.709   6.339   1.743
 1420SOL    HW1 5159   1.763   6.375   1.819
 1420SOL    HW2 5160   1.666   6.253   1.770
 1421SOL     OW 5161   1.765   2.634   3.039
 1421SOL    HW1 5162   1.820   2.677   3.111
 1421SOL    HW2 5163   1.721   2.705   2.984
 1422SOL     OW 5164   2.574   4.562   1.905
 1422SOL    HW1 5165   2.524   4.634   1.859
 1422SOL    HW2 5166   2.667   4.593   1.924
 1423SOL     OW 5167   5.312   6.410   2.190
 1423SOL    HW1 5168   5.229   6.465   2.178
 1423SOL    HW2 5169   5.385   6.467   2.226
 1424SOL     OW 5170   6.040   4.535   4.727
 1424SOL    HW1 5171   6.032   4.497   4.819
 1424SOL    HW2 5172   5.948   4.545   4.687
 1425SOL     OW 5173   1.559   6.173   4.220
 1425SOL    HW1 5174   1.618   6.124   4.156
 1425SOL    HW2 5175   1.599   6.263   4.239
 1426SOL     OW 5176   1.168   2.730   5.582
 1426SOL    HW1 5177   1.178   2.829   5.591
 1426SOL    HW2 5178   1.217   2.685   5.656
 1427SOL     OW 5179   0.104   6.768   2.791
 1427SOL    HW1 5180   0.052   6.700   2.740
 1427SOL    HW2 5181   0.062   6.782   2.881
 1428SOL     OW 5182   5.563   2.307   0.957
 1428SOL    HW1 5183   5.533   2.236   0.893
 1428SOL    HW2 5184   5.638   2.272   1.014
 1429SOL     OW 5185   6.239   2.095   0.405
 1429SOL    HW1 5186   6.159   2.035   0.399
 1429SOL    HW2 5187   6.322   2.043   0.383
 1430SOL     OW 5188   1.800   4.340   3.793
 1430SOL    HW1 5189   1.737   4.331   3.870
 1430SOL    HW2 5190   1.837   4.250   3.769
 1431SOL     OW 5191   2.446   2.135   1.447
 1431SOL    HW1 5192   2.389   2.078   1.506
 1431SOL    HW2 5193   2.452   2.227   1.485
 1432SOL     OW 5194   2.764   1.680   3.586
 1432SOL    HW1 5195   2.859   1.666   3.613
 1432SOL    HW2 5196   2.744   1.778   3.584
 1433SOL     OW 5197   4.450   1.430   4.573
 1433SOL    HW1 5198   4.386   1.353   4.576
 1433SOL    HW2 5199   4.401   1.515   4.594
 1434SOL     OW 5200   6.666   0.930   5.565
 1434SOL    HW1 5201   6.692   1.001   5.500
 1434SOL    HW2 5202   6.653   0.844   5.516
 1435SOL     OW 5203   6.153   1.037   2.247
 1435SOL    HW1 5204   6.190   0.993   2.329
 1435SOL    HW2 5205   6.065   1.079   2.268
 1436SOL     OW 5206   4.951   3.941   0.121
 1436SOL    HW1 5207   4.996   3.854   0.103
 1436SOL    HW2 5208   4.948   3.995   0.036
 1437SOL     OW 5209   2.333   2.575   4.043
 1437SOL    HW1 5210   2.428   2.546   4.059
 1437SOL    HW2 5211   2.319   2.586   3.945
 1438SOL     OW 5212   3.534   6.216   1.168
 1438SOL    HW1 5213   3.587   6.140   1.129
 1438SOL    HW2 5214   3.575   6.245   1.254
 1439SOL     OW 5215   6.869   5.902   2.138
 1439SOL    HW1 5216   6.909   5.848   2.064
 1439SOL    HW2 5217   6.833   5.841   2.208
 1440SOL     OW 5218   3.071   3.820   1.195
 1440SOL    HW1 5219   3.139   3.747   1.188
 1440SOL    HW2 5220   2.981   3.784   1.169
 1441SOL     OW 5221   6.353   0.584   2.329
 1441SOL    HW1 5222   6.370   0.609   2.424
 1441SOL    HW2 5223   6.390   0.654   2.269
 1442SOL     OW 5224   6.609   5.891   0.078
 1442SOL    HW1 5225   6.524   5.909   0.128
 1442SOL    HW2 5226   6.684   5.939   0.121
 1443SOL     OW 5227   0.332   2.361   2.298
 1443SOL    HW1 5228   0.362   2.332   2.389
 1443SOL    HW2 5229   0.283   2.449   2.306
 1444SOL     OW 5230   5.312   0.023   0.792
 1444SOL    HW1 5231   5.279   6.964   0.750
 1444SOL    HW2 5232   5.353   0.002   0.881
 1445SOL     OW 5233   0.798   3.038   2.725
 1445SOL    HW1 5234   0.730   2.967   2.746
 1445SOL    HW2 5235   0.863   3.045   2.800
 1446SOL     OW 5236   0.069   0.346   0.036
 1446SOL    HW1 5237   0.092   0.261   0.082
 1446SOL    HW2 5238   0.013   0.327   6.982
 1447SOL     OW 5239   5.551   5.042   3.484
 1447SOL    HW1 5240   5.530   4.970   3.418
 1447SOL    HW2 5241   5.556   5.130   3.436
 1448SOL     OW 5242   6.816   2.456   4.751
 1448SOL    HW1 5243   6.740   2.473   4.814
 1448SOL    HW2 5244   6.839   2.540   4.702
 1449SOL     OW 5245   0.996   3.802   5.558
 1449SOL    HW1 5246   1.036   3.886   5.595
 1449SOL    HW2 5247   0.940   3.759   5.628
 1450SOL     OW 5248   0.870   3.060   6.019
 1450SOL    HW1 5249   0.799   2.994   5.996
 1450SOL    HW2 5250   0.960   3.015   6.016
 1451SOL     OW 5251   1.179   6.160   2.303
 1451SOL    HW1 5252   1.163   6.257   2.320
 1451SOL    HW2 5253   1.166   6.141   2.206
 1452SOL     OW 5254   4.656   2.678   5.553
 1452SOL    HW1 5255   4.598   2.596   5.548
 1452SOL    HW2 5256   4.629   2.742   5.481
 1453SOL     OW 5257   0.618   4.399   5.174
 1453SOL    HW1 5258   0.644   4.392   5.271
 1453SOL    HW2 5259   0.658   4.323   5.123
 1454SOL     OW 5260   2.291   1.892   3.067
 1454SOL    HW1 5261   2.369   1.836   3.038
 1454SOL    HW2 5262   2.225   1.834   3.116
 1455SOL     OW 5263   1.473   6.211   2.610
 1455SOL    HW1 5264   1.413   6.139   2.576
 1455SOL    HW2 5265   1.567   6.193   2.579
 1456SOL     OW 5266   6.627   6.336   6.292
 1456SOL    HW1 5267   6.701   6.322   6.357
 1456SOL    HW2 5268   6.568   6.255   6.292
 1457SOL     OW 5269   0.717   4.379   0.642
 1457SOL    HW1 5270   0.687   4.474   0.650
 1457SOL    HW2 5271   0.801   4.375   0.589
 1458SOL     OW 5272   5.406   4.928   4.978
 1458SOL    HW1 5273   5.454   4.886   4.901
 1458SOL    HW2 5274   5.418   4.872   5.059
 1459SOL     OW 5275   4.270   6.514   6.090
 1459SOL    HW1 5276   4.204   6.574   6.046
 1459SOL    HW2 5277   4.245   6.418   6.074
 1460SOL     OW 5278   1.483   6.854   4.796
 1460SOL    HW1 5279   1.528   6.862   4.707
 1460SOL    HW2 5280   1.551   6.855   4.868
 1461SOL     OW 5281   0.401   3.630   2.988
 1461SOL    HW1 5282   0.325   3.626   3.054
 1461SOL    HW2 5283   0.468   3.698   3.018
 1462SOL     OW 5284   0.994   0.916   6.536
 1462SOL    HW1 5285   1.076   0.929   6.592
 1462SOL    HW2 5286   0.960   0.823   6.549
 1463SOL     OW 5287   1.378   4.822   5.747
 1463SOL    HW1 5288   1.319   4.888   5.793
 1463SOL    HW2 5289   1.387   4.740   5.805
 1464SOL     OW 5290   6.856   4.034   3.395
 1464SOL    HW1 5291   6.885   4.062   3.304
 1464SOL    HW2 5292   6.914   3.958   3.426
 1465SOL     OW 5293   1.687   2.149   3.952
 1465SOL    HW1 5294   1.724   2.083   4.018
 1465SOL    HW2 5295   1.702   2.242   3.986
 1466SOL     OW 5296   4.072   2.184   2.189
 1466SOL    HW1 5297   4.006   2.141   2.127
 1466SOL    HW2 5298   4.022   2.233   2.261
 1467SOL     OW 5299   2.008   1.549   4.385
 1467SOL    HW1 5300   2.051   1.636   4.409
 1467SOL    HW2 5301   1.930   1.566   4.324
 1468SOL     OW 5302   1.944   5.345   1.730
 1468SOL    HW1 5303   1.851   5.379   1.744
 1468SOL    HW2 5304   1.940   5.251   1.696
 1469SOL     OW 5305   6.862   5.982   3.081
 1469SOL    HW1 5306   6.930   6.031   3.027
 1469SOL    HW2 5307   6.822   5.909   3.025
 1470SOL     OW 5308   0.152   2.883   0.997
 1470SOL    HW1 5309   0.128   2.882   0.900
 1470SOL    HW2 5310   0.076   2.846   1.051
 1471SOL     OW 5311   0.738   0.174   0.674
 1471SOL    HW1 5312   0.777   0.089   0.639
 1471SOL    HW2 5313   0.798   0.251   0.652
 1472SOL     OW 5314   2.256   6.112   6.513
 1472SOL    HW1 5315   2.319   6.190   6.506
 1472SOL    HW2 5316   2.210   6.115   6.602
 1473SOL     OW 5317   2.801   5.494   4.665
 1473SOL    HW1 5318   2.884   5.497   4.721
 1473SOL    HW2 5319   2.784   5.585   4.627
 1474SOL     OW 5320   4.226   4.911   1.706
 1474SOL    HW1 5321   4.231   4.889   1.804
 1474SOL    HW2 5322   4.275   4.841   1.654
 1475SOL     OW 5323   5.075   1.060   0.191
 1475SOL    HW1 5324   5.017   1.067   0.109
 1475SOL    HW2 5325   5.117   0.970   0.194
 1476SOL     OW 5326   2.976   1.225   1.321
 1476SOL    HW1 5327   2.985   1.241   1.223
 1476SOL    HW2 5328   3.054   1.172   1.354
 1477SOL     OW 5329   3.886   0.303   0.400
 1477SOL    HW1 5330   3.935   0.217   0.413
 1477SOL    HW2 5331   3.952   0.379   0.403
 1478SOL     OW 5332   5.790   6.466   5.440
 1478SOL    HW1 5333   5.869   6.512   5.479
 1478SOL    HW2 5334   5.736   6.425   5.513
 1479SOL     OW 5335   3.780   3.850   2.008
 1479SOL    HW1 5336   3.686   3.884   1.998
 1479SOL    HW2 5337   3.838   3.891   1.938
 1480SOL     OW 5338   2.314   6.876   6.303
 1480SOL    HW1 5339   2.242   6.844   6.365
 1480SOL    HW2 5340   2.399   6.887   6.354
 1481SOL     OW 5341   5.778   2.731   5.802
 1481SOL    HW1 5342   5.689   2.771   5.827
 1481SOL    HW2 5343   5.785   2.726   5.702
 1482SOL     OW 5344   4.467   0.672   0.739
 1482SOL    HW1 5345   4.452   0.574   0.728
 1482SOL    HW2 5346   4.497   0.711   0.652
 1483SOL     OW 5347   5.337   1.938   5.567
 1483SOL    HW1 5348   5.288   1.883   5.634
 1483SOL    HW2 5349   5.331   2.035   5.592
 1484SOL     OW 5350   3.520   5.181   4.060
 1484SOL    HW1 5351   3.478   5.099   4.021
 1484SOL    HW2 5352   3.479   5.262   4.017
 1485SOL     OW 5353   5.008   0.682   3.815
 1485SOL    HW1 5354   5.039   0.624   3.740
 1485SOL    HW2 5355   5.077   0.752   3.834
 1486SOL     OW 5356   4.641   6.877   3.616
 1486SOL    HW1 5357   4.580   6.895   3.539
 1486SOL    HW2 5358   4.593   6.824   3.686
 1487SOL     OW 5359   0.493   0.778   6.738
 1487SOL    HW1 5360   0.521   0.813   6.649
 1487SOL    HW2 5361   0.480   0.855   6.801
 1488SOL     OW 5362   5.950   0.680   2.876
 1488SOL    HW1 5363   6.036   0.714   2.914
 1488SOL    HW2 5364   5.965   0.588   2.839
 1489SOL     OW 5365   3.710   4.945   6.668
 1489SOL    HW1 5366   3.636   4.939   6.601
 1489SOL    HW2 5367   3.683   5.007   6.741
 1490SOL     OW 5368   0.518   3.150   1.076
 1490SOL    HW1 5369   0.501   3.051   1.075
 1490SOL    HW2 5370   0.574   3.174   0.997
 1491SOL     OW 5371   6.769   4.032   2.055
 1491SOL    HW1 5372   6.831   4.059   1.982
 1491SOL    HW2 5373   6.813   3.964   2.113
 1492SOL     OW 5374   6.744   0.267   2.004
 1492SOL    HW1 5375   6.719   0.304   2.093
 1492SOL    HW2 5376   6.663   0.262   1.945
 1493SOL     OW 5377   3.981   1.077   6.397
 1493SOL    HW1 5378   3.987   1.123   6.486
 1493SOL    HW2 5379   3.892   1.032   6.389
 1494SOL     OW 5380   5.722   2.561   6.609
 1494SOL    HW1 5381   5.739   2.488   6.675
 1494SOL    HW2 5382   5.756   2.648   6.645
 1495SOL     OW 5383   6.562   3.598   3.360
 1495SOL    HW1 5384   6.565   3.668   3.289
 1495SOL    HW2 5385   6.517   3.635   3.442
 1496SOL     OW 5386   0.203   0.133   0.166
 1496SOL    HW1 5387   0.165   0.079   0.241
 1496SOL    HW2 5388   0.257   0.208   0.203
 1497SOL     OW 5389   5.076   2.921   2.336
 1497SOL    HW1 5390   5.053   3.015   2.309
 1497SOL    HW2 5391   4.993   2.873   2.362
 1498SOL     OW 5392   2.709   4.770   1.177
 1498SOL    HW1 5393   2.726   4.737   1.270
 1498SOL    HW2 5394   2.670   4.862   1.181
 1499SOL     OW 5395   0.590   3.584   5.825
 1499SOL    HW1 5396   0.625   3.560   5.916
 1499SOL    HW2 5397   0.499   3.625   5.834
 1500SOL     OW 5398   1.244   6.116   0.002
 1500SOL    HW1 5399   1.174   6.106   6.957
 1500SOL    HW2 5400   1.202   6.153   0.085
 1501SOL     OW 5401   6.111   1.824   6.871
 1501SOL    HW1 5402   6.128   1.876   6.787
 1501SOL    HW2 5403   6.023   1.777   6.864
 1502SOL     OW 5404   5.749   1.423   6.357
 1502SOL    HW1 5405   5.745   1.381   6.266
 1502SOL    HW2 5406   5.794   1.512   6.350
 1503SOL     OW 5407   1.092   2.778   2.489
 1503SOL    HW1 5408   1.151   2.737   2.559
 1503SOL    HW2 5409   0.997   2.766   2.515
 1504SOL     OW 5410   0.638   6.939   3.600
 1504SOL    HW1 5411   0.555   6.914   3.649
 1504SOL    HW2 5412   0.631   6.911   3.504
 1505SOL     OW 5413   5.624   6.325   5.606
 1505SOL    HW1 5414   5.579   6.255   5.552
 1505SOL    HW2 5415   5.617   6.301   5.703
 1506SOL     OW 5416   1.259   0.530   0.945
 1506SOL    HW1 5417   1.284   0.616   0.990
 1506SOL    HW2 5418   1.160   0.525   0.935
 1507SOL     OW 5419   0.898   1.465   4.389
 1507SOL    HW1 5420   0.892   1.512   4.477
 1507SOL    HW2 5421   0.809   1.466   4.344
 1508SOL     OW 5422   0.973   1.620   0.652
 1508SOL    HW1 5423   0.960   1.580   0.742
 1508SOL    HW2 5424   0.913   1.574   0.586
 1509SOL     OW 5425   5.240   1.509   5.245
 1509SOL    HW1 5426   5.179   1.582   5.214
 1509SOL    HW2 5427   5.207   1.421   5.209
 1510SOL     OW 5428   4.457   0.153   4.016
 1510SOL    HW1 5429   4.496   0.208   4.090
 1510SOL    HW2 5430   4.411   0.074   4.055
 1511SOL     OW 5431   3.147   4.042   4.096
 1511SOL    HW1 5432   3.190   4.092   4.021
 1511SOL    HW2 5433   3.199   4.057   4.180
 1512SOL     OW 5434   5.918   5.535   1.175
 1512SOL    HW1 5435   5.824   5.563   1.191
 1512SOL    HW2 5436   5.919   5.461   1.107
 1513SOL     OW 5437   3.176   0.062   5.200
 1513SOL    HW1 5438   3.101   0.002   5.227
 1513SOL    HW2 5439   3.234   0.016   5.132
 1514SOL     OW 5440   3.541   2.526   5.361
 1514SOL    HW1 5441   3.478   2.579   5.419
 1514SOL    HW2 5442   3.600   2.588   5.310
 1515SOL     OW 5443   6.719   1.866   2.341
 1515SOL    HW1 5444   6.670   1.823   2.416
 1515SOL    HW2 5445   6.703   1.965   2.343
 1516SOL     OW 5446   6.117   5.577   5.222
 1516SOL    HW1 5447   6.111   5.484   5.259
 1516SOL    HW2 5448   6.033   5.627   5.245
 1517SOL     OW 5449   4.045   6.964   3.339
 1517SOL    HW1 5450   4.062   7.009   3.426
 1517SOL    HW2 5451   3.958   6.914   3.344
 1518SOL     OW 5452   6.293   3.106   0.248
 1518SOL    HW1 5453   6.311   3.011   0.273
 1518SOL    HW2 5454   6.379   3.150   0.223
 1519SOL     OW 5455   0.339   5.120   0.705
 1519SOL    HW1 5456   0.303   5.091   0.793
 1519SOL    HW2 5457   0.281   5.193   0.667
 1520SOL     OW 5458   0.607   4.628   1.279
 1520SOL    HW1 5459   0.629   4.603   1.185
 1520SOL    HW2 5460   0.518   4.590   1.304
 1521SOL     OW 5461   2.242   4.865   0.456
 1521SOL    HW1 5462   2.265   4.774   0.422
 1521SOL    HW2 5463   2.147   4.866   0.488
 1522SOL     OW 5464   5.343   5.507   4.386
 1522SOL    HW1 5465   5.411   5.472   4.451
 1522SOL    HW2 5466   5.262   5.449   4.388
 1523SOL     OW 5467   3.625   0.162   6.880
 1523SOL    HW1 5468   3.621   0.110   6.794
 1523SOL    HW2 5469   3.677   0.246   6.865
 1524SOL     OW 5470   2.833   2.223   2.412
 1524SOL    HW1 5471   2.891   2.298   2.381
 1524SOL    HW2 5472   2.742   2.232   2.372
 1525SOL     OW 5473   5.943   2.901   1.113
 1525SOL    HW1 5474   5.907   2.812   1.143
 1525SOL    HW2 5475   5.970   2.955   1.194
 1526SOL     OW 5476   0.496   1.202   0.087
 1526SOL    HW1 5477   0.530   1.261   0.014
 1526SOL    HW2 5478   0.459   1.259   0.161
 1527SOL     OW 5479   3.994   1.271   4.654
 1527SOL    HW1 5480   3.903   1.310   4.673
 1527SOL    HW2 5481   3.983   1.181   4.613
 1528SOL     OW 5482   4.349   4.886   1.005
 1528SOL    HW1 5483   4.305   4.836   1.080
 1528SOL    HW2 5484   4.395   4.967   1.042
 1529SOL     OW 5485   5.027   1.364   6.958
 1529SOL    HW1 5486   5.014   1.342   0.029
 1529SOL    HW2 5487   4.937   1.372   6.914
 1530SOL     OW 5488   3.541   0.570   1.555
 1530SOL    HW1 5489   3.593   0.590   1.472
 1530SOL    HW2 5490   3.600   0.580   1.635
 1531SOL     OW 5491   4.365   0.461   4.517
 1531SOL    HW1 5492   4.437   0.423   4.458
 1531SOL    HW2 5493   4.382   0.434   4.612
 1532SOL     OW 5494   3.623   4.540   5.861
 1532SOL    HW1 5495   3.648   4.576   5.950
 1532SOL    HW2 5496   3.601   4.442   5.869
 1533SOL     OW 5497   5.763   5.963   0.576
 1533SOL    HW1 5498   5.749   6.061   0.560
 1533SOL    HW2 5499   5.779   5.947   0.673
 1534SOL     OW 5500   3.966   5.431   6.935
 1534SOL    HW1 5501   4.029   5.509   6.941
 1534SOL    HW2 5502   3.923   5.431   6.845
 1535SOL     OW 5503   5.699   6.058   4.745
 1535SOL    HW1 5504   5.766   6.068   4.672
 1535SOL    HW2 5505   5.652   5.971   4.735
 1536SOL     OW 5506   4.329   4.834   0.249
 1536SOL    HW1 5507   4.281   4.913   0.288
 1536SOL    HW2 5508   4.267   4.782   0.191
 1537SOL     OW 5509   4.083   5.788   3.830
 1537SOL    HW1 5510   4.120   5.760   3.742
 1537SOL    HW2 5511   4.027   5.714   3.868
 1538SOL     OW 5512   3.408   1.054   7.009
 1538SOL    HW1 5513   3.386   1.101   6.924
 1538SOL    HW2 5514   3.375   0.960   7.004
 1539SOL     OW 5515   4.890   3.345   1.993
 1539SOL    HW1 5516   4.842   3.258   1.991
 1539SOL    HW2 5517   4.958   3.345   2.065
 1540SOL     OW 5518   1.143   6.942   5.153
 1540SOL    HW1 5519   1.059   6.958   5.101
 1540SOL    HW2 5520   1.139   6.993   5.239
 1541SOL     OW 5521   3.404   3.290   4.382
 1541SOL    HW1 5522   3.343   3.348   4.436
 1541SOL    HW2 5523   3.425   3.334   4.295
 1542SOL     OW 5524   6.287   6.931   2.194
 1542SOL    HW1 5525   6.210   6.953   2.134
 1542SOL    HW2 5526   6.363   6.994   2.176
 1543SOL     OW 5527   3.829   5.191   6.389
 1543SOL    HW1 5528   3.730   5.190   6.404
 1543SOL    HW2 5529   3.850   5.248   6.309
 1544SOL     OW 5530   3.089   3.832   3.884
 1544SOL    HW1 5531   3.142   3.870   3.960
 1544SOL    HW2 5532   3.104   3.734   3.879
 1545SOL     OW 5533   6.244   0.967   2.482
 1545SOL    HW1 5534   6.202   1.031   2.547
 1545SOL    HW2 5535   6.340   0.955   2.505
 1546SOL     OW 5536   5.493   5.787   6.026
 1546SOL    HW1 5537   5.431   5.799   6.105
 1546SOL    HW2 5538   5.456   5.836   5.947
 1547SOL     OW 5539   1.864   3.850   1.154
 1547SOL    HW1 5540   1.935   3.881   1.218
 1547SOL    HW2 5541   1.823   3.766   1.188
 1548SOL     OW 5542   6.139   3.823   0.340
 1548SOL    HW1 5543   6.144   3.917   0.307
 1548SOL    HW2 5544   6.045   3.791   0.336
 1549SOL     OW 5545   4.092   1.542   3.746
 1549SOL    HW1 5546   4.037   1.466   3.779
 1549SOL    HW2 5547   4.164   1.564   3.812
 1550SOL     OW 5548   3.081   3.113   1.627
 1550SOL    HW1 5549   3.153   3.174   1.661
 1550SOL    HW2 5550   3.047   3.056   1.702
 1551SOL     OW 5551   1.334   5.313   0.117
 1551SOL    HW1 5552   1.289   5.264   0.044
 1551SOL    HW2 5553   1.323   5.412   0.103
 1552SOL     OW 5554   2.125   5.033   0.811
 1552SOL    HW1 5555   2.100   4.940   0.837
 1552SOL    HW2 5556   2.203   5.063   0.866
 1553SOL     OW 5557   0.006   1.507   6.181
 1553SOL    HW1 5558   0.081   1.529   6.119
 1553SOL    HW2 5559   6.980   1.430   6.145
 1554SOL     OW 5560   2.931   2.013   3.898
 1554SOL    HW1 5561   2.855   1.955   3.926
 1554SOL    HW2 5562   2.898   2.081   3.832
 1555SOL     OW 5563   6.089   3.180   6.546
 1555SOL    HW1 5564   6.083   3.164   6.448
 1555SOL    HW2 5565   6.002   3.215   6.580
 1556SOL     OW 5566   1.668   1.088   6.279
 1556SOL    HW1 5567   1.629   0.996   6.274
 1556SOL    HW2 5568   1.731   1.103   6.203
 1557SOL     OW 5569   1.833   3.976   5.953
 1557SOL    HW1 5570   1.745   3.940   5.983
 1557SOL    HW2 5571   1.886   3.902   5.910
 1558SOL     OW 5572   6.375   0.580   4.416
 1558SOL    HW1 5573   6.290   0.573   4.468
 1558SOL    HW2 5574   6.354   0.606   4.322
 1559SOL     OW 5575   1.497   3.286   6.646
 1559SOL    HW1 5576   1.536   3.309   6.557
 1559SOL    HW2 5577   1.501   3.187   6.660
 1560SOL     OW 5578   0.223   0.662   6.796
 1560SOL    HW1 5579   0.189   0.605   6.721
 1560SOL    HW2 5580   0.304   0.712   6.765
 1561SOL     OW 5581   4.930   6.381   3.397
 1561SOL    HW1 5582   4.890   6.412   3.483
 1561SOL    HW2 5583   5.026   6.356   3.412
 1562SOL     OW 5584   4.536   6.143   2.214
 1562SOL    HW1 5585   4.605   6.071   2.220
 1562SOL    HW2 5586   4.581   6.231   2.204
 1563SOL     OW 5587   3.164   0.667   5.760
 1563SOL    HW1 5588   3.171   0.760   5.726
 1563SOL    HW2 5589   3.188   0.603   5.687
 1564SOL     OW 5590   1.382   0.760   3.187
 1564SOL    HW1 5591   1.316   0.732   3.117
 1564SOL    HW2 5592   1.406   0.856   3.174
 1565SOL     OW 5593   4.746   4.134   2.949
 1565SOL    HW1 5594   4.839   4.107   2.924
 1565SOL    HW2 5595   4.746   4.174   3.041
 1566SOL     OW 5596   5.950   3.219   3.160
 1566SOL    HW1 5597   5.986   3.285   3.225
 1566SOL    HW2 5598   5.853   3.206   3.176
 1567SOL     OW 5599   5.893   5.936   7.011
 1567SOL    HW1 5600   5.944   6.021   6.998
 1567SOL    HW2 5601   5.802   5.945   6.971
 1568SOL     OW 5602   1.657   0.557   0.519
 1568SOL    HW1 5603   1.647   0.458   0.529
 1568SOL    HW2 5604   1.662   0.581   0.422
 1569SOL     OW 5605   4.751   5.979   3.660
 1569SOL    HW1 5606   4.693   5.988   3.579
 1569SOL    HW2 5607   4.842   6.014   3.640
 1570SOL     OW 5608   2.533   1.287   1.177
 1570SOL    HW1 5609   2.447   1.266   1.224
 1570SOL    HW2 5610   2.591   1.342   1.238
 1571SOL     OW 5611   6.037   3.364   0.828
 1571SOL    HW1 5612   6.017   3.322   0.739
 1571SOL    HW2 5613   6.005   3.304   0.901
 1572SOL     OW 5614   0.266   0.483   2.910
 1572SOL    HW1 5615   0.197   0.478   2.981
 1572SOL    HW2 5616   0.288   0.391   2.878
 1573SOL     OW 5617   5.023   0.566   1.871
 1573SOL    HW1 5618   4.976   0.533   1.789
 1573SOL    HW2 5619   5.066   0.489   1.918
 1574SOL     OW 5620   0.504   2.308   1.353
 1574SOL    HW1 5621   0.487   2.267   1.442
 1574SOL    HW2 5622   0.598   2.343   1.350
 1575SOL     OW 5623   3.002   2.113   0.598
 1575SOL    HW1 5624   3.093   2.091   0.635
 1575SOL    HW2 5625   3.011   2.139   0.502
 1576SOL     OW 5626   5.772   5.910   4.012
 1576SOL    HW1 5627   5.770   6.006   4.040
 1576SOL    HW2 5628   5.866   5.885   3.988
 1577SOL     OW 5629   2.515   1.771   5.121
 1577SOL    HW1 5630   2.610   1.761   5.090
 1577SOL    HW2 5631   2.454   1.764   5.042
 1578SOL     OW 5632   5.741   3.331   5.641
 1578SOL    HW1 5633   5.823   3.347   5.586
 1578SOL    HW2 5634   5.691   3.252   5.604
 1579SOL     OW 5635   0.372   1.350   3.542
 1579SOL    HW1 5636   0.357   1.283   3.469
 1579SOL    HW2 5637   0.342   1.312   3.629
 1580SOL     OW 5638   2.687   4.094   5.278
 1580SOL    HW1 5639   2.600   4.052   5.303
 1580SOL    HW2 5640   2.708   4.073   5.183
 1581SOL     OW 5641   6.605   4.754   3.999
 1581SOL    HW1 5642   6.667   4.781   4.073
 1581SOL    HW2 5643   6.649   4.687   3.940
 1582SOL     OW 5644   0.802   4.962   4.475
 1582SOL    HW1 5645   0.817   4.970   4.377
 1582SOL    HW2 5646   0.796   4.866   4.501
 1583SOL     OW 5647   1.972   2.792   4.059
 1583SOL    HW1 5648   2.009   2.865   4.001
 1583SOL    HW2 5649   1.983   2.817   4.155
 1584SOL     OW 5650   2.223   6.787   5.389
 1584SOL    HW1 5651   2.150   6.764   5.453
 1584SOL    HW2 5652   2.207   6.741   5.302
 1585SOL     OW 5653   5.513   2.069   3.176
 1585SOL    HW1 5654   5.580   2.017   3.229
 1585SOL    HW2 5655   5.445   2.007   3.138
 1586SOL     OW 5656   4.160   3.855   1.879
 1586SOL    HW1 5657   4.177   3.774   1.823
 1586SOL    HW2 5658   4.209   3.933   1.841
 1587SOL     OW 5659   2.622   5.327   6.363
 1587SOL    HW1 5660   2.656   5.261   6.296
 1587SOL    HW2 5661   2.685   5.329   6.441
 1588SOL     OW 5662   4.759   1.828   2.999
 1588SOL    HW1 5663   4.823   1.782   3.061
 1588SOL    HW2 5664   4.673   1.846   3.047
 1589SOL     OW 5665   5.648   3.527   3.666
 1589SOL    HW1 5666   5.553   3.558   3.662
 1589SOL    HW2 5667   5.669   3.471   3.586
 1590SOL     OW 5668   1.807   6.096   6.617
 1590SOL    HW1 5669   1.822   6.150   6.700
 1590SOL    HW2 5670   1.777   6.004   6.641
 1591SOL     OW 5671   1.001   4.523   2.591
 1591SOL    HW1 5672   1.060   4.532   2.672
 1591SOL    HW2 5673   0.915   4.480   2.618
 1592SOL     OW 5674   3.115   3.294   1.208
 1592SOL    HW1 5675   3.184   3.225   1.231
 1592SOL    HW2 5676   3.063   3.318   1.290
 1593SOL     OW 5677   0.852   6.220   5.157
 1593SOL    HW1 5678   0.825   6.161   5.081
 1593SOL    HW2 5679   0.891   6.305   5.121
 1594SOL     OW 5680   0.180   5.424   3.058
 1594SOL    HW1 5681   0.178   5.326   3.038
 1594SOL    HW2 5682   0.130   5.442   3.143
 1595SOL     OW 5683   0.426   5.066   6.595
 1595SOL    HW1 5684   0.456   5.136   6.531
 1595SOL    HW2 5685   0.350   5.015   6.555
 1596SOL     OW 5686   1.370   4.213   5.297
 1596SOL    HW1 5687   1.360   4.114   5.282
 1596SOL    HW2 5688   1.458   4.231   5.342
 1597SOL     OW 5689   2.338   5.936   0.810
 1597SOL    HW1 5690   2.261   5.903   0.755
 1597SOL    HW2 5691   2.313   5.934   0.907
 1598SOL     OW 5692   0.960   4.047   0.464
 1598SOL    HW1 5693   0.865   4.079   0.466
 1598SOL    HW2 5694   1.013   4.093   0.535
 1599SOL     OW 5695   4.391   4.071   6.182
 1599SOL    HW1 5696   4.308   4.100   6.134
 1599SOL    HW2 5697   4.390   3.971   6.191
 1600SOL     OW 5698   5.397   1.529   5.025
 1600SOL    HW1 5699   5.474   1.575   5.069
 1600SOL    HW2 5700   5.325   1.512   5.092
 1601SOL     OW 5701   2.097   4.694   4.658
 1601SOL    HW1 5702   2.116   4.635   4.580
 1601SOL    HW2 5703   2.009   4.670   4.698
 1602SOL     OW 5704   1.744   5.822   3.425
 1602SOL    HW1 5705   1.656   5.776   3.410
 1602SOL    HW2 5706   1.815   5.777   3.371
 1603SOL     OW 5707   1.257   0.007   1.908
 1603SOL    HW1 5708   1.261   0.104   1.882
 1603SOL    HW2 5709   1.194   7.021   1.984
 1604SOL     OW 5710   5.590   5.158   6.417
 1604SOL    HW1 5711   5.529   5.090   6.459
 1604SOL    HW2 5712   5.685   5.130   6.431
 1605SOL     OW 5713   6.846   0.273   2.500
 1605SOL    HW1 5714   6.800   0.343   2.445
 1605SOL    HW2 5715   6.840   0.185   2.454
 1606SOL     OW 5716   4.413   0.213   5.401
 1606SOL    HW1 5717   4.471   0.291   5.426
 1606SOL    HW2 5718   4.328   0.247   5.360
 1607SOL     OW 5719   4.611   2.788   1.031
 1607SOL    HW1 5720   4.597   2.689   1.036
 1607SOL    HW2 5721   4.664   2.818   1.110
 1608SOL     OW 5722   1.918   6.985   6.404
 1608SOL    HW1 5723   1.949   6.890   6.405
 1608SOL    HW2 5724   1.819   6.988   6.408
 1609SOL     OW 5725   6.421   2.426   6.135
 1609SOL    HW1 5726   6.360   2.434   6.056
 1609SOL    HW2 5727   6.404   2.339   6.182
 1610SOL     OW 5728   5.768   4.593   4.767
 1610SOL    HW1 5729   5.769   4.501   4.806
 1610SOL    HW2 5730   5.731   4.658   4.834
 1611SOL     OW 5731   3.436   2.811   2.092
 1611SOL    HW1 5732   3.534   2.811   2.113
 1611SOL    HW2 5733   3.417   2.740   2.025
 1612SOL     OW 5734   2.421   1.746   5.477
 1612SOL    HW1 5735   2.456   1.839   5.474
 1612SOL    HW2 5736   2.487   1.684   5.435
 1613SOL     OW 5737   2.048   6.260   0.616
 1613SOL    HW1 5738   2.046   6.330   0.544
 1613SOL    HW2 5739   2.041   6.303   0.705
 1614SOL     OW 5740   6.716   3.294   7.010
 1614SOL    HW1 5741   6.709   3.315   6.912
 1614SOL    HW2 5742   6.768   3.210   7.022
 1615SOL     OW 5743   0.033   4.730   0.118
 1615SOL    HW1 5744   7.013   4.729   0.029
 1615SOL    HW2 5745   7.009   4.671   0.182
 1616SOL     OW 5746   4.407   2.131   6.579
 1616SOL    HW1 5747   4.472   2.206   6.594
 1616SOL    HW2 5748   4.392   2.082   6.665
 1617SOL     OW 5749   6.578   0.852   2.550
 1617SOL    HW1 5750   6.654   0.802   2.591
 1617SOL    HW2 5751   6.579   0.839   2.451
 1618SOL     OW 5752   0.236   3.640   1.844
 1618SOL    HW1 5753   0.331   3.663   1.822
 1618SOL    HW2 5754   0.228   3.542   1.861
 1619SOL     OW 5755   0.797   3.660   4.077
 1619SOL    HW1 5756   0.827   3.714   3.999
 1619SOL    HW2 5757   0.698   3.673   4.091
 1620SOL     OW 5758   1.650   6.122   0.796
 1620SOL    HW1 5759   1.577   6.063   0.762
 1620SOL    HW2 5760   1.717   6.067   0.846
 1621SOL     OW 5761   0.625   0.316   6.825
 1621SOL    HW1 5762   0.622   0.348   6.920
 1621SOL    HW2 5763   0.572   0.378   6.768
 1622SOL     OW 5764   1.530   2.026   4.730
 1622SOL    HW1 5765   1.486   2.080   4.658
 1622SOL    HW2 5766   1.492   2.052   4.819
 1623SOL     OW 5767   2.397   3.218   6.443
 1623SOL    HW1 5768   2.409   3.286   6.370
 1623SOL    HW2 5769   2.324   3.155   6.417
 1624SOL     OW 5770   2.739   0.635   6.293
 1624SOL    HW1 5771   2.704   0.667   6.381
 1624SOL    HW2 5772   2.677   0.663   6.220
 1625SOL     OW 5773   1.204   4.819   1.739
 1625SOL    HW1 5774   1.244   4.753   1.803
 1625SOL    HW2 5775   1.216   4.786   1.646
 1626SOL     OW 5776   2.506   2.634   7.023
 1626SOL    HW1 5777   2.407   2.624   0.009
 1626SOL    HW2 5778   2.552   2.595   0.076
 1627SOL     OW 5779   6.189   2.052   4.416
 1627SOL    HW1 5780   6.132   2.043   4.335
 1627SOL    HW2 5781   6.285   2.058   4.388
 1628SOL     OW 5782   3.330   4.968   0.592
 1628SOL    HW1 5783   3.343   4.935   0.499
 1628SOL    HW2 5784   3.250   4.924   0.633
 1629SOL     OW 5785   3.188   2.154   4.607
 1629SOL    HW1 5786   3.177   2.188   4.514
 1629SOL    HW2 5787   3.285   2.149   4.630
 1630SOL     OW 5788   0.636   5.807   5.155
 1630SOL    HW1 5789   0.651   5.903   5.175
 1630SOL    HW2 5790   0.698   5.751   5.211
 1631SOL     OW 5791   6.775   0.287   5.674
 1631SOL    HW1 5792   6.858   0.267   5.728
 1631SOL    HW2 5793   6.731   0.368   5.712
 1632SOL     OW 5794   0.802   0.924   6.809
 1632SOL    HW1 5795   0.899   0.900   6.802
 1632SOL    HW2 5796   0.761   0.875   6.887
 1633SOL     OW 5797   5.612   2.495   2.695
 1633SOL    HW1 5798   5.560   2.569   2.653
 1633SOL    HW2 5799   5.586   2.408   2.651
 1634SOL     OW 5800   3.969   5.337   6.628
 1634SOL    HW1 5801   3.887   5.301   6.583
 1634SOL    HW2 5802   3.990   5.428   6.591
 1635SOL     OW 5803   6.557   5.427   5.108
 1635SOL    HW1 5804   6.483   5.443   5.042
 1635SOL    HW2 5805   6.619   5.358   5.071
 1636SOL     OW 5806   2.343   5.101   1.711
 1636SOL    HW1 5807   2.310   5.171   1.775
 1636SOL    HW2 5808   2.390   5.029   1.762
 1637SOL     OW 5809   7.012   2.673   2.668
 1637SOL    HW1 5810   6.945   2.738   2.704
 1637SOL    HW2 5811   0.042   2.717   2.599
 1638SOL     OW 5812   6.767   3.117   3.965
 1638SOL    HW1 5813   6.685   3.140   3.913
 1638SOL    HW2 5814   6.834   3.074   3.904
 1639SOL     OW 5815   5.376   5.375   2.864
 1639SOL    HW1 5816   5.377   5.474   2.851
 1639SOL    HW2 5817   5.329   5.353   2.949
 1640SOL     OW 5818   6.010   1.936   0.417
 1640SOL    HW1 5819   5.998   1.859   0.355
 1640SOL    HW2 5820   5.921   1.963   0.455
 1641SOL     OW 5821   5.230   3.083   3.739
 1641SOL    HW1 5822   5.173   3.110   3.662
 1641SOL    HW2 5823   5.223   2.984   3.753
 1642SOL     OW 5824   6.874   3.183   0.183
 1642SOL    HW1 5825   6.869   3.083   0.182
 1642SOL    HW2 5826   6.954   3.213   0.131
 1643SOL     OW 5827   3.883   6.484   5.179
 1643SOL    HW1 5828   3.968   6.532   5.203
 1643SOL    HW2 5829   3.905   6.395   5.139
 1644SOL     OW 5830   3.297   1.874   1.486
 1644SOL    HW1 5831   3.348   1.873   1.400
 1644SOL    HW2 5832   3.337   1.942   1.547
 1645SOL     OW 5833   2.996   6.062   5.926
 1645SOL    HW1 5834   3.005   6.040   6.023
 1645SOL    HW2 5835   2.899   6.061   5.900
 1646SOL     OW 5836   3.000   5.123   1.232
 1646SOL    HW1 5837   2.981   5.042   1.177
 1646SOL    HW2 5838   3.033   5.197   1.173
 1647SOL     OW 5839   6.090   2.551   3.207
 1647SOL    HW1 5840   6.172   2.602   3.231
 1647SOL    HW2 5841   6.114   2.457   3.184
 1648SOL     OW 5842   5.411   6.933   1.919
 1648SOL    HW1 5843   5.472   6.870   1.967
 1648SOL    HW2 5844   5.396   6.900   1.826
 1649SOL     OW 5845   2.878   0.570   2.770
 1649SOL    HW1 5846   2.905   0.642   2.834
 1649SOL    HW2 5847   2.950   0.557   2.702
 1650SOL     OW 5848   2.772   0.109   3.936
 1650SOL    HW1 5849   2.827   0.036   3.895
 1650SOL    HW2 5850   2.727   0.076   4.018
 1651SOL     OW 5851   0.353   0.350   0.276
 1651SOL    HW1 5852   0.441   0.385   0.243
 1651SOL    HW2 5853   0.332   0.392   0.364
 1652SOL     OW 5854   3.086   1.910   0.959
 1652SOL    HW1 5855   3.036   1.993   0.985
 1652SOL    HW2 5856   3.163   1.935   0.900
 1653SOL     OW 5857   0.108   5.283   1.180
 1653SOL    HW1 5858   0.122   5.373   1.223
 1653SOL    HW2 5859   0.178   5.220   1.214
 1654SOL     OW 5860   6.434   3.187   2.757
 1654SOL    HW1 5861   6.419   3.247   2.678
 1654SOL    HW2 5862   6.380   3.103   2.746
 1655SOL     OW 5863   5.440   4.998   6.027
 1655SOL    HW1 5864   5.400   5.047   5.950
 1655SOL    HW2 5865   5.447   5.059   6.106
 1656SOL     OW 5866   1.329   4.513   3.599
 1656SOL    HW1 5867   1.369   4.501   3.508
 1656SOL    HW2 5868   1.335   4.609   3.626
 1657SOL     OW 5869   1.114   1.180   5.713
 1657SOL    HW1 5870   1.125   1.089   5.752
 1657SOL    HW2 5871   1.061   1.237   5.777
 1658SOL     OW 5872   5.892   6.396   3.134
 1658SOL    HW1 5873   5.959   6.407   3.060
 1658SOL    HW2 5874   5.875   6.298   3.149
 1659SOL     OW 5875   3.342   2.003   6.811
 1659SOL    HW1 5876   3.399   1.921   6.808
 1659SOL    HW2 5877   3.398   2.082   6.833
 1660SOL     OW 5878   0.726   5.397   3.797
 1660SOL    HW1 5879   0.805   5.377   3.856
 1660SOL    HW2 5880   0.730   5.339   3.716
 1661SOL     OW 5881   3.398   1.763   2.611
 1661SOL    HW1 5882   3.432   1.669   2.622
 1661SOL    HW2 5883   3.301   1.760   2.585
 1662SOL     OW 5884   6.532   2.112   3.483
 1662SOL    HW1 5885   6.465   2.134   3.411
 1662SOL    HW2 5886   6.580   2.028   3.458
 1663SOL     OW 5887   3.043   0.070   3.285
 1663SOL    HW1 5888   3.058   6.998   3.271
 1663SOL    HW2 5889   3.086   0.098   3.371
 1664SOL     OW 5890   1.820   0.323   4.178
 1664SOL    HW1 5891   1.858   0.412   4.152
 1664SOL    HW2 5892   1.880   0.250   4.146
 1665SOL     OW 5893   0.440   1.610   2.632
 1665SOL    HW1 5894   0.535   1.640   2.640
 1665SOL    HW2 5895   0.426   1.528   2.688
 1666SOL     OW 5896   5.877   2.922   6.526
 1666SOL    HW1 5897   5.911   3.015   6.537
 1666SOL    HW2 5898   5.952   2.862   6.497
 1667SOL     OW 5899   6.103   6.459   6.909
 1667SOL    HW1 5900   6.189   6.507   6.893
 1667SOL    HW2 5901   6.046   6.464   6.826
 1668SOL     OW 5902   4.582   0.168   4.785
 1668SOL    HW1 5903   4.582   0.125   4.875
 1668SOL    HW2 5904   4.605   0.099   4.716
 1669SOL     OW 5905   5.853   6.102   0.215
 1669SOL    HW1 5906   5.821   6.041   0.143
 1669SOL    HW2 5907   5.942   6.140   0.190
 1670SOL     OW 5908   6.334   5.290   6.046
 1670SOL    HW1 5909   6.241   5.260   6.068
 1670SOL    HW2 5910   6.380   5.220   5.991
 1671SOL     OW 5911   4.416   3.094   1.131
 1671SOL    HW1 5912   4.484   3.070   1.063
 1671SOL    HW2 5913   4.457   3.152   1.201
 1672SOL     OW 5914   1.920   4.216   2.347
 1672SOL    HW1 5915   1.870   4.183   2.427
 1672SOL    HW2 5916   1.855   4.248   2.279
 1673SOL     OW 5917   6.105   3.048   5.303
 1673SOL    HW1 5918   6.186   3.040   5.246
 1673SOL    HW2 5919   6.025   3.018   5.252
 1674SOL     OW 5920   1.430   4.221   0.931
 1674SOL    HW1 5921   1.474   4.182   0.850
 1674SOL    HW2 5922   1.338   4.184   0.941
 1675SOL     OW 5923   4.825   1.298   6.439
 1675SOL    HW1 5924   4.845   1.368   6.369
 1675SOL    HW2 5925   4.727   1.295   6.456
 1676SOL     OW 5926   2.330   1.646   2.426
 1676SOL    HW1 5927   2.313   1.548   2.422
 1676SOL    HW2 5928   2.262   1.690   2.485
 1677SOL     OW 5929   5.867   2.101   5.829
 1677SOL    HW1 5930   5.886   2.082   5.925
 1677SOL    HW2 5931   5.777   2.144   5.821
 1678SOL     OW 5932   5.520   5.643   2.869
 1678SOL    HW1 5933   5.519   5.669   2.966
 1678SOL    HW2 5934   5.602   5.678   2.825
 1679SOL     OW 5935   1.284   3.374   5.463
 1679SOL    HW1 5936   1.379   3.362   5.434
 1679SOL    HW2 5937   1.270   3.468   5.495
 1680SOL     OW 5938   0.731   1.607   3.996
 1680SOL    HW1 5939   0.775   1.530   4.044
 1680SOL    HW2 5940   0.801   1.660   3.948
 1681SOL     OW 5941   6.443   5.137   1.277
 1681SOL    HW1 5942   6.463   5.235   1.277
 1681SOL    HW2 5943   6.407   5.110   1.188
 1682SOL     OW 5944   0.003   3.154   4.953
 1682SOL    HW1 5945   6.986   3.064   4.953
 1682SOL    HW2 5946   0.102   3.145   4.954
 1683SOL     OW 5947   4.462   5.139   1.130
 1683SOL    HW1 5948   4.551   5.096   1.117
 1683SOL    HW2 5949   4.457   5.224   1.076
 1684SOL     OW 5950   0.571   6.657   4.578
 1684SOL    HW1 5951   0.604   6.571   4.539
 1684SOL    HW2 5952   0.501   6.638   4.646
 1685SOL     OW 5953   1.693   1.618   6.737
 1685SOL    HW1 5954   1.688   1.718   6.737
 1685SOL    HW2 5955   1.784   1.590   6.706
 1686SOL     OW 5956   1.318   5.352   5.265
 1686SOL    HW1 5957   1.361   5.430   5.311
 1686SOL    HW2 5958   1.389   5.290   5.231
 1687SOL     OW 5959   1.592   4.504   2.014
 1687SOL    HW1 5960   1.671   4.564   2.002
 1687SOL    HW2 5961   1.611   4.415   1.972
 1688SOL     OW 5962   1.180   1.570   2.947
 1688SOL    HW1 5963   1.163   1.657   2.901
 1688SOL    HW2 5964   1.189   1.586   3.045
 1689SOL     OW 5965   3.215   1.906   1.974
 1689SOL    HW1 5966   3.300   1.953   1.950
 1689SOL    HW2 5967   3.176   1.863   1.893
 1690SOL     OW 5968   1.579   1.896   2.172
 1690SOL    HW1 5969   1.568   1.855   2.263
 1690SOL    HW2 5970   1.561   1.995   2.179
 1691SOL     OW 5971   5.407   3.604   3.395
 1691SOL    HW1 5972   5.373   3.545   3.322
 1691SOL    HW2 5973   5.424   3.696   3.358
 1692SOL     OW 5974   6.967   6.980   1.425
 1692SOL    HW1 5975   0.033   6.979   1.464
 1692SOL    HW2 5976   6.901   6.956   1.496
 1693SOL     OW 5977   2.039   2.981   3.653
 1693SOL    HW1 5978   2.076   2.895   3.617
 1693SOL    HW2 5979   2.070   3.057   3.596
 1694SOL     OW 5980   4.228   5.817   4.765
 1694SOL    HW1 5981   4.153   5.881   4.782
 1694SOL    HW2 5982   4.295   5.823   4.839
 1695SOL     OW 5983   2.145   2.261   5.462
 1695SOL    HW1 5984   2.092   2.338   5.496
 1695SOL    HW2 5985   2.171   2.202   5.538
 1696SOL     OW 5986   4.966   5.748   0.192
 1696SOL    HW1 5987   4.984   5.795   0.105
 1696SOL    HW2 5988   4.928   5.813   0.257
 1697SOL     OW 5989   1.025   6.945   1.538
 1697SOL    HW1 5990   1.102   7.005   1.518
 1697SOL    HW2 5991   1.054   6.850   1.534
 1698SOL     OW 5992   5.079   2.004   1.311
 1698SOL    HW1 5993   5.005   1.980   1.374
 1698SOL    HW2 5994   5.058   1.968   1.220
 1699SOL     OW 5995   2.475   2.862   1.162
 1699SOL    HW1 5996   2.437   2.857   1.254
 1699SOL    HW2 5997   2.541   2.937   1.156
 1700SOL     OW 5998   6.555   2.313   3.203
 1700SOL    HW1 5999   6.460   2.281   3.207
 1700SOL    HW2 6000   6.616   2.234   3.201
 1701SOL     OW 6001   5.474   2.277   4.731
 1701SOL    HW1 6002   5.492   2.287   4.829
 1701SOL    HW2 6003   5.555   2.239   4.686
 1702SOL     OW 6004   6.280   3.696   1.469
 1702SOL    HW1 6005   6.196   3.661   1.510
 1702SOL    HW2 6006   6.335   3.741   1.540
 1703SOL     OW 6007   3.026   3.939   1.436
 1703SOL    HW1 6008   3.045   3.926   1.339
 1703SOL    HW2 6009   2.981   3.857   1.472
 1704SOL     OW 6010   0.880   1.271   0.972
 1704SOL    HW1 6011   0.852   1.256   0.878
 1704SOL    HW2 6012   0.978   1.292   0.975
 1705SOL     OW 6013   3.716   2.373   1.401
 1705SOL    HW1 6014   3.692   2.470   1.392
 1705SOL    HW2 6015   3.700   2.327   1.313
 1706SOL     OW 6016   4.171   0.586   0.777
 1706SOL    HW1 6017   4.165   0.595   0.677
 1706SOL    HW2 6018   4.130   0.667   0.820
 1707SOL     OW 6019   4.453   1.756   2.650
 1707SOL    HW1 6020   4.532   1.715   2.697
 1707SOL    HW2 6021   4.454   1.855   2.664
 1708SOL     OW 6022   6.613   6.413   3.011
 1708SOL    HW1 6023   6.704   6.446   2.987
 1708SOL    HW2 6024   6.546   6.451   2.948
 1709SOL     OW 6025   2.438   6.966   2.345
 1709SOL    HW1 6026   2.491   6.939   2.264
 1709SOL    HW2 6027   2.385   0.022   2.325
 1710SOL     OW 6028   0.119   4.237   3.557
 1710SOL    HW1 6029   0.074   4.216   3.470
 1710SOL    HW2 6030   0.050   4.266   3.624
 1711SOL     OW 6031   1.203   4.619   5.011
 1711SOL    HW1 6032   1.227   4.578   4.923
 1711SOL    HW2 6033   1.253   4.574   5.084
 1712SOL     OW 6034   0.613   4.173   0.187
 1712SOL    HW1 6035   0.534   4.216   0.143
 1712SOL    HW2 6036   0.594   4.160   0.284
 1713SOL     OW 6037   2.017   2.446   1.646
 1713SOL    HW1 6038   2.016   2.539   1.610
 1713SOL    HW2 6039   1.940   2.394   1.607
 1714SOL     OW 6040   3.923   1.792   6.834
 1714SOL    HW1 6041   3.982   1.842   6.772
 1714SOL    HW2 6042   3.978   1.733   6.893
 1715SOL     OW 6043   0.130   3.055   3.478
 1715SOL    HW1 6044   0.084   2.976   3.519
 1715SOL    HW2 6045   0.089   3.074   3.388
 1716SOL     OW 6046   6.136   0.324   1.355
 1716SOL    HW1 6047   6.143   0.400   1.291
 1716SOL    HW2 6048   6.151   0.357   1.449
 1717SOL     OW 6049   2.296   6.015   0.088
 1717SOL    HW1 6050   2.246   6.073   0.152
 1717SOL    HW2 6051   2.319   6.068   0.006
 1718SOL     OW 6052   2.144   3.543   0.225
 1718SOL    HW1 6053   2.230   3.496   0.208
 1718SOL    HW2 6054   2.073   3.506   0.166
 1719SOL     OW 6055   2.176   3.163   1.418
 1719SOL    HW1 6056   2.192   3.197   1.325
 1719SOL    HW2 6057   2.116   3.226   1.467
 1720SOL     OW 6058   6.736   1.840   0.740
 1720SOL    HW1 6059   6.740   1.744   0.769
 1720SOL    HW2 6060   6.776   1.848   0.649
 1721SOL     OW 6061   1.594   6.066   2.830
 1721SOL    HW1 6062   1.562   6.135   2.894
 1721SOL    HW2 6063   1.577   6.097   2.737
 1722SOL     OW 6064   5.868   0.255   2.621
 1722SOL    HW1 6065   5.845   0.187   2.690
 1722SOL    HW2 6066   5.790   0.314   2.605
 1723SOL     OW 6067   6.384   2.159   2.914
 1723SOL    HW1 6068   6.385   2.089   2.985
 1723SOL    HW2 6069   6.438   2.128   2.836
 1724SOL     OW 6070   6.128   0.875   0.573
 1724SOL    HW1 6071   6.071   0.944   0.618
 1724SOL    HW2 6072   6.165   0.812   0.642
 1725SOL     OW 6073   3.791   4.437   0.335
 1725SOL    HW1 6074   3.846   4.374   0.280
 1725SOL    HW2 6075   3.819   4.531   0.316
 1726SOL     OW 6076   6.521   4.650   4.531
 1726SOL    HW1 6077   6.597   4.705   4.566
 1726SOL    HW2 6078   6.479   4.697   4.454
 1727SOL     OW 6079   3.974   3.821   4.735
 1727SOL    HW1 6080   4.036   3.844   4.660
 1727SOL    HW2 6081   3.960   3.722   4.738
 1728SOL     OW 6082   4.995   4.480   4.473
 1728SOL    HW1 6083   5.082   4.510   4.511
 1728SOL    HW2 6084   5.011   4.427   4.390
 1729SOL     OW 6085   1.622   3.677   3.149
 1729SOL    HW1 6086   1.696   3.677   3.082
 1729SOL    HW2 6087   1.567   3.594   3.138
 1730SOL     OW 6088   6.657   1.369   4.886
 1730SOL    HW1 6089   6.676   1.379   4.788
 1730SOL    HW2 6090   6.683   1.277   4.915
 1731SOL     OW 6091   2.013   5.065   1.822
 1731SOL    HW1 6092   2.060   5.003   1.759
 1731SOL    HW2 6093   2.075   5.138   1.850
 1732SOL     OW 6094   2.017   4.788   0.143
 1732SOL    HW1 6095   2.112   4.784   0.112
 1732SOL    HW2 6096   1.959   4.736   0.080
 1733SOL     OW 6097   1.019   3.761   2.114
 1733SOL    HW1 6098   0.943   3.752   2.051
 1733SOL    HW2 6099   1.007   3.844   2.169
 1734SOL     OW 6100   4.138   3.026   1.233
 1734SOL    HW1 6101   4.230   2.995   1.257
 1734SOL    HW2 6102   4.071   2.967   1.277
 1735SOL     OW 6103   6.148   5.679   1.723
 1735SOL    HW1 6104   6.145   5.734   1.807
 1735SOL    HW2 6105   6.062   5.631   1.711
 1736SOL     OW 6106   4.598   3.005   6.946
 1736SOL    HW1 6107   4.650   3.061   6.882
 1736SOL    HW2 6108   4.661   2.967   7.014
 1737SOL     OW 6109   2.285   0.358   3.714
 1737SOL    HW1 6110   2.291   0.457   3.708
 1737SOL    HW2 6111   2.363   0.323   3.766
 1738SOL     OW 6112   2.034   2.597   2.671
 1738SOL    HW1 6113   1.961   2.660   2.645
 1738SOL    HW2 6114   2.120   2.647   2.679
 1739SOL     OW 6115   4.439   2.348   4.964
 1739SOL    HW1 6116   4.491   2.344   5.049
 1739SOL    HW2 6117   4.347   2.383   4.983
 1740SOL     OW 6118   0.112   0.984   6.564
 1740SOL    HW1 6119   0.109   1.082   6.585
 1740SOL    HW2 6120   0.054   0.934   6.629
 1741SOL     OW 6121   2.292   0.866   2.656
 1741SOL    HW1 6122   2.350   0.787   2.633
 1741SOL    HW2 6123   2.315   0.899   2.747
 1742SOL     OW 6124   4.850   6.668   6.066
 1742SOL    HW1 6125   4.788   6.725   6.121
 1742SOL    HW2 6126   4.838   6.691   5.969
 1743SOL     OW 6127   2.241   0.926   2.045
 1743SOL    HW1 6128   2.268   0.944   1.950
 1743SOL    HW2 6129   2.231   1.013   2.094
 1744SOL     OW 6130   2.258   0.557   1.265
 1744SOL    HW1 6131   2.178   0.581   1.321
 1744SOL    HW2 6132   2.325   0.631   1.270
 1745SOL     OW 6133   6.738   1.636   4.164
 1745SOL    HW1 6134   6.778   1.637   4.256
 1745SOL    HW2 6135   6.638   1.642   4.172
 1746SOL     OW 6136   2.914   5.804   6.022
 1746SOL    HW1 6137   2.945   5.795   5.927
 1746SOL    HW2 6138   2.916   5.715   6.066
 1747SOL     OW 6139   5.002   6.976   2.064
 1747SOL    HW1 6140   4.977   6.897   2.008
 1747SOL    HW2 6141   4.937   0.025   2.048
 1748SOL     OW 6142   5.989   1.695   3.850
 1748SOL    HW1 6143   5.960   1.708   3.756
 1748SOL    HW2 6144   6.065   1.631   3.853
 1749SOL     OW 6145   3.765   0.051   6.418
 1749SOL    HW1 6146   3.804   0.031   6.508
 1749SOL    HW2 6147   3.680   0.103   6.430
 1750SOL     OW 6148   5.492   1.114   3.115
 1750SOL    HW1 6149   5.571   1.159   3.157
 1750SOL    HW2 6150   5.519   1.068   3.031
 1751SOL     OW 6151   2.441   4.775   4.927
 1751SOL    HW1 6152   2.442   4.700   4.993
 1751SOL    HW2 6153   2.533   4.789   4.890
 1752SOL     OW 6154   6.364   1.978   0.692
 1752SOL    HW1 6155   6.374   1.987   0.593
 1752SOL    HW2 6156   6.269   1.957   0.714
 1753SOL     OW 6157   0.836   0.186   0.028
 1753SOL    HW1 6158   0.905   0.175   0.100
 1753SOL    HW2 6159   0.878   0.167   6.965
 1754SOL     OW 6160   3.570   3.960   0.398
 1754SOL    HW1 6161   3.646   3.902   0.369
 1754SOL    HW2 6162   3.558   3.952   0.497
 1755SOL     OW 6163   5.397   4.605   1.702
 1755SOL    HW1 6164   5.348   4.537   1.757
 1755SOL    HW2 6165   5.480   4.633   1.750
 1756SOL     OW 6166   5.909   4.853   4.186
 1756SOL    HW1 6167   5.934   4.944   4.154
 1756SOL    HW2 6168   5.988   4.792   4.177
 1757SOL     OW 6169   1.781   6.547   4.891
 1757SOL    HW1 6170   1.867   6.495   4.886
 1757SOL    HW2 6171   1.786   6.627   4.831
 1758SOL     OW 6172   3.129   1.391   3.144
 1758SOL    HW1 6173   3.168   1.355   3.229
 1758SOL    HW2 6174   3.163   1.484   3.129
 1759SOL     OW 6175   0.667   4.782   6.316
 1759SOL    HW1 6176   0.721   4.724   6.376
 1759SOL    HW2 6177   0.675   4.877   6.345
 1760SOL     OW 6178   6.405   1.774   1.416
 1760SOL    HW1 6179   6.344   1.698   1.394
 1760SOL    HW2 6180   6.429   1.823   1.332
 1761SOL     OW 6181   6.816   0.952   0.536
 1761SOL    HW1 6182   6.801   0.901   0.451
 1761SOL    HW2 6183   6.881   1.026   0.519
 1762SOL     OW 6184   6.214   1.980   5.242
 1762SOL    HW1 6185   6.278   1.903   5.246
 1762SOL    HW2 6186   6.254   2.059   5.288
 1763SOL     OW 6187   2.043   3.895   4.290
 1763SOL    HW1 6188   2.021   3.818   4.230
 1763SOL    HW2 6189   2.115   3.951   4.248
 1764SOL     OW 6190   2.066   3.756   3.041
 1764SOL    HW1 6191   2.090   3.661   3.056
 1764SOL    HW2 6192   2.009   3.788   3.117
 1765SOL     OW 6193   2.785   1.323   6.984
 1765SOL    HW1 6194   2.877   1.355   7.007
 1765SOL    HW2 6195   2.756   1.368   6.899
 1766SOL     OW 6196   5.638   3.179   4.968
 1766SOL    HW1 6197   5.675   3.132   4.888
 1766SOL    HW2 6198   5.541   3.155   4.978
 1767SOL     OW 6199   5.123   3.958   2.712
 1767SOL    HW1 6200   5.036   3.913   2.691
 1767SOL    HW2 6201   5.192   3.929   2.646
 1768SOL     OW 6202   4.730   0.328   4.583
 1768SOL    HW1 6203   4.685   0.290   4.663
 1768SOL    HW2 6204   4.703   0.276   4.502
 1769SOL     OW 6205   3.928   2.174   4.305
 1769SOL    HW1 6206   3.963   2.080   4.309
 1769SOL    HW2 6207   4.000   2.238   4.332
 1770SOL     OW 6208   1.726   5.405   4.614
 1770SOL    HW1 6209   1.754   5.501   4.618
 1770SOL    HW2 6210   1.772   5.360   4.537
 1771SOL     OW 6211   2.597   5.840   6.999
 1771SOL    HW1 6212   2.547   5.795   6.924
 1771SOL    HW2 6213   2.694   5.845   6.975
 1772SOL     OW 6214   3.582   0.117   3.846
 1772SOL    HW1 6215   3.587   0.213   3.819
 1772SOL    HW2 6216   3.673   0.086   3.875
 1773SOL     OW 6217   2.527   5.012   5.802
 1773SOL    HW1 6218   2.551   5.077   5.730
 1773SOL    HW2 6219   2.431   4.985   5.792
 1774SOL     OW 6220   4.370   5.429   2.062
 1774SOL    HW1 6221   4.331   5.500   2.120
 1774SOL    HW2 6222   4.453   5.393   2.103
 1775SOL     OW 6223   1.073   3.675   2.687
 1775SOL    HW1 6224   1.142   3.720   2.744
 1775SOL    HW2 6225   1.117   3.606   2.629
 1776SOL     OW 6226   3.889   6.438   4.435
 1776SOL    HW1 6227   3.971   6.381   4.426
 1776SOL    HW2 6228   3.817   6.403   4.375
 1777SOL     OW 6229   4.031   5.587   6.535
 1777SOL    HW1 6230   4.117   5.631   6.560
 1777SOL    HW2 6231   3.956   5.654   6.540
 1778SOL     OW 6232   4.519   3.571   5.645
 1778SOL    HW1 6233   4.541   3.573   5.547
 1778SOL    HW2 6234   4.552   3.486   5.685
 1779SOL     OW 6235   4.201   0.191   4.365
 1779SOL    HW1 6236   4.151   0.119   4.413
 1779SOL    HW2 6237   4.279   0.219   4.420
 1780SOL     OW 6238   3.606   2.994   0.028
 1780SOL    HW1 6239   3.561   2.907   0.044
 1780SOL    HW2 6240   3.666   3.015   0.105
 1781SOL     OW 6241   3.732   6.357   2.605
 1781SOL    HW1 6242   3.732   6.361   2.505
 1781SOL    HW2 6243   3.700   6.267   2.634
 1782SOL     OW 6244   2.970   1.583   2.983
 1782SOL    HW1 6245   3.033   1.645   2.937
 1782SOL    HW2 6246   2.890   1.567   2.925
 1783SOL     OW 6247   2.113   5.509   5.877
 1783SOL    HW1 6248   2.145   5.581   5.939
 1783SOL    HW2 6249   2.173   5.430   5.885
 1784SOL     OW 6250   4.450   0.961   6.537
 1784SOL    HW1 6251   4.432   1.035   6.602
 1784SOL    HW2 6252   4.364   0.914   6.515
 1785SOL     OW 6253   5.980   3.728   3.004
 1785SOL    HW1 6254   6.002   3.683   2.917
 1785SOL    HW2 6255   5.881   3.730   3.016
 1786SOL     OW 6256   2.283   2.932   0.094
 1786SOL    HW1 6257   2.212   2.872   0.058
 1786SOL    HW2 6258   2.246   3.024   0.106
 1787SOL     OW 6259   2.614   1.355   4.984
 1787SOL    HW1 6260   2.698   1.401   5.015
 1787SOL    HW2 6261   2.577   1.300   5.060
 1788SOL     OW 6262   2.640   3.736   6.329
 1788SOL    HW1 6263   2.661   3.828   6.294
 1788SOL    HW2 6264   2.655   3.735   6.428
 1789SOL     OW 6265   5.869   1.764   2.234
 1789SOL    HW1 6266   5.818   1.697   2.181
 1789SOL    HW2 6267   5.947   1.797   2.181
 1790SOL     OW 6268   3.947   6.382   3.785
 1790SOL    HW1 6269   3.962   6.471   3.829
 1790SOL    HW2 6270   3.892   6.394   3.702
 1791SOL     OW 6271   6.491   0.557   3.527
 1791SOL    HW1 6272   6.539   0.524   3.446
 1791SOL    HW2 6273   6.533   0.641   3.559
 1792SOL     OW 6274   6.337   3.295   5.139
 1792SOL    HW1 6275   6.410   3.227   5.136
 1792SOL    HW2 6276   6.344   3.348   5.223
 1793SOL     OW 6277   5.942   6.906   3.959
 1793SOL    HW1 6278   5.977   6.869   4.045
 1793SOL    HW2 6279   5.842   6.913   3.964
 1794SOL     OW 6280   5.315   6.300   5.623
 1794SOL    HW1 6281   5.235   6.288   5.564
 1794SOL    HW2 6282   5.396   6.260   5.579
 1795SOL     OW 6283   1.140   2.300   1.332
 1795SOL    HW1 6284   1.177   2.377   1.280
 1795SOL    HW2 6285   1.041   2.296   1.319
 1796SOL     OW 6286   2.559   0.586   5.601
 1796SOL    HW1 6287   2.651   0.624   5.606
 1796SOL    HW2 6288   2.535   0.545   5.690
 1797SOL     OW 6289   1.606   7.017   0.361
 1797SOL    HW1 6290   1.592   0.086   0.332
 1797SOL    HW2 6291   1.670   6.973   0.298
 1798SOL     OW 6292   4.492   2.542   3.826
 1798SOL    HW1 6293   4.527   2.602   3.754
 1798SOL    HW2 6294   4.557   2.539   3.902
 1799SOL     OW 6295   6.986   2.788   5.339
 1799SOL    HW1 6296   0.010   2.875   5.334
 1799SOL    HW2 6297   6.947   2.777   5.431
 1800SOL     OW 6298   3.990   4.490   1.410
 1800SOL    HW1 6299   4.079   4.444   1.409
 1800SOL    HW2 6300   4.003   4.588   1.422
 1801SOL     OW 6301   0.223   0.160   1.671
 1801SOL    HW1 6302   0.228   0.074   1.621
 1801SOL    HW2 6303   0.148   0.215   1.636
 1802SOL     OW 6304   5.168   5.759   4.401
 1802SOL    HW1 6305   5.202   5.809   4.481
 1802SOL    HW2 6306   5.208   5.668   4.398
 1803SOL     OW 6307   0.319   5.423   6.701
 1803SOL    HW1 6308   0.385   5.466   6.761
 1803SOL    HW2 6309   0.325   5.463   6.609
 1804SOL     OW 6310   2.173   3.960   5.267
 1804SOL    HW1 6311   2.210   3.955   5.360
 1804SOL    HW2 6312   2.246   3.985   5.204
 1805SOL     OW 6313   5.492   3.923   6.256
 1805SOL    HW1 6314   5.525   3.954   6.345
 1805SOL    HW2 6315   5.394   3.906   6.261
 1806SOL     OW 6316   0.470   0.101   6.726
 1806SOL    HW1 6317   0.515   0.179   6.770
 1806SOL    HW2 6318   0.530   0.021   6.732
 1807SOL     OW 6319   5.360   2.755   4.593
 1807SOL    HW1 6320   5.395   2.684   4.655
 1807SOL    HW2 6321   5.393   2.844   4.623
 1808SOL     OW 6322   0.465   4.267   5.458
 1808SOL    HW1 6323   0.418   4.183   5.431
 1808SOL    HW2 6324   0.450   4.284   5.555
 1809SOL     OW 6325   2.408   2.406   4.976
 1809SOL    HW1 6326   2.455   2.359   5.050
 1809SOL    HW2 6327   2.474   2.455   4.920
 1810SOL     OW 6328   2.622   6.835   3.983
 1810SOL    HW1 6329   2.529   6.860   3.955
 1810SOL    HW2 6330   2.686   6.854   3.907
 1811SOL     OW 6331   5.661   6.016   3.105
 1811SOL    HW1 6332   5.746   6.068   3.112
 1811SOL    HW2 6333   5.622   6.003   3.196
 1812SOL     OW 6334   3.874   6.026   4.759
 1812SOL    HW1 6335   3.965   6.021   4.800
 1812SOL    HW2 6336   3.805   6.018   4.830
 1813SOL     OW 6337   6.240   4.415   0.777
 1813SOL    HW1 6338   6.163   4.351   0.773
 1813SOL    HW2 6339   6.272   4.436   0.685
 1814SOL     OW 6340   5.256   6.932   2.150
 1814SOL    HW1 6341   5.321   6.930   2.074
 1814SOL    HW2 6342   5.164   6.951   2.116
 1815SOL     OW 6343   0.586   2.139   2.039
 1815SOL    HW1 6344   0.651   2.068   2.064
 1815SOL    HW2 6345   0.517   2.101   1.978
 1816SOL     OW 6346   2.908   3.415   0.941
 1816SOL    HW1 6347   2.826   3.428   0.886
 1816SOL    HW2 6348   2.988   3.414   0.881
 1817SOL     OW 6349   2.551   6.863   2.125
 1817SOL    HW1 6350   2.508   6.861   2.035
 1817SOL    HW2 6351   2.650   6.874   2.115
 1818SOL     OW 6352   1.519   0.051   2.985
 1818SOL    HW1 6353   1.534   0.082   3.078
 1818SOL    HW2 6354   1.586   0.095   2.924
 1819SOL     OW 6355   0.653   4.321   2.075
 1819SOL    HW1 6356   0.628   4.224   2.085
 1819SOL    HW2 6357   0.653   4.344   1.977
 1820SOL     OW 6358   3.991   1.136   3.050
 1820SOL    HW1 6359   4.083   1.149   3.087
 1820SOL    HW2 6360   3.984   1.183   2.962
 1821SOL     OW 6361   1.480   1.686   2.351
 1821SOL    HW1 6362   1.407   1.669   2.284
 1821SOL    HW2 6363   1.543   1.608   2.352
 1822SOL     OW 6364   3.471   2.527   1.139
 1822SOL    HW1 6365   3.470   2.619   1.178
 1822SOL    HW2 6366   3.388   2.478   1.165
 1823SOL     OW 6367   3.523   6.225   3.588
 1823SOL    HW1 6368   3.586   6.243   3.512
 1823SOL    HW2 6369   3.464   6.148   3.564
 1824SOL     OW 6370   3.984   2.503   1.171
 1824SOL    HW1 6371   4.070   2.535   1.208
 1824SOL    HW2 6372   3.911   2.568   1.193
 1825SOL     OW 6373   1.139   0.404   2.579
 1825SOL    HW1 6374   1.057   0.454   2.550
 1825SOL    HW2 6375   1.171   0.441   2.666
 1826SOL     OW 6376   3.032   1.539   1.221
 1826SOL    HW1 6377   2.943   1.562   1.180
 1826SOL    HW2 6378   3.017   1.497   1.310
 1827SOL     OW 6379   0.248   4.878   2.221
 1827SOL    HW1 6380   0.201   4.790   2.231
 1827SOL    HW2 6381   0.346   4.863   2.210
 1828SOL     OW 6382   0.262   2.721   7.003
 1828SOL    HW1 6383   0.253   2.631   6.959
 1828SOL    HW2 6384   0.174   2.768   7.001
 1829SOL     OW 6385   4.966   0.197   2.999
 1829SOL    HW1 6386   4.963   0.103   2.964
 1829SOL    HW2 6387   4.875   0.237   2.993
 1830SOL     OW 6388   5.425   5.975   3.613
 1830SOL    HW1 6389   5.503   5.967   3.550
 1830SOL    HW2 6390   5.425   5.897   3.676
 1831SOL     OW 6391   5.851   6.529   2.789
 1831SOL    HW1 6392   5.751   6.524   2.793
 1831SOL    HW2 6393   5.883   6.602   2.850
 1832SOL     OW 6394   5.453   1.908   1.217
 1832SOL    HW1 6395   5.483   1.890   1.310
 1832SOL    HW2 6396   5.409   1.998   1.213
 1833SOL     OW 6397   5.478   0.508   4.522
 1833SOL    HW1 6398   5.554   0.472   4.577
 1833SOL    HW2 6399   5.413   0.434   4.504
 1834SOL     OW 6400   3.391   4.096   0.229
 1834SOL    HW1 6401   3.440   4.156   0.167
 1834SOL    HW2 6402   3.456   4.046   0.286
 1835SOL     OW 6403   0.976   4.237   1.669
 1835SOL    HW1 6404   0.881   4.251   1.643
 1835SOL    HW2 6405   0.981   4.212   1.766
 1836SOL     OW 6406   0.141   2.281   1.055
 1836SOL    HW1 6407   0.162   2.331   1.139
 1836SOL    HW2 6408   0.200   2.314   0.981
 1837SOL     OW 6409   0.367   1.712   4.185
 1837SOL    HW1 6410   0.429   1.698   4.262
 1837SOL    HW2 6411   0.310   1.631   4.173
 1838SOL     OW 6412   0.443   1.752   3.925
 1838SOL    HW1 6413   0.534   1.710   3.921
 1838SOL    HW2 6414   0.409   1.747   4.019
 1839SOL     OW 6415   4.958   2.485   4.999
 1839SOL    HW1 6416   4.953   2.458   5.096
 1839SOL    HW2 6417   4.924   2.411   4.942
 1840SOL     OW 6418   2.819   6.176   1.832
 1840SOL    HW1 6419   2.829   6.232   1.914
 1840SOL    HW2 6420   2.863   6.087   1.847
 1841SOL     OW 6421   1.891   3.624   4.472
 1841SOL    HW1 6422   1.856   3.634   4.379
 1841SOL    HW2 6423   1.840   3.553   4.519
 1842SOL     OW 6424   0.348   5.377   0.977
 1842SOL    HW1 6425   0.285   5.326   0.919
 1842SOL    HW2 6426   0.360   5.328   1.064
 1843SOL     OW 6427   1.568   2.427   4.768
 1843SOL    HW1 6428   1.649   2.399   4.716
 1843SOL    HW2 6429   1.592   2.505   4.826
 1844SOL     OW 6430   3.966   1.577   5.111
 1844SOL    HW1 6431   4.049   1.604   5.063
 1844SOL    HW2 6432   3.888   1.581   5.049
 1845SOL     OW 6433   2.466   0.199   6.691
 1845SOL    HW1 6434   2.510   0.279   6.650
 1845SOL    HW2 6435   2.530   0.123   6.692
 1846SOL     OW 6436   4.094   2.006   6.702
 1846SOL    HW1 6437   4.156   2.034   6.776
 1846SOL    HW2 6438   4.139   1.936   6.646
 1847SOL     OW 6439   1.256   0.753   6.514
 1847SOL    HW1 6440   1.261   0.853   6.509
 1847SOL    HW2 6441   1.178   0.720   6.462
 1848SOL     OW 6442   2.081   5.718   2.660
 1848SOL    HW1 6443   2.077   5.628   2.703
 1848SOL    HW2 6444   2.011   5.777   2.700
 1849SOL     OW 6445   4.158   1.010   0.774
 1849SOL    HW1 6446   4.096   1.032   0.849
 1849SOL    HW2 6447   4.106   0.991   0.691
 1850SOL     OW 6448   6.113   1.721   2.935
 1850SOL    HW1 6449   6.015   1.733   2.949
 1850SOL    HW2 6450   6.163   1.797   2.977
 1851SOL     OW 6451   0.693   1.520   0.980
 1851SOL    HW1 6452   0.775   1.476   0.942
 1851SOL    HW2 6453   0.635   1.451   1.022
 1852SOL     OW 6454   4.668   3.737   0.846
 1852SOL    HW1 6455   4.663   3.797   0.766
 1852SOL    HW2 6456   4.607   3.771   0.917
 1853SOL     OW 6457   0.691   3.412   1.805
 1853SOL    HW1 6458   0.646   3.340   1.752
 1853SOL    HW2 6459   0.699   3.384   1.900
 1854SOL     OW 6460   2.786   5.798   4.292
 1854SOL    HW1 6461   2.738   5.770   4.375
 1854SOL    HW2 6462   2.747   5.751   4.213
 1855SOL     OW 6463   4.727   4.739   0.264
 1855SOL    HW1 6464   4.806   4.705   0.212
 1855SOL    HW2 6465   4.712   4.680   0.343
 1856SOL     OW 6466   6.181   2.943   5.765
 1856SOL    HW1 6467   6.191   3.030   5.813
 1856SOL    HW2 6468   6.121   2.883   5.818
 1857SOL     OW 6469   4.451   1.151   5.143
 1857SOL    HW1 6470   4.364   1.108   5.119
 1857SOL    HW2 6471   4.471   1.134   5.240
 1858SOL     OW 6472   5.840   3.122   3.699
 1858SOL    HW1 6473   5.803   3.072   3.778
 1858SOL    HW2 6474   5.856   3.058   3.624
 1859SOL     OW 6475   4.089   2.174   3.876
 1859SOL    HW1 6476   4.103   2.095   3.816
 1859SOL    HW2 6477   4.152   2.247   3.849
 1860SOL     OW 6478   6.775   1.308   3.867
 1860SOL    HW1 6479   6.713   1.288   3.943
 1860SOL    HW2 6480   6.847   1.371   3.897
 1861SOL     OW 6481   4.664   6.386   2.156
 1861SOL    HW1 6482   4.636   6.428   2.070
 1861SOL    HW2 6483   4.743   6.435   2.193
 1862SOL     OW 6484   2.052   6.906   0.189
 1862SOL    HW1 6485   2.048   6.852   0.272
 1862SOL    HW2 6486   2.103   6.856   0.119
 1863SOL     OW 6487   2.687   3.030   0.434
 1863SOL    HW1 6488   2.654   3.104   0.493
 1863SOL    HW2 6489   2.613   2.997   0.376
 1864SOL     OW 6490   0.871   6.920   5.480
 1864SOL    HW1 6491   0.843   7.006   5.523
 1864SOL    HW2 6492   0.967   6.902   5.499
 1865SOL     OW 6493   3.895   0.609   5.383
 1865SOL    HW1 6494   3.995   0.611   5.386
 1865SOL    HW2 6495   3.860   0.702   5.369
 1866SOL     OW 6496   4.236   4.622   2.034
 1866SOL    HW1 6497   4.325   4.604   1.992
 1866SOL    HW2 6498   4.211   4.546   2.094
 1867SOL     OW 6499   0.728   3.842   0.288
 1867SOL    HW1 6500   0.728   3.824   0.387
 1867SOL    HW2 6501   0.635   3.865   0.259
 1868SOL     OW 6502   5.455   4.627   6.909
 1868SOL    HW1 6503   5.518   4.560   6.871
 1868SOL    HW2 6504   5.389   4.654   6.838
 1869SOL     OW 6505   6.386   1.786   5.262
 1869SOL    HW1 6506   6.416   1.785   5.358
 1869SOL    HW2 6507   6.458   1.747   5.205
 1870SOL     OW 6508   1.862   4.189   5.790
 1870SOL    HW1 6509   1.950   4.236   5.795
 1870SOL    HW2 6510   1.858   4.117   5.860
 1871SOL     OW 6511   1.321   6.885   0.860
 1871SOL    HW1 6512   1.269   6.810   0.822
 1871SOL    HW2 6513   1.401   6.849   0.909
 1872SOL     OW 6514   3.249   4.122   6.815
 1872SOL    HW1 6515   3.219   4.053   6.881
 1872SOL    HW2 6516   3.340   4.099   6.781
 1873SOL     OW 6517   4.286   1.320   5.413
 1873SOL    HW1 6518   4.381   1.287   5.418
 1873SOL    HW2 6519   4.225   1.242   5.404
 1874SOL     OW 6520   2.766   1.632   1.230
 1874SOL    HW1 6521   2.824   1.696   1.281
 1874SOL    HW2 6522   2.758   1.664   1.136
 1875SOL     OW 6523   1.054   0.436   6.813
 1875SOL    HW1 6524   1.068   0.345   6.852
 1875SOL    HW2 6525   0.958   0.461   6.821
 1876SOL     OW 6526   3.425   0.196   5.953
 1876SOL    HW1 6527   3.459   0.107   5.923
 1876SOL    HW2 6528   3.395   0.248   5.874
 1877SOL     OW 6529   0.297   0.204   3.441
 1877SOL    HW1 6530   0.270   0.295   3.409
 1877SOL    HW2 6531   0.380   0.212   3.496
 1878SOL     OW 6532   6.663   1.710   3.907
 1878SOL    HW1 6533   6.710   1.673   3.987
 1878SOL    HW2 6534   6.572   1.668   3.900
 1879SOL     OW 6535   1.214   3.812   4.258
 1879SOL    HW1 6536   1.189   3.721   4.228
 1879SOL    HW2 6537   1.156   3.839   4.336
 1880SOL     OW 6538   0.125   0.878   5.054
 1880SOL    HW1 6539   0.121   0.971   5.018
 1880SOL    HW2 6540   0.186   0.875   5.133
 1881SOL     OW 6541   6.244   2.120   1.899
 1881SOL    HW1 6542   6.241   2.058   1.977
 1881SOL    HW2 6543   6.239   2.068   1.814
 1882SOL     OW 6544   1.393   4.720   6.301
 1882SOL    HW1 6545   1.395   4.729   6.400
 1882SOL    HW2 6546   1.427   4.629   6.275
 1883SOL     OW 6547   6.532   2.062   2.677
 1883SOL    HW1 6548   6.454   2.078   2.617
 1883SOL    HW2 6549   6.616   2.056   2.623
 1884SOL     OW 6550   1.621   1.906   0.938
 1884SOL    HW1 6551   1.642   1.961   0.857
 1884SOL    HW2 6552   1.529   1.927   0.971
 1885SOL     OW 6553   1.567   1.813   5.979
 1885SOL    HW1 6554   1.657   1.829   5.940
 1885SOL    HW2 6555   1.497   1.826   5.909
 1886SOL     OW 6556   2.008   0.336   1.417
 1886SOL    HW1 6557   1.974   0.293   1.333
 1886SOL    HW2 6558   1.996   0.435   1.411
 1887SOL     OW 6559   0.520   5.492   5.596
 1887SOL    HW1 6560   0.469   5.563   5.645
 1887SOL    HW2 6561   0.551   5.528   5.507
 1888SOL     OW 6562   3.071   1.715   6.655
 1888SOL    HW1 6563   3.122   1.768   6.722
 1888SOL    HW2 6564   3.113   1.624   6.646
 1889SOL     OW 6565   0.316   3.342   3.736
 1889SOL    HW1 6566   0.319   3.336   3.836
 1889SOL    HW2 6567   0.292   3.435   3.709
 1890SOL     OW 6568   0.816   5.665   4.355
 1890SOL    HW1 6569   0.909   5.700   4.340
 1890SOL    HW2 6570   0.808   5.573   4.317
 1891SOL     OW 6571   4.260   2.816   1.587
 1891SOL    HW1 6572   4.288   2.910   1.605
 1891SOL    HW2 6573   4.326   2.753   1.630
 1892SOL     OW 6574   0.132   0.416   2.074
 1892SOL    HW1 6575   0.169   0.383   2.161
 1892SOL    HW2 6576   0.099   0.338   2.020
 1893SOL     OW 6577   3.719   2.863   2.104
 1893SOL    HW1 6578   3.767   2.903   2.026
 1893SOL    HW2 6579   3.778   2.865   2.185
 1894SOL     OW 6580   3.530   4.088   4.061
 1894SOL    HW1 6581   3.547   4.059   3.967
 1894SOL    HW2 6582   3.617   4.103   4.108
 1895SOL     OW 6583   4.055   7.020   0.975
 1895SOL    HW1 6584   4.146   0.037   0.976
 1895SOL    HW2 6585   4.064   6.923   0.995
 1896SOL     OW 6586   6.443   1.580   0.539
 1896SOL    HW1 6587   6.412   1.556   0.447
 1896SOL    HW2 6588   6.510   1.512   0.570
 1897SOL     OW 6589   1.667   4.847   2.160
 1897SOL    HW1 6590   1.742   4.788   2.189
 1897SOL    HW2 6591   1.579   4.803   2.180
 1898SOL     OW 6592   2.293   4.304   2.295
 1898SOL    HW1 6593   2.372   4.324   2.237
 1898SOL    HW2 6594   2.263   4.389   2.339
 1899SOL     OW 6595   0.911   0.990   0.041
 1899SOL    HW1 6596   0.977   1.053   0.081
 1899SOL    HW2 6597   0.948   0.954   6.980
 1900SOL     OW 6598   2.711   0.700   6.542
 1900SOL    HW1 6599   2.769   0.752   6.605
 1900SOL    HW2 6600   2.726   0.602   6.555
 1901SOL     OW 6601   2.786   2.421   0.923
 1901SOL    HW1 6602   2.792   2.446   0.827
 1901SOL    HW2 6603   2.748   2.498   0.975
 1902SOL     OW 6604   2.342   0.513   4.781
 1902SOL    HW1 6605   2.258   0.467   4.810
 1902SOL    HW2 6606   2.415   0.444   4.770
 1903SOL     OW 6607   0.917   3.454   3.117
 1903SOL    HW1 6608   0.948   3.476   3.209
 1903SOL    HW2 6609   0.824   3.416   3.121
 1904SOL     OW 6610   5.685   5.152   3.083
 1904SOL    HW1 6611   5.656   5.103   3.000
 1904SOL    HW2 6612   5.746   5.226   3.057
 1905SOL     OW 6613   0.736   0.449   3.290
 1905SOL    HW1 6614   0.667   0.412   3.352
 1905SOL    HW2 6615   0.771   0.375   3.232
 1906SOL     OW 6616   2.491   0.429   5.846
 1906SOL    HW1 6617   2.577   0.463   5.883
 1906SOL    HW2 6618   2.461   0.349   5.899
 1907SOL     OW 6619   4.580   2.517   1.106
 1907SOL    HW1 6620   4.491   2.493   1.144
 1907SOL    HW2 6621   4.605   2.451   1.035
 1908SOL     OW 6622   4.140   6.802   6.441
 1908SOL    HW1 6623   4.102   6.855   6.365
 1908SOL    HW2 6624   4.145   6.705   6.416
 1909SOL     OW 6625   0.771   3.184   3.621
 1909SOL    HW1 6626   0.678   3.211   3.596
 1909SOL    HW2 6627   0.785   3.198   3.719
 1910SOL     OW 6628   6.347   6.380   5.730
 1910SOL    HW1 6629   6.357   6.475   5.702
 1910SOL    HW2 6630   6.264   6.342   5.689
 1911SOL     OW 6631   6.904   3.752   4.651
 1911SOL    HW1 6632   6.936   3.846   4.636
 1911SOL    HW2 6633   6.816   3.753   4.698
 1912SOL     OW 6634   3.054   5.594   2.350
 1912SOL    HW1 6635   3.044   5.687   2.385
 1912SOL    HW2 6636   3.019   5.589   2.256
 1913SOL     OW 6637   2.100   6.610   4.368
 1913SOL    HW1 6638   2.175   6.581   4.428
 1913SOL    HW2 6639   2.044   6.530   4.345
 1914SOL     OW 6640   4.202   4.118   6.515
 1914SOL    HW1 6641   4.260   4.039   6.537
 1914SOL    HW2 6642   4.148   4.143   6.595
 1915SOL     OW 6643   4.870   2.881   5.636
 1915SOL    HW1 6644   4.846   2.787   5.615
 1915SOL    HW2 6645   4.787   2.936   5.645
 1916SOL     OW 6646   4.174   6.469   1.449
 1916SOL    HW1 6647   4.089   6.514   1.476
 1916SOL    HW2 6648   4.209   6.511   1.365
 1917SOL     OW 6649   2.595   3.904   0.086
 1917SOL    HW1 6650   2.602   3.997   0.050
 1917SOL    HW2 6651   2.511   3.862   0.052
 1918SOL     OW 6652   1.084   1.095   4.760
 1918SOL    HW1 6653   1.163   1.151   4.786
 1918SOL    HW2 6654   1.061   1.111   4.664
 1919SOL     OW 6655   2.140   1.811   0.904
 1919SOL    HW1 6656   2.090   1.728   0.929
 1919SOL    HW2 6657   2.115   1.837   0.810
 1920SOL     OW 6658   6.010   2.657   2.235
 1920SOL    HW1 6659   6.031   2.678   2.331
 1920SOL    HW2 6660   6.032   2.561   2.216
 1921SOL     OW 6661   1.041   2.938   0.199
 1921SOL    HW1 6662   1.072   2.843   0.204
 1921SOL    HW2 6663   0.968   2.946   0.131
 1922SOL     OW 6664   3.175   3.511   1.816
 1922SOL    HW1 6665   3.201   3.428   1.767
 1922SOL    HW2 6666   3.093   3.493   1.871
 1923SOL     OW 6667   4.667   0.834   0.176
 1923SOL    HW1 6668   4.702   0.793   0.092
 1923SOL    HW2 6669   4.673   0.769   0.251
 1924SOL     OW 6670   4.587   0.200   0.808
 1924SOL    HW1 6671   4.660   0.204   0.877
 1924SOL    HW2 6672   4.628   0.198   0.717
 1925SOL     OW 6673   0.684   4.180   1.669
 1925SOL    HW1 6674   0.588   4.180   1.640
 1925SOL    HW2 6675   0.733   4.107   1.622
 1926SOL     OW 6676   3.621   6.994   1.807
 1926SOL    HW1 6677   3.570   0.045   1.769
 1926SOL    HW2 6678   3.677   0.000   1.883
 1927SOL     OW 6679   2.484   4.005   0.813
 1927SOL    HW1 6680   2.530   3.928   0.857
 1927SOL    HW2 6681   2.405   4.032   0.868
 1928SOL     OW 6682   4.767   4.977   4.120
 1928SOL    HW1 6683   4.804   4.886   4.136
 1928SOL    HW2 6684   4.785   5.035   4.199
 1929SOL     OW 6685   2.815   0.836   2.064
 1929SOL    HW1 6686   2.837   0.767   2.133
 1929SOL    HW2 6687   2.894   0.894   2.048
 1930SOL     OW 6688   5.042   3.159   6.466
 1930SOL    HW1 6689   5.106   3.235   6.455
 1930SOL    HW2 6690   5.089   3.083   6.512
 1931SOL     OW 6691   0.966   1.677   6.660
 1931SOL    HW1 6692   0.952   1.586   6.699
 1931SOL    HW2 6693   0.962   1.671   6.560
 1932SOL     OW 6694   4.613   2.623   3.035
 1932SOL    HW1 6695   4.561   2.545   2.999
 1932SOL    HW2 6696   4.581   2.646   3.127
 1933SOL     OW 6697   0.507   1.892   0.067
 1933SOL    HW1 6698   0.515   1.865   0.163
 1933SOL    HW2 6699   0.416   1.870   0.033
 1934SOL     OW 6700   0.118   0.310   5.618
 1934SOL    HW1 6701   0.128   0.263   5.531
 1934SOL    HW2 6702   0.054   0.260   5.676
 1935SOL     OW 6703   4.549   4.434   3.967
 1935SOL    HW1 6704   4.530   4.522   3.924
 1935SOL    HW2 6705   4.546   4.444   4.067
 1936SOL     OW 6706   5.095   3.802   4.028
 1936SOL    HW1 6707   5.073   3.900   4.025
 1936SOL    HW2 6708   5.178   3.788   4.082
 1937SOL     OW 6709   4.746   6.026   6.874
 1937SOL    HW1 6710   4.725   5.928   6.869
 1937SOL    HW2 6711   4.804   6.051   6.797
 1938SOL     OW 6712   1.259   2.720   6.706
 1938SOL    HW1 6713   1.247   2.783   6.784
 1938SOL    HW2 6714   1.179   2.724   6.647
 1939SOL     OW 6715   0.733   5.384   4.618
 1939SOL    HW1 6716   0.702   5.299   4.662
 1939SOL    HW2 6717   0.831   5.395   4.632
 1940SOL     OW 6718   5.878   4.436   1.834
 1940SOL    HW1 6719   5.939   4.387   1.772
 1940SOL    HW2 6720   5.877   4.389   1.923
 1941SOL     OW 6721   0.189   2.719   3.482
 1941SOL    HW1 6722   0.289   2.717   3.477
 1941SOL    HW2 6723   0.153   2.629   3.458
 1942SOL     OW 6724   5.489   3.478   2.542
 1942SOL    HW1 6725   5.514   3.460   2.447
 1942SOL    HW2 6726   5.550   3.547   2.581
 1943SOL     OW 6727   1.076   1.407   2.076
 1943SOL    HW1 6728   1.061   1.316   2.039
 1943SOL    HW2 6729   1.149   1.452   2.023
 1944SOL     OW 6730   6.984   3.370   0.578
 1944SOL    HW1 6731   0.047   3.416   0.585
 1944SOL    HW2 6732   6.918   3.418   0.635
 1945SOL     OW 6733   4.035   6.744   0.953
 1945SOL    HW1 6734   4.072   6.653   0.971
 1945SOL    HW2 6735   3.937   6.745   0.976
 1946SOL     OW 6736   6.299   5.980   1.149
 1946SOL    HW1 6737   6.307   5.892   1.195
 1946SOL    HW2 6738   6.244   5.969   1.066
 1947SOL     OW 6739   6.050   4.490   3.541
 1947SOL    HW1 6740   6.140   4.477   3.584
 1947SOL    HW2 6741   5.978   4.481   3.610
 1948SOL     OW 6742   5.687   3.929   3.125
 1948SOL    HW1 6743   5.702   3.833   3.102
 1948SOL    HW2 6744   5.607   3.963   3.076
 1949SOL     OW 6745   4.066   4.110   0.480
 1949SOL    HW1 6746   4.122   4.175   0.428
 1949SOL    HW2 6747   4.053   4.144   0.573
 1950SOL     OW 6748   3.761   3.938   3.768
 1950SOL    HW1 6749   3.826   3.966   3.698
 1950SOL    HW2 6750   3.678   3.993   3.760
 1951SOL     OW 6751   6.602   4.325   5.725
 1951SOL    HW1 6752   6.620   4.406   5.668
 1951SOL    HW2 6753   6.586   4.246   5.666
 1952SOL     OW 6754   5.165   4.171   1.080
 1952SOL    HW1 6755   5.213   4.235   1.021
 1952SOL    HW2 6756   5.129   4.096   1.025
 1953SOL     OW 6757   0.343   1.241   6.400
 1953SOL    HW1 6758   0.423   1.196   6.441
 1953SOL    HW2 6759   0.263   1.227   6.459
 1954SOL     OW 6760   4.697   0.030   1.904
 1954SOL    HW1 6761   4.757   0.109   1.915
 1954SOL    HW2 6762   4.752   6.976   1.879
 1955SOL     OW 6763   0.849   1.538   2.001
 1955SOL    HW1 6764   0.936   1.497   2.030
 1955SOL    HW2 6765   0.846   1.543   1.901
 1956SOL     OW 6766   5.648   1.011   2.903
 1956SOL    HW1 6767   5.610   0.934   2.851
 1956SOL    HW2 6768   5.709   0.976   2.974
 1957SOL     OW 6769   5.160   2.821   3.789
 1957SOL    HW1 6770   5.136   2.836   3.693
 1957SOL    HW2 6771   5.181   2.725   3.803
 1958SOL     OW 6772   4.372   1.708   0.832
 1958SOL    HW1 6773   4.414   1.619   0.811
 1958SOL    HW2 6774   4.383   1.729   0.929
 1959SOL     OW 6775   6.899   6.730   4.192
 1959SOL    HW1 6776   6.894   6.708   4.094
 1959SOL    HW2 6777   6.928   6.649   4.243
 1960SOL     OW 6778   6.124   3.207   2.939
 1960SOL    HW1 6779   6.054   3.206   3.010
 1960SOL    HW2 6780   6.136   3.114   2.904
 1961SOL     OW 6781   6.416   4.669   4.797
 1961SOL    HW1 6782   6.394   4.596   4.861
 1961SOL    HW2 6783   6.430   4.632   4.706
 1962SOL     OW 6784   1.575   5.793   2.844
 1962SOL    HW1 6785   1.652   5.739   2.880
 1962SOL    HW2 6786   1.602   5.890   2.840
 1963SOL     OW 6787   1.131   1.245   1.546
 1963SOL    HW1 6788   1.091   1.216   1.459
 1963SOL    HW2 6789   1.223   1.206   1.554
 1964SOL     OW 6790   5.619   4.741   1.796
 1964SOL    HW1 6791   5.711   4.721   1.830
 1964SOL    HW2 6792   5.623   4.763   1.699
 1965SOL     OW 6793   0.783   4.081   3.836
 1965SOL    HW1 6794   0.735   4.078   3.923
 1965SOL    HW2 6795   0.872   4.036   3.845
 1966SOL     OW 6796   1.493   4.895   1.277
 1966SOL    HW1 6797   1.467   4.932   1.188
 1966SOL    HW2 6798   1.420   4.834   1.309
 1967SOL     OW 6799   6.747   1.966   3.934
 1967SOL    HW1 6800   6.736   1.867   3.924
 1967SOL    HW2 6801   6.656   2.009   3.942
 1968SOL     OW 6802   2.256   1.239   5.750
 1968SOL    HW1 6803   2.216   1.237   5.842
 1968SOL    HW2 6804   2.327   1.310   5.745
 1969SOL     OW 6805   3.242   0.725   1.380
 1969SOL    HW1 6806   3.238   0.668   1.462
 1969SOL    HW2 6807   3.334   0.763   1.369
 1970SOL     OW 6808   6.136   6.109   4.944
 1970SOL    HW1 6809   6.097   6.200   4.940
 1970SOL    HW2 6810   6.192   6.093   4.863
 1971SOL     OW 6811   1.333   7.014   5.615
 1971SOL    HW1 6812   1.292   7.013   5.706
 1971SOL    HW2 6813   1.282   0.051   5.555
 1972SOL     OW 6814   5.801   2.392   1.460
 1972SOL    HW1 6815   5.702   2.392   1.448
 1972SOL    HW2 6816   5.840   2.476   1.422
 1973SOL     OW 6817   2.865   3.645   1.125
 1973SOL    HW1 6818   2.880   3.555   1.085
 1973SOL    HW2 6819   2.814   3.702   1.060
 1974SOL     OW 6820   4.190   6.497   4.564
 1974SOL    HW1 6821   4.285   6.504   4.534
 1974SOL    HW2 6822   4.161   6.401   4.561
 1975SOL     OW 6823   2.164   3.214   3.276
 1975SOL    HW1 6824   2.162   3.216   3.376
 1975SOL    HW2 6825   2.091   3.155   3.242
 1976SOL     OW 6826   6.452   0.340   6.535
 1976SOL    HW1 6827   6.477   0.248   6.504
 1976SOL    HW2 6828   6.425   0.395   6.456
 1977SOL     OW 6829   2.417   3.892   6.593
 1977SOL    HW1 6830   2.406   3.965   6.661
 1977SOL    HW2 6831   2.368   3.918   6.509
 1978SOL     OW 6832   2.559   6.733   2.426
 1978SOL    HW1 6833   2.577   6.717   2.523
 1978SOL    HW2 6834   2.501   6.814   2.417
 1979SOL     OW 6835   5.946   5.277   6.574
 1979SOL    HW1 6836   5.870   5.244   6.518
 1979SOL    HW2 6837   5.924   5.262   6.671
 1980SOL     OW 6838   2.679   0.751   1.638
 1980SOL    HW1 6839   2.687   0.849   1.652
 1980SOL    HW2 6840   2.707   0.702   1.721
 1981SOL     OW 6841   4.869   2.618   3.153
 1981SOL    HW1 6842   4.891   2.522   3.165
 1981SOL    HW2 6843   4.799   2.628   3.082
 1982SOL     OW 6844   6.738   3.535   3.737
 1982SOL    HW1 6845   6.782   3.445   3.738
 1982SOL    HW2 6846   6.639   3.523   3.741
 1983SOL     OW 6847   0.499   0.191   0.827
 1983SOL    HW1 6848   0.453   0.278   0.808
 1983SOL    HW2 6849   0.566   0.173   0.755
 1984SOL     OW 6850   5.169   2.514   5.371
 1984SOL    HW1 6851   5.229   2.436   5.390
 1984SOL    HW2 6852   5.167   2.575   5.450
 1985SOL     OW 6853   6.392   5.062   1.524
 1985SOL    HW1 6854   6.406   5.094   1.430
 1985SOL    HW2 6855   6.443   4.977   1.538
 1986SOL     OW 6856   3.192   1.248   6.541
 1986SOL    HW1 6857   3.240   1.221   6.457
 1986SOL    HW2 6858   3.094   1.240   6.528
 1987SOL     OW 6859   1.319   1.059   4.066
 1987SOL    HW1 6860   1.414   1.090   4.071
 1987SOL    HW2 6861   1.308   1.000   3.985
 1988SOL     OW 6862   0.371   1.908   1.023
 1988SOL    HW1 6863   0.281   1.881   0.992
 1988SOL    HW2 6864   0.363   1.968   1.103
 1989SOL     OW 6865   2.681   5.584   5.449
 1989SOL    HW1 6866   2.595   5.536   5.468
 1989SOL    HW2 6867   2.745   5.569   5.525
 1990SOL     OW 6868   4.087   0.860   0.119
 1990SOL    HW1 6869   4.186   0.868   0.128
 1990SOL    HW2 6870   4.052   0.796   0.187
 1991SOL     OW 6871   2.995   5.772   0.154
 1991SOL    HW1 6872   3.074   5.789   0.213
 1991SOL    HW2 6873   2.942   5.696   0.191
 1992SOL     OW 6874   6.916   6.565   0.207
 1992SOL    HW1 6875   6.861   6.536   0.285
 1992SOL    HW2 6876   6.861   6.557   0.123
 1993SOL     OW 6877   2.033   2.849   4.962
 1993SOL    HW1 6878   2.091   2.922   4.924
 1993SOL    HW2 6879   2.059   2.762   4.920
 1994SOL     OW 6880   4.046   3.478   0.501
 1994SOL    HW1 6881   3.948   3.482   0.520
 1994SOL    HW2 6882   4.064   3.404   0.436
 1995SOL     OW 6883   5.382   2.027   5.101
 1995SOL    HW1 6884   5.289   2.062   5.101
 1995SOL    HW2 6885   5.380   1.928   5.083
 1996SOL     OW 6886   3.451   1.874   1.237
 1996SOL    HW1 6887   3.506   1.829   1.167
 1996SOL    HW2 6888   3.487   1.966   1.254
 1997SOL     OW 6889   3.276   1.416   3.750
 1997SOL    HW1 6890   3.253   1.480   3.822
 1997SOL    HW2 6891   3.197   1.358   3.730
 1998SOL     OW 6892   1.246   3.041   1.798
 1998SOL    HW1 6893   1.292   2.999   1.876
 1998SOL    HW2 6894   1.313   3.089   1.741
 1999SOL     OW 6895   0.970   0.405   5.537
 1999SOL    HW1 6896   0.906   0.437   5.607
 1999SOL    HW2 6897   0.975   0.472   5.463
 2000SOL     OW 6898   3.726   3.781   6.080
 2000SOL    HW1 6899   3.744   3.734   6.166
 2000SOL    HW2 6900   3.692   3.874   6.098
 2001SOL     OW 6901   1.669   1.911   6.696
 2001SOL    HW1 6902   1.755   1.955   6.672
 2001SOL    HW2 6903   1.625   1.962   6.770
 2002SOL     OW 6904   0.230   5.629   1.056
 2002SOL    HW1 6905   0.261   5.537   1.031
 2002SOL    HW2 6906   0.185   5.672   0.977
 2003SOL     OW 6907   6.313   4.855   2.097
 2003SOL    HW1 6908   6.375   4.933   2.084
 2003SOL    HW2 6909   6.254   4.872   2.175
 2004SOL     OW 6910   3.482   0.366   3.539
 2004SOL    HW1 6911   3.561   0.367   3.601
 2004SOL    HW2 6912   3.464   0.273   3.509
 2005SOL     OW 6913   0.456   5.888   0.316
 2005SOL    HW1 6914   0.502   5.976   0.311
 2005SOL    HW2 6915   0.360   5.899   0.287
 2006SOL     OW 6916   5.676   0.224   3.460
 2006SOL    HW1 6917   5.711   0.144   3.509
 2006SOL    HW2 6918   5.733   0.303   3.479
 2007SOL     OW 6919   4.757   4.190   0.924
 2007SOL    HW1 6920   4.757   4.260   0.995
 2007SOL    HW2 6921   4.795   4.105   0.961
 2008SOL     OW 6922   2.111   3.894   3.859
 2008SOL    HW1 6923   2.156   3.982   3.846
 2008SOL    HW2 6924   2.023   3.908   3.906
 2009SOL     OW 6925   6.416   6.195   2.033
 2009SOL    HW1 6926   6.416   6.097   2.015
 2009SOL    HW2 6927   6.491   6.217   2.095
 2010SOL     OW 6928   1.830   2.470   1.943
 2010SOL    HW1 6929   1.736   2.497   1.926
 2010SOL    HW2 6930   1.891   2.548   1.925
 2011SOL     OW 6931   6.809   6.340   5.594
 2011SOL    HW1 6932   6.792   6.398   5.674
 2011SOL    HW2 6933   6.900   6.360   5.558
 2012SOL     OW 6934   1.527   3.275   2.320
 2012SOL    HW1 6935   1.618   3.244   2.350
 2012SOL    HW2 6936   1.524   3.375   2.322
 2013SOL     OW 6937   0.506   2.709   3.171
 2013SOL    HW1 6938   0.505   2.688   3.269
 2013SOL    HW2 6939   0.462   2.798   3.155
 2014SOL     OW 6940   2.897   0.326   3.568
 2014SOL    HW1 6941   2.893   0.362   3.661
 2014SOL    HW2 6942   2.884   0.401   3.502
 2015SOL     OW 6943   3.777   1.038   1.811
 2015SOL    HW1 6944   3.779   1.136   1.831
 2015SOL    HW2 6945   3.696   0.997   1.854
 2016SOL     OW 6946   1.767   6.267   5.489
 2016SOL    HW1 6947   1.739   6.205   5.417
 2016SOL    HW2 6948   1.720   6.355   5.478
 2017SOL     OW 6949   4.097   6.777   3.122
 2017SOL    HW1 6950   4.125   6.838   3.048
 2017SOL    HW2 6951   4.098   6.828   3.209
 2018SOL     OW 6952   0.025   2.114   3.168
 2018SOL    HW1 6953   0.043   2.056   3.088
 2018SOL    HW2 6954   6.977   2.178   3.147
 2019SOL     OW 6955   6.543   4.816   6.203
 2019SOL    HW1 6956   6.488   4.864   6.134
 2019SOL    HW2 6957   6.551   4.720   6.179
 2020SOL     OW 6958   1.556   6.396   5.780
 2020SOL    HW1 6959   1.565   6.305   5.820
 2020SOL    HW2 6960   1.611   6.401   5.697
 2021SOL     OW 6961   6.231   6.531   3.243
 2021SOL    HW1 6962   6.197   6.441   3.272
 2021SOL    HW2 6963   6.319   6.520   3.197
 2022SOL     OW 6964   2.056   4.156   5.066
 2022SOL    HW1 6965   2.142   4.106   5.059
 2022SOL    HW2 6966   1.981   4.092   5.082
 2023SOL     OW 6967   0.297   0.478   6.986
 2023SOL    HW1 6968   0.263   0.541   6.916
 2023SOL    HW2 6969   0.221   0.426   7.024
 2024SOL     OW 6970   0.391   5.683   4.444
 2024SOL    HW1 6971   0.446   5.663   4.525
 2024SOL    HW2 6972   0.446   5.668   4.362
 2025SOL     OW 6973   2.267   0.931   4.483
 2025SOL    HW1 6974   2.260   0.846   4.535
 2025SOL    HW2 6975   2.239   1.008   4.541
 2026SOL     OW 6976   5.779   0.796   6.490
 2026SOL    HW1 6977   5.714   0.816   6.416
 2026SOL    HW2 6978   5.869   0.778   6.451
 2027SOL     OW 6979   0.674   5.479   1.758
 2027SOL    HW1 6980   0.721   5.402   1.716
 2027SOL    HW2 6981   0.738   5.530   1.815
 2028SOL     OW 6982   3.661   6.091   2.707
 2028SOL    HW1 6983   3.741   6.037   2.679
 2028SOL    HW2 6984   3.621   6.051   2.789
 2029SOL     OW 6985   0.005   2.301   6.560
 2029SOL    HW1 6986   7.024   2.396   6.591
 2029SOL    HW2 6987   0.102   2.278   6.545
 2030SOL     OW 6988   2.940   5.773   3.373
 2030SOL    HW1 6989   2.959   5.694   3.314
 2030SOL    HW2 6990   2.989   5.853   3.339
 2031SOL     OW 6991   6.838   5.391   2.921
 2031SOL    HW1 6992   6.750   5.421   2.957
 2031SOL    HW2 6993   6.897   5.470   2.905
 2032SOL     OW 6994   3.410   1.533   6.493
 2032SOL    HW1 6995   3.329   1.516   6.549
 2032SOL    HW2 6996   3.448   1.622   6.516
 2033SOL     OW 6997   1.940   0.868   0.921
 2033SOL    HW1 6998   1.846   0.891   0.894
 2033SOL    HW2 6999   1.962   0.775   0.890
 2034SOL     OW 7000   0.558   5.234   5.690
 2034SOL    HW1 7001   0.520   5.326   5.679
 2034SOL    HW2 7002   0.651   5.233   5.653
 2035SOL     OW 7003   6.192   6.995   2.462
 2035SOL    HW1 7004   6.216   6.914   2.408
 2035SOL    HW2 7005   6.180   0.048   2.402
 2036SOL     OW 7006   1.111   3.240   2.747
 2036SOL    HW1 7007   1.116   3.304   2.823
 2036SOL    HW2 7008   1.199   3.238   2.699
 2037SOL     OW 7009   0.277   2.644   6.217
 2037SOL    HW1 7010   0.306   2.550   6.197
 2037SOL    HW2 7011   0.343   2.686   6.280
 2038SOL     OW 7012   2.446   1.617   6.591
 2038SOL    HW1 7013   2.370   1.623   6.526
 2038SOL    HW2 7014   2.465   1.708   6.627
 2039SOL     OW 7015   6.971   6.247   2.524
 2039SOL    HW1 7016   6.884   6.292   2.547
 2039SOL    HW2 7017   6.972   6.155   2.563
 2040SOL     OW 7018   2.447   2.936   0.342
 2040SOL    HW1 7019   2.383   2.937   0.265
 2040SOL    HW2 7020   2.418   2.867   0.408
 2041SOL     OW 7021   1.908   6.835   6.085
 2041SOL    HW1 7022   2.006   6.851   6.076
 2041SOL    HW2 7023   1.859   6.903   6.030
 2042SOL     OW 7024   4.693   0.449   6.378
 2042SOL    HW1 7025   4.788   0.434   6.408
 2042SOL    HW2 7026   4.652   0.362   6.354
 2043SOL     OW 7027   0.165   3.138   1.290
 2043SOL    HW1 7028   0.070   3.132   1.261
 2043SOL    HW2 7029   0.187   3.060   1.349
 2044SOL     OW 7030   5.045   0.859   0.731
 2044SOL    HW1 7031   5.026   0.932   0.667
 2044SOL    HW2 7032   5.112   0.796   0.692
 2045SOL     OW 7033   1.978   5.790   6.147
 2045SOL    HW1 7034   1.990   5.840   6.233
 2045SOL    HW2 7035   1.880   5.777   6.130
 2046SOL     OW 7036   1.145   1.757   5.201
 2046SOL    HW1 7037   1.082   1.726   5.130
 2046SOL    HW2 7038   1.212   1.818   5.161
 2047SOL     OW 7039   6.401   2.251   0.238
 2047SOL    HW1 7040   6.322   2.208   0.282
 2047SOL    HW2 7041   6.436   2.323   0.297
 2048SOL     OW 7042   0.999   1.218   4.520
 2048SOL    HW1 7043   1.038   1.164   4.445
 2048SOL    HW2 7044   1.012   1.315   4.500
 2049SOL     OW 7045   4.905   1.297   4.867
 2049SOL    HW1 7046   4.843   1.357   4.918
 2049SOL    HW2 7047   4.929   1.339   4.780
 2050SOL     OW 7048   0.804   1.263   4.005
 2050SOL    HW1 7049   0.772   1.251   4.100
 2050SOL    HW2 7050   0.900   1.236   3.999
 2051SOL     OW 7051   2.972   6.689   0.978
 2051SOL    HW1 7052   3.030   6.734   1.045
 2051SOL    HW2 7053   2.974   6.740   0.892
 2052SOL     OW 7054   1.640   4.593   6.868
 2052SOL    HW1 7055   1.680   4.648   6.941
 2052SOL    HW2 7056   1.548   4.563   6.893
 2053SOL     OW 7057   0.975   5.351   3.984
 2053SOL    HW1 7058   0.973   5.299   4.069
 2053SOL    HW2 7059   1.045   5.422   3.989
 2054SOL     OW 7060   3.189   3.473   3.658
 2054SOL    HW1 7061   3.236   3.496   3.573
 2054SOL    HW2 7062   3.218   3.382   3.690
 2055SOL     OW 7063   1.844   2.327   5.289
 2055SOL    HW1 7064   1.840   2.373   5.377
 2055SOL    HW2 7065   1.823   2.392   5.216
 2056SOL     OW 7066   3.687   4.538   0.837
 2056SOL    HW1 7067   3.636   4.541   0.923
 2056SOL    HW2 7068   3.778   4.499   0.854
 2057SOL     OW 7069   5.154   2.273   4.632
 2057SOL    HW1 7070   5.055   2.283   4.624
 2057SOL    HW2 7071   5.185   2.315   4.717
 2058SOL     OW 7072   1.209   6.477   3.463
 2058SOL    HW1 7073   1.210   6.567   3.419
 2058SOL    HW2 7074   1.135   6.472   3.530
 2059SOL     OW 7075   2.665   0.032   5.665
 2059SOL    HW1 7076   2.653   6.965   5.701
 2059SOL    HW2 7077   2.577   0.068   5.635
 2060SOL     OW 7078   1.302   3.539   6.987
 2060SOL    HW1 7079   1.281   3.589   6.903
 2060SOL    HW2 7080   1.388   3.573   7.025
 2061SOL     OW 7081   1.928   2.075   2.286
 2061SOL    HW1 7082   2.022   2.051   2.308
 2061SOL    HW2 7083   1.868   2.052   2.363
 2062SOL     OW 7084   6.355   5.305   5.369
 2062SOL    HW1 7085   6.341   5.224   5.313
 2062SOL    HW2 7086   6.394   5.378   5.313
 2063SOL     OW 7087   1.600   0.675   5.541
 2063SOL    HW1 7088   1.566   0.714   5.455
 2063SOL    HW2 7089   1.578   0.577   5.544
 2064SOL     OW 7090   0.469   2.965   4.079
 2064SOL    HW1 7091   0.412   2.955   3.998
 2064SOL    HW2 7092   0.439   3.045   4.131
 2065SOL     OW 7093   4.590   2.993   5.604
 2065SOL    HW1 7094   4.510   2.998   5.664
 2065SOL    HW2 7095   4.579   2.918   5.540
 2066SOL     OW 7096   5.925   3.070   5.859
 2066SOL    HW1 7097   5.959   2.977   5.876
 2066SOL    HW2 7098   5.999   3.136   5.873
 2067SOL     OW 7099   6.489   4.796   1.527
 2067SOL    HW1 7100   6.482   4.751   1.616
 2067SOL    HW2 7101   6.422   4.758   1.464
 2068SOL     OW 7102   3.617   0.697   3.699
 2068SOL    HW1 7103   3.581   0.783   3.735
 2068SOL    HW2 7104   3.681   0.716   3.624
 2069SOL     OW 7105   0.073   1.904   4.170
 2069SOL    HW1 7106   0.087   1.829   4.106
 2069SOL    HW2 7107   0.147   1.971   4.160
 2070SOL     OW 7108   0.920   3.593   1.782
 2070SOL    HW1 7109   0.840   3.533   1.789
 2070SOL    HW2 7110   1.003   3.541   1.801
 2071SOL     OW 7111   6.152   1.583   6.273
 2071SOL    HW1 7112   6.176   1.678   6.294
 2071SOL    HW2 7113   6.215   1.546   6.205
 2072SOL     OW 7114   3.840   4.584   5.399
 2072SOL    HW1 7115   3.788   4.504   5.427
 2072SOL    HW2 7116   3.899   4.560   5.322
 2073SOL     OW 7117   3.283   5.974   0.583
 2073SOL    HW1 7118   3.329   5.910   0.644
 2073SOL    HW2 7119   3.185   5.972   0.600
 2074SOL     OW 7120   1.673   3.597   5.533
 2074SOL    HW1 7121   1.639   3.687   5.504
 2074SOL    HW2 7122   1.772   3.602   5.548
 2075SOL     OW 7123   7.006   2.400   2.079
 2075SOL    HW1 7124   6.995   2.395   2.178
 2075SOL    HW2 7125   0.027   2.485   2.055
 2076SOL     OW 7126   5.160   5.877   4.849
 2076SOL    HW1 7127   5.195   5.924   4.768
 2076SOL    HW2 7128   5.071   5.836   4.827
 2077SOL     OW 7129   0.038   3.428   1.044
 2077SOL    HW1 7130   6.965   3.432   1.030
 2077SOL    HW2 7131   0.070   3.333   1.033
 2078SOL     OW 7132   2.028   3.788   5.850
 2078SOL    HW1 7133   2.028   3.731   5.768
 2078SOL    HW2 7134   2.122   3.809   5.876
 2079SOL     OW 7135   5.307   1.406   1.636
 2079SOL    HW1 7136   5.344   1.361   1.717
 2079SOL    HW2 7137   5.368   1.480   1.608
 2080SOL     OW 7138   2.822   2.609   5.468
 2080SOL    HW1 7139   2.916   2.640   5.451
 2080SOL    HW2 7140   2.779   2.669   5.535
 2081SOL     OW 7141   0.168   6.844   3.265
 2081SOL    HW1 7142   0.115   6.863   3.183
 2081SOL    HW2 7143   0.107   6.833   3.343
 2082SOL     OW 7144   0.318   6.217   2.591
 2082SOL    HW1 7145   0.366   6.174   2.514
 2082SOL    HW2 7146   0.332   6.162   2.673
 2083SOL     OW 7147   6.738   5.860   4.334
 2083SOL    HW1 7148   6.777   5.952   4.326
 2083SOL    HW2 7149   6.793   5.806   4.398
 2084SOL     OW 7150   0.658   1.706   2.076
 2084SOL    HW1 7151   0.708   1.638   2.022
 2084SOL    HW2 7152   0.691   1.798   2.052
 2085SOL     OW 7153   5.119   5.532   0.407
 2085SOL    HW1 7154   5.131   5.445   0.359
 2085SOL    HW2 7155   5.184   5.599   0.370
 2086SOL     OW 7156   4.427   0.272   0.144
 2086SOL    HW1 7157   4.467   0.364   0.141
 2086SOL    HW2 7158   4.400   0.244   0.052
 2087SOL     OW 7159   4.085   2.241   6.933
 2087SOL    HW1 7160   4.040   2.216   6.847
 2087SOL    HW2 7161   4.038   2.321   6.972
 2088SOL     OW 7162   6.970   5.364   4.984
 2088SOL    HW1 7163   6.975   5.406   5.074
 2088SOL    HW2 7164   0.036   5.348   4.949
 2089SOL     OW 7165   2.779   3.175   5.840
 2089SOL    HW1 7166   2.685   3.198   5.814
 2089SOL    HW2 7167   2.806   3.089   5.795
 2090SOL     OW 7168   4.513   3.612   5.357
 2090SOL    HW1 7169   4.465   3.700   5.360
 2090SOL    HW2 7170   4.579   3.613   5.282
 2091SOL     OW 7171   6.153   5.785   2.027
 2091SOL    HW1 7172   6.084   5.779   2.100
 2091SOL    HW2 7173   6.224   5.716   2.043
 2092SOL     OW 7174   4.507   3.820   1.040
 2092SOL    HW1 7175   4.455   3.745   0.999
 2092SOL    HW2 7176   4.527   3.799   1.135
 2093SOL     OW 7177   3.884   2.176   2.755
 2093SOL    HW1 7178   3.983   2.189   2.760
 2093SOL    HW2 7179   3.842   2.205   2.841
 2094SOL     OW 7180   5.374   2.738   7.006
 2094SOL    HW1 7181   5.420   2.655   0.011
 2094SOL    HW2 7182   5.329   2.783   0.058
 2095SOL     OW 7183   5.623   6.373   3.864
 2095SOL    HW1 7184   5.648   6.457   3.815
 2095SOL    HW2 7185   5.619   6.296   3.800
 2096SOL     OW 7186   4.297   6.373   1.832
 2096SOL    HW1 7187   4.310   6.351   1.735
 2096SOL    HW2 7188   4.292   6.472   1.843
 2097SOL     OW 7189   1.576   5.260   6.392
 2097SOL    HW1 7190   1.577   5.298   6.300
 2097SOL    HW2 7191   1.511   5.185   6.396
 2098SOL     OW 7192   3.373   6.548   3.010
 2098SOL    HW1 7193   3.371   6.503   3.099
 2098SOL    HW2 7194   3.314   6.629   3.012
 2099SOL     OW 7195   5.442   0.938   0.435
 2099SOL    HW1 7196   5.478   1.031   0.428
 2099SOL    HW2 7197   5.389   0.917   0.353
 2100SOL     OW 7198   5.786   1.074   0.439
 2100SOL    HW1 7199   5.708   1.133   0.457
 2100SOL    HW2 7200   5.771   1.023   0.354
 2101SOL     OW 7201   0.252   6.491   2.065
 2101SOL    HW1 7202   0.308   6.538   2.133
 2101SOL    HW2 7203   0.188   6.556   2.023
 2102SOL     OW 7204   3.798   3.437   0.573
 2102SOL    HW1 7205   3.840   3.476   0.655
 2102SOL    HW2 7206   3.719   3.492   0.547
 2103SOL     OW 7207   3.306   6.040   0.142
 2103SOL    HW1 7208   3.279   5.976   0.214
 2103SOL    HW2 7209   3.224   6.081   0.102
 2104SOL     OW 7210   1.062   4.671   3.248
 2104SOL    HW1 7211   1.100   4.689   3.339
 2104SOL    HW2 7212   1.074   4.574   3.225
 2105SOL     OW 7213   5.642   4.429   6.813
 2105SOL    HW1 7214   5.718   4.423   6.748
 2105SOL    HW2 7215   5.672   4.397   6.903
 2106SOL     OW 7216   5.052   3.629   2.607
 2106SOL    HW1 7217   4.970   3.635   2.664
 2106SOL    HW2 7218   5.026   3.628   2.511
 2107SOL     OW 7219   5.491   3.854   5.187
 2107SOL    HW1 7220   5.466   3.920   5.258
 2107SOL    HW2 7221   5.409   3.819   5.143
 2108SOL     OW 7222   5.576   6.597   5.867
 2108SOL    HW1 7223   5.489   6.577   5.913
 2108SOL    HW2 7224   5.560   6.605   5.769
 2109SOL     OW 7225   2.709   5.529   2.660
 2109SOL    HW1 7226   2.736   5.452   2.717
 2109SOL    HW2 7227   2.630   5.574   2.702
 2110SOL     OW 7228   3.571   0.753   6.692
 2110SOL    HW1 7229   3.641   0.776   6.624
 2110SOL    HW2 7230   3.490   0.808   6.676
 2111SOL     OW 7231   1.144   2.925   5.924
 2111SOL    HW1 7232   1.209   2.996   5.951
 2111SOL    HW2 7233   1.160   2.843   5.979
 2112SOL     OW 7234   0.596   2.023   0.684
 2112SOL    HW1 7235   0.530   1.969   0.632
 2112SOL    HW2 7236   0.689   2.003   0.652
 2113SOL     OW 7237   1.788   0.109   4.480
 2113SOL    HW1 7238   1.748   0.114   4.571
 2113SOL    HW2 7239   1.739   0.170   4.418
 2114SOL     OW 7240   1.910   2.578   6.936
 2114SOL    HW1 7241   1.813   2.555   6.935
 2114SOL    HW2 7242   1.956   2.532   6.859
 2115SOL     OW 7243   0.341   5.621   3.421
 2115SOL    HW1 7244   0.337   5.641   3.518
 2115SOL    HW2 7245   0.251   5.588   3.390
 2116SOL     OW 7246   0.689   2.417   6.843
 2116SOL    HW1 7247   0.781   2.420   6.880
 2116SOL    HW2 7248   0.684   2.348   6.770
 2117SOL     OW 7249   5.711   1.443   2.229
 2117SOL    HW1 7250   5.749   1.474   2.142
 2117SOL    HW2 7251   5.613   1.426   2.219
 2118SOL     OW 7252   6.239   3.078   2.062
 2118SOL    HW1 7253   6.176   3.143   2.019
 2118SOL    HW2 7254   6.207   2.985   2.046
 2119SOL     OW 7255   3.097   0.397   6.767
 2119SOL    HW1 7256   3.078   0.302   6.793
 2119SOL    HW2 7257   3.149   0.398   6.682
 2120SOL     OW 7258   5.806   1.634   1.106
 2120SOL    HW1 7259   5.769   1.562   1.047
 2120SOL    HW2 7260   5.899   1.610   1.133
 2121SOL     OW 7261   2.040   1.009   6.658
 2121SOL    HW1 7262   1.974   0.971   6.592
 2121SOL    HW2 7263   2.104   0.937   6.685
 2122SOL     OW 7264   5.923   0.552   5.266
 2122SOL    HW1 7265   5.932   0.647   5.235
 2122SOL    HW2 7266   5.999   0.530   5.327
 2123SOL     OW 7267   1.456   5.880   3.254
 2123SOL    HW1 7268   1.408   5.841   3.175
 2123SOL    HW2 7269   1.431   5.977   3.263
 2124SOL     OW 7270   3.281   2.913   5.925
 2124SOL    HW1 7271   3.213   2.941   5.857
 2124SOL    HW2 7272   3.371   2.944   5.896
 2125SOL     OW 7273   1.872   5.896   2.738
 2125SOL    HW1 7274   1.802   5.905   2.667
 2125SOL    HW2 7275   1.842   5.828   2.806
 2126SOL     OW 7276   3.880   3.852   6.769
 2126SOL    HW1 7277   3.894   3.948   6.793
 2126SOL    HW2 7278   3.803   3.844   6.705
 2127SOL     OW 7279   0.430   2.463   5.671
 2127SOL    HW1 7280   0.426   2.563   5.677
 2127SOL    HW2 7281   0.522   2.432   5.693
 2128SOL     OW 7282   5.331   3.105   1.825
 2128SOL    HW1 7283   5.255   3.043   1.807
 2128SOL    HW2 7284   5.417   3.060   1.800
 2129SOL     OW 7285   4.905   4.591   3.872
 2129SOL    HW1 7286   4.938   4.537   3.795
 2129SOL    HW2 7287   4.920   4.542   3.957
 2130SOL     OW 7288   2.034   0.782   2.595
 2130SOL    HW1 7289   2.019   0.860   2.534
 2130SOL    HW2 7290   2.129   0.782   2.626
 2131SOL     OW 7291   5.811   2.084   6.128
 2131SOL    HW1 7292   5.820   2.014   6.199
 2131SOL    HW2 7293   5.889   2.147   6.134
 2132SOL     OW 7294   2.707   2.090   6.710
 2132SOL    HW1 7295   2.665   2.001   6.726
 2132SOL    HW2 7296   2.645   2.162   6.739
 2133SOL     OW 7297   2.635   2.267   1.732
 2133SOL    HW1 7298   2.651   2.362   1.762
 2133SOL    HW2 7299   2.552   2.232   1.776
 2134SOL     OW 7300   0.581   6.591   5.076
 2134SOL    HW1 7301   0.614   6.550   5.161
 2134SOL    HW2 7302   0.515   6.529   5.033
 2135SOL     OW 7303   0.603   1.082   3.415
 2135SOL    HW1 7304   0.671   1.154   3.405
 2135SOL    HW2 7305   0.522   1.105   3.361
 2136SOL     OW 7306   0.779   3.311   4.039
 2136SOL    HW1 7307   0.748   3.221   4.008
 2136SOL    HW2 7308   0.817   3.362   3.962
 2137SOL     OW 7309   1.511   0.152   5.266
 2137SOL    HW1 7310   1.545   0.142   5.173
 2137SOL    HW2 7311   1.497   0.061   5.307
 2138SOL     OW 7312   0.171   2.864   0.380
 2138SOL    HW1 7313   0.195   2.959   0.399
 2138SOL    HW2 7314   0.073   2.856   0.364
 2139SOL     OW 7315   3.137   0.559   4.871
 2139SOL    HW1 7316   3.130   0.486   4.938
 2139SOL    HW2 7317   3.046   0.583   4.837
 2140SOL     OW 7318   2.615   6.113   3.400
 2140SOL    HW1 7319   2.517   6.134   3.404
 2140SOL    HW2 7320   2.667   6.188   3.440
 2141SOL     OW 7321   5.663   1.887   0.760
 2141SOL    HW1 7322   5.713   1.895   0.847
 2141SOL    HW2 7323   5.615   1.800   0.757
 2142SOL     OW 7324   1.871   2.279   3.639
 2142SOL    HW1 7325   1.857   2.280   3.540
 2142SOL    HW2 7326   1.820   2.202   3.679
 2143SOL     OW 7327   3.376   6.887   1.710
 2143SOL    HW1 7328   3.447   6.826   1.675
 2143SOL    HW2 7329   3.396   6.911   1.805
 2144SOL     OW 7330   0.709   0.707   3.679
 2144SOL    HW1 7331   0.641   0.780   3.680
 2144SOL    HW2 7332   0.739   0.690   3.585
 2145SOL     OW 7333   3.326   5.137   3.252
 2145SOL    HW1 7334   3.419   5.116   3.222
 2145SOL    HW2 7335   3.329   5.195   3.333
 2146SOL     OW 7336   3.393   2.868   2.350
 2146SOL    HW1 7337   3.356   2.834   2.264
 2146SOL    HW2 7338   3.492   2.863   2.348
 2147SOL     OW 7339   0.787   1.653   6.013
 2147SOL    HW1 7340   0.860   1.589   6.038
 2147SOL    HW2 7341   0.816   1.707   5.933
 2148SOL     OW 7342   5.053   3.589   2.960
 2148SOL    HW1 7343   4.995   3.618   2.884
 2148SOL    HW2 7344   5.090   3.498   2.941
 2149SOL     OW 7345   4.068   1.278   2.536
 2149SOL    HW1 7346   4.113   1.353   2.486
 2149SOL    HW2 7347   4.137   1.214   2.570
 2150SOL     OW 7348   3.372   2.096   3.551
 2150SOL    HW1 7349   3.296   2.145   3.595
 2150SOL    HW2 7350   3.339   2.009   3.515
 2151SOL     OW 7351   3.859   2.993   5.779
 2151SOL    HW1 7352   3.874   3.015   5.876
 2151SOL    HW2 7353   3.886   3.072   5.723
 2152SOL     OW 7354   6.043   6.356   1.923
 2152SOL    HW1 7355   6.106   6.349   1.846
 2152SOL    HW2 7356   5.960   6.304   1.903
 2153SOL     OW 7357   4.476   2.143   3.740
 2153SOL    HW1 7358   4.464   2.045   3.729
 2153SOL    HW2 7359   4.573   2.165   3.747
 2154SOL     OW 7360   2.771   5.851   4.892
 2154SOL    HW1 7361   2.674   5.838   4.914
 2154SOL    HW2 7362   2.791   5.948   4.888
 2155SOL     OW 7363   0.801   4.360   0.236
 2155SOL    HW1 7364   0.749   4.278   0.215
 2155SOL    HW2 7365   0.843   4.352   0.326
 2156SOL     OW 7366   1.966   0.538   1.824
 2156SOL    HW1 7367   2.035   0.599   1.786
 2156SOL    HW2 7368   1.931   0.575   1.910
 2157SOL     OW 7369   0.385   1.258   5.025
 2157SOL    HW1 7370   0.422   1.164   5.026
 2157SOL    HW2 7371   0.345   1.279   5.114
 2158SOL     OW 7372   3.792   6.839   1.600
 2158SOL    HW1 7373   3.700   6.805   1.621
 2158SOL    HW2 7374   3.807   6.926   1.647
 2159SOL     OW 7375   1.239   6.862   4.914
 2159SOL    HW1 7376   1.331   6.875   4.878
 2159SOL    HW2 7377   1.237   6.887   5.011
 2160SOL     OW 7378   3.008   4.493   0.905
 2160SOL    HW1 7379   2.980   4.409   0.858
 2160SOL    HW2 7380   2.971   4.493   0.998
 2161SOL     OW 7381   5.055   2.849   3.552
 2161SOL    HW1 7382   4.995   2.927   3.569
 2161SOL    HW2 7383   5.048   2.823   3.455
 2162SOL     OW 7384   1.507   0.762   6.700
 2162SOL    HW1 7385   1.540   0.729   6.611
 2162SOL    HW2 7386   1.419   0.808   6.688
 2163SOL     OW 7387   1.826   1.403   0.563
 2163SOL    HW1 7388   1.815   1.473   0.634
 2163SOL    HW2 7389   1.921   1.402   0.533
 2164SOL     OW 7390   1.849   1.095   6.852
 2164SOL    HW1 7391   1.886   1.179   6.892
 2164SOL    HW2 7392   1.918   1.054   6.792
 2165SOL     OW 7393   1.946   6.932   3.036
 2165SOL    HW1 7394   1.921   6.866   3.107
 2165SOL    HW2 7395   1.943   7.024   3.074
 2166SOL     OW 7396   1.148   2.389   5.891
 2166SOL    HW1 7397   1.245   2.392   5.915
 2166SOL    HW2 7398   1.113   2.296   5.905
 2167SOL     OW 7399   3.881   0.800   2.590
 2167SOL    HW1 7400   3.933   0.811   2.506
 2167SOL    HW2 7401   3.904   0.874   2.654
 2168SOL     OW 7402   5.864   3.988   4.343
 2168SOL    HW1 7403   5.851   4.074   4.294
 2168SOL    HW2 7404   5.851   3.911   4.280
 2169SOL     OW 7405   4.976   2.293   6.345
 2169SOL    HW1 7406   4.922   2.377   6.343
 2169SOL    HW2 7407   5.060   2.305   6.293
 2170SOL     OW 7408   4.355   4.981   4.919
 2170SOL    HW1 7409   4.263   4.981   4.958
 2170SOL    HW2 7410   4.367   4.898   4.864
 2171SOL     OW 7411   6.865   2.930   0.182
 2171SOL    HW1 7412   6.827   2.866   0.115
 2171SOL    HW2 7413   6.896   2.880   0.263
 2172SOL     OW 7414   3.042   1.122   0.387
 2172SOL    HW1 7415   3.085   1.035   0.363
 2172SOL    HW2 7416   2.952   1.127   0.344
 2173SOL     OW 7417   5.363   1.603   5.835
 2173SOL    HW1 7418   5.353   1.586   5.933
 2173SOL    HW2 7419   5.310   1.684   5.810
 2174SOL     OW 7420   0.112   4.931   5.277
 2174SOL    HW1 7421   0.212   4.929   5.274
 2174SOL    HW2 7422   0.074   4.867   5.211
 2175SOL     OW 7423   2.361   0.605   4.367
 2175SOL    HW1 7424   2.333   0.662   4.443
 2175SOL    HW2 7425   2.406   0.522   4.401
 2176SOL     OW 7426   2.073   2.603   3.173
 2176SOL    HW1 7427   2.145   2.539   3.201
 2176SOL    HW2 7428   2.018   2.628   3.253
 2177SOL     OW 7429   0.289   2.738   0.673
 2177SOL    HW1 7430   0.281   2.838   0.666
 2177SOL    HW2 7431   0.202   2.696   0.650
 2178SOL     OW 7432   0.875   4.971   0.213
 2178SOL    HW1 7433   0.815   5.048   0.193
 2178SOL    HW2 7434   0.892   4.920   0.129
 2179SOL     OW 7435   1.504   5.356   4.145
 2179SOL    HW1 7436   1.533   5.442   4.187
 2179SOL    HW2 7437   1.552   5.280   4.189
 2180SOL     OW 7438   3.301   3.809   2.816
 2180SOL    HW1 7439   3.359   3.863   2.756
 2180SOL    HW2 7440   3.209   3.850   2.819
 2181SOL     OW 7441   5.327   5.557   5.839
 2181SOL    HW1 7442   5.239   5.531   5.800
 2181SOL    HW2 7443   5.394   5.569   5.765
 2182SOL     OW 7444   0.022   2.696   6.288
 2182SOL    HW1 7445   7.021   2.679   6.383
 2182SOL    HW2 7446   0.117   2.667   6.275
 2183SOL     OW 7447   3.801   3.067   0.756
 2183SOL    HW1 7448   3.755   3.087   0.670
 2183SOL    HW2 7449   3.800   3.148   0.815
 2184SOL     OW 7450   3.734   2.381   6.372
 2184SOL    HW1 7451   3.659   2.421   6.320
 2184SOL    HW2 7452   3.698   2.327   6.447
 2185SOL     OW 7453   1.914   0.804   1.332
 2185SOL    HW1 7454   1.847   0.841   1.397
 2185SOL    HW2 7455   2.001   0.852   1.342
 2186SOL     OW 7456   0.664   5.890   3.322
 2186SOL    HW1 7457   0.744   5.830   3.327
 2186SOL    HW2 7458   0.692   5.981   3.294
 2187SOL     OW 7459   6.979   1.550   6.934
 2187SOL    HW1 7460   6.988   1.595   7.023
 2187SOL    HW2 7461   0.033   1.492   6.918
 2188SOL     OW 7462   5.542   6.962   3.098
 2188SOL    HW1 7463   5.551   6.875   3.145
 2188SOL    HW2 7464   5.631   6.990   3.061
 2189SOL     OW 7465   1.952   6.251   6.447
 2189SOL    HW1 7466   1.888   6.196   6.501
 2189SOL    HW2 7467   1.993   6.321   6.505
 2190SOL     OW 7468   5.577   1.787   1.767
 2190SOL    HW1 7469   5.650   1.795   1.699
 2190SOL    HW2 7470   5.580   1.696   1.809
 2191SOL     OW 7471   3.014   2.806   6.262
 2191SOL    HW1 7472   2.957   2.808   6.344
 2191SOL    HW2 7473   3.075   2.727   6.266
 2192SOL     OW 7474   4.752   5.646   5.095
 2192SOL    HW1 7475   4.686   5.577   5.063
 2192SOL    HW2 7476   4.844   5.606   5.098
 2193SOL     OW 7477   0.753   5.174   5.467
 2193SOL    HW1 7478   0.690   5.108   5.425
 2193SOL    HW2 7479   0.847   5.140   5.458
 2194SOL     OW 7480   2.232   6.944   0.842
 2194SOL    HW1 7481   2.330   6.925   0.845
 2194SOL    HW2 7482   2.200   6.967   0.934
 2195SOL     OW 7483   1.130   5.460   2.551
 2195SOL    HW1 7484   1.139   5.471   2.452
 2195SOL    HW2 7485   1.035   5.440   2.574
 2196SOL     OW 7486   3.373   2.056   6.287
 2196SOL    HW1 7487   3.346   2.145   6.325
 2196SOL    HW2 7488   3.441   2.070   6.216
 2197SOL     OW 7489   5.057   4.824   1.352
 2197SOL    HW1 7490   5.061   4.729   1.319
 2197SOL    HW2 7491   5.097   4.828   1.444
 2198SOL     OW 7492   6.580   3.616   0.439
 2198SOL    HW1 7493   6.510   3.687   0.445
 2198SOL    HW2 7494   6.555   3.538   0.496
 2199SOL     OW 7495   4.528   0.202   1.427
 2199SOL    HW1 7496   4.523   0.240   1.519
 2199SOL    HW2 7497   4.463   0.127   1.418
 2200SOL     OW 7498   3.548   0.215   4.436
 2200SOL    HW1 7499   3.518   0.281   4.505
 2200SOL    HW2 7500   3.620   0.157   4.476
 2201SOL     OW 7501   5.631   3.581   1.933
 2201SOL    HW1 7502   5.715   3.622   1.896
 2201SOL    HW2 7503   5.621   3.487   1.898
 2202SOL     OW 7504   4.682   5.791   3.857
 2202SOL    HW1 7505   4.590   5.755   3.843
 2202SOL    HW2 7506   4.692   5.877   3.805
 2203SOL     OW 7507   3.540   2.026   3.326
 2203SOL    HW1 7508   3.496   2.111   3.357
 2203SOL    HW2 7509   3.544   2.026   3.226
 2204SOL     OW 7510   3.326   2.644   0.418
 2204SOL    HW1 7511   3.366   2.554   0.430
 2204SOL    HW2 7512   3.283   2.673   0.504
 2205SOL     OW 7513   2.978   7.012   0.888
 2205SOL    HW1 7514   2.986   0.065   0.950
 2205SOL    HW2 7515   3.069   6.978   0.866
 2206SOL     OW 7516   2.380   3.255   6.729
 2206SOL    HW1 7517   2.282   3.260   6.748
 2206SOL    HW2 7518   2.396   3.269   6.631
 2207SOL     OW 7519   0.938   4.454   6.202
 2207SOL    HW1 7520   0.860   4.440   6.141
 2207SOL    HW2 7521   1.014   4.492   6.151
 2208SOL     OW 7522   0.279   3.336   1.869
 2208SOL    HW1 7523   0.210   3.335   1.797
 2208SOL    HW2 7524   0.365   3.299   1.834
 2209SOL     OW 7525   0.831   5.886   6.711
 2209SOL    HW1 7526   0.769   5.808   6.703
 2209SOL    HW2 7527   0.777   5.970   6.717
 2210SOL     OW 7528   0.896   6.261   4.205
 2210SOL    HW1 7529   0.965   6.323   4.240
 2210SOL    HW2 7530   0.845   6.306   4.131
 2211SOL     OW 7531   6.010   1.570   5.720
 2211SOL    HW1 7532   6.025   1.495   5.784
 2211SOL    HW2 7533   5.976   1.534   5.633
 2212SOL     OW 7534   1.565   0.335   6.427
 2212SOL    HW1 7535   1.631   0.296   6.363
 2212SOL    HW2 7536   1.474   0.300   6.407
 2213SOL     OW 7537   3.673   1.754   3.565
 2213SOL    HW1 7538   3.740   1.719   3.501
 2213SOL    HW2 7539   3.581   1.749   3.524
 2214SOL     OW 7540   4.882   0.069   4.724
 2214SOL    HW1 7541   4.925   0.030   4.806
 2214SOL    HW2 7542   4.934   0.042   4.644
 2215SOL     OW 7543   6.357   2.209   5.332
 2215SOL    HW1 7544   6.450   2.204   5.368
 2215SOL    HW2 7545   6.333   2.305   5.316
 2216SOL     OW 7546   1.628   6.605   1.446
 2216SOL    HW1 7547   1.567   6.588   1.369
 2216SOL    HW2 7548   1.723   6.610   1.413
 2217SOL     OW 7549   4.128   0.390   1.167
 2217SOL    HW1 7550   4.189   0.439   1.105
 2217SOL    HW2 7551   4.173   0.306   1.199
 2218SOL     OW 7552   0.719   5.531   0.061
 2218SOL    HW1 7553   0.640   5.474   0.084
 2218SOL    HW2 7554   0.703   5.624   0.094
 2219SOL     OW 7555   1.878   3.849   3.212
 2219SOL    HW1 7556   1.843   3.768   3.258
 2219SOL    HW2 7557   1.900   3.919   3.280
 2220SOL     OW 7558   0.689   0.905   6.551
 2220SOL    HW1 7559   0.656   0.997   6.575
 2220SOL    HW2 7560   0.757   0.876   6.619
 2221SOL     OW 7561   6.478   2.546   1.551
 2221SOL    HW1 7562   6.458   2.638   1.583
 2221SOL    HW2 7563   6.550   2.505   1.607
 2222SOL     OW 7564   4.852   6.798   2.720
 2222SOL    HW1 7565   4.787   6.750   2.779
 2222SOL    HW2 7566   4.922   6.843   2.777
 2223SOL     OW 7567   5.710   5.374   2.863
 2223SOL    HW1 7568   5.711   5.439   2.787
 2223SOL    HW2 7569   5.616   5.342   2.878
 2224SOL     OW 7570   1.276   4.383   1.368
 2224SOL    HW1 7571   1.183   4.358   1.341
 2224SOL    HW2 7572   1.282   4.384   1.468
 2225SOL     OW 7573   6.133   4.955   2.284
 2225SOL    HW1 7574   6.165   4.880   2.341
 2225SOL    HW2 7575   6.038   4.938   2.257
 2226SOL     OW 7576   3.919   4.188   0.741
 2226SOL    HW1 7577   3.932   4.284   0.767
 2226SOL    HW2 7578   3.821   4.168   0.736
 2227SOL     OW 7579   6.834   4.068   4.973
 2227SOL    HW1 7580   6.896   4.135   5.016
 2227SOL    HW2 7581   6.788   4.015   5.044
 2228SOL     OW 7582   3.421   4.641   6.497
 2228SOL    HW1 7583   3.471   4.611   6.578
 2228SOL    HW2 7584   3.443   4.583   6.419
 2229SOL     OW 7585   4.631   1.009   3.426
 2229SOL    HW1 7586   4.640   1.088   3.488
 2229SOL    HW2 7587   4.553   0.953   3.455
 2230SOL     OW 7588   1.356   6.391   6.199
 2230SOL    HW1 7589   1.436   6.333   6.209
 2230SOL    HW2 7590   1.311   6.402   6.288
 2231SOL     OW 7591   2.494   6.863   1.400
 2231SOL    HW1 7592   2.519   6.872   1.304
 2231SOL    HW2 7593   2.470   6.953   1.437
 2232SOL     OW 7594   6.133   2.909   2.905
 2232SOL    HW1 7595   6.196   2.914   2.983
 2232SOL    HW2 7596   6.070   2.833   2.919
 2233SOL     OW 7597   4.095   0.416   0.114
 2233SOL    HW1 7598   4.110   0.318   0.102
 2233SOL    HW2 7599   4.133   0.445   0.202
 2234SOL     OW 7600   3.723   1.962   0.755
 2234SOL    HW1 7601   3.762   1.869   0.749
 2234SOL    HW2 7602   3.763   2.009   0.833
 2235SOL     OW 7603   1.416   6.433   0.796
 2235SOL    HW1 7604   1.477   6.490   0.851
 2235SOL    HW2 7605   1.328   6.423   0.843
 2236SOL     OW 7606   0.159   4.375   1.340
 2236SOL    HW1 7607   0.162   4.328   1.252
 2236SOL    HW2 7608   0.226   4.450   1.339
 2237SOL     OW 7609   6.403   2.754   4.431
 2237SOL    HW1 7610   6.317   2.710   4.461
 2237SOL    HW2 7611   6.477   2.687   4.432
 2238SOL     OW 7612   1.052   5.522   1.709
 2238SOL    HW1 7613   1.008   5.530   1.799
 2238SOL    HW2 7614   1.116   5.597   1.697
 2239SOL     OW 7615   4.268   5.116   3.233
 2239SOL    HW1 7616   4.219   5.036   3.268
 2239SOL    HW2 7617   4.362   5.091   3.213
 2240SOL     OW 7618   5.384   4.657   2.251
 2240SOL    HW1 7619   5.390   4.757   2.243
 2240SOL    HW2 7620   5.431   4.614   2.174
 2241SOL     OW 7621   0.573   6.989   2.173
 2241SOL    HW1 7622   0.509   0.040   2.177
 2241SOL    HW2 7623   0.635   7.002   2.096
 2242SOL     OW 7624   4.657   1.665   2.780
 2242SOL    HW1 7625   4.703   1.712   2.856
 2242SOL    HW2 7626   4.723   1.649   2.706
 2243SOL     OW 7627   2.419   6.181   5.380
 2243SOL    HW1 7628   2.371   6.198   5.466
 2243SOL    HW2 7629   2.496   6.119   5.396
 2244SOL     OW 7630   2.895   0.813   4.537
 2244SOL    HW1 7631   2.968   0.860   4.588
 2244SOL    HW2 7632   2.827   0.879   4.507
 2245SOL     OW 7633   1.545   1.441   1.944
 2245SOL    HW1 7634   1.595   1.516   1.902
 2245SOL    HW2 7635   1.465   1.476   1.992
 2246SOL     OW 7636   0.882   4.134   5.535
 2246SOL    HW1 7637   0.835   4.221   5.517
 2246SOL    HW2 7638   0.833   4.083   5.606
 2247SOL     OW 7639   1.739   2.099   5.984
 2247SOL    HW1 7640   1.749   2.000   5.984
 2247SOL    HW2 7641   1.809   2.140   5.926
 2248SOL     OW 7642   5.112   3.438   5.242
 2248SOL    HW1 7643   5.015   3.427   5.261
 2248SOL    HW2 7644   5.132   3.401   5.151
 2249SOL     OW 7645   5.060   5.361   3.834
 2249SOL    HW1 7646   4.989   5.368   3.904
 2249SOL    HW2 7647   5.144   5.402   3.869
 2250SOL     OW 7648   6.657   4.659   0.175
 2250SOL    HW1 7649   6.638   4.745   0.222
 2250SOL    HW2 7650   6.752   4.633   0.190
 2251SOL     OW 7651   6.119   0.818   6.846
 2251SOL    HW1 7652   6.093   0.908   6.883
 2251SOL    HW2 7653   6.113   0.821   6.746
 2252SOL     OW 7654   4.481   2.477   5.462
 2252SOL    HW1 7655   4.386   2.504   5.474
 2252SOL    HW2 7656   4.491   2.380   5.482
 2253SOL     OW 7657   2.094   3.545   6.777
 2253SOL    HW1 7658   2.060   3.508   6.863
 2253SOL    HW2 7659   2.194   3.546   6.778
 2254SOL     OW 7660   2.261   3.881   5.912
 2254SOL    HW1 7661   2.322   3.950   5.874
 2254SOL    HW2 7662   2.307   3.835   5.988
 2255SOL     OW 7663   5.828   2.910   1.643
 2255SOL    HW1 7664   5.840   3.003   1.677
 2255SOL    HW2 7665   5.896   2.851   1.685
 2256SOL     OW 7666   4.033   4.754   1.401
 2256SOL    HW1 7667   3.993   4.797   1.320
 2256SOL    HW2 7668   4.004   4.804   1.483
 2257SOL     OW 7669   1.930   4.328   4.057
 2257SOL    HW1 7670   1.856   4.323   4.124
 2257SOL    HW2 7671   1.893   4.310   3.966
 2258SOL     OW 7672   1.649   5.570   4.293
 2258SOL    HW1 7673   1.603   5.644   4.244
 2258SOL    HW2 7674   1.647   5.588   4.391
 2259SOL     OW 7675   5.377   3.533   6.700
 2259SOL    HW1 7676   5.389   3.620   6.650
 2259SOL    HW2 7677   5.298   3.485   6.664
 2260SOL     OW 7678   5.343   5.316   0.942
 2260SOL    HW1 7679   5.424   5.373   0.931
 2260SOL    HW2 7680   5.346   5.241   0.877
 2261SOL     OW 7681   5.171   6.022   6.776
 2261SOL    HW1 7682   5.173   5.973   6.689
 2261SOL    HW2 7683   5.223   6.107   6.769
 2262SOL     OW 7684   4.594   2.144   3.265
 2262SOL    HW1 7685   4.547   2.228   3.292
 2262SOL    HW2 7686   4.657   2.118   3.338
 2263SOL     OW 7687   0.635   5.062   6.305
 2263SOL    HW1 7688   0.721   5.113   6.307
 2263SOL    HW2 7689   0.558   5.126   6.311
 2264SOL     OW 7690   3.837   3.472   4.251
 2264SOL    HW1 7691   3.913   3.528   4.283
 2264SOL    HW2 7692   3.836   3.471   4.151
 2265SOL     OW 7693   0.040   6.965   2.010
 2265SOL    HW1 7694   6.984   6.911   2.028
 2265SOL    HW2 7695   0.089   6.927   1.931
 2266SOL     OW 7696   5.700   7.026   0.645
 2266SOL    HW1 7697   5.737   6.991   0.731
 2266SOL    HW2 7698   5.728   0.095   0.632
 2267SOL     OW 7699   6.308   2.685   5.925
 2267SOL    HW1 7700   6.213   2.714   5.930
 2267SOL    HW2 7701   6.343   2.670   6.017
 2268SOL     OW 7702   0.001   5.643   6.801
 2268SOL    HW1 7703   0.025   5.657   6.705
 2268SOL    HW2 7704   6.937   5.600   6.806
 2269SOL     OW 7705   6.777   5.375   5.848
 2269SOL    HW1 7706   6.688   5.366   5.803
 2269SOL    HW2 7707   6.835   5.438   5.796
 2270SOL     OW 7708   3.659   3.658   1.565
 2270SOL    HW1 7709   3.602   3.674   1.485
 2270SOL    HW2 7710   3.724   3.584   1.546
 2271SOL     OW 7711   6.707   4.407   2.098
 2271SOL    HW1 7712   6.785   4.465   2.074
 2271SOL    HW2 7713   6.734   4.343   2.170
 2272SOL     OW 7714   6.064   2.037   6.359
 2272SOL    HW1 7715   5.990   2.090   6.399
 2272SOL    HW2 7716   6.118   1.996   6.433
 2273SOL     OW 7717   0.809   1.674   2.989
 2273SOL    HW1 7718   0.798   1.629   3.078
 2273SOL    HW2 7719   0.820   1.604   2.918
 2274SOL     OW 7720   1.235   3.201   4.007
 2274SOL    HW1 7721   1.325   3.183   3.967
 2274SOL    HW2 7722   1.243   3.198   4.107
 2275SOL     OW 7723   5.090   6.851   3.770
 2275SOL    HW1 7724   5.154   6.815   3.837
 2275SOL    HW2 7725   5.095   6.951   3.769
 2276SOL     OW 7726   4.596   4.865   1.720
 2276SOL    HW1 7727   4.576   4.922   1.640
 2276SOL    HW2 7728   4.636   4.779   1.690
 2277SOL     OW 7729   3.402   3.408   0.094
 2277SOL    HW1 7730   3.450   3.485   0.135
 2277SOL    HW2 7731   3.463   3.330   0.086
 2278SOL     OW 7732   5.593   6.084   1.415
 2278SOL    HW1 7733   5.607   6.171   1.367
 2278SOL    HW2 7734   5.680   6.037   1.426
 2279SOL     OW 7735   5.986   3.713   4.819
 2279SOL    HW1 7736   6.084   3.698   4.806
 2279SOL    HW2 7737   5.959   3.796   4.771
 2280SOL     OW 7738   5.971   6.490   6.665
 2280SOL    HW1 7739   5.882   6.506   6.707
 2280SOL    HW2 7740   5.982   6.552   6.587
 2281SOL     OW 7741   3.774   2.841   0.930
 2281SOL    HW1 7742   3.786   2.913   0.862
 2281SOL    HW2 7743   3.711   2.772   0.893
 2282SOL     OW 7744   4.364   5.761   3.166
 2282SOL    HW1 7745   4.350   5.859   3.153
 2282SOL    HW2 7746   4.323   5.711   3.090
 2283SOL     OW 7747   6.823   2.940   3.321
 2283SOL    HW1 7748   6.876   3.018   3.356
 2283SOL    HW2 7749   6.779   2.966   3.235
 2284SOL     OW 7750   1.996   2.867   2.273
 2284SOL    HW1 7751   2.071   2.829   2.327
 2284SOL    HW2 7752   1.931   2.794   2.250
 2285SOL     OW 7753   1.734   4.474   0.319
 2285SOL    HW1 7754   1.803   4.531   0.274
 2285SOL    HW2 7755   1.770   4.381   0.329
 2286SOL     OW 7756   6.695   6.302   4.504
 2286SOL    HW1 7757   6.602   6.265   4.508
 2286SOL    HW2 7758   6.691   6.402   4.508
 2287SOL     OW 7759   2.244   2.695   2.021
 2287SOL    HW1 7760   2.317   2.714   1.955
 2287SOL    HW2 7761   2.283   2.690   2.113
 2288SOL     OW 7762   0.319   6.126   4.142
 2288SOL    HW1 7763   0.348   6.193   4.210
 2288SOL    HW2 7764   0.375   6.136   4.060
 2289SOL     OW 7765   5.776   2.058   1.808
 2289SOL    HW1 7766   5.815   2.079   1.897
 2289SOL    HW2 7767   5.751   1.961   1.804
 2290SOL     OW 7768   3.065   3.077   2.974
 2290SOL    HW1 7769   3.029   3.101   3.064
 2290SOL    HW2 7770   3.136   3.008   2.984
 2291SOL     OW 7771   2.086   2.973   0.750
 2291SOL    HW1 7772   2.177   3.014   0.753
 2291SOL    HW2 7773   2.054   2.955   0.843
 2292SOL     OW 7774   4.249   2.333   3.091
 2292SOL    HW1 7775   4.254   2.410   3.028
 2292SOL    HW2 7776   4.334   2.327   3.143
 2293SOL     OW 7777   6.024   1.080   6.940
 2293SOL    HW1 7778   6.009   1.050   0.008
 2293SOL    HW2 7779   6.022   1.180   6.936
 2294SOL     OW 7780   0.751   2.248   5.627
 2294SOL    HW1 7781   0.757   2.289   5.718
 2294SOL    HW2 7782   0.843   2.238   5.589
 2295SOL     OW 7783   6.046   6.409   1.636
 2295SOL    HW1 7784   5.952   6.413   1.603
 2295SOL    HW2 7785   6.100   6.350   1.577
 2296SOL     OW 7786   2.992   5.630   3.888
 2296SOL    HW1 7787   2.981   5.600   3.794
 2296SOL    HW2 7788   3.089   5.646   3.907
 2297SOL     OW 7789   4.096   4.471   5.314
 2297SOL    HW1 7790   4.164   4.455   5.243
 2297SOL    HW2 7791   4.136   4.523   5.389
 2298SOL     OW 7792   3.876   3.542   3.971
 2298SOL    HW1 7793   3.915   3.450   3.959
 2298SOL    HW2 7794   3.947   3.610   3.958
 2299SOL     OW 7795   5.474   3.006   4.653
 2299SOL    HW1 7796   5.382   3.039   4.633
 2299SOL    HW2 7797   5.540   3.054   4.596
 2300SOL     OW 7798   4.139   6.383   2.215
 2300SOL    HW1 7799   4.127   6.469   2.164
 2300SOL    HW2 7800   4.196   6.321   2.162
 2301SOL     OW 7801   3.706   3.250   4.354
 2301SOL    HW1 7802   3.613   3.286   4.359
 2301SOL    HW2 7803   3.765   3.316   4.308
 2302SOL     OW 7804   4.608   2.493   0.478
 2302SOL    HW1 7805   4.648   2.413   0.436
 2302SOL    HW2 7806   4.508   2.485   0.478
 2303SOL     OW 7807   3.938   2.347   0.758
 2303SOL    HW1 7808   3.839   2.353   0.751
 2303SOL    HW2 7809   3.979   2.352   0.667
 2304SOL     OW 7810   6.028   5.986   1.881
 2304SOL    HW1 7811   6.051   5.919   1.951
 2304SOL    HW2 7812   6.110   6.037   1.855
 2305SOL     OW 7813   1.939   1.079   5.327
 2305SOL    HW1 7814   1.847   1.112   5.346
 2305SOL    HW2 7815   1.990   1.150   5.279
 2306SOL     OW 7816   1.698   5.656   3.687
 2306SOL    HW1 7817   1.733   5.578   3.637
 2306SOL    HW2 7818   1.664   5.725   3.622
 2307SOL     OW 7819   0.128   2.472   5.302
 2307SOL    HW1 7820   0.030   2.494   5.307
 2307SOL    HW2 7821   0.178   2.547   5.260
 2308SOL     OW 7822   2.547   4.929   1.842
 2308SOL    HW1 7823   2.507   4.847   1.802
 2308SOL    HW2 7824   2.618   4.903   1.907
 2309SOL     OW 7825   1.669   6.299   5.186
 2309SOL    HW1 7826   1.763   6.266   5.174
 2309SOL    HW2 7827   1.613   6.227   5.225
 2310SOL     OW 7828   4.901   6.566   1.969
 2310SOL    HW1 7829   4.947   6.487   1.930
 2310SOL    HW2 7830   4.901   6.560   2.069
 2311SOL     OW 7831   2.481   6.210   0.982
 2311SOL    HW1 7832   2.452   6.295   0.939
 2311SOL    HW2 7833   2.532   6.155   0.916
 2312SOL     OW 7834   3.359   4.940   2.759
 2312SOL    HW1 7835   3.274   4.912   2.803
 2312SOL    HW2 7836   3.338   5.004   2.685
 2313SOL     OW 7837   4.556   5.137   2.163
 2313SOL    HW1 7838   4.531   5.072   2.090
 2313SOL    HW2 7839   4.614   5.208   2.125
 2314SOL     OW 7840   2.757   5.652   4.071
 2314SOL    HW1 7841   2.732   5.687   3.980
 2314SOL    HW2 7842   2.856   5.652   4.081
 2315SOL     OW 7843   4.318   3.189   6.669
 2315SOL    HW1 7844   4.220   3.206   6.658
 2315SOL    HW2 7845   4.339   3.097   6.635
 2316SOL     OW 7846   5.717   2.992   2.913
 2316SOL    HW1 7847   5.671   3.076   2.886
 2316SOL    HW2 7848   5.654   2.915   2.904
 2317SOL     OW 7849   1.133   5.165   3.766
 2317SOL    HW1 7850   1.064   5.123   3.707
 2317SOL    HW2 7851   1.127   5.265   3.756
 2318SOL     OW 7852   0.127   1.126   3.587
 2318SOL    HW1 7853   0.049   1.104   3.647
 2318SOL    HW2 7854   0.191   1.185   3.636
 2319SOL     OW 7855   1.377   3.984   4.128
 2319SOL    HW1 7856   1.352   4.077   4.100
 2319SOL    HW2 7857   1.295   3.936   4.160
 2320SOL     OW 7858   6.667   3.345   4.539
 2320SOL    HW1 7859   6.739   3.403   4.502
 2320SOL    HW2 7860   6.700   3.250   4.545
 2321SOL     OW 7861   3.259   6.373   5.254
 2321SOL    HW1 7862   3.303   6.285   5.271
 2321SOL    HW2 7863   3.185   6.386   5.319
 2322SOL     OW 7864   2.413   0.432   5.444
 2322SOL    HW1 7865   2.472   0.503   5.484
 2322SOL    HW2 7866   2.320   0.469   5.434
 2323SOL     OW 7867   5.253   5.321   1.821
 2323SOL    HW1 7868   5.192   5.245   1.844
 2323SOL    HW2 7869   5.266   5.379   1.901
 2324SOL     OW 7870   0.095   5.537   3.367
 2324SOL    HW1 7871   0.084   5.439   3.354
 2324SOL    HW2 7872   0.040   5.566   3.445
 2325SOL     OW 7873   0.318   3.834   0.559
 2325SOL    HW1 7874   0.247   3.892   0.519
 2325SOL    HW2 7875   0.323   3.748   0.509
 2326SOL     OW 7876   1.628   5.311   6.904
 2326SOL    HW1 7877   1.559   5.241   6.916
 2326SOL    HW2 7878   1.663   5.307   6.810
 2327SOL     OW 7879   4.848   2.402   4.564
 2327SOL    HW1 7880   4.780   2.377   4.633
 2327SOL    HW2 7881   4.897   2.483   4.594
 2328SOL     OW 7882   4.884   0.210   3.437
 2328SOL    HW1 7883   4.947   0.208   3.359
 2328SOL    HW2 7884   4.883   0.120   3.481
 2329SOL     OW 7885   0.491   6.151   3.938
 2329SOL    HW1 7886   0.425   6.106   3.879
 2329SOL    HW2 7887   0.570   6.091   3.953
 2330SOL     OW 7888   0.442   4.270   2.862
 2330SOL    HW1 7889   0.508   4.280   2.788
 2330SOL    HW2 7890   0.398   4.359   2.880
 2331SOL     OW 7891   0.877   4.417   4.898
 2331SOL    HW1 7892   0.808   4.408   4.827
 2331SOL    HW2 7893   0.935   4.335   4.899
 2332SOL     OW 7894   5.333   2.296   5.449
 2332SOL    HW1 7895   5.321   2.276   5.546
 2332SOL    HW2 7896   5.424   2.267   5.420
 2333SOL     OW 7897   0.706   5.664   3.837
 2333SOL    HW1 7898   0.777   5.695   3.899
 2333SOL    HW2 7899   0.719   5.567   3.816
 2334SOL     OW 7900   3.196   0.003   7.025
 2334SOL    HW1 7901   3.269   0.063   0.033
 2334SOL    HW2 7902   3.127   7.017   0.070
 2335SOL     OW 7903   5.263   6.783   3.977
 2335SOL    HW1 7904   5.267   6.714   4.049
 2335SOL    HW2 7905   5.251   6.873   4.018
 2336SOL     OW 7906   5.274   2.051   5.991
 2336SOL    HW1 7907   5.341   2.053   6.065
 2336SOL    HW2 7908   5.210   2.127   6.003
 2337SOL     OW 7909   5.189   6.815   3.054
 2337SOL    HW1 7910   5.230   6.889   3.107
 2337SOL    HW2 7911   5.185   6.732   3.109
 2338SOL     OW 7912   1.044   6.358   6.596
 2338SOL    HW1 7913   1.034   6.322   6.689
 2338SOL    HW2 7914   0.986   6.305   6.534
 2339SOL     OW 7915   3.962   4.257   0.222
 2339SOL    HW1 7916   4.044   4.258   0.279
 2339SOL    HW2 7917   3.902   4.182   0.252
 2340SOL     OW 7918   3.293   5.386   4.860
 2340SOL    HW1 7919   3.313   5.404   4.957
 2340SOL    HW2 7920   3.207   5.336   4.853
 2341SOL     OW 7921   5.588   5.028   0.631
 2341SOL    HW1 7922   5.556   5.123   0.626
 2341SOL    HW2 7923   5.510   4.966   0.629
 2342SOL     OW 7924   5.986   0.248   5.571
 2342SOL    HW1 7925   5.924   0.311   5.525
 2342SOL    HW2 7926   6.076   0.290   5.579
 2343SOL     OW 7927   1.109   6.821   1.210
 2343SOL    HW1 7928   1.161   6.846   1.128
 2343SOL    HW2 7929   1.171   6.781   1.278
 2344SOL     OW 7930   2.013   2.264   2.980
 2344SOL    HW1 7931   1.927   2.298   2.942
 2344SOL    HW2 7932   2.088   2.325   2.954
 2345SOL     OW 7933   2.112   1.399   4.605
 2345SOL    HW1 7934   2.210   1.402   4.588
 2345SOL    HW2 7935   2.065   1.465   4.546
 2346SOL     OW 7936   5.199   3.818   5.679
 2346SOL    HW1 7937   5.251   3.772   5.750
 2346SOL    HW2 7938   5.201   3.763   5.595
 2347SOL     OW 7939   1.717   3.048   1.956
 2347SOL    HW1 7940   1.650   3.120   1.974
 2347SOL    HW2 7941   1.689   2.964   2.002
 2348SOL     OW 7942   2.443   6.848   1.879
 2348SOL    HW1 7943   2.480   6.822   1.789
 2348SOL    HW2 7944   2.358   6.798   1.895
 2349SOL     OW 7945   5.202   5.569   5.593
 2349SOL    HW1 7946   5.177   5.497   5.528
 2349SOL    HW2 7947   5.173   5.658   5.557
 2350SOL     OW 7948   2.040   6.783   5.621
 2350SOL    HW1 7949   2.105   6.854   5.648
 2350SOL    HW2 7950   2.015   6.728   5.700
 2351SOL     OW 7951   2.101   5.341   4.331
 2351SOL    HW1 7952   2.191   5.385   4.330
 2351SOL    HW2 7953   2.097   5.273   4.257
 2352SOL     OW 7954   0.808   3.457   2.824
 2352SOL    HW1 7955   0.900   3.432   2.853
 2352SOL    HW2 7956   0.745   3.383   2.847
 2353SOL     OW 7957   3.107   3.916   5.861
 2353SOL    HW1 7958   3.073   3.996   5.909
 2353SOL    HW2 7959   3.199   3.894   5.893
 2354SOL     OW 7960   4.147   2.454   0.924
 2354SOL    HW1 7961   4.103   2.512   0.992
 2354SOL    HW2 7962   4.083   2.437   0.848
 2355SOL     OW 7963   0.489   6.470   0.814
 2355SOL    HW1 7964   0.518   6.559   0.849
 2355SOL    HW2 7965   0.480   6.405   0.890
 2356SOL     OW 7966   2.882   5.211   3.375
 2356SOL    HW1 7967   2.933   5.295   3.358
 2356SOL    HW2 7968   2.863   5.165   3.289
 2357SOL     OW 7969   6.572   4.299   1.665
 2357SOL    HW1 7970   6.544   4.283   1.760
 2357SOL    HW2 7971   6.592   4.396   1.652
 2358SOL     OW 7972   3.715   2.083   5.899
 2358SOL    HW1 7973   3.640   2.143   5.927
 2358SOL    HW2 7974   3.801   2.114   5.939
 2359SOL     OW 7975   1.654   1.390   5.845
 2359SOL    HW1 7976   1.583   1.360   5.782
 2359SOL    HW2 7977   1.703   1.468   5.807
 2360SOL     OW 7978   4.322   4.396   0.526
 2360SOL    HW1 7979   4.257   4.472   0.524
 2360SOL    HW2 7980   4.312   4.343   0.442
 2361SOL     OW 7981   3.942   6.333   1.871
 2361SOL    HW1 7982   3.983   6.271   1.804
 2361SOL    HW2 7983   3.948   6.293   1.962
 2362SOL     OW 7984   4.244   6.356   4.211
 2362SOL    HW1 7985   4.200   6.318   4.293
 2362SOL    HW2 7986   4.180   6.418   4.165
 2363SOL     OW 7987   3.065   3.926   0.678
 2363SOL    HW1 7988   2.980   3.955   0.634
 2363SOL    HW2 7989   3.140   3.928   0.612
 2364SOL     OW 7990   4.686   1.776   2.153
 2364SOL    HW1 7991   4.633   1.830   2.218
 2364SOL    HW2 7992   4.654   1.681   2.154
 2365SOL     OW 7993   4.870   3.742   3.537
 2365SOL    HW1 7994   4.952   3.773   3.489
 2365SOL    HW2 7995   4.859   3.644   3.525
 2366SOL     OW 7996   2.678   4.785   5.194
 2366SOL    HW1 7997   2.586   4.758   5.168
 2366SOL    HW2 7998   2.743   4.712   5.174
 2367SOL     OW 7999   0.722   4.587   5.645
 2367SOL    HW1 8000   0.734   4.599   5.744
 2367SOL    HW2 8001   0.652   4.650   5.612
 2368SOL     OW 8002   5.717   6.222   4.436
 2368SOL    HW1 8003   5.754   6.159   4.368
 2368SOL    HW2 8004   5.621   6.242   4.415
 2369SOL     OW 8005   3.192   1.806   4.097
 2369SOL    HW1 8006   3.286   1.816   4.127
 2369SOL    HW2 8007   3.130   1.834   4.170
 2370SOL     OW 8008   5.582   2.586   1.393
 2370SOL    HW1 8009   5.585   2.515   1.323
 2370SOL    HW2 8010   5.554   2.545   1.481
 2371SOL     OW 8011   1.097   6.871   2.815
 2371SOL    HW1 8012   1.074   6.928   2.736
 2371SOL    HW2 8013   1.035   6.793   2.819
 2372SOL     OW 8014   6.340   1.271   6.180
 2372SOL    HW1 8015   6.301   1.335   6.114
 2372SOL    HW2 8016   6.363   1.319   6.264
 2373SOL     OW 8017   5.842   6.564   6.223
 2373SOL    HW1 8018   5.928   6.531   6.184
 2373SOL    HW2 8019   5.785   6.487   6.251
 2374SOL     OW 8020   5.410   5.969   2.512
 2374SOL    HW1 8021   5.421   5.876   2.547
 2374SOL    HW2 8022   5.484   6.027   2.547
 2375SOL     OW 8023   0.931   0.475   4.045
 2375SOL    HW1 8024   0.857   0.408   4.041
 2375SOL    HW2 8025   0.912   0.550   3.981
 2376SOL     OW 8026   5.679   1.371   2.901
 2376SOL    HW1 8027   5.695   1.439   2.829
 2376SOL    HW2 8028   5.727   1.287   2.878
 2377SOL     OW 8029   4.076   5.156   5.798
 2377SOL    HW1 8030   4.015   5.108   5.861
 2377SOL    HW2 8031   4.023   5.195   5.723
 2378SOL     OW 8032   0.444   0.997   0.408
 2378SOL    HW1 8033   0.402   1.080   0.444
 2378SOL    HW2 8034   0.375   0.940   0.365
 2379SOL     OW 8035   7.024   5.083   1.031
 2379SOL    HW1 8036   0.024   5.163   1.084
 2379SOL    HW2 8037   6.995   5.010   1.092
 2380SOL     OW 8038   4.964   4.629   4.916
 2380SOL    HW1 8039   5.028   4.683   4.971
 2380SOL    HW2 8040   4.916   4.689   4.852
 2381SOL     OW 8041   2.833   5.264   4.422
 2381SOL    HW1 8042   2.749   5.265   4.368
 2381SOL    HW2 8043   2.814   5.226   4.512
 2382SOL     OW 8044   0.917   5.895   1.664
 2382SOL    HW1 8045   0.817   5.907   1.666
 2382SOL    HW2 8046   0.939   5.809   1.618
 2383SOL     OW 8047   4.948   5.456   5.384
 2383SOL    HW1 8048   4.968   5.546   5.346
 2383SOL    HW2 8049   5.033   5.408   5.405
 2384SOL     OW 8050   0.617   1.839   1.703
 2384SOL    HW1 8051   0.676   1.912   1.667
 2384SOL    HW2 8052   0.629   1.756   1.648
 2385SOL     OW 8053   0.892   2.248   1.178
 2385SOL    HW1 8054   0.856   2.156   1.164
 2385SOL    HW2 8055   0.824   2.303   1.227
 2386SOL     OW 8056   4.318   5.950   4.204
 2386SOL    HW1 8057   4.263   5.987   4.129
 2386SOL    HW2 8058   4.408   5.923   4.171
 2387SOL     OW 8059   1.508   1.447   4.091
 2387SOL    HW1 8060   1.509   1.539   4.051
 2387SOL    HW2 8061   1.457   1.449   4.177
 2388SOL     OW 8062   6.406   1.617   5.657
 2388SOL    HW1 8063   6.464   1.544   5.619
 2388SOL    HW2 8064   6.317   1.615   5.611
 2389SOL     OW 8065   6.095   4.633   4.194
 2389SOL    HW1 8066   6.065   4.543   4.227
 2389SOL    HW2 8067   6.142   4.681   4.268
 2390SOL     OW 8068   4.565   4.132   5.914
 2390SOL    HW1 8069   4.486   4.081   5.947
 2390SOL    HW2 8070   4.585   4.105   5.819
 2391SOL     OW 8071   3.976   3.912   6.029
 2391SOL    HW1 8072   3.990   3.967   6.111
 2391SOL    HW2 8073   3.902   3.846   6.046
 2392SOL     OW 8074   3.533   5.298   4.775
 2392SOL    HW1 8075   3.444   5.336   4.748
 2392SOL    HW2 8076   3.524   5.201   4.794
 2393SOL     OW 8077   3.349   5.380   1.250
 2393SOL    HW1 8078   3.269   5.383   1.310
 2393SOL    HW2 8079   3.330   5.321   1.171
 2394SOL     OW 8080   0.786   2.514   3.319
 2394SOL    HW1 8081   0.713   2.502   3.387
 2394SOL    HW2 8082   0.820   2.424   3.291
 2395SOL     OW 8083   0.153   2.170   5.009
 2395SOL    HW1 8084   0.115   2.216   4.928
 2395SOL    HW2 8085   0.213   2.234   5.057
 2396SOL     OW 8086   6.612   1.289   5.279
 2396SOL    HW1 8087   6.603   1.354   5.203
 2396SOL    HW2 8088   6.700   1.242   5.273
 2397SOL     OW 8089   0.392   5.234   5.221
 2397SOL    HW1 8090   0.363   5.189   5.306
 2397SOL    HW2 8091   0.427   5.166   5.158
 2398SOL     OW 8092   2.910   6.067   3.542
 2398SOL    HW1 8093   2.813   6.057   3.520
 2398SOL    HW2 8094   2.940   5.989   3.597
 2399SOL     OW 8095   2.936   2.285   4.249
 2399SOL    HW1 8096   2.974   2.247   4.165
 2399SOL    HW2 8097   3.010   2.303   4.314
 2400SOL     OW 8098   0.703   4.156   0.489
 2400SOL    HW1 8099   0.629   4.092   0.504
 2400SOL    HW2 8100   0.694   4.234   0.551
 2401SOL     OW 8101   3.630   0.176   5.476
 2401SOL    HW1 8102   3.556   0.169   5.409
 2401SOL    HW2 8103   3.669   0.268   5.473
 2402SOL     OW 8104   0.576   3.114   2.076
 2402SOL    HW1 8105   0.550   3.210   2.092
 2402SOL    HW2 8106   0.577   3.095   1.978
 2403SOL     OW 8107   3.709   3.677   2.898
 2403SOL    HW1 8108   3.621   3.708   2.934
 2403SOL    HW2 8109   3.694   3.608   2.827
 2404SOL     OW 8110   6.693   2.127   1.034
 2404SOL    HW1 8111   6.659   2.041   0.997
 2404SOL    HW2 8112   6.642   2.203   0.993
 2405SOL     OW 8113   2.288   3.922   0.426
 2405SOL    HW1 8114   2.262   3.847   0.488
 2405SOL    HW2 8115   2.291   3.888   0.332
 2406SOL     OW 8116   2.449   6.902   4.975
 2406SOL    HW1 8117   2.531   6.860   5.014
 2406SOL    HW2 8118   2.476   6.983   4.922
 2407SOL     OW 8119   3.535   1.382   3.725
 2407SOL    HW1 8120   3.436   1.400   3.730
 2407SOL    HW2 8121   3.559   1.310   3.789
 2408SOL     OW 8122   2.513   6.259   4.640
 2408SOL    HW1 8123   2.435   6.277   4.701
 2408SOL    HW2 8124   2.571   6.340   4.636
 2409SOL     OW 8125   2.286   2.600   1.705
 2409SOL    HW1 8126   2.214   2.667   1.721
 2409SOL    HW2 8127   2.245   2.513   1.678
 2410SOL     OW 8128   0.065   3.735   5.774
 2410SOL    HW1 8129   7.018   3.739   5.706
 2410SOL    HW2 8130   0.053   3.655   5.832
 2411SOL     OW 8131   2.403   3.729   6.915
 2411SOL    HW1 8132   2.365   3.702   6.826
 2411SOL    HW2 8133   2.488   3.679   6.931
 2412SOL     OW 8134   3.644   1.985   6.654
 2412SOL    HW1 8135   3.583   2.060   6.628
 2412SOL    HW2 8136   3.600   1.929   6.724
 2413SOL     OW 8137   6.990   3.016   6.472
 2413SOL    HW1 8138   6.915   3.054   6.418
 2413SOL    HW2 8139   0.044   3.077   6.466
 2414SOL     OW 8140   6.236   2.410   4.679
 2414SOL    HW1 8141   6.238   2.312   4.701
 2414SOL    HW2 8142   6.183   2.458   4.749
 2415SOL     OW 8143   2.678   6.156   0.715
 2415SOL    HW1 8144   2.681   6.251   0.746
 2415SOL    HW2 8145   2.735   6.100   0.775
 2416SOL     OW 8146   6.558   3.614   2.950
 2416SOL    HW1 8147   6.603   3.525   2.957
 2416SOL    HW2 8148   6.626   3.687   2.962
 2417SOL     OW 8149   3.583   3.872   1.201
 2417SOL    HW1 8150   3.647   3.944   1.172
 2417SOL    HW2 8151   3.492   3.891   1.164
 2418SOL     OW 8152   5.035   4.191   5.993
 2418SOL    HW1 8153   4.940   4.177   6.020
 2418SOL    HW2 8154   5.044   4.175   5.895
 2419SOL     OW 8155   1.957   6.364   4.298
 2419SOL    HW1 8156   1.979   6.282   4.349
 2419SOL    HW2 8157   1.858   6.377   4.296
 2420SOL     OW 8158   1.835   4.401   2.615
 2420SOL    HW1 8159   1.823   4.319   2.558
 2420SOL    HW2 8160   1.920   4.393   2.667
 2421SOL     OW 8161   2.903   6.793   4.623
 2421SOL    HW1 8162   2.918   6.723   4.692
 2421SOL    HW2 8163   2.852   6.754   4.546
 2422SOL     OW 8164   4.134   6.250   0.926
 2422SOL    HW1 8165   4.171   6.158   0.917
 2422SOL    HW2 8166   4.154   6.302   0.843
 2423SOL     OW 8167   2.048   4.763   2.052
 2423SOL    HW1 8168   2.029   4.778   1.955
 2423SOL    HW2 8169   2.147   4.757   2.065
 2424SOL     OW 8170   5.441   1.308   6.183
 2424SOL    HW1 8171   5.364   1.357   6.222
 2424SOL    HW2 8172   5.410   1.219   6.150
 2425SOL     OW 8173   4.766   5.408   5.574
 2425SOL    HW1 8174   4.838   5.419   5.506
 2425SOL    HW2 8175   4.751   5.311   5.592
 2426SOL     OW 8176   1.283   5.017   5.434
 2426SOL    HW1 8177   1.364   5.041   5.488
 2426SOL    HW2 8178   1.305   5.019   5.337
 2427SOL     OW 8179   5.109   0.738   6.439
 2427SOL    HW1 8180   5.051   0.724   6.358
 2427SOL    HW2 8181   5.182   0.669   6.439
 2428SOL     OW 8182   0.308   0.891   3.509
 2428SOL    HW1 8183   0.322   0.856   3.416
 2428SOL    HW2 8184   0.288   0.989   3.505
 2429SOL     OW 8185   5.447   5.827   2.247
 2429SOL    HW1 8186   5.512   5.874   2.188
 2429SOL    HW2 8187   5.443   5.874   2.336
 2430SOL     OW 8188   6.143   2.727   6.839
 2430SOL    HW1 8189   6.084   2.647   6.833
 2430SOL    HW2 8190   6.088   2.808   6.859
 2431SOL     OW 8191   6.951   2.179   1.678
 2431SOL    HW1 8192   6.931   2.265   1.724
 2431SOL    HW2 8193   6.935   2.190   1.579
 2432SOL     OW 8194   3.511   5.157   1.952
 2432SOL    HW1 8195   3.543   5.094   2.023
 2432SOL    HW2 8196   3.471   5.238   1.996
 2433SOL     OW 8197   6.760   3.955   0.014
 2433SOL    HW1 8198   6.721   4.046   0.032
 2433SOL    HW2 8199   6.734   3.892   0.087
 2434SOL     OW 8200   4.191   1.909   3.180
 2434SOL    HW1 8201   4.185   1.822   3.230
 2434SOL    HW2 8202   4.182   1.892   3.082
 2435SOL     OW 8203   5.189   6.467   6.845
 2435SOL    HW1 8204   5.225   6.540   6.903
 2435SOL    HW2 8205   5.126   6.506   6.778
 2436SOL     OW 8206   2.265   1.728   1.271
 2436SOL    HW1 8207   2.209   1.673   1.208
 2436SOL    HW2 8208   2.339   1.772   1.221
 2437SOL     OW 8209   6.609   5.389   2.113
 2437SOL    HW1 8210   6.656   5.456   2.056
 2437SOL    HW2 8211   6.639   5.398   2.208
 2438SOL     OW 8212   2.755   1.679   4.720
 2438SOL    HW1 8213   2.777   1.770   4.684
 2438SOL    HW2 8214   2.807   1.610   4.669
 2439SOL     OW 8215   0.653   5.850   0.546
 2439SOL    HW1 8216   0.687   5.943   0.527
 2439SOL    HW2 8217   0.714   5.783   0.504
 2440SOL     OW 8218   4.946   1.062   5.108
 2440SOL    HW1 8219   5.012   1.000   5.066
 2440SOL    HW2 8220   4.862   1.064   5.054
 2441SOL     OW 8221   6.253   6.932   0.057
 2441SOL    HW1 8222   6.325   7.001   0.056
 2441SOL    HW2 8223   6.173   6.966   0.008
 2442SOL     OW 8224   4.847   3.863   2.373
 2442SOL    HW1 8225   4.860   3.784   2.313
 2442SOL    HW2 8226   4.848   3.947   2.318
 2443SOL     OW 8227   2.249   2.327   0.519
 2443SOL    HW1 8228   2.237   2.241   0.471
 2443SOL    HW2 8229   2.203   2.323   0.607
 2444SOL     OW 8230   3.622   5.720   0.868
 2444SOL    HW1 8231   3.631   5.688   0.962
 2444SOL    HW2 8232   3.604   5.819   0.868
 2445SOL     OW 8233   0.636   2.394   0.940
 2445SOL    HW1 8234   0.571   2.347   1.001
 2445SOL    HW2 8235   0.727   2.355   0.952
 2446SOL     OW 8236   1.809   3.513   1.604
 2446SOL    HW1 8237   1.851   3.601   1.623
 2446SOL    HW2 8238   1.742   3.492   1.674
 2447SOL     OW 8239   3.436   0.319   0.823
 2447SOL    HW1 8240   3.338   0.337   0.818
 2447SOL    HW2 8241   3.486   0.389   0.772
 2448SOL     OW 8242   6.040   1.944   3.971
 2448SOL    HW1 8243   6.037   1.851   3.932
 2448SOL    HW2 8244   6.105   1.999   3.919
 2449SOL     OW 8245   1.846   4.236   1.811
 2449SOL    HW1 8246   1.747   4.243   1.812
 2449SOL    HW2 8247   1.882   4.252   1.903
 2450SOL     OW 8248   1.939   5.532   6.584
 2450SOL    HW1 8249   2.018   5.536   6.522
 2450SOL    HW2 8250   1.855   5.533   6.531
 2451SOL     OW 8251   0.862   0.100   4.777
 2451SOL    HW1 8252   0.951   0.059   4.754
 2451SOL    HW2 8253   0.792   0.063   4.716
 2452SOL     OW 8254   2.375   2.290   3.635
 2452SOL    HW1 8255   2.444   2.320   3.570
 2452SOL    HW2 8256   2.407   2.309   3.728
 2453SOL     OW 8257   0.673   1.362   6.927
 2453SOL    HW1 8258   0.620   1.432   6.879
 2453SOL    HW2 8259   0.719   1.403   7.006
 2454SOL     OW 8260   3.960   5.414   1.125
 2454SOL    HW1 8261   3.880   5.472   1.139
 2454SOL    HW2 8262   4.012   5.447   1.046
 2455SOL     OW 8263   3.988   0.978   0.532
 2455SOL    HW1 8264   4.080   0.955   0.500
 2455SOL    HW2 8265   3.924   0.975   0.456
 2456SOL     OW 8266   1.105   4.797   0.019
 2456SOL    HW1 8267   1.126   4.799   0.117
 2456SOL    HW2 8268   1.187   4.821   6.993
 2457SOL     OW 8269   5.584   1.645   5.187
 2457SOL    HW1 8270   5.537   1.697   5.258
 2457SOL    HW2 8271   5.625   1.563   5.226
 2458SOL     OW 8272   1.104   0.454   2.845
 2458SOL    HW1 8273   1.143   0.363   2.862
 2458SOL    HW2 8274   1.022   0.445   2.789
 2459SOL     OW 8275   2.400   6.325   0.408
 2459SOL    HW1 8276   2.425   6.242   0.458
 2459SOL    HW2 8277   2.464   6.399   0.432
 2460SOL     OW 8278   1.534   1.232   6.825
 2460SOL    HW1 8279   1.524   1.301   6.753
 2460SOL    HW2 8280   1.579   1.151   6.789
 2461SOL     OW 8281   3.805   0.775   4.140
 2461SOL    HW1 8282   3.840   0.729   4.058
 2461SOL    HW2 8283   3.875   0.837   4.176
 2462SOL     OW 8284   0.422   4.787   1.024
 2462SOL    HW1 8285   0.407   4.688   1.020
 2462SOL    HW2 8286   0.467   4.817   0.940
 2463SOL     OW 8287   6.876   1.166   6.692
 2463SOL    HW1 8288   6.851   1.255   6.654
 2463SOL    HW2 8289   6.863   1.095   6.623
 2464SOL     OW 8290   0.147   2.425   2.691
 2464SOL    HW1 8291   0.105   2.337   2.666
 2464SOL    HW2 8292   0.075   2.493   2.704
 2465SOL     OW 8293   0.576   4.947   5.675
 2465SOL    HW1 8294   0.598   4.908   5.586
 2465SOL    HW2 8295   0.547   5.042   5.663
 2466SOL     OW 8296   1.757   1.807   1.653
 2466SOL    HW1 8297   1.828   1.818   1.584
 2466SOL    HW2 8298   1.743   1.894   1.700
 2467SOL     OW 8299   5.092   1.286   6.123
 2467SOL    HW1 8300   5.152   1.305   6.201
 2467SOL    HW2 8301   5.012   1.347   6.128
 2468SOL     OW 8302   3.886   0.397   5.887
 2468SOL    HW1 8303   3.940   0.477   5.915
 2468SOL    HW2 8304   3.790   0.423   5.879
 2469SOL     OW 8305   3.903   2.530   5.570
 2469SOL    HW1 8306   3.814   2.524   5.616
 2469SOL    HW2 8307   3.950   2.441   5.577
 2470SOL     OW 8308   3.804   4.701   0.287
 2470SOL    HW1 8309   3.885   4.742   0.328
 2470SOL    HW2 8310   3.732   4.770   0.279
 2471SOL     OW 8311   3.786   6.491   0.979
 2471SOL    HW1 8312   3.701   6.535   1.006
 2471SOL    HW2 8313   3.766   6.402   0.938
 2472SOL     OW 8314   5.064   2.417   4.191
 2472SOL    HW1 8315   4.981   2.423   4.246
 2472SOL    HW2 8316   5.041   2.422   4.094
 2473SOL     OW 8317   0.945   4.308   4.540
 2473SOL    HW1 8318   0.913   4.214   4.533
 2473SOL    HW2 8319   1.039   4.309   4.577
 2474SOL     OW 8320   0.848   5.894   0.781
 2474SOL    HW1 8321   0.800   5.971   0.739
 2474SOL    HW2 8322   0.887   5.924   0.868
 2475SOL     OW 8323   5.054   0.143   0.771
 2475SOL    HW1 8324   5.144   0.119   0.810
 2475SOL    HW2 8325   5.012   0.061   0.732
 2476SOL     OW 8326   5.596   0.755   2.128
 2476SOL    HW1 8327   5.613   0.728   2.033
 2476SOL    HW2 8328   5.679   0.741   2.182
 2477SOL     OW 8329   3.736   0.414   3.340
 2477SOL    HW1 8330   3.679   0.391   3.418
 2477SOL    HW2 8331   3.678   0.431   3.260
 2478SOL     OW 8332   4.343   1.325   2.952
 2478SOL    HW1 8333   4.425   1.340   2.897
 2478SOL    HW2 8334   4.332   1.400   3.017
 2479SOL     OW 8335   1.035   2.567   1.335
 2479SOL    HW1 8336   0.984   2.512   1.401
 2479SOL    HW2 8337   1.019   2.664   1.354
 2480SOL     OW 8338   3.424   2.799   1.195
 2480SOL    HW1 8339   3.352   2.865   1.177
 2480SOL    HW2 8340   3.510   2.832   1.155
 2481SOL     OW 8341   3.754   0.632   1.708
 2481SOL    HW1 8342   3.789   0.555   1.761
 2481SOL    HW2 8343   3.701   0.693   1.767
 2482SOL     OW 8344   5.346   3.690   6.990
 2482SOL    HW1 8345   5.440   3.684   7.024
 2482SOL    HW2 8346   5.332   3.625   6.916
 2483SOL     OW 8347   0.902   2.680   0.050
 2483SOL    HW1 8348   0.830   2.739   0.088
 2483SOL    HW2 8349   0.959   2.646   0.124
 2484SOL     OW 8350   4.399   1.046   1.754
 2484SOL    HW1 8351   4.389   1.065   1.657
 2484SOL    HW2 8352   4.309   1.034   1.795
 2485SOL     OW 8353   5.908   2.092   6.843
 2485SOL    HW1 8354   6.002   2.104   6.809
 2485SOL    HW2 8355   5.872   2.004   6.810
 2486SOL     OW 8356   0.361   4.890   5.202
 2486SOL    HW1 8357   0.401   4.801   5.180
 2486SOL    HW2 8358   0.412   4.962   5.155
 2487SOL     OW 8359   4.579   5.995   0.869
 2487SOL    HW1 8360   4.538   6.086   0.859
 2487SOL    HW2 8361   4.622   5.987   0.959
 2488SOL     OW 8362   6.928   4.068   1.845
 2488SOL    HW1 8363   6.979   3.983   1.836
 2488SOL    HW2 8364   6.899   4.099   1.754
 2489SOL     OW 8365   0.694   6.363   4.005
 2489SOL    HW1 8366   0.616   6.307   3.975
 2489SOL    HW2 8367   0.663   6.430   4.072
 2490SOL     OW 8368   0.695   6.165   1.331
 2490SOL    HW1 8369   0.737   6.233   1.392
 2490SOL    HW2 8370   0.726   6.180   1.238
 2491SOL     OW 8371   3.917   4.316   1.648
 2491SOL    HW1 8372   3.832   4.339   1.695
 2491SOL    HW2 8373   3.931   4.378   1.571
 2492SOL     OW 8374   5.120   3.569   1.167
 2492SOL    HW1 8375   5.142   3.588   1.071
 2492SOL    HW2 8376   5.080   3.650   1.209
 2493SOL     OW 8377   0.002   0.166   1.119
 2493SOL    HW1 8378   0.031   0.070   1.112
 2493SOL    HW2 8379   0.073   0.219   1.164
 2494SOL     OW 8380   5.868   3.710   1.858
 2494SOL    HW1 8381   5.907   3.777   1.921
 2494SOL    HW2 8382   5.837   3.756   1.775
 2495SOL     OW 8383   5.371   5.708   3.381
 2495SOL    HW1 8384   5.298   5.645   3.355
 2495SOL    HW2 8385   5.434   5.662   3.443
 2496SOL     OW 8386   0.053   3.692   6.915
 2496SOL    HW1 8387   0.038   3.790   6.913
 2496SOL    HW2 8388   0.019   3.654   7.001
 2497SOL     OW 8389   0.830   0.285   0.406
 2497SOL    HW1 8390   0.784   0.372   0.425
 2497SOL    HW2 8391   0.925   0.303   0.379
 2498SOL     OW 8392   3.431   2.737   5.519
 2498SOL    HW1 8393   3.345   2.779   5.550
 2498SOL    HW2 8394   3.500   2.746   5.591
 2499SOL     OW 8395   6.171   3.215   1.804
 2499SOL    HW1 8396   6.191   3.129   1.757
 2499SOL    HW2 8397   6.135   3.281   1.738
 2500SOL     OW 8398   3.708   3.585   6.281
 2500SOL    HW1 8399   3.612   3.564   6.302
 2500SOL    HW2 8400   3.757   3.603   6.365
 2501SOL     OW 8401   5.587   5.469   0.124
 2501SOL    HW1 8402   5.647   5.549   0.119
 2501SOL    HW2 8403   5.556   5.444   0.033
 2502SOL     OW 8404   1.869   6.753   4.744
 2502SOL    HW1 8405   1.858   6.739   4.646
 2502SOL    HW2 8406   1.966   6.759   4.766
 2503SOL     OW 8407   3.456   6.603   5.315
 2503SOL    HW1 8408   3.514   6.557   5.248
 2503SOL    HW2 8409   3.382   6.541   5.342
 2504SOL     OW 8410   3.552   5.377   2.534
 2504SOL    HW1 8411   3.550   5.446   2.462
 2504SOL    HW2 8412   3.562   5.422   2.623
 2505SOL     OW 8413   0.401   5.872   3.298
 2505SOL    HW1 8414   0.379   5.778   3.326
 2505SOL    HW2 8415   0.500   5.885   3.303
 2506SOL     OW 8416   6.519   3.723   6.208
 2506SOL    HW1 8417   6.535   3.637   6.256
 2506SOL    HW2 8418   6.490   3.705   6.114
 2507SOL     OW 8419   0.316   3.694   0.083
 2507SOL    HW1 8420   0.227   3.668   0.121
 2507SOL    HW2 8421   0.386   3.632   0.117
 2508SOL     OW 8422   2.772   1.942   4.655
 2508SOL    HW1 8423   2.678   1.951   4.623
 2508SOL    HW2 8424   2.828   2.017   4.618
 2509SOL     OW 8425   6.650   4.341   0.417
 2509SOL    HW1 8426   6.598   4.381   0.342
 2509SOL    HW2 8427   6.686   4.252   0.389
 2510SOL     OW 8428   3.626   4.182   0.738
 2510SOL    HW1 8429   3.642   4.270   0.694
 2510SOL    HW2 8430   3.616   4.195   0.837
 2511SOL     OW 8431   2.161   1.144   4.660
 2511SOL    HW1 8432   2.197   1.121   4.750
 2511SOL    HW2 8433   2.133   1.240   4.658
 2512SOL     OW 8434   4.059   4.213   5.389
 2512SOL    HW1 8435   3.992   4.172   5.451
 2512SOL    HW2 8436   4.046   4.312   5.386
 2513SOL     OW 8437   1.814   5.769   5.065
 2513SOL    HW1 8438   1.751   5.708   5.113
 2513SOL    HW2 8439   1.862   5.717   4.994
 2514SOL     OW 8440   0.598   3.298   4.272
 2514SOL    HW1 8441   0.650   3.274   4.354
 2514SOL    HW2 8442   0.658   3.294   4.193
 2515SOL     OW 8443   1.859   0.056   1.301
 2515SOL    HW1 8444   1.763   0.038   1.321
 2515SOL    HW2 8445   1.898   7.003   1.254
 2516SOL     OW 8446   4.986   1.025   2.267
 2516SOL    HW1 8447   5.006   1.121   2.289
 2516SOL    HW2 8448   5.052   0.966   2.314
 2517SOL     OW 8449   1.763   0.065   5.918
 2517SOL    HW1 8450   1.798   0.104   5.832
 2517SOL    HW2 8451   1.750   0.139   5.985
 2518SOL     OW 8452   1.706   5.169   1.139
 2518SOL    HW1 8453   1.750   5.258   1.142
 2518SOL    HW2 8454   1.682   5.141   1.232
 2519SOL     OW 8455   3.588   1.193   1.413
 2519SOL    HW1 8456   3.643   1.213   1.494
 2519SOL    HW2 8457   3.516   1.262   1.403
 2520SOL     OW 8458   3.197   1.831   6.425
 2520SOL    HW1 8459   3.153   1.788   6.504
 2520SOL    HW2 8460   3.206   1.929   6.441
 2521SOL     OW 8461   3.435   1.948   5.687
 2521SOL    HW1 8462   3.374   1.941   5.608
 2521SOL    HW2 8463   3.384   1.984   5.765
 2522SOL     OW 8464   1.700   1.613   5.612
 2522SOL    HW1 8465   1.775   1.547   5.622
 2522SOL    HW2 8466   1.682   1.627   5.515
 2523SOL     OW 8467   1.530   3.532   1.266
 2523SOL    HW1 8468   1.547   3.440   1.301
 2523SOL    HW2 8469   1.613   3.587   1.275
 2524SOL     OW 8470   0.243   6.406   4.638
 2524SOL    HW1 8471   0.314   6.341   4.612
 2524SOL    HW2 8472   0.153   6.368   4.615
 2525SOL     OW 8473   1.447   3.143   4.800
 2525SOL    HW1 8474   1.422   3.177   4.710
 2525SOL    HW2 8475   1.390   3.187   4.870
 2526SOL     OW 8476   1.540   4.952   6.364
 2526SOL    HW1 8477   1.488   4.873   6.330
 2526SOL    HW2 8478   1.602   4.922   6.437
 2527SOL     OW 8479   5.212   5.882   5.516
 2527SOL    HW1 8480   5.136   5.930   5.558
 2527SOL    HW2 8481   5.227   5.918   5.424
 2528SOL     OW 8482   5.388   4.264   5.736
 2528SOL    HW1 8483   5.422   4.269   5.830
 2528SOL    HW2 8484   5.455   4.219   5.678
 2529SOL     OW 8485   0.661   6.856   0.157
 2529SOL    HW1 8486   0.740   6.844   0.097
 2529SOL    HW2 8487   0.644   6.954   0.171
 2530SOL     OW 8488   2.656   6.014   5.392
 2530SOL    HW1 8489   2.643   5.938   5.328
 2530SOL    HW2 8490   2.684   5.977   5.481
 2531SOL     OW 8491   5.880   6.271   5.858
 2531SOL    HW1 8492   5.782   6.253   5.863
 2531SOL    HW2 8493   5.898   6.339   5.787
 2532SOL     OW 8494   0.184   6.446   0.816
 2532SOL    HW1 8495   0.194   6.362   0.763
 2532SOL    HW2 8496   0.275   6.484   0.835
 2533SOL     OW 8497   4.580   0.611   3.548
 2533SOL    HW1 8498   4.658   0.662   3.585
 2533SOL    HW2 8499   4.516   0.675   3.506
 2534SOL     OW 8500   4.103   1.165   1.548
 2534SOL    HW1 8501   4.174   1.233   1.566
 2534SOL    HW2 8502   4.013   1.210   1.555
 2535SOL     OW 8503   3.260   2.379   6.695
 2535SOL    HW1 8504   3.302   2.399   6.783
 2535SOL    HW2 8505   3.169   2.421   6.691
 2536SOL     OW 8506   1.979   0.361   6.604
 2536SOL    HW1 8507   2.002   0.267   6.628
 2536SOL    HW2 8508   1.883   0.379   6.626
 2537SOL     OW 8509   3.195   7.008   6.436
 2537SOL    HW1 8510   3.246   6.971   6.358
 2537SOL    HW2 8511   3.136   0.057   6.405
 2538SOL     OW 8512   0.308   3.685   3.940
 2538SOL    HW1 8513   0.320   3.640   4.029
 2538SOL    HW2 8514   0.396   3.714   3.905
 2539SOL     OW 8515   4.852   1.041   4.488
 2539SOL    HW1 8516   4.753   1.046   4.472
 2539SOL    HW2 8517   4.897   1.120   4.446
 2540SOL     OW 8518   4.100   1.825   2.911
 2540SOL    HW1 8519   4.097   1.856   2.816
 2540SOL    HW2 8520   4.029   1.756   2.927
 2541SOL     OW 8521   2.690   6.771   5.087
 2541SOL    HW1 8522   2.746   6.825   5.150
 2541SOL    HW2 8523   2.728   6.679   5.078
 2542SOL     OW 8524   3.443   3.547   6.311
 2542SOL    HW1 8525   3.386   3.557   6.230
 2542SOL    HW2 8526   3.385   3.548   6.393
 2543SOL     OW 8527   0.373   0.857   4.389
 2543SOL    HW1 8528   0.310   0.806   4.448
 2543SOL    HW2 8529   0.450   0.798   4.365
 2544SOL     OW 8530   0.407   5.780   0.564
 2544SOL    HW1 8531   0.376   5.809   0.473
 2544SOL    HW2 8532   0.506   5.785   0.569
 2545SOL     OW 8533   1.671   6.412   2.461
 2545SOL    HW1 8534   1.629   6.436   2.548
 2545SOL    HW2 8535   1.705   6.494   2.416
 2546SOL     OW 8536   6.998   2.099   1.157
 2546SOL    HW1 8537   6.910   2.094   1.109
 2546SOL    HW2 8538   0.033   2.163   1.108
 2547SOL     OW 8539   0.479   3.904   0.151
 2547SOL    HW1 8540   0.409   3.835   0.133
 2547SOL    HW2 8541   0.496   3.957   0.068
 2548SOL     OW 8542   0.534   6.799   4.366
 2548SOL    HW1 8543   0.561   6.895   4.370
 2548SOL    HW2 8544   0.555   6.755   4.453
 2549SOL     OW 8545   1.048   0.608   1.666
 2549SOL    HW1 8546   1.061   0.574   1.760
 2549SOL    HW2 8547   1.127   0.582   1.610
 2550SOL     OW 8548   6.369   6.623   0.385
 2550SOL    HW1 8549   6.357   6.563   0.464
 2550SOL    HW2 8550   6.297   6.692   0.385
 2551SOL     OW 8551   2.959   4.710   0.386
 2551SOL    HW1 8552   3.009   4.788   0.424
 2551SOL    HW2 8553   2.910   4.663   0.459
 2552SOL     OW 8554   2.197   5.994   4.653
 2552SOL    HW1 8555   2.154   6.080   4.626
 2552SOL    HW2 8556   2.125   5.927   4.673
 2553SOL     OW 8557   4.094   3.209   5.955
 2553SOL    HW1 8558   4.039   3.273   5.901
 2553SOL    HW2 8559   4.033   3.149   6.007
 2554SOL     OW 8560   2.423   1.071   6.989
 2554SOL    HW1 8561   2.386   1.019   0.040
 2554SOL    HW2 8562   2.348   1.097   6.928
 2555SOL     OW 8563   5.893   1.771   4.208
 2555SOL    HW1 8564   5.963   1.713   4.249
 2555SOL    HW2 8565   5.935   1.855   4.174
 2556SOL     OW 8566   4.377   5.946   0.356
 2556SOL    HW1 8567   4.345   5.906   0.271
 2556SOL    HW2 8568   4.307   5.935   0.427
 2557SOL     OW 8569   1.250   3.494   0.347
 2557SOL    HW1 8570   1.192   3.540   0.280
 2557SOL    HW2 8571   1.322   3.444   0.299
 2558SOL     OW 8572   4.982   1.127   5.378
 2558SOL    HW1 8573   4.970   1.123   5.279
 2558SOL    HW2 8574   5.070   1.088   5.403
 2559SOL     OW 8575   1.176   4.497   5.575
 2559SOL    HW1 8576   1.130   4.455   5.497
 2559SOL    HW2 8577   1.275   4.487   5.565
 2560SOL     OW 8578   6.383   2.400   5.860
 2560SOL    HW1 8579   6.320   2.355   5.796
 2560SOL    HW2 8580   6.380   2.499   5.845
 2561SOL     OW 8581   2.379   4.980   5.100
 2561SOL    HW1 8582   2.456   5.044   5.101
 2561SOL    HW2 8583   2.401   4.902   5.042
 2562SOL     OW 8584   2.440   4.812   1.118
 2562SOL    HW1 8585   2.392   4.778   1.037
 2562SOL    HW2 8586   2.525   4.761   1.131
 2563SOL     OW 8587   3.924   1.370   1.178
 2563SOL    HW1 8588   3.831   1.339   1.157
 2563SOL    HW2 8589   3.989   1.323   1.119
 2564SOL     OW 8590   1.628   5.547   0.060
 2564SOL    HW1 8591   1.640   5.461   0.010
 2564SOL    HW2 8592   1.658   5.623   0.002
 2565SOL     OW 8593   1.230   0.665   6.759
 2565SOL    HW1 8594   1.252   0.682   6.663
 2565SOL    HW2 8595   1.191   0.573   6.769
 2566SOL     OW 8596   2.489   6.723   1.634
 2566SOL    HW1 8597   2.542   6.638   1.627
 2566SOL    HW2 8598   2.497   6.774   1.548
 2567SOL     OW 8599   0.999   0.488   0.913
 2567SOL    HW1 8600   0.958   0.564   0.962
 2567SOL    HW2 8601   0.935   0.411   0.912
 2568SOL     OW 8602   4.472   2.169   0.217
 2568SOL    HW1 8603   4.439   2.077   0.197
 2568SOL    HW2 8604   4.433   2.234   0.152
 2569SOL     OW 8605   3.191   0.737   3.002
 2569SOL    HW1 8606   3.211   0.657   2.946
 2569SOL    HW2 8607   3.260   0.807   2.988
 2570SOL     OW 8608   5.655   0.670   5.587
 2570SOL    HW1 8609   5.662   0.753   5.530
 2570SOL    HW2 8610   5.564   0.667   5.629
 2571SOL     OW 8611   1.729   4.761   3.479
 2571SOL    HW1 8612   1.761   4.693   3.413
 2571SOL    HW2 8613   1.805   4.819   3.507
 2572SOL     OW 8614   3.240   5.380   2.444
 2572SOL    HW1 8615   3.167   5.443   2.417
 2572SOL    HW2 8616   3.201   5.308   2.502
 2573SOL     OW 8617   0.760   2.029   1.145
 2573SOL    HW1 8618   0.758   1.999   1.240
 2573SOL    HW2 8619   0.718   1.958   1.087
 2574SOL     OW 8620   5.175   3.630   0.912
 2574SOL    HW1 8621   5.257   3.588   0.872
 2574SOL    HW2 8622   5.096   3.613   0.852
 2575SOL     OW 8623   5.621   5.400   6.564
 2575SOL    HW1 8624   5.597   5.314   6.517
 2575SOL    HW2 8625   5.654   5.466   6.496
 2576SOL     OW 8626   4.124   6.247   4.477
 2576SOL    HW1 8627   4.200   6.185   4.457
 2576SOL    HW2 8628   4.040   6.194   4.489
 2577SOL     OW 8629   2.881   5.271   2.074
 2577SOL    HW1 8630   2.848   5.223   1.992
 2577SOL    HW2 8631   2.979   5.285   2.067
 2578SOL     OW 8632   3.678   1.601   3.790
 2578SOL    HW1 8633   3.599   1.541   3.775
 2578SOL    HW2 8634   3.689   1.663   3.713
 2579SOL     OW 8635   0.961   6.107   3.902
 2579SOL    HW1 8636   1.009   6.084   3.987
 2579SOL    HW2 8637   1.008   6.065   3.825
 2580SOL     OW 8638   2.485   4.534   0.065
 2580SOL    HW1 8639   2.401   4.498   0.105
 2580SOL    HW2 8640   2.564   4.486   0.105
 2581SOL     OW 8641   1.941   5.356   0.782
 2581SOL    HW1 8642   1.987   5.414   0.849
 2581SOL    HW2 8643   1.963   5.389   0.690
 2582SOL     OW 8644   0.024   3.991   1.495
 2582SOL    HW1 8645   0.077   3.945   1.423
 2582SOL    HW2 8646   6.993   4.062   1.453
 2583SOL     OW 8647   0.584   0.528   6.632
 2583SOL    HW1 8648   0.538   0.600   6.685
 2583SOL    HW2 8649   0.672   0.562   6.600
 2584SOL     OW 8650   4.301   5.256   5.686
 2584SOL    HW1 8651   4.210   5.239   5.723
 2584SOL    HW2 8652   4.293   5.316   5.606
 2585SOL     OW 8653   2.580   4.287   6.775
 2585SOL    HW1 8654   2.641   4.219   6.815
 2585SOL    HW2 8655   2.615   4.379   6.795
 2586SOL     OW 8656   2.987   1.072   5.670
 2586SOL    HW1 8657   2.940   1.028   5.594
 2586SOL    HW2 8658   2.963   1.026   5.756
 2587SOL     OW 8659   6.718   1.341   3.346
 2587SOL    HW1 8660   6.801   1.297   3.380
 2587SOL    HW2 8661   6.638   1.300   3.389
 2588SOL     OW 8662   4.032   2.306   5.278
 2588SOL    HW1 8663   3.936   2.326   5.300
 2588SOL    HW2 8664   4.075   2.388   5.239
 2589SOL     OW 8665   1.246   6.478   6.436
 2589SOL    HW1 8666   1.170   6.448   6.493
 2589SOL    HW2 8667   1.311   6.530   6.491
 2590SOL     OW 8668   2.846   5.115   0.232
 2590SOL    HW1 8669   2.793   5.041   0.191
 2590SOL    HW2 8670   2.943   5.093   0.228
 2591SOL     OW 8671   6.826   5.099   3.513
 2591SOL    HW1 8672   6.779   5.012   3.528
 2591SOL    HW2 8673   6.910   5.102   3.567
 2592SOL     OW 8674   2.602   4.056   6.292
 2592SOL    HW1 8675   2.526   4.097   6.242
 2592SOL    HW2 8676   2.603   4.091   6.386
 2593SOL     OW 8677   3.385   5.739   0.671
 2593SOL    HW1 8678   3.341   5.682   0.602
 2593SOL    HW2 8679   3.460   5.688   0.714
 2594SOL     OW 8680   2.377   4.149   6.149
 2594SOL    HW1 8681   2.283   4.157   6.183
 2594SOL    HW2 8682   2.376   4.099   6.062
 2595SOL     OW 8683   0.570   1.787   4.428
 2595SOL    HW1 8684   0.598   1.828   4.515
 2595SOL    HW2 8685   0.560   1.688   4.440
 2596SOL     OW 8686   2.001   2.822   1.023
 2596SOL    HW1 8687   2.062   2.743   1.026
 2596SOL    HW2 8688   1.954   2.832   1.111
 2597SOL     OW 8689   6.875   5.157   6.772
 2597SOL    HW1 8690   6.884   5.250   6.808
 2597SOL    HW2 8691   6.964   5.124   6.741
 2598SOL     OW 8692   6.765   1.858   1.706
 2598SOL    HW1 8693   6.814   1.920   1.768
 2598SOL    HW2 8694   6.691   1.908   1.660
 2599SOL     OW 8695   1.690   6.395   1.222
 2599SOL    HW1 8696   1.690   6.359   1.315
 2599SOL    HW2 8697   1.661   6.323   1.158
 2600SOL     OW 8698   5.903   3.246   4.221
 2600SOL    HW1 8699   5.990   3.250   4.270
 2600SOL    HW2 8700   5.900   3.319   4.153
 2601SOL     OW 8701   1.765   2.267   2.139
 2601SOL    HW1 8702   1.848   2.235   2.185
 2601SOL    HW2 8703   1.790   2.329   2.065
 2602SOL     OW 8704   1.611   5.123   4.263
 2602SOL    HW1 8705   1.666   5.124   4.179
 2602SOL    HW2 8706   1.669   5.092   4.340
 2603SOL     OW 8707   2.527   1.239   2.280
 2603SOL    HW1 8708   2.445   1.296   2.270
 2603SOL    HW2 8709   2.525   1.166   2.212
 2604SOL     OW 8710   5.412   2.029   2.183
 2604SOL    HW1 8711   5.347   1.958   2.155
 2604SOL    HW2 8712   5.435   2.017   2.280
 2605SOL     OW 8713   1.484   3.766   2.603
 2605SOL    HW1 8714   1.520   3.815   2.524
 2605SOL    HW2 8715   1.413   3.702   2.574
 2606SOL     OW 8716   5.548   5.246   1.133
 2606SOL    HW1 8717   5.560   5.323   1.070
 2606SOL    HW2 8718   5.459   5.204   1.118
 2607SOL     OW 8719   1.831   2.188   1.125
 2607SOL    HW1 8720   1.902   2.118   1.121
 2607SOL    HW2 8721   1.752   2.152   1.176
 2608SOL     OW 8722   2.263   5.468   6.655
 2608SOL    HW1 8723   2.360   5.481   6.674
 2608SOL    HW2 8724   2.214   5.554   6.672
 2609SOL     OW 8725   0.547   1.343   1.124
 2609SOL    HW1 8726   0.491   1.308   1.049
 2609SOL    HW2 8727   0.523   1.296   1.208
 2610SOL     OW 8728   1.061   4.888   4.021
 2610SOL    HW1 8729   1.031   4.826   3.949
 2610SOL    HW2 8730   1.155   4.916   4.004
 2611SOL     OW 8731   4.484   6.176   0.206
 2611SOL    HW1 8732   4.478   6.088   0.253
 2611SOL    HW2 8733   4.392   6.212   0.191
 2612SOL     OW 8734   5.161   6.722   4.492
 2612SOL    HW1 8735   5.197   6.677   4.573
 2612SOL    HW2 8736   5.220   6.799   4.468
 2613SOL     OW 8737   1.522   5.466   6.159
 2613SOL    HW1 8738   1.473   5.468   6.072
 2613SOL    HW2 8739   1.619   5.451   6.142
 2614SOL     OW 8740   5.975   0.804   6.306
 2614SOL    HW1 8741   5.981   0.896   6.267
 2614SOL    HW2 8742   6.067   0.770   6.325
 2615SOL     OW 8743   1.422   3.294   1.682
 2615SOL    HW1 8744   1.364   3.333   1.754
 2615SOL    HW2 8745   1.370   3.290   1.596
 2616SOL     OW 8746   1.001   0.872   5.240
 2616SOL    HW1 8747   0.996   0.923   5.154
 2616SOL    HW2 8748   1.056   0.924   5.306
 2617SOL     OW 8749   5.490   0.437   1.091
 2617SOL    HW1 8750   5.525   0.450   0.998
 2617SOL    HW2 8751   5.391   0.429   1.088
 2618SOL     OW 8752   1.185   5.832   4.830
 2618SOL    HW1 8753   1.234   5.748   4.809
 2618SOL    HW2 8754   1.097   5.809   4.872
 2619SOL     OW 8755   4.284   1.636   2.170
 2619SOL    HW1 8756   4.356   1.573   2.143
 2619SOL    HW2 8757   4.195   1.597   2.147
 2620SOL     OW 8758   6.137   6.158   2.088
 2620SOL    HW1 8759   6.237   6.155   2.077
 2620SOL    HW2 8760   6.098   6.215   2.015
 2621SOL     OW 8761   0.347   5.474   2.678
 2621SOL    HW1 8762   0.356   5.557   2.732
 2621SOL    HW2 8763   0.250   5.455   2.661
 2622SOL     OW 8764   2.897   3.011   6.120
 2622SOL    HW1 8765   2.805   2.990   6.154
 2622SOL    HW2 8766   2.959   2.936   6.143
 2623SOL     OW 8767   0.121   6.610   3.915
 2623SOL    HW1 8768   0.096   6.704   3.939
 2623SOL    HW2 8769   0.044   6.564   3.871
 2624SOL     OW 8770   6.581   1.913   4.583
 2624SOL    HW1 8771   6.541   1.847   4.646
 2624SOL    HW2 8772   6.671   1.880   4.553
 2625SOL     OW 8773   2.252   4.896   5.466
 2625SOL    HW1 8774   2.282   4.983   5.426
 2625SOL    HW2 8775   2.330   4.852   5.510
 2626SOL     OW 8776   6.555   6.694   5.136
 2626SOL    HW1 8777   6.632   6.686   5.199
 2626SOL    HW2 8778   6.527   6.790   5.129
 2627SOL     OW 8779   1.004   0.002   6.351
 2627SOL    HW1 8780   0.971   0.066   6.281
 2627SOL    HW2 8781   1.045   6.948   6.308
 2628SOL     OW 8782   1.554   3.675   3.766
 2628SOL    HW1 8783   1.594   3.607   3.705
 2628SOL    HW2 8784   1.521   3.753   3.711
 2629SOL     OW 8785   3.254   3.894   3.235
 2629SOL    HW1 8786   3.282   3.976   3.285
 2629SOL    HW2 8787   3.163   3.865   3.265
 2630SOL     OW 8788   3.404   1.012   3.093
 2630SOL    HW1 8789   3.340   1.062   3.035
 2630SOL    HW2 8790   3.490   1.063   3.100
 2631SOL     OW 8791   5.565   0.486   6.253
 2631SOL    HW1 8792   5.576   0.506   6.351
 2631SOL    HW2 8793   5.538   0.390   6.241
 2632SOL     OW 8794   5.629   4.742   1.513
 2632SOL    HW1 8795   5.685   4.729   1.430
 2632SOL    HW2 8796   5.538   4.775   1.487
 2633SOL     OW 8797   6.621   2.706   5.351
 2633SOL    HW1 8798   6.621   2.801   5.321
 2633SOL    HW2 8799   6.667   2.699   5.440
 2634SOL     OW 8800   6.912   6.089   4.611
 2634SOL    HW1 8801   6.988   6.025   4.600
 2634SOL    HW2 8802   6.863   6.097   4.525
 2635SOL     OW 8803   5.446   5.279   3.653
 2635SOL    HW1 8804   5.524   5.231   3.612
 2635SOL    HW2 8805   5.459   5.284   3.752
 2636SOL     OW 8806   3.712   0.711   5.894
 2636SOL    HW1 8807   3.713   0.700   5.795
 2636SOL    HW2 8808   3.705   0.808   5.917
 2637SOL     OW 8809   0.001   1.974   3.407
 2637SOL    HW1 8810   0.096   1.943   3.401
 2637SOL    HW2 8811   7.010   2.040   3.334
 2638SOL     OW 8812   0.781   7.000   4.487
 2638SOL    HW1 8813   0.848   0.047   4.472
 2638SOL    HW2 8814   0.775   6.942   4.406
 2639SOL     OW 8815   4.582   5.129   4.936
 2639SOL    HW1 8816   4.491   5.093   4.954
 2639SOL    HW2 8817   4.595   5.214   4.987
 2640SOL     OW 8818   0.490   0.140   4.998
 2640SOL    HW1 8819   0.543   0.110   5.077
 2640SOL    HW2 8820   0.450   0.230   5.016
 2641SOL     OW 8821   5.498   2.536   0.133
 2641SOL    HW1 8822   5.487   2.437   0.125
 2641SOL    HW2 8823   5.589   2.563   0.101
 2642SOL     OW 8824   6.864   1.141   4.546
 2642SOL    HW1 8825   6.909   1.227   4.518
 2642SOL    HW2 8826   6.798   1.114   4.476
 2643SOL     OW 8827   0.736   3.057   4.064
 2643SOL    HW1 8828   0.656   2.998   4.053
 2643SOL    HW2 8829   0.818   3.002   4.071
 2644SOL     OW 8830   4.509   5.409   4.595
 2644SOL    HW1 8831   4.528   5.503   4.568
 2644SOL    HW2 8832   4.571   5.383   4.670
 2645SOL     OW 8833   5.016   5.067   3.539
 2645SOL    HW1 8834   4.957   5.122   3.598
 2645SOL    HW2 8835   5.103   5.116   3.524
 2646SOL     OW 8836   0.570   3.743   6.229
 2646SOL    HW1 8837   0.623   3.661   6.208
 2646SOL    HW2 8838   0.581   3.766   6.326
 2647SOL     OW 8839   5.402   0.165   1.592
 2647SOL    HW1 8840   5.363   0.242   1.541
 2647SOL    HW2 8841   5.501   0.176   1.600
 2648SOL     OW 8842   0.760   0.194   4.213
 2648SOL    HW1 8843   0.686   0.128   4.225
 2648SOL    HW2 8844   0.833   0.174   4.278
 2649SOL     OW 8845   5.070   2.981   1.701
 2649SOL    HW1 8846   5.037   2.937   1.784
 2649SOL    HW2 8847   5.032   3.074   1.694
 2650SOL     OW 8848   2.954   6.203   4.953
 2650SOL    HW1 8849   3.021   6.158   5.012
 2650SOL    HW2 8850   2.893   6.259   5.009
 2651SOL     OW 8851   3.892   1.822   5.844
 2651SOL    HW1 8852   3.843   1.850   5.927
 2651SOL    HW2 8853   3.843   1.855   5.764
 2652SOL     OW 8854   4.914   3.623   5.540
 2652SOL    HW1 8855   4.851   3.672   5.480
 2652SOL    HW2 8856   4.861   3.567   5.604
 2653SOL     OW 8857   3.392   6.151   6.321
 2653SOL    HW1 8858   3.412   6.058   6.291
 2653SOL    HW2 8859   3.293   6.163   6.330
 2654SOL     OW 8860   5.088   6.686   0.355
 2654SOL    HW1 8861   5.047   6.595   0.366
 2654SOL    HW2 8862   5.186   6.676   0.342
 2655SOL     OW 8863   5.127   6.000   3.334
 2655SOL    HW1 8864   5.080   5.915   3.310
 2655SOL    HW2 8865   5.079   6.043   3.410
 2656SOL     OW 8866   3.898   5.994   3.786
 2656SOL    HW1 8867   3.891   5.951   3.696
 2656SOL    HW2 8868   3.968   5.946   3.840
 2657SOL     OW 8869   2.181   3.706   0.588
 2657SOL    HW1 8870   2.088   3.706   0.550
 2657SOL    HW2 8871   2.182   3.656   0.674
 2658SOL     OW 8872   3.988   4.290   6.175
 2658SOL    HW1 8873   3.983   4.201   6.220
 2658SOL    HW2 8874   4.070   4.294   6.117
 2659SOL     OW 8875   5.073   2.200   5.277
 2659SOL    HW1 8876   5.164   2.213   5.316
 2659SOL    HW2 8877   5.019   2.141   5.338
 2660SOL     OW 8878   1.046   1.585   0.917
 2660SOL    HW1 8879   1.088   1.532   0.991
 2660SOL    HW2 8880   1.012   1.671   0.953
 2661SOL     OW 8881   1.326   0.584   1.534
 2661SOL    HW1 8882   1.395   0.551   1.469
 2661SOL    HW2 8883   1.256   0.635   1.485
 2662SOL     OW 8884   3.517   0.842   3.264
 2662SOL    HW1 8885   3.462   0.896   3.200
 2662SOL    HW2 8886   3.504   0.877   3.357
 2663SOL     OW 8887   3.305   6.945   5.765
 2663SOL    HW1 8888   3.373   7.011   5.732
 2663SOL    HW2 8889   3.353   6.865   5.802
 2664SOL     OW 8890   3.697   2.767   5.312
 2664SOL    HW1 8891   3.780   2.712   5.313
 2664SOL    HW2 8892   3.704   2.840   5.380
 2665SOL     OW 8893   2.243   3.683   5.290
 2665SOL    HW1 8894   2.334   3.692   5.331
 2665SOL    HW2 8895   2.198   3.772   5.288
 2666SOL     OW 8896   1.847   3.865   2.741
 2666SOL    HW1 8897   1.945   3.843   2.738
 2666SOL    HW2 8898   1.795   3.780   2.748
 2667SOL     OW 8899   6.516   4.160   3.776
 2667SOL    HW1 8900   6.480   4.088   3.835
 2667SOL    HW2 8901   6.573   4.222   3.829
 2668SOL     OW 8902   5.692   1.478   4.770
 2668SOL    HW1 8903   5.723   1.524   4.854
 2668SOL    HW2 8904   5.652   1.546   4.708
 2669SOL     OW 8905   2.279   6.919   0.384
 2669SOL    HW1 8906   2.211   6.993   0.392
 2669SOL    HW2 8907   2.360   6.953   0.336
 2670SOL     OW 8908   0.020   1.563   5.826
 2670SOL    HW1 8909   6.983   1.601   5.894
 2670SOL    HW2 8910   0.031   1.628   5.751
 2671SOL     OW 8911   3.543   5.609   5.799
 2671SOL    HW1 8912   3.613   5.577   5.735
 2671SOL    HW2 8913   3.547   5.708   5.807
 2672SOL     OW 8914   3.796   1.312   1.865
 2672SOL    HW1 8915   3.736   1.385   1.898
 2672SOL    HW2 8916   3.862   1.350   1.800
 2673SOL     OW 8917   4.751   0.219   2.491
 2673SOL    HW1 8918   4.682   0.278   2.449
 2673SOL    HW2 8919   4.711   0.171   2.569
 2674SOL     OW 8920   0.980   5.444   3.194
 2674SOL    HW1 8921   1.051   5.514   3.187
 2674SOL    HW2 8922   0.990   5.378   3.120
 2675SOL     OW 8923   6.981   6.012   3.722
 2675SOL    HW1 8924   6.993   5.923   3.677
 2675SOL    HW2 8925   6.996   6.002   3.820
 2676SOL     OW 8926   3.038   3.930   2.857
 2676SOL    HW1 8927   3.085   4.014   2.885
 2676SOL    HW2 8928   3.020   3.933   2.759
 2677SOL     OW 8929   2.241   4.609   1.213
 2677SOL    HW1 8930   2.289   4.696   1.227
 2677SOL    HW2 8931   2.292   4.554   1.147
 2678SOL     OW 8932   5.993   2.593   2.555
 2678SOL    HW1 8933   5.957   2.521   2.495
 2678SOL    HW2 8934   5.956   2.580   2.647
 2679SOL     OW 8935   1.415   5.489   1.862
 2679SOL    HW1 8936   1.361   5.416   1.902
 2679SOL    HW2 8937   1.499   5.502   1.914
 2680SOL     OW 8938   0.940   2.225   6.791
 2680SOL    HW1 8939   0.967   2.244   6.697
 2680SOL    HW2 8940   0.959   2.305   6.848
 2681SOL     OW 8941   1.338   2.813   5.374
 2681SOL    HW1 8942   1.303   2.736   5.426
 2681SOL    HW2 8943   1.385   2.876   5.436
 2682SOL     OW 8944   4.732   4.240   2.263
 2682SOL    HW1 8945   4.658   4.212   2.202
 2682SOL    HW2 8946   4.810   4.179   2.251
 2683SOL     OW 8947   2.296   4.180   2.733
 2683SOL    HW1 8948   2.263   4.133   2.815
 2683SOL    HW2 8949   2.347   4.115   2.675
 2684SOL     OW 8950   5.712   5.994   2.317
 2684SOL    HW1 8951   5.656   6.073   2.344
 2684SOL    HW2 8952   5.715   5.928   2.392
 2685SOL     OW 8953   6.836   5.144   5.028
 2685SOL    HW1 8954   6.905   5.215   5.014
 2685SOL    HW2 8955   6.790   5.125   4.941
 2686SOL     OW 8956   1.711   1.226   4.628
 2686SOL    HW1 8957   1.667   1.169   4.698
 2686SOL    HW2 8958   1.810   1.213   4.631
 2687SOL     OW 8959   4.045   1.512   2.085
 2687SOL    HW1 8960   4.007   1.543   1.998
 2687SOL    HW2 8961   4.010   1.420   2.106
 2688SOL     OW 8962   3.518   2.212   6.873
 2688SOL    HW1 8963   3.489   2.292   6.926
 2688SOL    HW2 8964   3.614   2.191   6.895
 2689SOL     OW 8965   0.636   4.301   2.679
 2689SOL    HW1 8966   0.650   4.236   2.605
 2689SOL    HW2 8967   0.640   4.394   2.643
 2690SOL     OW 8968   3.264   1.717   6.095
 2690SOL    HW1 8969   3.205   1.793   6.123
 2690SOL    HW2 8970   3.352   1.724   6.142
 2691SOL     OW 8971   0.126   4.432   4.538
 2691SOL    HW1 8972   0.223   4.422   4.559
 2691SOL    HW2 8973   0.088   4.345   4.508
 2692SOL     OW 8974   2.858   5.829   2.371
 2692SOL    HW1 8975   2.792   5.764   2.333
 2692SOL    HW2 8976   2.820   5.871   2.454
 2693SOL     OW 8977   1.584   5.763   3.924
 2693SOL    HW1 8978   1.637   5.836   3.968
 2693SOL    HW2 8979   1.623   5.743   3.834
 2694SOL     OW 8980   3.484   6.642   3.304
 2694SOL    HW1 8981   3.399   6.692   3.321
 2694SOL    HW2 8982   3.526   6.674   3.219
 2695SOL     OW 8983   6.702   6.897   2.659
 2695SOL    HW1 8984   6.651   6.818   2.624
 2695SOL    HW2 8985   6.751   6.942   2.585
 2696SOL     OW 8986   4.724   4.487   6.213
 2696SOL    HW1 8987   4.796   4.548   6.180
 2696SOL    HW2 8988   4.746   4.457   6.306
 2697SOL     OW 8989   4.145   1.274   1.036
 2697SOL    HW1 8990   4.233   1.283   1.083
 2697SOL    HW2 8991   4.155   1.306   0.942
 2698SOL     OW 8992   1.393   4.580   5.905
 2698SOL    HW1 8993   1.322   4.574   5.976
 2698SOL    HW2 8994   1.389   4.498   5.847
 2699SOL     OW 8995   3.171   5.836   2.226
 2699SOL    HW1 8996   3.188   5.744   2.188
 2699SOL    HW2 8997   3.168   5.831   2.326
 2700SOL     OW 8998   3.138   2.023   1.291
 2700SOL    HW1 8999   3.168   1.976   1.375
 2700SOL    HW2 9000   3.042   2.000   1.273
 2701SOL     OW 9001   5.222   3.128   4.586
 2701SOL    HW1 9002   5.252   3.219   4.616
 2701SOL    HW2 9003   5.123   3.122   4.592
 2702SOL     OW 9004   2.542   1.998   4.531
 2702SOL    HW1 9005   2.562   1.997   4.433
 2702SOL    HW2 9006   2.490   2.080   4.554
 2703SOL     OW 9007   1.775   5.671   1.477
 2703SOL    HW1 9008   1.752   5.759   1.435
 2703SOL    HW2 9009   1.758   5.676   1.576
 2704SOL     OW 9010   6.518   5.406   3.354
 2704SOL    HW1 9011   6.437   5.440   3.307
 2704SOL    HW2 9012   6.499   5.316   3.394
 2705SOL     OW 9013   0.320   0.807   5.242
 2705SOL    HW1 9014   0.333   0.886   5.302
 2705SOL    HW2 9015   0.340   0.723   5.292
 2706SOL     OW 9016   6.532   4.471   4.326
 2706SOL    HW1 9017   6.484   4.385   4.342
 2706SOL    HW2 9018   6.521   4.531   4.406
 2707SOL     OW 9019   3.918   7.001   2.725
 2707SOL    HW1 9020   3.862   0.056   2.739
 2707SOL    HW2 9021   3.979   7.015   2.647
 2708SOL     OW 9022   5.955   2.772   0.152
 2708SOL    HW1 9023   6.030   2.830   0.119
 2708SOL    HW2 9024   5.908   2.819   0.227
 2709SOL     OW 9025   5.137   6.980   6.171
 2709SOL    HW1 9026   5.069   7.000   6.101
 2709SOL    HW2 9027   5.168   6.885   6.162
 2710SOL     OW 9028   1.186   3.460   3.909
 2710SOL    HW1 9029   1.183   3.373   3.959
 2710SOL    HW2 9030   1.275   3.503   3.923
 2711SOL     OW 9031   3.606   2.060   3.694
 2711SOL    HW1 9032   3.534   2.092   3.632
 2711SOL    HW2 9033   3.671   2.003   3.644
 2712SOL     OW 9034   3.887   5.396   2.451
 2712SOL    HW1 9035   3.881   5.336   2.371
 2712SOL    HW2 9036   3.981   5.429   2.461
 2713SOL     OW 9037   4.504   4.678   6.154
 2713SOL    HW1 9038   4.406   4.658   6.158
 2713SOL    HW2 9039   4.556   4.594   6.169
 2714SOL     OW 9040   3.011   3.448   6.589
 2714SOL    HW1 9041   2.977   3.432   6.496
 2714SOL    HW2 9042   2.955   3.518   6.633
 2715SOL     OW 9043   5.207   1.214   1.491
 2715SOL    HW1 9044   5.262   1.276   1.547
 2715SOL    HW2 9045   5.266   1.147   1.447
 2716SOL     OW 9046   4.161   2.164   2.803
 2716SOL    HW1 9047   4.143   2.155   2.901
 2716SOL    HW2 9048   4.181   2.074   2.765
 2717SOL     OW 9049   1.215   1.458   2.340
 2717SOL    HW1 9050   1.181   1.530   2.399
 2717SOL    HW2 9051   1.161   1.456   2.255
 2718SOL     OW 9052   0.254   0.599   6.522
 2718SOL    HW1 9053   0.244   0.657   6.441
 2718SOL    HW2 9054   0.324   0.530   6.505
 2719SOL     OW 9055   1.701   4.177   2.548
 2719SOL    HW1 9056   1.716   4.203   2.643
 2719SOL    HW2 9057   1.605   4.190   2.524
 2720SOL     OW 9058   1.125   0.104   5.345
 2720SOL    HW1 9059   1.190   0.178   5.327
 2720SOL    HW2 9060   1.092   0.112   5.439
 2721SOL     OW 9061   3.032   6.194   1.353
 2721SOL    HW1 9062   2.999   6.288   1.349
 2721SOL    HW2 9063   2.955   6.131   1.363
 2722SOL     OW 9064   4.584   5.723   6.745
 2722SOL    HW1 9065   4.532   5.638   6.758
 2722SOL    HW2 9066   4.647   5.735   6.822
 2723SOL     OW 9067   3.719   6.758   0.275
 2723SOL    HW1 9068   3.709   6.850   0.237
 2723SOL    HW2 9069   3.727   6.763   0.374
 2724SOL     OW 9070   1.043   6.202   0.216
 2724SOL    HW1 9071   1.065   6.175   0.309
 2724SOL    HW2 9072   0.952   6.244   0.214
 2725SOL     OW 9073   4.890   3.686   4.380
 2725SOL    HW1 9074   4.892   3.601   4.433
 2725SOL    HW2 9075   4.871   3.665   4.284
 2726SOL     OW 9076   0.670   1.452   1.594
 2726SOL    HW1 9077   0.675   1.353   1.586
 2726SOL    HW2 9078   0.577   1.478   1.623
 2727SOL     OW 9079   2.302   4.192   3.981
 2727SOL    HW1 9080   2.366   4.115   3.988
 2727SOL    HW2 9081   2.239   4.190   4.058
 2728SOL     OW 9082   5.295   5.390   6.515
 2728SOL    HW1 9083   5.347   5.406   6.599
 2728SOL    HW2 9084   5.229   5.316   6.531
 2729SOL     OW 9085   5.333   6.174   5.881
 2729SOL    HW1 9086   5.318   6.076   5.874
 2729SOL    HW2 9087   5.324   6.216   5.791
 2730SOL     OW 9088   0.223   5.617   2.240
 2730SOL    HW1 9089   0.204   5.676   2.162
 2730SOL    HW2 9090   0.316   5.581   2.233
 2731SOL     OW 9091   3.247   3.225   3.788
 2731SOL    HW1 9092   3.193   3.183   3.861
 2731SOL    HW2 9093   3.220   3.186   3.700
 2732SOL     OW 9094   4.572   1.418   1.365
 2732SOL    HW1 9095   4.664   1.449   1.340
 2732SOL    HW2 9096   4.557   1.434   1.463
 2733SOL     OW 9097   6.593   0.991   5.995
 2733SOL    HW1 9098   6.588   1.090   5.989
 2733SOL    HW2 9099   6.680   0.960   5.956
 2734SOL     OW 9100   3.601   5.963   1.747
 2734SOL    HW1 9101   3.505   5.979   1.769
 2734SOL    HW2 9102   3.654   6.045   1.767
 2735SOL     OW 9103   1.587   2.430   0.618
 2735SOL    HW1 9104   1.680   2.400   0.597
 2735SOL    HW2 9105   1.522   2.369   0.572
 2736SOL     OW 9106   5.373   6.216   3.482
 2736SOL    HW1 9107   5.376   6.212   3.382
 2736SOL    HW2 9108   5.353   6.125   3.519
 2737SOL     OW 9109   2.992   1.793   6.212
 2737SOL    HW1 9110   2.941   1.708   6.205
 2737SOL    HW2 9111   2.993   1.825   6.307
 2738SOL     OW 9112   5.749   0.853   1.526
 2738SOL    HW1 9113   5.699   0.838   1.611
 2738SOL    HW2 9114   5.802   0.938   1.533
 2739SOL     OW 9115   1.218   5.168   1.696
 2739SOL    HW1 9116   1.164   5.106   1.638
 2739SOL    HW2 9117   1.191   5.157   1.791
 2740SOL     OW 9118   0.050   5.975   2.399
 2740SOL    HW1 9119   0.084   6.055   2.350
 2740SOL    HW2 9120   6.982   5.992   2.430
 2741SOL     OW 9121   0.882   2.529   4.405
 2741SOL    HW1 9122   0.887   2.517   4.504
 2741SOL    HW2 9123   0.923   2.451   4.359
 2742SOL     OW 9124   3.430   4.556   1.582
 2742SOL    HW1 9125   3.389   4.465   1.594
 2742SOL    HW2 9126   3.487   4.578   1.660
 2743SOL     OW 9127   6.771   4.738   1.893
 2743SOL    HW1 9128   6.675   4.746   1.922
 2743SOL    HW2 9129   6.821   4.682   1.958
 2744SOL     OW 9130   2.945   3.239   2.368
 2744SOL    HW1 9131   2.999   3.201   2.293
 2744SOL    HW2 9132   2.918   3.165   2.430
 2745SOL     OW 9133   6.636   1.279   5.988
 2745SOL    HW1 9134   6.652   1.356   5.926
 2745SOL    HW2 9135   6.623   1.313   6.081
 2746SOL     OW 9136   0.807   0.704   3.930
 2746SOL    HW1 9137   0.754   0.699   3.845
 2746SOL    HW2 9138   0.751   0.744   4.002
 2747SOL     OW 9139   3.556   5.368   0.474
 2747SOL    HW1 9140   3.553   5.409   0.565
 2747SOL    HW2 9141   3.625   5.414   0.418
 2748SOL     OW 9142   4.704   0.617   1.278
 2748SOL    HW1 9143   4.719   0.695   1.218
 2748SOL    HW2 9144   4.668   0.540   1.225
 2749SOL     OW 9145   1.190   3.275   0.492
 2749SOL    HW1 9146   1.209   3.364   0.450
 2749SOL    HW2 9147   1.131   3.221   0.431
 2750SOL     OW 9148   2.662   5.279   2.495
 2750SOL    HW1 9149   2.731   5.216   2.461
 2750SOL    HW2 9150   2.704   5.367   2.518
 2751SOL     OW 9151   1.812   2.222   1.485
 2751SOL    HW1 9152   1.903   2.196   1.455
 2751SOL    HW2 9153   1.809   2.224   1.585
 2752SOL     OW 9154   3.992   4.654   5.624
 2752SOL    HW1 9155   4.091   4.655   5.609
 2752SOL    HW2 9156   3.945   4.655   5.535
 2753SOL     OW 9157   6.224   6.496   4.755
 2753SOL    HW1 9158   6.306   6.551   4.743
 2753SOL    HW2 9159   6.231   6.444   4.841
 2754SOL     OW 9160   0.170   6.211   6.863
 2754SOL    HW1 9161   0.198   6.156   6.942
 2754SOL    HW2 9162   0.242   6.277   6.841
 2755SOL     OW 9163   2.712   6.975   2.631
 2755SOL    HW1 9164   2.616   6.958   2.611
 2755SOL    HW2 9165   2.765   6.974   2.546
 2756SOL     OW 9166   4.886   6.489   0.591
 2756SOL    HW1 9167   4.958   6.468   0.525
 2756SOL    HW2 9168   4.922   6.477   0.684
 2757SOL     OW 9169   1.160   5.290   0.766
 2757SOL    HW1 9170   1.159   5.190   0.760
 2757SOL    HW2 9171   1.067   5.325   0.763
 2758SOL     OW 9172   5.313   6.996   5.011
 2758SOL    HW1 9173   5.320   0.067   5.035
 2758SOL    HW2 9174   5.392   6.970   4.956
 2759SOL     OW 9175   5.383   6.585   4.207
 2759SOL    HW1 9176   5.311   6.516   4.198
 2759SOL    HW2 9177   5.438   6.565   4.288
 2760SOL     OW 9178   2.038   5.469   2.257
 2760SOL    HW1 9179   2.092   5.439   2.336
 2760SOL    HW2 9180   2.032   5.395   2.191
 2761SOL     OW 9181   1.037   5.559   3.573
 2761SOL    HW1 9182   1.093   5.539   3.492
 2761SOL    HW2 9183   1.085   5.528   3.655
 2762SOL     OW 9184   1.132   6.839   5.509
 2762SOL    HW1 9185   1.226   6.873   5.516
 2762SOL    HW2 9186   1.120   6.794   5.420
 2763SOL     OW 9187   5.706   2.181   3.617
 2763SOL    HW1 9188   5.640   2.205   3.545
 2763SOL    HW2 9189   5.693   2.241   3.696
 2764SOL     OW 9190   5.330   7.008   1.269
 2764SOL    HW1 9191   5.409   0.027   1.310
 2764SOL    HW2 9192   5.247   0.034   1.291
 2765SOL     OW 9193   5.094   1.277   2.070
 2765SOL    HW1 9194   5.029   1.218   2.022
 2765SOL    HW2 9195   5.140   1.225   2.142
 2766SOL     OW 9196   6.147   1.576   0.617
 2766SOL    HW1 9197   6.246   1.560   0.611
 2766SOL    HW2 9198   6.127   1.629   0.699
 2767SOL     OW 9199   6.660   4.383   6.471
 2767SOL    HW1 9200   6.594   4.458   6.461
 2767SOL    HW2 9201   6.611   4.297   6.484
 2768SOL     OW 9202   5.702   1.113   7.019
 2768SOL    HW1 9203   5.722   1.185   6.953
 2768SOL    HW2 9204   5.642   1.148   0.064
 2769SOL     OW 9205   6.659   4.210   3.101
 2769SOL    HW1 9206   6.588   4.175   3.162
 2769SOL    HW2 9207   6.636   4.187   3.006
 2770SOL     OW 9208   1.354   5.463   0.715
 2770SOL    HW1 9209   1.276   5.409   0.746
 2770SOL    HW2 9210   1.376   5.439   0.620
 2771SOL     OW 9211   5.137   1.148   1.004
 2771SOL    HW1 9212   5.198   1.069   1.011
 2771SOL    HW2 9213   5.116   1.183   1.095
 2772SOL     OW 9214   4.442   2.710   0.181
 2772SOL    HW1 9215   4.531   2.728   0.223
 2772SOL    HW2 9216   4.374   2.694   0.253
 2773SOL     OW 9217   4.277   3.319   5.772
 2773SOL    HW1 9218   4.303   3.412   5.797
 2773SOL    HW2 9219   4.217   3.281   5.843
 2774SOL     OW 9220   5.711   2.519   2.180
 2774SOL    HW1 9221   5.796   2.503   2.229
 2774SOL    HW2 9222   5.722   2.492   2.084
 2775SOL     OW 9223   0.002   6.081   1.282
 2775SOL    HW1 9224   6.956   6.075   1.213
 2775SOL    HW2 9225   7.015   6.009   1.350
 2776SOL     OW 9226   4.274   5.451   5.514
 2776SOL    HW1 9227   4.296   5.537   5.560
 2776SOL    HW2 9228   4.321   5.447   5.426
 2777SOL     OW 9229   3.268   1.029   2.560
 2777SOL    HW1 9230   3.335   1.016   2.633
 2777SOL    HW2 9231   3.194   0.963   2.569
 2778SOL     OW 9232   1.675   1.234   5.412
 2778SOL    HW1 9233   1.743   1.286   5.463
 2778SOL    HW2 9234   1.621   1.178   5.475
 2779SOL     OW 9235   4.868   6.916   0.381
 2779SOL    HW1 9236   4.826   6.834   0.420
 2779SOL    HW2 9237   4.964   6.921   0.410
 2780SOL     OW 9238   5.887   5.371   6.075
 2780SOL    HW1 9239   5.877   5.307   5.998
 2780SOL    HW2 9240   5.817   5.442   6.069
 2781SOL     OW 9241   6.159   5.341   1.832
 2781SOL    HW1 9242   6.188   5.247   1.853
 2781SOL    HW2 9243   6.185   5.401   1.908
 2782SOL     OW 9244   2.863   2.762   6.487
 2782SOL    HW1 9245   2.885   2.664   6.480
 2782SOL    HW2 9246   2.828   2.781   6.578
 2783SOL     OW 9247   6.207   3.576   4.657
 2783SOL    HW1 9248   6.233   3.561   4.562
 2783SOL    HW2 9249   6.138   3.509   4.684
 2784SOL     OW 9250   2.158   2.583   1.071
 2784SOL    HW1 9251   2.156   2.588   1.171
 2784SOL    HW2 9252   2.143   2.489   1.042
 2785SOL     OW 9253   6.639   1.241   0.064
 2785SOL    HW1 9254   6.717   1.252   0.002
 2785SOL    HW2 9255   6.576   1.318   0.051
 2786SOL     OW 9256   3.889   6.961   0.764
 2786SOL    HW1 9257   3.810   6.987   0.820
 2786SOL    HW2 9258   3.973   6.978   0.815
 2787SOL     OW 9259   2.174   4.142   6.610
 2787SOL    HW1 9260   2.256   4.143   6.667
 2787SOL    HW2 9261   2.125   4.228   6.621
 2788SOL     OW 9262   2.486   4.371   0.378
 2788SOL    HW1 9263   2.483   4.303   0.305
 2788SOL    HW2 9264   2.461   4.328   0.465
 2789SOL     OW 9265   1.367   1.837   4.118
 2789SOL    HW1 9266   1.308   1.873   4.190
 2789SOL    HW2 9267   1.319   1.764   4.069
 2790SOL     OW 9268   3.844   5.331   2.712
 2790SOL    HW1 9269   3.873   5.346   2.617
 2790SOL    HW2 9270   3.759   5.382   2.729
 2791SOL     OW 9271   1.894   4.571   4.920
 2791SOL    HW1 9272   1.853   4.528   5.000
 2791SOL    HW2 9273   1.842   4.546   4.838
 2792SOL     OW 9274   1.439   0.818   5.754
 2792SOL    HW1 9275   1.472   0.748   5.690
 2792SOL    HW2 9276   1.505   0.829   5.828
 2793SOL     OW 9277   5.162   1.390   2.502
 2793SOL    HW1 9278   5.088   1.444   2.461
 2793SOL    HW2 9279   5.138   1.293   2.498
 2794SOL     OW 9280   0.229   2.486   0.482
 2794SOL    HW1 9281   0.280   2.437   0.553
 2794SOL    HW2 9282   0.151   2.430   0.453
 2795SOL     OW 9283   3.061   4.194   1.143
 2795SOL    HW1 9284   3.014   4.226   1.225
 2795SOL    HW2 9285   3.154   4.231   1.140
 2796SOL     OW 9286   6.372   4.127   2.346
 2796SOL    HW1 9287   6.439   4.113   2.419
 2796SOL    HW2 9288   6.330   4.218   2.356
 2797SOL     OW 9289   5.182   5.478   4.677
 2797SOL    HW1 9290   5.116   5.490   4.603
 2797SOL    HW2 9291   5.237   5.397   4.661
 2798SOL     OW 9292   0.751   4.118   2.903
 2798SOL    HW1 9293   0.691   4.051   2.946
 2798SOL    HW2 9294   0.706   4.158   2.823
 2799SOL     OW 9295   0.278   5.571   6.466
 2799SOL    HW1 9296   0.247   5.662   6.492
 2799SOL    HW2 9297   0.235   5.545   6.379
 2800SOL     OW 9298   4.397   4.351   6.226
 2800SOL    HW1 9299   4.388   4.252   6.213
 2800SOL    HW2 9300   4.399   4.372   6.324
 2801SOL     OW 9301   4.088   5.844   3.255
 2801SOL    HW1 9302   4.141   5.924   3.227
 2801SOL    HW2 9303   4.151   5.771   3.284
 2802SOL     OW 9304   3.974   2.445   6.475
 2802SOL    HW1 9305   3.884   2.427   6.435
 2802SOL    HW2 9306   4.033   2.366   6.460
 2803SOL     OW 9307   2.120   6.038   5.775
 2803SOL    HW1 9308   2.049   6.066   5.710
 2803SOL    HW2 9309   2.123   6.105   5.850
 2804SOL     OW 9310   0.058   4.512   3.394
 2804SOL    HW1 9311   0.131   4.466   3.446
 2804SOL    HW2 9312   0.015   4.581   3.452
 2805SOL     OW 9313   4.583   3.392   1.569
 2805SOL    HW1 9314   4.614   3.334   1.645
 2805SOL    HW2 9315   4.661   3.414   1.511
 2806SOL     OW 9316   5.745   5.496   3.113
 2806SOL    HW1 9317   5.816   5.433   3.142
 2806SOL    HW2 9318   5.732   5.489   3.014
 2807SOL     OW 9319   5.389   4.691   3.666
 2807SOL    HW1 9320   5.346   4.767   3.618
 2807SOL    HW2 9321   5.327   4.659   3.738
 2808SOL     OW 9322   4.514   1.185   3.184
 2808SOL    HW1 9323   4.546   1.274   3.151
 2808SOL    HW2 9324   4.566   1.158   3.264
 2809SOL     OW 9325   6.254   2.819   1.587
 2809SOL    HW1 9326   6.184   2.771   1.640
 2809SOL    HW2 9327   6.305   2.880   1.648
 2810SOL     OW 9328   3.465   6.703   4.900
 2810SOL    HW1 9329   3.546   6.757   4.876
 2810SOL    HW2 9330   3.486   6.645   4.979
 2811SOL     OW 9331   0.964   1.466   2.755
 2811SOL    HW1 9332   0.995   1.371   2.760
 2811SOL    HW2 9333   1.037   1.523   2.717
 2812SOL     OW 9334   4.987   3.542   1.842
 2812SOL    HW1 9335   4.947   3.553   1.751
 2812SOL    HW2 9336   4.937   3.472   1.892
 2813SOL     OW 9337   5.495   6.682   6.260
 2813SOL    HW1 9338   5.538   6.692   6.350
 2813SOL    HW2 9339   5.548   6.733   6.192
 2814SOL     OW 9340   4.417   3.358   6.088
 2814SOL    HW1 9341   4.511   3.359   6.120
 2814SOL    HW2 9342   4.374   3.447   6.107
 2815SOL     OW 9343   6.560   0.932   4.605
 2815SOL    HW1 9344   6.593   0.982   4.525
 2815SOL    HW2 9345   6.476   0.883   4.581
 2816SOL     OW 9346   6.171   6.632   3.804
 2816SOL    HW1 9347   6.175   6.584   3.892
 2816SOL    HW2 9348   6.077   6.663   3.788
 2817SOL     OW 9349   1.647   0.693   1.021
 2817SOL    HW1 9350   1.661   0.638   1.103
 2817SOL    HW2 9351   1.685   0.646   0.942
 2818SOL     OW 9352   0.068   5.031   6.618
 2818SOL    HW1 9353   7.025   5.019   6.547
 2818SOL    HW2 9354   0.155   4.992   6.587
 2819SOL     OW 9355   0.442   2.117   0.869
 2819SOL    HW1 9356   0.503   2.090   0.794
 2819SOL    HW2 9357   0.423   2.038   0.927
 2820SOL     OW 9358   0.331   2.599   2.790
 2820SOL    HW1 9359   0.402   2.643   2.735
 2820SOL    HW2 9360   0.268   2.549   2.730
 2821SOL     OW 9361   2.654   4.151   6.018
 2821SOL    HW1 9362   2.607   4.228   6.060
 2821SOL    HW2 9363   2.722   4.115   6.082
 2822SOL     OW 9364   4.201   2.887   0.229
 2822SOL    HW1 9365   4.145   2.813   0.192
 2822SOL    HW2 9366   4.270   2.914   0.161
 2823SOL     OW 9367   2.190   6.734   1.681
 2823SOL    HW1 9368   2.290   6.730   1.679
 2823SOL    HW2 9369   2.155   6.676   1.753
 2824SOL     OW 9370   2.305   1.160   4.947
 2824SOL    HW1 9371   2.365   1.173   5.026
 2824SOL    HW2 9372   2.268   1.067   4.950
 2825SOL     OW 9373   6.663   6.829   0.777
 2825SOL    HW1 9374   6.650   6.804   0.873
 2825SOL    HW2 9375   6.703   6.751   0.728
 2826SOL     OW 9376   5.626   1.630   6.018
 2826SOL    HW1 9377   5.642   1.661   5.924
 2826SOL    HW2 9378   5.528   1.631   6.037
 2827SOL     OW 9379   6.591   1.495   5.108
 2827SOL    HW1 9380   6.613   1.458   5.017
 2827SOL    HW2 9381   6.649   1.574   5.127
 2828SOL     OW 9382   3.641   1.021   5.997
 2828SOL    HW1 9383   3.722   1.077   6.013
 2828SOL    HW2 9384   3.566   1.078   5.964
 2829SOL     OW 9385   3.969   4.711   6.160
 2829SOL    HW1 9386   4.033   4.654   6.210
 2829SOL    HW2 9387   3.956   4.797   6.210
 2830SOL     OW 9388   6.437   4.231   6.256
 2830SOL    HW1 9389   6.394   4.157   6.204
 2830SOL    HW2 9390   6.532   4.243   6.225
 2831SOL     OW 9391   6.758   5.917   4.778
 2831SOL    HW1 9392   6.793   5.986   4.715
 2831SOL    HW2 9393   6.834   5.876   4.828
 2832SOL     OW 9394   0.507   1.575   1.281
 2832SOL    HW1 9395   0.511   1.511   1.204
 2832SOL    HW2 9396   0.600   1.600   1.308
 2833SOL     OW 9397   5.816   1.660   2.465
 2833SOL    HW1 9398   5.773   1.729   2.523
 2833SOL    HW2 9399   5.836   1.699   2.375
 2834SOL     OW 9400   2.860   1.556   6.384
 2834SOL    HW1 9401   2.860   1.509   6.472
 2834SOL    HW2 9402   2.790   1.627   6.384
 2835SOL     OW 9403   0.478   6.775   1.903
 2835SOL    HW1 9404   0.400   6.776   1.840
 2835SOL    HW2 9405   0.556   6.821   1.860
 2836SOL     OW 9406   0.003   6.857   1.738
 2836SOL    HW1 9407   6.972   6.936   1.712
 2836SOL    HW2 9408   0.008   6.793   1.661
 2837SOL     OW 9409   5.491   3.400   3.105
 2837SOL    HW1 9410   5.493   3.469   3.032
 2837SOL    HW2 9411   5.405   3.409   3.156
 2838SOL     OW 9412   2.080   4.412   1.801
 2838SOL    HW1 9413   2.176   4.394   1.824
 2838SOL    HW2 9414   2.035   4.326   1.777
 2839SOL     OW 9415   5.981   1.291   2.068
 2839SOL    HW1 9416   5.973   1.285   2.168
 2839SOL    HW2 9417   5.947   1.380   2.037
 2840SOL     OW 9418   0.184   1.185   4.692
 2840SOL    HW1 9419   0.196   1.174   4.791
 2840SOL    HW2 9420   0.174   1.282   4.670
 2841SOL     OW 9421   0.551   6.718   6.680
 2841SOL    HW1 9422   0.605   6.701   6.598
 2841SOL    HW2 9423   0.561   6.814   6.707
 2842SOL     OW 9424   6.526   2.428   3.851
 2842SOL    HW1 9425   6.430   2.416   3.826
 2842SOL    HW2 9426   6.584   2.380   3.785
 2843SOL     OW 9427   3.348   1.598   4.308
 2843SOL    HW1 9428   3.348   1.533   4.232
 2843SOL    HW2 9429   3.327   1.549   4.393
 2844SOL     OW 9430   1.076   3.548   0.110
 2844SOL    HW1 9431   1.149   3.507   0.056
 2844SOL    HW2 9432   1.019   3.605   0.051
 2845SOL     OW 9433   0.875   3.682   0.862
 2845SOL    HW1 9434   0.944   3.630   0.913
 2845SOL    HW2 9435   0.785   3.667   0.904
 2846SOL     OW 9436   4.739   1.222   0.052
 2846SOL    HW1 9437   4.682   1.154   0.097
 2846SOL    HW2 9438   4.799   1.177   7.011
 2847SOL     OW 9439   5.263   3.401   3.690
 2847SOL    HW1 9440   5.255   3.480   3.631
 2847SOL    HW2 9441   5.340   3.344   3.661
 2848SOL     OW 9442   0.352   4.515   5.437
 2848SOL    HW1 9443   0.365   4.419   5.415
 2848SOL    HW2 9444   0.371   4.530   5.534
 2849SOL     OW 9445   3.398   1.001   1.016
 2849SOL    HW1 9446   3.419   1.001   1.114
 2849SOL    HW2 9447   3.456   1.067   0.969
 2850SOL     OW 9448   3.298   0.648   1.647
 2850SOL    HW1 9449   3.329   0.729   1.698
 2850SOL    HW2 9450   3.378   0.597   1.614
 2851SOL     OW 9451   0.981   4.428   5.385
 2851SOL    HW1 9452   0.887   4.420   5.418
 2851SOL    HW2 9453   0.985   4.497   5.313
 2852SOL     OW 9454   5.885   4.108   6.745
 2852SOL    HW1 9455   5.828   4.091   6.825
 2852SOL    HW2 9456   5.845   4.183   6.692
 2853SOL     OW 9457   2.878   2.533   0.418
 2853SOL    HW1 9458   2.855   2.626   0.388
 2853SOL    HW2 9459   2.970   2.509   0.385
 2854SOL     OW 9460   3.151   1.169   4.232
 2854SOL    HW1 9461   3.206   1.209   4.159
 2854SOL    HW2 9462   3.104   1.087   4.198
 2855SOL     OW 9463   2.037   0.212   6.038
 2855SOL    HW1 9464   2.100   0.153   6.089
 2855SOL    HW2 9465   2.019   0.172   5.948
 2856SOL     OW 9466   2.318   3.144   6.037
 2856SOL    HW1 9467   2.346   3.072   6.100
 2856SOL    HW2 9468   2.277   3.103   5.955
 2857SOL     OW 9469   2.926   1.538   1.577
 2857SOL    HW1 9470   2.915   1.449   1.622
 2857SOL    HW2 9471   2.843   1.592   1.591
 2858SOL     OW 9472   5.997   3.289   2.050
 2858SOL    HW1 9473   6.031   3.284   2.144
 2858SOL    HW2 9474   6.007   3.382   2.016
 2859SOL     OW 9475   5.248   1.218   0.533
 2859SOL    HW1 9476   5.346   1.205   0.515
 2859SOL    HW2 9477   5.208   1.130   0.560
 2860SOL     OW 9478   4.493   1.852   1.423
 2860SOL    HW1 9479   4.398   1.883   1.416
 2860SOL    HW2 9480   4.503   1.790   1.500
 2861SOL     OW 9481   4.400   5.683   5.596
 2861SOL    HW1 9482   4.350   5.736   5.665
 2861SOL    HW2 9483   4.498   5.688   5.615
 2862SOL     OW 9484   5.851   1.389   3.304
 2862SOL    HW1 9485   5.884   1.482   3.288
 2862SOL    HW2 9486   5.842   1.374   3.403
 2863SOL     OW 9487   5.995   0.973   0.163
 2863SOL    HW1 9488   5.934   0.896   0.184
 2863SOL    HW2 9489   5.960   1.055   0.208
 2864SOL     OW 9490   3.981   7.024   1.254
 2864SOL    HW1 9491   3.964   7.019   1.155
 2864SOL    HW2 9492   3.908   6.976   1.303
 2865SOL     OW 9493   4.879   4.401   5.079
 2865SOL    HW1 9494   4.879   4.469   5.006
 2865SOL    HW2 9495   4.971   4.361   5.087
 2866SOL     OW 9496   6.875   0.049   0.126
 2866SOL    HW1 9497   6.916   7.020   0.053
 2866SOL    HW2 9498   6.917   0.025   0.213
 2867SOL     OW 9499   5.981   4.397   2.591
 2867SOL    HW1 9500   5.943   4.422   2.502
 2867SOL    HW2 9501   5.907   4.367   2.651
 2868SOL     OW 9502   0.823   3.748   5.349
 2868SOL    HW1 9503   0.891   3.762   5.421
 2868SOL    HW2 9504   0.869   3.716   5.266
 2869SOL     OW 9505   6.168   1.199   2.586
 2869SOL    HW1 9506   6.198   1.237   2.673
 2869SOL    HW2 9507   6.095   1.257   2.548
 2870SOL     OW 9508   6.448   1.629   4.218
 2870SOL    HW1 9509   6.357   1.665   4.201
 2870SOL    HW2 9510   6.461   1.614   4.316
 2871SOL     OW 9511   2.111   1.970   6.375
 2871SOL    HW1 9512   2.077   1.934   6.462
 2871SOL    HW2 9513   2.211   1.967   6.375
 2872SOL     OW 9514   2.949   1.548   3.897
 2872SOL    HW1 9515   2.919   1.594   3.981
 2872SOL    HW2 9516   2.895   1.465   3.884
 2873SOL     OW 9517   0.729   5.571   3.103
 2873SOL    HW1 9518   0.800   5.505   3.076
 2873SOL    HW2 9519   0.735   5.588   3.201
 2874SOL     OW 9520   5.134   4.936   2.011
 2874SOL    HW1 9521   5.098   4.843   2.003
 2874SOL    HW2 9522   5.073   5.000   1.964
 2875SOL     OW 9523   4.168   6.549   6.350
 2875SOL    HW1 9524   4.218   6.513   6.271
 2875SOL    HW2 9525   4.114   6.476   6.391
 2876SOL     OW 9526   1.127   0.646   2.035
 2876SOL    HW1 9527   1.045   0.604   2.074
 2876SOL    HW2 9528   1.184   0.576   1.992
 2877SOL     OW 9529   3.690   2.934   5.532
 2877SOL    HW1 9530   3.630   3.014   5.530
 2877SOL    HW2 9531   3.746   2.936   5.615
 2878SOL     OW 9532   3.046   5.255   4.866
 2878SOL    HW1 9533   2.964   5.312   4.881
 2878SOL    HW2 9534   3.069   5.208   4.951
 2879SOL     OW 9535   4.846   5.371   0.334
 2879SOL    HW1 9536   4.945   5.380   0.336
 2879SOL    HW2 9537   4.818   5.293   0.390
 2880SOL     OW 9538   6.580   6.478   0.312
 2880SOL    HW1 9539   6.505   6.527   0.357
 2880SOL    HW2 9540   6.547   6.439   0.226
 2881SOL     OW 9541   6.383   6.356   1.323
 2881SOL    HW1 9542   6.365   6.366   1.225
 2881SOL    HW2 9543   6.468   6.304   1.336
 2882SOL     OW 9544   0.876   3.234   2.561
 2882SOL    HW1 9545   0.829   3.165   2.616
 2882SOL    HW2 9546   0.956   3.267   2.611
 2883SOL     OW 9547   3.787   6.787   3.395
 2883SOL    HW1 9548   3.752   6.694   3.380
 2883SOL    HW2 9549   3.749   6.823   3.480
 2884SOL     OW 9550   0.404   6.229   3.223
 2884SOL    HW1 9551   0.493   6.273   3.212
 2884SOL    HW2 9552   0.332   6.298   3.217
 2885SOL     OW 9553   0.420   2.476   3.047
 2885SOL    HW1 9554   0.370   2.497   2.963
 2885SOL    HW2 9555   0.450   2.561   3.091
 2886SOL     OW 9556   2.278   2.904   6.526
 2886SOL    HW1 9557   2.239   2.944   6.608
 2886SOL    HW2 9558   2.374   2.930   6.518
 2887SOL     OW 9559   2.180   6.901   5.090
 2887SOL    HW1 9560   2.278   6.921   5.089
 2887SOL    HW2 9561   2.157   6.843   5.012
 2888SOL     OW 9562   0.216   4.811   6.183
 2888SOL    HW1 9563   0.301   4.758   6.174
 2888SOL    HW2 9564   0.142   4.751   6.212
 2889SOL     OW 9565   1.552   1.051   2.126
 2889SOL    HW1 9566   1.583   1.011   2.212
 2889SOL    HW2 9567   1.476   0.997   2.089
 2890SOL     OW 9568   3.050   0.465   1.172
 2890SOL    HW1 9569   3.107   0.545   1.193
 2890SOL    HW2 9570   3.035   0.412   1.256
 2891SOL     OW 9571   2.314   4.753   3.603
 2891SOL    HW1 9572   2.219   4.752   3.632
 2891SOL    HW2 9573   2.370   4.792   3.676
 2892SOL     OW 9574   4.894   4.130   6.954
 2892SOL    HW1 9575   4.976   4.173   6.916
 2892SOL    HW2 9576   4.829   4.111   6.881
 2893SOL     OW 9577   2.487   6.038   5.982
 2893SOL    HW1 9578   2.528   6.128   5.991
 2893SOL    HW2 9579   2.396   6.038   6.022
 2894SOL     OW 9580   2.843   2.506   6.900
 2894SOL    HW1 9581   2.823   2.589   6.952
 2894SOL    HW2 9582   2.757   2.469   6.864
 2895SOL     OW 9583   3.714   3.195   6.635
 2895SOL    HW1 9584   3.684   3.239   6.551
 2895SOL    HW2 9585   3.807   3.225   6.657
 2896SOL     OW 9586   2.516   5.517   6.702
 2896SOL    HW1 9587   2.600   5.506   6.756
 2896SOL    HW2 9588   2.540   5.523   6.605
 2897SOL     OW 9589   2.348   6.463   3.852
 2897SOL    HW1 9590   2.436   6.484   3.894
 2897SOL    HW2 9591   2.326   6.366   3.868
 2898SOL     OW 9592   4.535   4.767   2.555
 2898SOL    HW1 9593   4.545   4.771   2.456
 2898SOL    HW2 9594   4.550   4.858   2.594
 2899SOL     OW 9595   0.376   0.929   6.501
 2899SOL    HW1 9596   0.278   0.944   6.511
 2899SOL    HW2 9597   0.393   0.855   6.437
 2900SOL     OW 9598   1.149   4.804   5.546
 2900SOL    HW1 9599   1.208   4.733   5.584
 2900SOL    HW2 9600   1.205   4.877   5.507
 2901SOL     OW 9601   1.932   0.315   2.470
 2901SOL    HW1 9602   2.009   0.355   2.519
 2901SOL    HW2 9603   1.915   0.223   2.504
 2902SOL     OW 9604   5.782   6.540   0.525
 2902SOL    HW1 9605   5.713   6.574   0.589
 2902SOL    HW2 9606   5.861   6.601   0.525
 2903SOL     OW 9607   3.349   0.472   1.988
 2903SOL    HW1 9608   3.376   0.411   1.914
 2903SOL    HW2 9609   3.430   0.509   2.033
 2904SOL     OW 9610   2.400   3.199   5.337
 2904SOL    HW1 9611   2.438   3.124   5.284
 2904SOL    HW2 9612   2.347   3.259   5.276
 2905SOL     OW 9613   1.677   1.389   2.491
 2905SOL    HW1 9614   1.619   1.369   2.412
 2905SOL    HW2 9615   1.628   1.365   2.575
 2906SOL     OW 9616   5.364   4.986   1.711
 2906SOL    HW1 9617   5.311   4.912   1.668
 2906SOL    HW2 9618   5.385   4.961   1.805
 2907SOL     OW 9619   6.570   1.427   5.531
 2907SOL    HW1 9620   6.561   1.388   5.439
 2907SOL    HW2 9621   6.585   1.354   5.597
 2908SOL     OW 9622   4.177   6.622   4.102
 2908SOL    HW1 9623   4.138   6.643   4.191
 2908SOL    HW2 9624   4.139   6.684   4.033
 2909SOL     OW 9625   0.543   4.942   4.541
 2909SOL    HW1 9626   0.494   4.986   4.466
 2909SOL    HW2 9627   0.642   4.951   4.526
 2910SOL     OW 9628   3.427   6.331   4.983
 2910SOL    HW1 9629   3.365   6.370   4.916
 2910SOL    HW2 9630   3.421   6.231   4.981
 2911SOL     OW 9631   2.361   5.313   3.612
 2911SOL    HW1 9632   2.306   5.248   3.663
 2911SOL    HW2 9633   2.414   5.264   3.542
 2912SOL     OW 9634   2.683   5.680   0.487
 2912SOL    HW1 9635   2.684   5.780   0.490
 2912SOL    HW2 9636   2.775   5.646   0.507
 2913SOL     OW 9637   1.718   4.251   2.175
 2913SOL    HW1 9638   1.620   4.270   2.176
 2913SOL    HW2 9639   1.767   4.328   2.134
 2914SOL     OW 9640   6.339   5.003   6.086
 2914SOL    HW1 9641   6.363   5.078   6.148
 2914SOL    HW2 9642   6.253   4.961   6.116
 2915SOL     OW 9643   4.886   1.426   4.076
 2915SOL    HW1 9644   4.815   1.486   4.113
 2915SOL    HW2 9645   4.970   1.477   4.062
 2916SOL     OW 9646   6.381   4.929   5.710
 2916SOL    HW1 9647   6.374   5.029   5.715
 2916SOL    HW2 9648   6.291   4.888   5.721
 2917SOL     OW 9649   3.891   0.389   1.005
 2917SOL    HW1 9650   3.985   0.364   1.030
 2917SOL    HW2 9651   3.858   0.328   0.933
 2918SOL     OW 9652   6.939   3.562   2.964
 2918SOL    HW1 9653   6.872   3.510   3.017
 2918SOL    HW2 9654   6.908   3.569   2.869
 2919SOL     OW 9655   6.180   0.118   0.303
 2919SOL    HW1 9656   6.280   0.112   0.296
 2919SOL    HW2 9657   6.155   0.162   0.389
 2920SOL     OW 9658   3.582   1.958   2.497
 2920SOL    HW1 9659   3.522   1.891   2.542
 2920SOL    HW2 9660   3.552   1.972   2.403
 2921SOL     OW 9661   0.165   1.281   2.640
 2921SOL    HW1 9662   0.260   1.264   2.613
 2921SOL    HW2 9663   0.138   1.215   2.710
 2922SOL     OW 9664   5.743   6.445   6.803
 2922SOL    HW1 9665   5.767   6.348   6.801
 2922SOL    HW2 9666   5.718   6.472   6.896
 2923SOL     OW 9667   6.823   5.380   2.586
 2923SOL    HW1 9668   6.771   5.303   2.622
 2923SOL    HW2 9669   6.916   5.351   2.565
 2924SOL     OW 9670   0.624   1.452   6.107
 2924SOL    HW1 9671   0.639   1.385   6.034
 2924SOL    HW2 9672   0.652   1.542   6.075
 2925SOL     OW 9673   5.970   1.357   2.568
 2925SOL    HW1 9674   5.873   1.382   2.565
 2925SOL    HW2 9675   6.021   1.428   2.617
 2926SOL     OW 9676   6.818   1.707   5.082
 2926SOL    HW1 9677   6.814   1.773   5.157
 2926SOL    HW2 9678   6.908   1.663   5.081
 2927SOL     OW 9679   1.358   2.159   1.952
 2927SOL    HW1 9680   1.410   2.167   2.037
 2927SOL    HW2 9681   1.416   2.183   1.875
 2928SOL     OW 9682   6.642   1.589   6.696
 2928SOL    HW1 9683   6.665   1.650   6.772
 2928SOL    HW2 9684   6.605   1.504   6.732
 2929SOL     OW 9685   0.691   0.761   6.327
 2929SOL    HW1 9686   0.688   0.825   6.404
 2929SOL    HW2 9687   0.686   0.811   6.241
 2930SOL     OW 9688   4.991   6.808   4.739
 2930SOL    HW1 9689   4.967   6.832   4.645
 2930SOL    HW2 9690   4.968   6.712   4.755
 2931SOL     OW 9691   5.244   5.944   6.506
 2931SOL    HW1 9692   5.164   5.884   6.501
 2931SOL    HW2 9693   5.324   5.890   6.532
 2932SOL     OW 9694   1.597   4.689   1.685
 2932SOL    HW1 9695   1.580   4.762   1.619
 2932SOL    HW2 9696   1.663   4.721   1.753
 2933SOL     OW 9697   5.324   2.412   3.963
 2933SOL    HW1 9698   5.291   2.490   4.017
 2933SOL    HW2 9699   5.352   2.339   4.024
 2934SOL     OW 9700   3.649   0.549   1.097
 2934SOL    HW1 9701   3.740   0.511   1.080
 2934SOL    HW2 9702   3.616   0.596   1.015
 2935SOL     OW 9703   6.691   3.217   1.422
 2935SOL    HW1 9704   6.633   3.187   1.497
 2935SOL    HW2 9705   6.638   3.275   1.360
 2936SOL     OW 9706   4.865   5.900   1.374
 2936SOL    HW1 9707   4.853   5.999   1.382
 2936SOL    HW2 9708   4.841   5.856   1.461
 2937SOL     OW 9709   3.081   5.203   0.492
 2937SOL    HW1 9710   3.031   5.269   0.548
 2937SOL    HW2 9711   3.071   5.111   0.531
 2938SOL     OW 9712   4.812   5.015   5.418
 2938SOL    HW1 9713   4.728   4.976   5.455
 2938SOL    HW2 9714   4.790   5.091   5.358
 2939SOL     OW 9715   6.884   6.543   4.701
 2939SOL    HW1 9716   6.960   6.598   4.666
 2939SOL    HW2 9717   6.843   6.589   4.780
 2940SOL     OW 9718   5.426   6.579   5.291
 2940SOL    HW1 9719   5.448   6.492   5.246
 2940SOL    HW2 9720   5.407   6.563   5.387
 2941SOL     OW 9721   1.850   2.436   5.728
 2941SOL    HW1 9722   1.906   2.459   5.648
 2941SOL    HW2 9723   1.770   2.497   5.731
 2942SOL     OW 9724   2.798   0.589   2.207
 2942SOL    HW1 9725   2.701   0.576   2.228
 2942SOL    HW2 9726   2.825   0.527   2.134
 2943SOL     OW 9727   5.206   3.501   2.370
 2943SOL    HW1 9728   5.271   3.549   2.311
 2943SOL    HW2 9729   5.244   3.493   2.462
 2944SOL     OW 9730   3.326   5.274   5.932
 2944SOL    HW1 9731   3.260   5.310   5.866
 2944SOL    HW2 9732   3.297   5.182   5.961
 2945SOL     OW 9733   4.119   3.605   2.604
 2945SOL    HW1 9734   4.097   3.689   2.654
 2945SOL    HW2 9735   4.106   3.620   2.506
 2946SOL     OW 9736   6.558   6.006   5.602
 2946SOL    HW1 9737   6.482   6.061   5.568
 2946SOL    HW2 9738   6.545   5.988   5.699
 2947SOL     OW 9739   0.246   3.973   6.768
 2947SOL    HW1 9740   0.177   3.953   6.698
 2947SOL    HW2 9741   0.205   3.968   6.859
 2948SOL     OW 9742   6.227   3.868   5.552
 2948SOL    HW1 9743   6.169   3.804   5.602
 2948SOL    HW2 9744   6.271   3.820   5.476
 2949SOL     OW 9745   1.839   6.131   1.180
 2949SOL    HW1 9746   1.865   6.177   1.264
 2949SOL    HW2 9747   1.888   6.172   1.103
 2950SOL     OW 9748   5.581   3.429   4.445
 2950SOL    HW1 9749   5.542   3.386   4.363
 2950SOL    HW2 9750   5.507   3.472   4.497
 2951SOL     OW 9751   6.981   2.588   0.042
 2951SOL    HW1 9752   6.997   2.665   7.006
 2951SOL    HW2 9753   6.927   2.618   0.120
 2952SOL     OW 9754   0.899   4.910   3.272
 2952SOL    HW1 9755   0.939   4.818   3.271
 2952SOL    HW2 9756   0.830   4.915   3.344
 2953SOL     OW 9757   4.986   2.615   2.172
 2953SOL    HW1 9758   5.046   2.692   2.151
 2953SOL    HW2 9759   4.994   2.546   2.100
 2954SOL     OW 9760   1.249   6.219   1.858
 2954SOL    HW1 9761   1.310   6.296   1.878
 2954SOL    HW2 9762   1.276   6.178   1.771
 2955SOL     OW 9763   0.346   3.259   0.162
 2955SOL    HW1 9764   0.422   3.197   0.140
 2955SOL    HW2 9765   0.316   3.242   0.255
 2956SOL     OW 9766   6.972   5.655   2.880
 2956SOL    HW1 9767   6.998   5.731   2.821
 2956SOL    HW2 9768   6.986   5.681   2.976
 2957SOL     OW 9769   0.420   3.760   1.061
 2957SOL    HW1 9770   0.497   3.773   1.123
 2957SOL    HW2 9771   0.383   3.849   1.034
 2958SOL     OW 9772   2.262   4.453   5.304
 2958SOL    HW1 9773   2.175   4.502   5.299
 2958SOL    HW2 9774   2.326   4.504   5.362
 2959SOL     OW 9775   5.892   4.759   6.336
 2959SOL    HW1 9776   5.814   4.776   6.396
 2959SOL    HW2 9777   5.962   4.708   6.385
 2960SOL     OW 9778   3.286   1.539   6.933
 2960SOL    HW1 9779   3.271   1.634   6.960
 2960SOL    HW2 9780   3.383   1.518   6.937
 2961SOL     OW 9781   5.385   3.084   4.912
 2961SOL    HW1 9782   5.410   3.039   4.826
 2961SOL    HW2 9783   5.338   3.018   4.971
 2962SOL     OW 9784   4.894   0.530   3.263
 2962SOL    HW1 9785   4.955   0.506   3.339
 2962SOL    HW2 9786   4.849   0.617   3.281
 2963SOL     OW 9787   1.683   1.909   5.620
 2963SOL    HW1 9788   1.699   1.811   5.607
 2963SOL    HW2 9789   1.737   1.961   5.554
 2964SOL     OW 9790   1.937   0.174   2.090
 2964SOL    HW1 9791   1.935   0.128   2.002
 2964SOL    HW2 9792   2.020   0.229   2.097
 2965SOL     OW 9793   0.347   1.007   5.450
 2965SOL    HW1 9794   0.288   0.991   5.529
 2965SOL    HW2 9795   0.443   0.996   5.477
 2966SOL     OW 9796   5.839   4.088   3.616
 2966SOL    HW1 9797   5.812   4.179   3.647
 2966SOL    HW2 9798   5.837   4.085   3.516
 2967SOL     OW 9799   5.744   2.744   4.212
 2967SOL    HW1 9800   5.660   2.776   4.256
 2967SOL    HW2 9801   5.774   2.812   4.144
 2968SOL     OW 9802   0.696   4.075   5.796
 2968SOL    HW1 9803   0.607   4.050   5.756
 2968SOL    HW2 9804   0.712   4.021   5.878
 2969SOL     OW 9805   5.545   2.129   5.293
 2969SOL    HW1 9806   5.470   2.074   5.257
 2969SOL    HW2 9807   5.626   2.117   5.236
 2970SOL     OW 9808   1.493   4.316   6.808
 2970SOL    HW1 9809   1.435   4.291   6.731
 2970SOL    HW2 9810   1.461   4.401   6.848
 2971SOL     OW 9811   5.525   2.956   4.253
 2971SOL    HW1 9812   5.602   3.020   4.247
 2971SOL    HW2 9813   5.439   3.007   4.256
 2972SOL     OW 9814   6.420   4.077   0.072
 2972SOL    HW1 9815   6.411   3.978   0.083
 2972SOL    HW2 9816   6.344   4.123   0.119
 2973SOL     OW 9817   5.731   0.439   3.842
 2973SOL    HW1 9818   5.750   0.342   3.859
 2973SOL    HW2 9819   5.650   0.466   3.895
 2974SOL     OW 9820   5.405   3.668   3.673
 2974SOL    HW1 9821   5.407   3.659   3.573
 2974SOL    HW2 9822   5.326   3.723   3.701
 2975SOL     OW 9823   0.218   1.876   5.042
 2975SOL    HW1 9824   0.205   1.972   5.018
 2975SOL    HW2 9825   0.259   1.828   4.965
 2976SOL     OW 9826   4.241   1.144   3.152
 2976SOL    HW1 9827   4.323   1.106   3.195
 2976SOL    HW2 9828   4.267   1.214   3.085
 2977SOL     OW 9829   2.659   0.059   4.171
 2977SOL    HW1 9830   2.577   0.062   4.228
 2977SOL    HW2 9831   2.715   7.007   4.199
 2978SOL     OW 9832   4.379   4.956   6.841
 2978SOL    HW1 9833   4.436   4.943   6.922
 2978SOL    HW2 9834   4.413   4.898   6.766
 2979SOL     OW 9835   3.482   0.388   3.907
 2979SOL    HW1 9836   3.500   0.401   4.005
 2979SOL    HW2 9837   3.487   0.476   3.860
 2980SOL     OW 9838   1.374   6.275   4.572
 2980SOL    HW1 9839   1.295   6.334   4.554
 2980SOL    HW2 9840   1.367   6.191   4.518
 2981SOL     OW 9841   0.556   0.174   5.867
 2981SOL    HW1 9842   0.509   0.198   5.951
 2981SOL    HW2 9843   0.493   0.125   5.806
 2982SOL     OW 9844   4.167   6.276   3.107
 2982SOL    HW1 9845   4.106   6.331   3.163
 2982SOL    HW2 9846   4.225   6.336   3.052
 2983SOL     OW 9847   0.340   0.331   4.263
 2983SOL    HW1 9848   0.299   0.376   4.342
 2983SOL    HW2 9849   0.289   0.247   4.242
 2984SOL     OW 9850   5.785   6.031   1.066
 2984SOL    HW1 9851   5.820   6.105   1.123
 2984SOL    HW2 9852   5.695   6.002   1.099
 2985SOL     OW 9853   0.905   1.913   4.656
 2985SOL    HW1 9854   0.961   1.996   4.653
 2985SOL    HW2 9855   0.811   1.936   4.631
 2986SOL     OW 9856   2.512   4.069   5.577
 2986SOL    HW1 9857   2.594   4.123   5.595
 2986SOL    HW2 9858   2.467   4.104   5.494
 2987SOL     OW 9859   4.970   1.413   4.602
 2987SOL    HW1 9860   4.874   1.437   4.615
 2987SOL    HW2 9861   4.979   1.351   4.524
 2988SOL     OW 9862   0.915   0.100   2.409
 2988SOL    HW1 9863   0.993   0.092   2.347
 2988SOL    HW2 9864   0.878   0.193   2.402
 2989SOL     OW 9865   6.228   5.397   1.090
 2989SOL    HW1 9866   6.237   5.310   1.138
 2989SOL    HW2 9867   6.139   5.401   1.045
 2990SOL     OW 9868   3.849   1.050   3.398
 2990SOL    HW1 9869   3.913   1.004   3.336
 2990SOL    HW2 9870   3.755   1.028   3.370
 2991SOL     OW 9871   0.421   4.335   0.633
 2991SOL    HW1 9872   0.368   4.408   0.591
 2991SOL    HW2 9873   0.518   4.352   0.620
 2992SOL     OW 9874   2.626   5.596   6.022
 2992SOL    HW1 9875   2.699   5.604   6.091
 2992SOL    HW2 9876   2.638   5.511   5.971
 2993SOL     OW 9877   1.168   4.472   2.079
 2993SOL    HW1 9878   1.166   4.386   2.027
 2993SOL    HW2 9879   1.075   4.494   2.110
 2994SOL     OW 9880   4.566   0.506   0.056
 2994SOL    HW1 9881   4.638   0.446   0.023
 2994SOL    HW2 9882   4.527   0.557   7.005
 2995SOL     OW 9883   1.109   2.778   6.954
 2995SOL    HW1 9884   1.013   2.764   6.981
 2995SOL    HW2 9885   1.148   2.691   6.924
 2996SOL     OW 9886   3.102   6.087   5.148
 2996SOL    HW1 9887   3.066   6.097   5.241
 2996SOL    HW2 9888   3.198   6.112   5.146
 2997SOL     OW 9889   5.013   6.093   1.897
 2997SOL    HW1 9890   4.932   6.076   1.953
 2997SOL    HW2 9891   5.092   6.105   1.956
 2998SOL     OW 9892   4.783   5.655   4.331
 2998SOL    HW1 9893   4.802   5.729   4.267
 2998SOL    HW2 9894   4.843   5.577   4.312
 2999SOL     OW 9895   3.334   6.437   3.585
 2999SOL    HW1 9896   3.262   6.430   3.516
 2999SOL    HW2 9897   3.374   6.347   3.602
 3000SOL     OW 9898   1.297   3.444   5.849
 3000SOL    HW1 9899   1.370   3.511   5.838
 3000SOL    HW2 9900   1.284   3.425   5.947
 3001SOL     OW 9901   4.999   6.961   6.675
 3001SOL    HW1 9902   5.034   0.029   6.679
 3001SOL    HW2 9903   5.047   6.912   6.602
 3002SOL     OW 9904   3.853   0.335   5.105
 3002SOL    HW1 9905   3.803   0.316   5.021
 3002SOL    HW2 9906   3.788   0.363   5.176
 3003SOL     OW 9907   2.875   6.529   6.482
 3003SOL    HW1 9908   2.947   6.573   6.429
 3003SOL    HW2 9909   2.836   6.596   6.546
 3004SOL     OW 9910   6.512   3.811   3.909
 3004SOL    HW1 9911   6.529   3.716   3.881
 3004SOL    HW2 9912   6.599   3.853   3.936
 3005SOL     OW 9913   3.341   3.242   1.368
 3005SOL    HW1 9914   3.337   3.338   1.343
 3005SOL    HW2 9915   3.423   3.226   1.424
 3006SOL     OW 9916   6.756   1.543   0.738
 3006SOL    HW1 9917   6.801   1.473   0.792
 3006SOL    HW2 9918   6.679   1.503   0.688
 3007SOL     OW 9919   5.890   5.234   2.183
 3007SOL    HW1 9920   5.835   5.161   2.224
 3007SOL    HW2 9921   5.918   5.206   2.091
 3008SOL     OW 9922   3.712   0.572   6.134
 3008SOL    HW1 9923   3.702   0.473   6.136
 3008SOL    HW2 9924   3.706   0.604   6.040
 3009SOL     OW 9925   0.512   0.015   2.651
 3009SOL    HW1 9926   0.545   0.034   2.559
 3009SOL    HW2 9927   0.444   6.967   2.648
 3010SOL     OW 9928   3.834   5.978   3.272
 3010SOL    HW1 9929   3.898   5.910   3.238
 3010SOL    HW2 9930   3.773   6.006   3.198
 3011SOL     OW 9931   6.114   0.826   6.579
 3011SOL    HW1 9932   6.191   0.885   6.552
 3011SOL    HW2 9933   6.030   0.880   6.579
 3012SOL     OW 9934   0.261   3.301   3.998
 3012SOL    HW1 9935   0.254   3.216   4.050
 3012SOL    HW2 9936   0.308   3.370   4.053
 3013SOL     OW 9937   5.409   5.999   3.267
 3013SOL    HW1 9938   5.318   5.964   3.288
 3013SOL    HW2 9939   5.478   5.942   3.312
 3014SOL     OW 9940   5.469   1.835   4.301
 3014SOL    HW1 9941   5.528   1.912   4.277
 3014SOL    HW2 9942   5.383   1.870   4.339
 3015SOL     OW 9943   3.018   2.493   6.679
 3015SOL    HW1 9944   2.950   2.506   6.750
 3015SOL    HW2 9945   2.978   2.512   6.589
 3016SOL     OW 9946   3.008   5.804   4.757
 3016SOL    HW1 9947   2.930   5.813   4.817
 3016SOL    HW2 9948   3.037   5.708   4.754
 3017SOL     OW 9949   0.985   6.020   1.043
 3017SOL    HW1 9950   1.067   6.066   1.079
 3017SOL    HW2 9951   0.963   5.942   1.102
 3018SOL     OW 9952   3.166   0.617   6.122
 3018SOL    HW1 9953   3.230   0.546   6.093
 3018SOL    HW2 9954   3.204   0.666   6.200
 3019SOL     OW 9955   3.460   6.419   0.992
 3019SOL    HW1 9956   3.459   6.337   1.050
 3019SOL    HW2 9957   3.515   6.402   0.910
 3020SOL     OW 9958   3.612   3.633   1.301
 3020SOL    HW1 9959   3.705   3.606   1.275
 3020SOL    HW2 9960   3.601   3.731   1.286
 3021SOL     OW 9961   2.007   2.394   6.754
 3021SOL    HW1 9962   2.094   2.405   6.706
 3021SOL    HW2 9963   1.940   2.354   6.692
 3022SOL     OW 9964   4.014   6.079   2.555
 3022SOL    HW1 9965   4.014   6.176   2.579
 3022SOL    HW2 9966   3.939   6.060   2.491
 3023SOL     OW 9967   3.479   6.086   3.204
 3023SOL    HW1 9968   3.460   6.117   3.111
 3023SOL    HW2 9969   3.393   6.063   3.249
 3024SOL     OW 9970   2.908   1.064   6.227
 3024SOL    HW1 9971   2.944   0.971   6.229
 3024SOL    HW2 9972   2.815   1.063   6.189
 3025SOL     OW 9973   3.387   2.971   0.934
 3025SOL    HW1 9974   3.317   2.908   0.968
 3025SOL    HW2 9975   3.366   3.063   0.967
 3026SOL     OW 9976   1.094   3.500   0.805
 3026SOL    HW1 9977   1.035   3.428   0.769
 3026SOL    HW2 9978   1.093   3.579   0.744
 3027SOL     OW 9979   4.045   1.014   2.223
 3027SOL    HW1 9980   4.091   1.064   2.296
 3027SOL    HW2 9981   4.001   0.933   2.260
 3028SOL     OW 9982   1.253   4.900   6.617
 3028SOL    HW1 9983   1.284   4.993   6.636
 3028SOL    HW2 9984   1.155   4.900   6.601
 3029SOL     OW 9985   6.637   5.056   5.344
 3029SOL    HW1 9986   6.611   4.962   5.363
 3029SOL    HW2 9987   6.731   5.059   5.309
 3030SOL     OW 9988   0.853   1.474   5.572
 3030SOL    HW1 9989   0.783   1.469   5.501
 3030SOL    HW2 9990   0.926   1.536   5.543
 3031SOL     OW 9991   0.606   3.538   0.943
 3031SOL    HW1 9992   0.593   3.616   0.882
 3031SOL    HW2 9993   0.519   3.515   0.986
 3032SOL     OW 9994   5.415   0.325   0.230
 3032SOL    HW1 9995   5.372   0.409   0.196
 3032SOL    HW2 9996   5.460   0.345   0.317
 3033SOL     OW 9997   0.517   2.659   0.139
 3033SOL    HW1 9998   0.465   2.707   0.069
 3033SOL    HW2 9999   0.463   2.657   0.224
 3034SOL     OW10000   1.937   6.242   3.368
 3034SOL    HW110001   1.838   6.243   3.353
 3034SOL    HW210002   1.959   6.187   3.448
 3035SOL     OW10003   6.837   1.833   0.492
 3035SOL    HW110004   6.765   1.887   0.447
 3035SOL    HW210005   6.827   1.737   0.466
 3036SOL     OW10006   1.946   4.058   6.904
 3036SOL    HW110007   1.992   3.989   6.849
 3036SOL    HW210008   1.872   4.099   6.850
 3037SOL     OW10009   5.741   5.742   4.958
 3037SOL    HW110010   5.690   5.785   4.883
 3037SOL    HW210011   5.838   5.760   4.946
 3038SOL     OW10012   5.605   6.994   6.614
 3038SOL    HW110013   5.656   6.935   6.551
 3038SOL    HW210014   5.665   7.025   6.688
 3039SOL     OW10015   6.579   4.731   2.338
 3039SOL    HW110016   6.617   4.782   2.261
 3039SOL    HW210017   6.506   4.671   2.305
 3040SOL     OW10018   4.701   3.774   6.421
 3040SOL    HW110019   4.718   3.841   6.348
 3040SOL    HW210020   4.603   3.760   6.431
 3041SOL     OW10021   1.852   2.610   5.986
 3041SOL    HW110022   1.843   2.534   6.050
 3041SOL    HW210023   1.816   2.582   5.897
 3042SOL     OW10024   5.359   0.169   1.855
 3042SOL    HW110025   5.421   0.115   1.912
 3042SOL    HW210026   5.377   0.149   1.759
 3043SOL     OW10027   0.616   5.498   0.361
 3043SOL    HW110028   0.545   5.564   0.337
 3043SOL    HW210029   0.682   5.541   0.422
 3044SOL     OW10030   3.598   4.291   5.209
 3044SOL    HW110031   3.692   4.280   5.177
 3044SOL    HW210032   3.535   4.247   5.144
 3045SOL     OW10033   4.771   0.650   2.811
 3045SOL    HW110034   4.822   0.596   2.878
 3045SOL    HW210035   4.675   0.621   2.812
 3046SOL     OW10036   1.038   3.308   5.377
 3046SOL    HW110037   1.108   3.323   5.447
 3046SOL    HW210038   1.044   3.213   5.345
 3047SOL     OW10039   5.552   5.322   2.002
 3047SOL    HW110040   5.647   5.292   2.013
 3047SOL    HW210041   5.530   5.326   1.904
 3048SOL     OW10042   4.173   3.557   1.428
 3048SOL    HW110043   4.180   3.483   1.361
 3048SOL    HW210044   4.135   3.638   1.383
 3049SOL     OW10045   0.460   6.379   1.574
 3049SOL    HW110046   0.449   6.376   1.475
 3049SOL    HW210047   0.501   6.466   1.601
 3050SOL     OW10048   3.157   6.971   3.578
 3050SOL    HW110049   3.209   0.030   3.571
 3050SOL    HW210050   3.162   6.937   3.672
 3051SOL     OW10051   2.051   4.371   6.674
 3051SOL    HW110052   2.082   4.463   6.652
 3051SOL    HW210053   2.054   4.356   6.772
 3052SOL     OW10054   3.791   0.189   3.038
 3052SOL    HW110055   3.703   0.228   3.065
 3052SOL    HW210056   3.839   0.156   3.119
 3053SOL     OW10057   6.328   0.639   6.837
 3053SOL    HW110058   6.241   0.681   6.861
 3053SOL    HW210059   6.385   0.705   6.788
 3054SOL     OW10060   0.373   2.497   6.579
 3054SOL    HW110061   0.371   2.470   6.675
 3054SOL    HW210062   0.461   2.471   6.539
 3055SOL     OW10063   5.417   0.123   3.542
 3055SOL    HW110064   5.506   0.136   3.497
 3055SOL    HW210065   5.376   0.213   3.559
 3056SOL     OW10066   6.735   0.533   7.017
 3056SOL    HW110067   6.725   0.450   6.962
 3056SOL    HW210068   6.826   0.537   0.031
 3057SOL     OW10069   4.269   5.346   2.723
 3057SOL    HW110070   4.274   5.247   2.739
 3057SOL    HW210071   4.197   5.385   2.781
 3058SOL     OW10072   6.377   5.647   1.383
 3058SOL    HW110073   6.385   5.745   1.398
 3058SOL    HW210074   6.280   5.622   1.375
 3059SOL     OW10075   1.734   3.299   5.171
 3059SOL    HW110076   1.731   3.257   5.081
 3059SOL    HW210077   1.797   3.248   5.230
 3060SOL     OW10078   0.319   6.447   0.259
 3060SOL    HW110079   0.330   6.447   0.358
 3060SOL    HW210080   0.306   6.541   0.227
 3061SOL     OW10081   6.907   0.713   5.407
 3061SOL    HW110082   6.821   0.664   5.404
 3061SOL    HW210083   6.968   0.670   5.474
 3062SOL     OW10084   1.458   0.300   1.307
 3062SOL    HW110085   1.486   0.391   1.338
 3062SOL    HW210086   1.484   0.232   1.375
 3063SOL     OW10087   2.206   5.057   2.553
 3063SOL    HW110088   2.170   4.973   2.511
 3063SOL    HW210089   2.305   5.057   2.547
 3064SOL     OW10090   5.739   3.343   3.859
 3064SOL    HW110091   5.785   3.263   3.821
 3064SOL    HW210092   5.726   3.411   3.787
 3065SOL     OW10093   2.295   0.200   6.453
 3065SOL    HW110094   2.385   0.224   6.491
 3065SOL    HW210095   2.235   0.168   6.527
 3066SOL     OW10096   6.255   4.193   0.279
 3066SOL    HW110097   6.230   4.285   0.310
 3066SOL    HW210098   6.296   4.143   0.355
 3067SOL     OW10099   3.232   1.313   4.980
 3067SOL    HW110100   3.238   1.340   5.077
 3067SOL    HW210101   3.295   1.369   4.926
 3068SOL     OW10102   6.210   6.225   0.809
 3068SOL    HW110103   6.283   6.197   0.746
 3068SOL    HW210104   6.137   6.270   0.758
 3069SOL     OW10105   6.772   5.694   1.657
 3069SOL    HW110106   6.756   5.598   1.681
 3069SOL    HW210107   6.688   5.747   1.672
 3070SOL     OW10108   2.216   1.582   2.800
 3070SOL    HW110109   2.182   1.649   2.735
 3070SOL    HW210110   2.168   1.593   2.887
 3071SOL     OW10111   6.797   6.972   3.517
 3071SOL    HW110112   6.885   6.930   3.493
 3071SOL    HW210113   6.735   6.901   3.551
 3072SOL     OW10114   0.817   6.341   1.608
 3072SOL    HW110115   0.740   6.375   1.662
 3072SOL    HW210116   0.899   6.393   1.631
 3073SOL     OW10117   0.476   3.740   5.240
 3073SOL    HW110118   0.543   3.754   5.167
 3073SOL    HW210119   0.499   3.797   5.318
 3074SOL     OW10120   5.225   2.820   0.330
 3074SOL    HW110121   5.157   2.855   0.395
 3074SOL    HW210122   5.256   2.730   0.360
 3075SOL     OW10123   1.737   6.257   1.474
 3075SOL    HW110124   1.739   6.289   1.568
 3075SOL    HW210125   1.828   6.222   1.449
 3076SOL     OW10126   6.338   0.667   4.746
 3076SOL    HW110127   6.306   0.701   4.658
 3076SOL    HW210128   6.438   0.655   4.743
 3077SOL     OW10129   5.595   4.501   3.086
 3077SOL    HW110130   5.505   4.542   3.102
 3077SOL    HW210131   5.664   4.573   3.081
 3078SOL     OW10132   2.259   3.693   1.718
 3078SOL    HW110133   2.231   3.771   1.774
 3078SOL    HW210134   2.308   3.627   1.775
 3079SOL     OW10135   1.785   2.543   5.128
 3079SOL    HW110136   1.771   2.615   5.196
 3079SOL    HW210137   1.733   2.565   5.045
 3080SOL     OW10138   5.931   4.932   1.632
 3080SOL    HW110139   5.845   4.980   1.651
 3080SOL    HW210140   5.925   4.839   1.667
 3081SOL     OW10141   0.832   4.612   5.893
 3081SOL    HW110142   0.796   4.696   5.934
 3081SOL    HW210143   0.919   4.632   5.847
 3082SOL     OW10144   3.855   6.645   3.884
 3082SOL    HW110145   3.827   6.655   3.979
 3082SOL    HW210146   3.795   6.699   3.825
 3083SOL     OW10147   3.969   0.071   2.416
 3083SOL    HW110148   3.877   0.058   2.455
 3083SOL    HW210149   4.011   0.152   2.457
 3084SOL     OW10150   4.643   4.675   4.292
 3084SOL    HW110151   4.718   4.709   4.234
 3084SOL    HW210152   4.671   4.680   4.388
 3085SOL     OW10153   0.145   4.286   3.260
 3085SOL    HW110154   0.066   4.238   3.221
 3085SOL    HW210155   0.123   4.383   3.271
 3086SOL     OW10156   4.416   1.328   2.196
 3086SOL    HW110157   4.416   1.247   2.255
 3086SOL    HW210158   4.363   1.309   2.113
 3087SOL     OW10159   6.977   4.573   4.075
 3087SOL    HW110160   0.045   4.552   4.104
 3087SOL    HW210161   6.927   4.613   4.152
 3088SOL     OW10162   2.852   5.088   5.122
 3088SOL    HW110163   2.853   5.148   5.202
 3088SOL    HW210164   2.883   4.997   5.148
 3089SOL     OW10165   1.174   3.312   0.027
 3089SOL    HW110166   1.258   3.361   0.003
 3089SOL    HW210167   1.195   3.242   0.096
 3090SOL     OW10168   2.153   1.546   1.095
 3090SOL    HW110169   2.202   1.467   1.059
 3090SOL    HW210170   2.058   1.521   1.114
 3091SOL     OW10171   3.323   6.619   0.263
 3091SOL    HW110172   3.383   6.679   0.210
 3091SOL    HW210173   3.356   6.616   0.358
 3092SOL     OW10174   5.572   6.720   0.078
 3092SOL    HW110175   5.575   6.702   0.176
 3092SOL    HW210176   5.571   6.819   0.063
 3093SOL     OW10177   5.602   5.326   5.900
 3093SOL    HW110178   5.561   5.263   5.966
 3093SOL    HW210179   5.531   5.386   5.863
 3094SOL     OW10180   2.870   6.554   5.117
 3094SOL    HW110181   2.968   6.539   5.102
 3094SOL    HW210182   2.823   6.466   5.114
 3095SOL     OW10183   2.473   4.468   4.285
 3095SOL    HW110184   2.393   4.457   4.226
 3095SOL    HW210185   2.466   4.404   4.362
 3096SOL     OW10186   6.610   0.604   4.656
 3096SOL    HW110187   6.670   0.677   4.687
 3096SOL    HW210188   6.618   0.593   4.557
 3097SOL     OW10189   0.826   2.450   0.534
 3097SOL    HW110190   0.754   2.401   0.582
 3097SOL    HW210191   0.796   2.474   0.442
 3098SOL     OW10192   2.774   3.624   1.373
 3098SOL    HW110193   2.777   3.712   1.421
 3098SOL    HW210194   2.810   3.636   1.280
 3099SOL     OW10195   6.889   5.564   4.833
 3099SOL    HW110196   6.911   5.485   4.890
 3099SOL    HW210197   6.938   5.644   4.866
 3100SOL     OW10198   6.933   0.081   4.749
 3100SOL    HW110199   6.970   0.005   4.802
 3100SOL    HW210200   6.850   0.053   4.702
 3101SOL     OW10201   4.437   6.371   5.376
 3101SOL    HW110202   4.361   6.432   5.354
 3101SOL    HW210203   4.487   6.350   5.292
 3102SOL     OW10204   0.800   4.427   1.440
 3102SOL    HW110205   0.719   4.369   1.431
 3102SOL    HW210206   0.802   4.493   1.364
 3103SOL     OW10207   3.855   1.638   1.001
 3103SOL    HW110208   3.829   1.658   0.906
 3103SOL    HW210209   3.905   1.552   1.004
 3104SOL     OW10210   5.890   6.001   4.312
 3104SOL    HW110211   5.957   6.010   4.386
 3104SOL    HW210212   5.938   5.978   4.227
 3105SOL     OW10213   5.747   5.639   3.766
 3105SOL    HW110214   5.768   5.589   3.682
 3105SOL    HW210215   5.802   5.603   3.841
 3106SOL     OW10216   6.754   2.286   2.396
 3106SOL    HW110217   6.795   2.253   2.481
 3106SOL    HW210218   6.819   2.344   2.348
 3107SOL     OW10219   3.787   0.420   4.215
 3107SOL    HW110220   3.821   0.448   4.125
 3107SOL    HW210221   3.864   0.402   4.276
 3108SOL     OW10222   1.712   1.127   4.296
 3108SOL    HW110223   1.760   1.179   4.367
 3108SOL    HW210224   1.676   1.043   4.336
 3109SOL     OW10225   5.063   5.731   2.588
 3109SOL    HW110226   5.107   5.672   2.520
 3109SOL    HW210227   5.113   5.817   2.595
 3110SOL     OW10228   6.723   2.260   3.598
 3110SOL    HW110229   6.677   2.197   3.536
 3110SOL    HW210230   6.742   2.346   3.550
 3111SOL     OW10231   5.864   5.503   4.008
 3111SOL    HW110232   5.799   5.542   4.073
 3111SOL    HW210233   5.855   5.403   4.008
 3112SOL     OW10234   4.617   2.572   5.817
 3112SOL    HW110235   4.521   2.582   5.843
 3112SOL    HW210236   4.634   2.620   5.732
 3113SOL     OW10237   2.425   0.096   3.997
 3113SOL    HW110238   2.489   0.094   4.073
 3113SOL    HW210239   2.388   0.004   3.982
 3114SOL     OW10240   5.485   4.227   0.064
 3114SOL    HW110241   5.428   4.146   0.048
 3114SOL    HW210242   5.429   4.301   0.101
 3115SOL     OW10243   4.235   3.951   0.117
 3115SOL    HW110244   4.138   3.943   0.098
 3115SOL    HW210245   4.262   3.879   0.182
 3116SOL     OW10246   6.808   3.080   6.863
 3116SOL    HW110247   6.790   2.985   6.836
 3116SOL    HW210248   6.849   3.129   6.787
 3117SOL     OW10249   4.615   4.046   5.354
 3117SOL    HW110250   4.538   4.101   5.321
 3117SOL    HW210251   4.699   4.076   5.308
 3118SOL     OW10252   6.971   4.653   6.544
 3118SOL    HW110253   7.020   4.692   6.622
 3118SOL    HW210254   6.988   4.554   6.540
 3119SOL     OW10255   1.686   4.473   5.106
 3119SOL    HW110256   1.620   4.414   5.058
 3119SOL    HW210257   1.713   4.430   5.192
 3120SOL     OW10258   2.300   6.269   4.843
 3120SOL    HW110259   2.334   6.176   4.854
 3120SOL    HW210260   2.221   6.269   4.782
 3121SOL     OW10261   0.631   1.684   2.342
 3121SOL    HW110262   0.666   1.690   2.248
 3121SOL    HW210263   0.590   1.594   2.356
 3122SOL     OW10264   3.517   5.259   6.348
 3122SOL    HW110265   3.486   5.339   6.297
 3122SOL    HW210266   3.521   5.180   6.286
 3123SOL     OW10267   3.147   6.386   3.393
 3123SOL    HW110268   3.059   6.424   3.363
 3123SOL    HW210269   3.217   6.408   3.325
 3124SOL     OW10270   4.108   1.092   5.347
 3124SOL    HW110271   4.148   1.059   5.261
 3124SOL    HW210272   4.021   1.137   5.328
 3125SOL     OW10273   6.234   2.059   5.553
 3125SOL    HW110274   6.233   2.113   5.469
 3125SOL    HW210275   6.150   2.005   5.559
 3126SOL     OW10276   5.002   4.643   6.213
 3126SOL    HW110277   5.095   4.676   6.232
 3126SOL    HW210278   5.002   4.544   6.211
 3127SOL     OW10279   0.783   1.956   3.378
 3127SOL    HW110280   0.794   2.021   3.303
 3127SOL    HW210281   0.706   1.895   3.359
 3128SOL     OW10282   1.873   0.690   0.624
 3128SOL    HW110283   1.794   0.656   0.573
 3128SOL    HW210284   1.898   0.781   0.591
 3129SOL     OW10285   0.666   4.178   6.121
 3129SOL    HW110286   0.740   4.235   6.086
 3129SOL    HW210287   0.585   4.188   6.064
 3130SOL     OW10288   2.470   4.668   2.319
 3130SOL    HW110289   2.435   4.761   2.304
 3130SOL    HW210290   2.440   4.636   2.409
 3131SOL     OW10291   1.146   2.903   3.383
 3131SOL    HW110292   1.080   2.911   3.457
 3131SOL    HW210293   1.127   2.973   3.314
 3132SOL     OW10294   5.322   5.995   5.293
 3132SOL    HW110295   5.372   5.950   5.219
 3132SOL    HW210296   5.256   6.060   5.255
 3133SOL     OW10297   2.396   2.404   4.282
 3133SOL    HW110298   2.493   2.378   4.286
 3133SOL    HW210299   2.366   2.403   4.187
 3134SOL     OW10300   5.048   3.201   1.401
 3134SOL    HW110301   4.971   3.174   1.458
 3134SOL    HW210302   5.128   3.218   1.458
 3135SOL     OW10303   4.000   1.892   4.627
 3135SOL    HW110304   4.073   1.868   4.691
 3135SOL    HW210305   3.933   1.951   4.673
 3136SOL     OW10306   6.271   6.472   6.310
 3136SOL    HW110307   6.261   6.468   6.210
 3136SOL    HW210308   6.220   6.550   6.346
 3137SOL     OW10309   4.732   1.517   3.737
 3137SOL    HW110310   4.672   1.546   3.812
 3137SOL    HW210311   4.684   1.531   3.650
 3138SOL     OW10312   6.085   2.180   4.652
 3138SOL    HW110313   6.128   2.168   4.563
 3138SOL    HW210314   6.124   2.116   4.717
 3139SOL     OW10315   5.221   6.718   6.204
 3139SOL    HW110316   5.198   6.635   6.153
 3139SOL    HW210317   5.315   6.710   6.239
 3140SOL     OW10318   6.658   6.814   6.457
 3140SOL    HW110319   6.653   6.820   6.557
 3140SOL    HW210320   6.593   6.746   6.424
 3141SOL     OW10321   0.677   6.393   6.830
 3141SOL    HW110322   0.658   6.395   6.732
 3141SOL    HW210323   0.697   6.485   6.863
 3142SOL     OW10324   4.696   6.077   0.482
 3142SOL    HW110325   4.644   5.998   0.516
 3142SOL    HW210326   4.696   6.149   0.551
 3143SOL     OW10327   0.065   2.027   6.761
 3143SOL    HW110328   0.027   2.072   6.680
 3143SOL    HW210329   0.031   1.933   6.766
 3144SOL     OW10330   2.163   3.700   1.284
 3144SOL    HW110331   2.106   3.621   1.261
 3144SOL    HW210332   2.104   3.778   1.304
 3145SOL     OW10333   2.838   5.937   2.710
 3145SOL    HW110334   2.826   5.847   2.752
 3145SOL    HW210335   2.935   5.962   2.711
 3146SOL     OW10336   1.531   6.432   3.304
 3146SOL    HW110337   1.543   6.479   3.391
 3146SOL    HW210338   1.608   6.452   3.244
 3147SOL     OW10339   4.327   5.034   0.605
 3147SOL    HW110340   4.394   5.042   0.679
 3147SOL    HW210341   4.341   5.109   0.540
 3148SOL     OW10342   3.890   5.281   3.992
 3148SOL    HW110343   3.907   5.305   4.087
 3148SOL    HW210344   3.854   5.187   3.987
 3149SOL     OW10345   3.429   0.812   5.234
 3149SOL    HW110346   3.429   0.910   5.253
 3149SOL    HW210347   3.335   0.778   5.237
 3150SOL     OW10348   5.279   6.055   4.337
 3150SOL    HW110349   5.224   6.011   4.266
 3150SOL    HW210350   5.276   6.000   4.421
 3151SOL     OW10351   4.657   1.597   6.438
 3151SOL    HW110352   4.743   1.591   6.488
 3151SOL    HW210353   4.675   1.626   6.343
 3152SOL     OW10354   0.263   5.251   1.540
 3152SOL    HW110355   0.265   5.202   1.453
 3152SOL    HW210356   0.337   5.319   1.542
 3153SOL     OW10357   6.018   4.113   1.341
 3153SOL    HW110358   6.027   4.103   1.440
 3153SOL    HW210359   5.924   4.136   1.318
 3154SOL     OW10360   6.784   2.234   6.920
 3154SOL    HW110361   6.873   2.279   6.924
 3154SOL    HW210362   6.728   2.275   6.848
 3155SOL     OW10363   6.534   4.579   1.260
 3155SOL    HW110364   6.444   4.612   1.289
 3155SOL    HW210365   6.560   4.623   1.175
 3156SOL     OW10366   3.909   3.507   2.963
 3156SOL    HW110367   3.902   3.442   3.039
 3156SOL    HW210368   3.834   3.573   2.968
 3157SOL     OW10369   2.168   3.579   4.681
 3157SOL    HW110370   2.092   3.633   4.647
 3157SOL    HW210371   2.241   3.575   4.613
 3158SOL     OW10372   5.080   0.037   1.405
 3158SOL    HW110373   5.014   0.016   1.333
 3158SOL    HW210374   5.105   0.133   1.401
 3159SOL     OW10375   4.968   6.051   6.251
 3159SOL    HW110376   5.024   6.116   6.302
 3159SOL    HW210377   5.011   5.961   6.251
 3160SOL     OW10378   5.843   4.090   6.255
 3160SOL    HW110379   5.824   4.008   6.309
 3160SOL    HW210380   5.758   4.140   6.239
 3161SOL     OW10381   1.536   1.055   2.729
 3161SOL    HW110382   1.545   1.155   2.736
 3161SOL    HW210383   1.627   1.015   2.715
 3162SOL     OW10384   7.014   5.340   6.950
 3162SOL    HW110385   0.083   5.312   6.960
 3162SOL    HW210386   6.993   5.412   7.017
 3163SOL     OW10387   3.979   3.234   6.649
 3163SOL    HW110388   3.992   3.202   6.743
 3163SOL    HW210389   4.038   3.313   6.632
 3164SOL     OW10390   5.535   4.401   1.153
 3164SOL    HW110391   5.515   4.376   1.248
 3164SOL    HW210392   5.461   4.371   1.093
 3165SOL     OW10393   0.949   0.199   1.954
 3165SOL    HW110394   0.894   0.282   1.957
 3165SOL    HW210395   1.001   0.195   1.868
 3166SOL     OW10396   4.934   2.985   6.286
 3166SOL    HW110397   4.990   3.031   6.355
 3166SOL    HW210398   4.843   2.968   6.324
 3167SOL     OW10399   0.048   4.352   1.859
 3167SOL    HW110400   0.032   4.377   1.763
 3167SOL    HW210401   0.012   4.260   1.875
 3168SOL     OW10402   5.574   3.006   0.592
 3168SOL    HW110403   5.593   2.929   0.530
 3168SOL    HW210404   5.523   2.973   0.671
 3169SOL     OW10405   0.899   3.250   5.833
 3169SOL    HW110406   0.919   3.192   5.754
 3169SOL    HW210407   0.907   3.197   5.917
 3170SOL     OW10408   4.175   0.319   6.859
 3170SOL    HW110409   4.245   0.248   6.866
 3170SOL    HW210410   4.208   0.403   6.901
 3171SOL     OW10411   6.501   0.101   2.102
 3171SOL    HW110412   6.533   0.141   2.016
 3171SOL    HW210413   6.575   0.051   2.145
 3172SOL     OW10414   6.729   6.256   4.794
 3172SOL    HW110415   6.786   6.237   4.714
 3172SOL    HW210416   6.642   6.207   4.787
 3173SOL     OW10417   2.108   0.355   1.977
 3173SOL    HW110418   2.046   0.405   1.916
 3173SOL    HW210419   2.158   0.420   2.034
 3174SOL     OW10420   3.210   2.851   5.636
 3174SOL    HW110421   3.241   2.944   5.658
 3174SOL    HW210422   3.129   2.856   5.578
 3175SOL     OW10423   1.234   6.108   6.669
 3175SOL    HW110424   1.281   6.161   6.597
 3175SOL    HW210425   1.157   6.161   6.704
 3176SOL     OW10426   1.461   4.464   6.197
 3176SOL    HW110427   1.526   4.438   6.125
 3176SOL    HW210428   1.388   4.395   6.203
 3177SOL     OW10429   5.546   5.209   5.343
 3177SOL    HW110430   5.624   5.227   5.283
 3177SOL    HW210431   5.499   5.126   5.313
 3178SOL     OW10432   0.544   4.064   2.131
 3178SOL    HW110433   0.446   4.066   2.146
 3178SOL    HW210434   0.583   3.982   2.174
 3179SOL     OW10435   2.096   2.356   2.543
 3179SOL    HW110436   2.180   2.314   2.577
 3179SOL    HW210437   2.074   2.436   2.598
 3180SOL     OW10438   5.022   0.452   5.336
 3180SOL    HW110439   5.063   0.426   5.424
 3180SOL    HW210440   5.075   0.526   5.295
 3181SOL     OW10441   0.549   0.928   3.649
 3181SOL    HW110442   0.591   1.001   3.594
 3181SOL    HW210443   0.456   0.913   3.618
 3182SOL     OW10444   6.995   6.761   5.590
 3182SOL    HW110445   0.051   6.756   5.532
 3182SOL    HW210446   7.010   6.707   5.673
 3183SOL     OW10447   4.466   5.020   1.511
 3183SOL    HW110448   4.406   5.090   1.471
 3183SOL    HW210449   4.534   4.993   1.443
 3184SOL     OW10450   2.647   1.825   2.566
 3184SOL    HW110451   2.621   1.780   2.481
 3184SOL    HW210452   2.566   1.836   2.624
 3185SOL     OW10453   0.313   6.504   5.295
 3185SOL    HW110454   0.407   6.535   5.308
 3185SOL    HW210455   0.283   6.527   5.202
 3186SOL     OW10456   3.660   1.223   2.789
 3186SOL    HW110457   3.609   1.295   2.836
 3186SOL    HW210458   3.757   1.233   2.809
 3187SOL     OW10459   3.610   4.305   6.854
 3187SOL    HW110460   3.590   4.212   6.823
 3187SOL    HW210461   3.697   4.306   6.903
 3188SOL     OW10462   3.531   5.735   2.911
 3188SOL    HW110463   3.447   5.682   2.899
 3188SOL    HW210464   3.580   5.701   2.992
 3189SOL     OW10465   1.177   0.570   3.385
 3189SOL    HW110466   1.123   0.597   3.305
 3189SOL    HW210467   1.119   0.520   3.449
 3190SOL     OW10468   1.408   5.864   1.528
 3190SOL    HW110469   1.431   5.775   1.488
 3190SOL    HW210470   1.428   5.863   1.626
 3191SOL     OW10471   4.022   0.838   1.169
 3191SOL    HW110472   4.120   0.857   1.173
 3191SOL    HW210473   3.973   0.923   1.148
 3192SOL     OW10474   0.920   2.462   1.546
 3192SOL    HW110475   0.957   2.369   1.558
 3192SOL    HW210476   0.879   2.493   1.632
 3193SOL     OW10477   4.465   1.785   6.499
 3193SOL    HW110478   4.527   1.718   6.458
 3193SOL    HW210479   4.517   1.866   6.528
 3194SOL     OW10480   1.614   3.638   6.202
 3194SOL    HW110481   1.686   3.705   6.182
 3194SOL    HW210482   1.538   3.685   6.246
 3195SOL     OW10483   1.497   3.189   3.912
 3195SOL    HW110484   1.557   3.167   3.835
 3195SOL    HW210485   1.553   3.209   3.993
 3196SOL     OW10486   0.442   0.392   5.098
 3196SOL    HW110487   0.484   0.482   5.105
 3196SOL    HW210488   0.388   0.374   5.180
 3197SOL     OW10489   1.534   5.677   3.415
 3197SOL    HW110490   1.491   5.736   3.347
 3197SOL    HW210491   1.488   5.588   3.416
 3198SOL     OW10492   0.408   1.758   5.995
 3198SOL    HW110493   0.507   1.763   5.980
 3198SOL    HW210494   0.363   1.828   5.941
 3199SOL     OW10495   4.608   1.532   2.132
 3199SOL    HW110496   4.690   1.491   2.091
 3199SOL    HW210497   4.552   1.459   2.172
 3200SOL     OW10498   0.336   2.007   0.405
 3200SOL    HW110499   0.427   1.966   0.399
 3200SOL    HW210500   0.322   2.070   0.328
 3201SOL     OW10501   5.450   3.868   4.024
 3201SOL    HW110502   5.413   3.824   4.106
 3201SOL    HW210503   5.533   3.820   3.994
 3202SOL     OW10504   1.572   4.996   1.898
 3202SOL    HW110505   1.656   5.041   1.927
 3202SOL    HW210506   1.585   4.896   1.901
 3203SOL     OW10507   0.056   1.064   1.185
 3203SOL    HW110508   0.035   0.970   1.158
 3203SOL    HW210509   6.998   1.109   1.216
 3204SOL     OW10510   6.394   5.916   2.038
 3204SOL    HW110511   6.295   5.903   2.031
 3204SOL    HW210512   6.440   5.831   2.016
 3205SOL     OW10513   6.764   3.479   5.433
 3205SOL    HW110514   6.677   3.516   5.466
 3205SOL    HW210515   6.789   3.522   5.347
 3206SOL     OW10516   0.784   6.601   5.590
 3206SOL    HW110517   0.723   6.543   5.644
 3206SOL    HW210518   0.780   6.573   5.494
 3207SOL     OW10519   0.831   0.585   5.012
 3207SOL    HW110520   0.848   0.502   4.958
 3207SOL    HW210521   0.732   0.596   5.025
 3208SOL     OW10522   4.213   5.640   5.011
 3208SOL    HW110523   4.119   5.670   4.996
 3208SOL    HW210524   4.214   5.571   5.084
 3209SOL     OW10525   2.535   0.326   3.872
 3209SOL    HW110526   2.509   0.244   3.924
 3209SOL    HW210527   2.629   0.315   3.839
 3210SOL     OW10528   0.072   4.280   2.838
 3210SOL    HW110529   0.152   4.221   2.845
 3210SOL    HW210530   0.095   4.372   2.869
 3211SOL     OW10531   2.145   4.531   1.453
 3211SOL    HW110532   2.177   4.536   1.359
 3211SOL    HW210533   2.221   4.506   1.514
 3212SOL     OW10534   4.537   2.376   6.656
 3212SOL    HW110535   4.578   2.423   6.578
 3212SOL    HW210536   4.471   2.436   6.700
 3213SOL     OW10537   5.824   5.773   3.114
 3213SOL    HW110538   5.750   5.839   3.127
 3213SOL    HW210539   5.795   5.683   3.146
 3214SOL     OW10540   4.425   6.134   6.797
 3214SOL    HW110541   4.447   6.128   6.700
 3214SOL    HW210542   4.499   6.180   6.846
 3215SOL     OW10543   6.372   2.812   6.937
 3215SOL    HW110544   6.308   2.754   6.887
 3215SOL    HW210545   6.424   2.868   6.872
 3216SOL     OW10546   5.412   6.865   3.768
 3216SOL    HW110547   5.384   6.817   3.852
 3216SOL    HW210548   5.447   6.799   3.702
 3217SOL     OW10549   6.981   4.271   2.596
 3217SOL    HW110550   0.014   4.292   2.674
 3217SOL    HW210551   6.886   4.266   2.628
 3218SOL     OW10552   4.138   0.392   3.177
 3218SOL    HW110553   4.227   0.428   3.206
 3218SOL    HW210554   4.089   0.355   3.256
 3219SOL     OW10555   0.402   7.017   3.310
 3219SOL    HW110556   0.380   0.066   3.373
 3219SOL    HW210557   0.318   6.983   3.269
 3220SOL     OW10558   7.012   4.711   5.107
 3220SOL    HW110559   0.028   4.620   5.113
 3220SOL    HW210560   0.010   4.753   5.019
 3221SOL     OW10561   2.805   6.821   3.448
 3221SOL    HW110562   2.788   6.908   3.494
 3221SOL    HW210563   2.793   6.746   3.513
 3222SOL     OW10564   5.395   2.026   2.737
 3222SOL    HW110565   5.444   1.995   2.819
 3222SOL    HW210566   5.362   1.947   2.686
 3223SOL     OW10567   2.652   4.675   6.064
 3223SOL    HW110568   2.650   4.723   6.152
 3223SOL    HW210569   2.744   4.679   6.026
 3224SOL     OW10570   3.815   5.333   0.127
 3224SOL    HW110571   3.866   5.363   0.046
 3224SOL    HW210572   3.878   5.295   0.194
 3225SOL     OW10573   3.087   3.622   0.171
 3225SOL    HW110574   3.163   3.686   0.179
 3225SOL    HW210575   3.057   3.618   0.076
 3226SOL     OW10576   1.560   0.740   4.157
 3226SOL    HW110577   1.532   0.659   4.105
 3226SOL    HW210578   1.636   0.785   4.110
 3227SOL     OW10579   3.865   1.209   5.807
 3227SOL    HW110580   3.817   1.283   5.759
 3227SOL    HW210581   3.827   1.200   5.899
 3228SOL     OW10582   5.368   3.719   4.228
 3228SOL    HW110583   5.324   3.674   4.306
 3228SOL    HW210584   5.416   3.650   4.174
 3229SOL     OW10585   4.439   1.660   5.837
 3229SOL    HW110586   4.474   1.583   5.783
 3229SOL    HW210587   4.355   1.632   5.884
 3230SOL     OW10588   0.745   0.601   3.065
 3230SOL    HW110589   0.688   0.572   2.988
 3230SOL    HW210590   0.714   0.556   3.149
 3231SOL     OW10591   6.249   5.765   0.630
 3231SOL    HW110592   6.270   5.715   0.713
 3231SOL    HW210593   6.292   5.855   0.633
 3232SOL     OW10594   2.907   4.801   4.640
 3232SOL    HW110595   2.868   4.738   4.573
 3232SOL    HW210596   2.868   4.782   4.730
 3233SOL     OW10597   0.460   3.972   1.429
 3233SOL    HW110598   0.464   3.874   1.407
 3233SOL    HW210599   0.495   4.025   1.351
 3234SOL     OW10600   0.234   1.719   6.561
 3234SOL    HW110601   0.228   1.795   6.496
 3234SOL    HW210602   0.329   1.688   6.568
 3235SOL     OW10603   5.466   6.815   2.768
 3235SOL    HW110604   5.395   6.885   2.767
 3235SOL    HW210605   5.521   6.823   2.852
 3236SOL     OW10606   1.281   2.923   2.760
 3236SOL    HW110607   1.368   2.929   2.711
 3236SOL    HW210608   1.245   2.830   2.752
 3237SOL     OW10609   3.958   6.939   4.960
 3237SOL    HW110610   4.049   6.916   4.926
 3237SOL    HW210611   3.928   6.869   5.025
 3238SOL     OW10612   0.134   6.424   6.064
 3238SOL    HW110613   0.196   6.430   5.986
 3238SOL    HW210614   0.061   6.359   6.045
 3239SOL     OW10615   6.357   6.971   5.727
 3239SOL    HW110616   6.351   6.872   5.720
 3239SOL    HW210617   6.432   7.005   5.671
 3240SOL     OW10618   1.384   0.312   4.623
 3240SOL    HW110619   1.347   0.390   4.573
 3240SOL    HW210620   1.333   0.300   4.708
 3241SOL     OW10621   4.745   1.211   4.012
 3241SOL    HW110622   4.799   1.294   4.023
 3241SOL    HW210623   4.802   1.141   3.969
 3242SOL     OW10624   4.045   6.526   6.815
 3242SOL    HW110625   3.990   6.565   6.741
 3242SOL    HW210626   4.126   6.482   6.776
 3243SOL     OW10627   4.337   5.333   0.278
 3243SOL    HW110628   4.431   5.347   0.310
 3243SOL    HW210629   4.338   5.320   0.179
 3244SOL     OW10630   3.766   6.102   6.239
 3244SOL    HW110631   3.767   6.184   6.296
 3244SOL    HW210632   3.860   6.076   6.217
 3245SOL     OW10633   3.597   2.624   6.709
 3245SOL    HW110634   3.531   2.628   6.634
 3245SOL    HW210635   3.678   2.575   6.678
 3246SOL     OW10636   5.101   6.422   2.788
 3246SOL    HW110637   5.197   6.395   2.781
 3246SOL    HW210638   5.053   6.363   2.852
 3247SOL     OW10639   6.815   2.643   3.682
 3247SOL    HW110640   6.716   2.654   3.696
 3247SOL    HW210641   6.860   2.636   3.771
 3248SOL     OW10642   6.134   3.284   1.535
 3248SOL    HW110643   6.232   3.296   1.554
 3248SOL    HW210644   6.096   3.370   1.499
 3249SOL     OW10645   2.797   4.741   4.866
 3249SOL    HW110646   2.808   4.688   4.950
 3249SOL    HW210647   2.736   4.691   4.803
 3250SOL     OW10648   4.620   6.823   2.434
 3250SOL    HW110649   4.667   6.867   2.510
 3250SOL    HW210650   4.628   6.879   2.352
 3251SOL     OW10651   3.462   1.979   2.786
 3251SOL    HW110652   3.410   2.062   2.770
 3251SOL    HW210653   3.420   1.903   2.737
 3252SOL     OW10654   2.704   0.858   2.607
 3252SOL    HW110655   2.688   0.773   2.556
 3252SOL    HW210656   2.683   0.936   2.549
 3253SOL     OW10657   5.310   2.868   1.157
 3253SOL    HW110658   5.372   2.946   1.172
 3253SOL    HW210659   5.217   2.895   1.181
 3254SOL     OW10660   4.218   4.685   3.440
 3254SOL    HW110661   4.273   4.768   3.428
 3254SOL    HW210662   4.121   4.711   3.446
 3255SOL     OW10663   4.235   5.619   0.413
 3255SOL    HW110664   4.269   5.573   0.495
 3255SOL    HW210665   4.144   5.655   0.432
 3256SOL     OW10666   5.022   0.217   5.783
 3256SOL    HW110667   4.963   0.184   5.708
 3256SOL    HW210668   5.117   0.195   5.763
 3257SOL     OW10669   1.478   2.375   1.137
 3257SOL    HW110670   1.538   2.372   1.217
 3257SOL    HW210671   1.404   2.440   1.153
 3258SOL     OW10672   5.237   6.580   1.925
 3258SOL    HW110673   5.197   6.615   2.009
 3258SOL    HW210674   5.180   6.505   1.890
 3259SOL     OW10675   4.539   6.405   3.884
 3259SOL    HW110676   4.459   6.460   3.861
 3259SOL    HW210677   4.519   6.349   3.965
 3260SOL     OW10678   2.358   2.064   6.971
 3260SOL    HW110679   2.405   2.153   6.972
 3260SOL    HW210680   2.370   2.022   6.881
 3261SOL     OW10681   4.808   6.701   1.111
 3261SOL    HW110682   4.884   6.751   1.071
 3261SOL    HW210683   4.836   6.660   1.198
 3262SOL     OW10684   3.659   1.817   3.013
 3262SOL    HW110685   3.600   1.886   3.056
 3262SOL    HW210686   3.696   1.854   2.928
 3263SOL     OW10687   4.835   6.809   1.887
 3263SOL    HW110688   4.870   6.720   1.918
 3263SOL    HW210689   4.818   6.806   1.789
 3264SOL     OW10690   6.497   4.681   6.952
 3264SOL    HW110691   6.432   4.757   6.958
 3264SOL    HW210692   6.541   4.669   0.015
 3265SOL     OW10693   5.273   1.061   6.359
 3265SOL    HW110694   5.360   1.014   6.343
 3265SOL    HW210695   5.214   1.004   6.416
 3266SOL     OW10696   0.745   1.654   6.452
 3266SOL    HW110697   0.787   1.701   6.374
 3266SOL    HW210698   0.726   1.559   6.428
 3267SOL     OW10699   3.283   2.113   1.062
 3267SOL    HW110700   3.256   2.072   1.149
 3267SOL    HW210701   3.220   2.188   1.041
 3268SOL     OW10702   1.085   4.338   6.431
 3268SOL    HW110703   1.029   4.333   6.514
 3268SOL    HW210704   1.035   4.386   6.359
 3269SOL     OW10705   3.967   4.370   1.159
 3269SOL    HW110706   4.035   4.297   1.165
 3269SOL    HW210707   3.971   4.426   1.241
 3270SOL     OW10708   0.682   5.822   4.535
 3270SOL    HW110709   0.609   5.773   4.582
 3270SOL    HW210710   0.736   5.758   4.480
 3271SOL     OW10711   6.340   2.254   1.061
 3271SOL    HW110712   6.425   2.247   1.113
 3271SOL    HW210713   6.332   2.346   1.022
 3272SOL     OW10714   3.864   0.483   0.730
 3272SOL    HW110715   3.900   0.515   0.818
 3272SOL    HW210716   3.876   0.384   0.723
 3273SOL     OW10717   0.324   6.858   2.613
 3273SOL    HW110718   0.314   6.817   2.522
 3273SOL    HW210719   0.262   6.812   2.677
 3274SOL     OW10720   2.880   2.220   6.200
 3274SOL    HW110721   2.980   2.222   6.202
 3274SOL    HW210722   2.847   2.291   6.138
 3275SOL     OW10723   2.030   0.660   6.922
 3275SOL    HW110724   2.121   0.701   6.932
 3275SOL    HW210725   1.998   0.673   6.829
 3276SOL     OW10726   3.335   6.354   6.688
 3276SOL    HW110727   3.295   6.405   6.613
 3276SOL    HW210728   3.327   6.407   6.773
 3277SOL     OW10729   0.238   5.567   5.032
 3277SOL    HW110730   0.305   5.572   5.106
 3277SOL    HW210731   0.154   5.614   5.060
 3278SOL     OW10732   1.262   0.700   6.123
 3278SOL    HW110733   1.196   0.775   6.124
 3278SOL    HW210734   1.257   0.651   6.210
 3279SOL     OW10735   0.839   6.775   1.240
 3279SOL    HW110736   0.935   6.746   1.234
 3279SOL    HW210737   0.835   6.869   1.274
 3280SOL     OW10738   2.062   4.568   6.068
 3280SOL    HW110739   2.073   4.650   6.124
 3280SOL    HW210740   2.051   4.488   6.127
 3281SOL     OW10741   2.580   5.511   0.319
 3281SOL    HW110742   2.483   5.528   0.302
 3281SOL    HW210743   2.614   5.577   0.386
 3282SOL     OW10744   2.489   5.158   3.420
 3282SOL    HW110745   2.516   5.213   3.342
 3282SOL    HW210746   2.545   5.075   3.424
 3283SOL     OW10747   2.486   1.092   3.482
 3283SOL    HW110748   2.579   1.056   3.475
 3283SOL    HW210749   2.473   1.131   3.573
 3284SOL     OW10750   6.743   4.930   6.849
 3284SOL    HW110751   6.794   5.010   6.816
 3284SOL    HW210752   6.681   4.958   6.922
 3285SOL     OW10753   0.778   1.623   3.267
 3285SOL    HW110754   0.736   1.629   3.357
 3285SOL    HW210755   0.866   1.671   3.268
 3286SOL     OW10756   3.496   3.515   4.623
 3286SOL    HW110757   3.548   3.570   4.689
 3286SOL    HW210758   3.519   3.543   4.530
 3287SOL     OW10759   1.971   4.906   0.443
 3287SOL    HW110760   1.982   5.005   0.429
 3287SOL    HW210761   1.939   4.864   0.359
 3288SOL     OW10762   0.692   6.227   6.173
 3288SOL    HW110763   0.617   6.238   6.238
 3288SOL    HW210764   0.779   6.246   6.219
 3289SOL     OW10765   0.927   6.496   5.124
 3289SOL    HW110766   1.023   6.521   5.138
 3289SOL    HW210767   0.876   6.575   5.092
 3290SOL     OW10768   6.540   5.399   1.327
 3290SOL    HW110769   6.584   5.358   1.407
 3290SOL    HW210770   6.509   5.492   1.350
 3291SOL     OW10771   1.366   6.207   0.375
 3291SOL    HW110772   1.452   6.214   0.426
 3291SOL    HW210773   1.312   6.131   0.410
 3292SOL     OW10774   6.578   6.785   5.568
 3292SOL    HW110775   6.664   6.777   5.518
 3292SOL    HW210776   6.595   6.822   5.659
 3293SOL     OW10777   6.984   1.080   2.800
 3293SOL    HW110778   6.929   1.103   2.720
 3293SOL    HW210779   6.936   1.107   2.883
 3294SOL     OW10780   0.199   0.242   6.405
 3294SOL    HW110781   0.285   0.294   6.412
 3294SOL    HW210782   0.160   0.230   6.496
 3295SOL     OW10783   1.500   3.525   0.541
 3295SOL    HW110784   1.540   3.447   0.493
 3295SOL    HW210785   1.425   3.563   0.487
 3296SOL     OW10786   2.237   6.540   2.461
 3296SOL    HW110787   2.323   6.509   2.420
 3296SOL    HW210788   2.189   6.461   2.500
 3297SOL     OW10789   3.229   2.577   6.307
 3297SOL    HW110790   3.303   2.613   6.365
 3297SOL    HW210791   3.250   2.597   6.211
 3298SOL     OW10792   6.802   3.335   2.431
 3298SOL    HW110793   6.765   3.258   2.380
 3298SOL    HW210794   6.727   3.388   2.471
 3299SOL     OW10795   1.734   0.201   5.091
 3299SOL    HW110796   1.816   0.158   5.128
 3299SOL    HW210797   1.752   0.297   5.070
 3300SOL     OW10798   6.349   6.069   4.631
 3300SOL    HW110799   6.416   6.081   4.705
 3300SOL    HW210800   6.355   5.976   4.596
 3301SOL     OW10801   0.623   3.393   3.123
 3301SOL    HW110802   0.528   3.422   3.113
 3301SOL    HW210803   0.651   3.340   3.043
 3302SOL     OW10804   1.296   4.771   3.651
 3302SOL    HW110805   1.317   4.824   3.568
 3302SOL    HW210806   1.354   4.801   3.726
 3303SOL     OW10807   4.040   3.764   3.725
 3303SOL    HW110808   4.013   3.788   3.818
 3303SOL    HW210809   4.098   3.683   3.728
 3304SOL     OW10810   0.639   6.558   4.189
 3304SOL    HW110811   0.719   6.527   4.240
 3304SOL    HW210812   0.592   6.630   4.241
 3305SOL     OW10813   2.321   1.104   2.490
 3305SOL    HW110814   2.379   1.158   2.551
 3305SOL    HW210815   2.290   1.022   2.538
 3306SOL     OW10816   2.260   4.208   3.141
 3306SOL    HW110817   2.345   4.203   3.192
 3306SOL    HW210818   2.183   4.191   3.202
 3307SOL     OW10819   6.768   6.026   0.664
 3307SOL    HW110820   6.695   6.011   0.730
 3307SOL    HW210821   6.741   5.990   0.575
 3308SOL     OW10822   5.025   5.935   0.948
 3308SOL    HW110823   4.994   5.909   0.856
 3308SOL    HW210824   4.980   5.875   1.015
 3309SOL     OW10825   0.458   4.954   3.059
 3309SOL    HW110826   0.532   5.016   3.034
 3309SOL    HW210827   0.438   4.963   3.157
 3310SOL     OW10828   0.653   5.165   2.493
 3310SOL    HW110829   0.658   5.115   2.579
 3310SOL    HW210830   0.601   5.249   2.506
 3311SOL     OW10831   4.242   6.560   1.186
 3311SOL    HW110832   4.172   6.528   1.122
 3311SOL    HW210833   4.273   6.651   1.160
 3312SOL     OW10834   3.283   3.575   6.544
 3312SOL    HW110835   3.232   3.654   6.511
 3312SOL    HW210836   3.230   3.491   6.527
 3313SOL     OW10837   0.084   5.089   3.972
 3313SOL    HW110838   0.175   5.131   3.968
 3313SOL    HW210839   0.018   5.152   3.932
 3314SOL     OW10840   1.539   3.389   5.359
 3314SOL    HW110841   1.581   3.472   5.397
 3314SOL    HW210842   1.608   3.338   5.308
 3315SOL     OW10843   0.125   1.737   3.966
 3315SOL    HW110844   0.165   1.672   3.902
 3315SOL    HW210845   0.153   1.830   3.941
 3316SOL     OW10846   4.737   2.006   6.818
 3316SOL    HW110847   4.793   1.964   6.890
 3316SOL    HW210848   4.748   2.105   6.821
 3317SOL     OW10849   4.351   2.480   1.282
 3317SOL    HW110850   4.280   2.416   1.311
 3317SOL    HW210851   4.309   2.566   1.255
 3318SOL     OW10852   2.604   5.787   5.248
 3318SOL    HW110853   2.507   5.765   5.241
 3318SOL    HW210854   2.648   5.725   5.312
 3319SOL     OW10855   0.506   6.081   4.771
 3319SOL    HW110856   0.459   6.067   4.684
 3319SOL    HW210857   0.535   5.992   4.807
 3320SOL     OW10858   6.096   1.278   5.749
 3320SOL    HW110859   6.093   1.180   5.733
 3320SOL    HW210860   6.182   1.303   5.793
 3321SOL     OW10861   3.312   3.246   3.171
 3321SOL    HW110862   3.235   3.309   3.180
 3321SOL    HW210863   3.286   3.155   3.204
 3322SOL     OW10864   4.015   1.842   0.657
 3322SOL    HW110865   4.024   1.886   0.746
 3322SOL    HW210866   4.071   1.759   0.656
 3323SOL     OW10867   2.397   4.917   0.234
 3323SOL    HW110868   2.315   4.923   0.291
 3323SOL    HW210869   2.473   4.963   0.280
 3324SOL     OW10870   0.634   3.475   0.364
 3324SOL    HW110871   0.721   3.471   0.314
 3324SOL    HW210872   0.625   3.564   0.408
 3325SOL     OW10873   1.611   2.694   0.988
 3325SOL    HW110874   1.687   2.665   0.930
 3325SOL    HW210875   1.535   2.723   0.931
 3326SOL     OW10876   6.367   1.602   0.797
 3326SOL    HW110877   6.394   1.516   0.842
 3326SOL    HW210878   6.411   1.608   0.707
 3327SOL     OW10879   2.998   6.879   2.146
 3327SOL    HW110880   2.916   6.877   2.088
 3327SOL    HW210881   2.975   6.847   2.237
 3328SOL     OW10882   4.967   0.820   1.989
 3328SOL    HW110883   5.010   0.855   2.073
 3328SOL    HW210884   5.013   0.736   1.960
 3329SOL     OW10885   4.789   0.296   5.290
 3329SOL    HW110886   4.869   0.350   5.316
 3329SOL    HW210887   4.818   0.219   5.234
 3330SOL     OW10888   6.219   6.511   2.676
 3330SOL    HW110889   6.151   6.452   2.719
 3330SOL    HW210890   6.186   6.541   2.586
 3331SOL     OW10891   1.956   3.716   2.483
 3331SOL    HW110892   2.014   3.714   2.564
 3331SOL    HW210893   1.889   3.643   2.487
 3332SOL     OW10894   4.254   5.339   0.819
 3332SOL    HW110895   4.192   5.266   0.792
 3332SOL    HW210896   4.247   5.415   0.754
 3333SOL     OW10897   4.083   3.795   1.269
 3333SOL    HW110898   4.064   3.839   1.357
 3333SOL    HW210899   4.117   3.863   1.204
 3334SOL     OW10900   1.551   1.933   2.813
 3334SOL    HW110901   1.624   2.001   2.822
 3334SOL    HW210902   1.474   1.958   2.871
 3335SOL     OW10903   3.861   4.237   5.128
 3335SOL    HW110904   3.902   4.187   5.051
 3335SOL    HW210905   3.925   4.238   5.205
 3336SOL     OW10906   4.251   6.439   3.524
 3336SOL    HW110907   4.187   6.505   3.486
 3336SOL    HW210908   4.243   6.437   3.624
 3337SOL     OW10909   3.488   3.765   3.013
 3337SOL    HW110910   3.411   3.762   2.949
 3337SOL    HW210911   3.483   3.850   3.066
 3338SOL     OW10912   2.279   1.603   1.731
 3338SOL    HW110913   2.201   1.641   1.682
 3338SOL    HW210914   2.339   1.677   1.763
 3339SOL     OW10915   2.400   0.167   5.577
 3339SOL    HW110916   2.366   0.174   5.671
 3339SOL    HW210917   2.415   0.259   5.540
 3340SOL     OW10918   4.223   1.227   4.485
 3340SOL    HW110919   4.165   1.300   4.449
 3340SOL    HW210920   4.182   1.188   4.567
 3341SOL     OW10921   2.496   4.499   3.074
 3341SOL    HW110922   2.483   4.459   2.983
 3341SOL    HW210923   2.415   4.552   3.099
 3342SOL     OW10924   6.605   0.429   3.323
 3342SOL    HW110925   6.525   0.373   3.348
 3342SOL    HW210926   6.688   0.385   3.358
 3343SOL     OW10927   4.880   5.512   6.612
 3343SOL    HW110928   4.831   5.597   6.594
 3343SOL    HW210929   4.901   5.467   6.525
 3344SOL     OW10930   6.707   2.706   2.443
 3344SOL    HW110931   6.759   2.764   2.506
 3344SOL    HW210932   6.614   2.695   2.477
 3345SOL     OW10933   0.206   5.259   0.151
 3345SOL    HW110934   0.270   5.191   0.187
 3345SOL    HW210935   0.131   5.212   0.104
 3346SOL     OW10936   1.981   1.278   0.018
 3346SOL    HW110937   1.992   1.240   0.110
 3346SOL    HW210938   1.932   1.365   0.024
 3347SOL     OW10939   0.214   3.250   6.427
 3347SOL    HW110940   0.272   3.169   6.438
 3347SOL    HW210941   0.252   3.326   6.481
 3348SOL     OW10942   4.123   3.917   5.801
 3348SOL    HW110943   4.053   3.923   5.872
 3348SOL    HW210944   4.124   4.002   5.747
 3349SOL     OW10945   2.675   4.941   3.460
 3349SOL    HW110946   2.764   4.923   3.503
 3349SOL    HW210947   2.631   4.855   3.438
 3350SOL     OW10948   0.099   3.735   5.433
 3350SOL    HW110949   0.014   3.759   5.479
 3350SOL    HW210950   0.176   3.756   5.494
 3351SOL     OW10951   5.648   1.203   1.604
 3351SOL    HW110952   5.577   1.156   1.552
 3351SOL    HW210953   5.689   1.274   1.547
 3352SOL     OW10954   4.818   2.678   6.777
 3352SOL    HW110955   4.864   2.625   6.706
 3352SOL    HW210956   4.834   2.775   6.762
 3353SOL     OW10957   3.023   0.880   1.483
 3353SOL    HW110958   3.082   0.942   1.431
 3353SOL    HW210959   3.062   0.788   1.482
 3354SOL     OW10960   3.860   3.480   6.022
 3354SOL    HW110961   3.911   3.546   5.967
 3354SOL    HW210962   3.803   3.528   6.088
 3355SOL     OW10963   2.122   0.361   4.839
 3355SOL    HW110964   2.067   0.356   4.756
 3355SOL    HW210965   2.063   0.382   4.917
 3356SOL     OW10966   1.696   6.767   5.045
 3356SOL    HW110967   1.728   6.678   5.014
 3356SOL    HW210968   1.771   6.817   5.089
 3357SOL     OW10969   3.548   3.532   1.773
 3357SOL    HW110970   3.471   3.578   1.818
 3357SOL    HW210971   3.577   3.585   1.693
 3358SOL     OW10972   6.926   0.968   2.508
 3358SOL    HW110973   6.967   0.969   2.416
 3358SOL    HW210974   6.844   1.025   2.508
 3359SOL     OW10975   6.620   6.106   4.124
 3359SOL    HW110976   6.699   6.116   4.184
 3359SOL    HW210977   6.557   6.039   4.163
 3360SOL     OW10978   7.014   3.013   5.864
 3360SOL    HW110979   0.021   2.981   5.953
 3360SOL    HW210980   0.054   3.078   5.826
 3361SOL     OW10981   0.211   0.638   4.870
 3361SOL    HW110982   0.158   0.695   4.933
 3361SOL    HW210983   0.152   0.606   4.796
 3362SOL     OW10984   3.619   1.762   4.006
 3362SOL    HW110985   3.696   1.791   4.063
 3362SOL    HW210986   3.650   1.694   3.940
 3363SOL     OW10987   5.687   3.365   1.105
 3363SOL    HW110988   5.722   3.282   1.148
 3363SOL    HW210989   5.756   3.437   1.111
 3364SOL     OW10990   1.892   4.515   3.566
 3364SOL    HW110991   1.978   4.557   3.595
 3364SOL    HW210992   1.856   4.457   3.638
 3365SOL     OW10993   1.750   3.691   3.951
 3365SOL    HW110994   1.828   3.656   3.899
 3365SOL    HW210995   1.670   3.696   3.892
 3366SOL     OW10996   6.212   4.019   4.212
 3366SOL    HW110997   6.130   4.065   4.179
 3366SOL    HW210998   6.187   3.951   4.281
 3367SOL     OW10999   4.004   3.145   4.311
 3367SOL    HW111000   4.061   3.070   4.277
 3367SOL    HW211001   3.908   3.114   4.314
 3368SOL     OW11002   1.485   5.913   0.714
 3368SOL    HW111003   1.481   5.850   0.637
 3368SOL    HW211004   1.442   5.871   0.794
 3369SOL     OW11005   4.198   2.703   1.222
 3369SOL    HW111006   4.134   2.744   1.286
 3369SOL    HW211007   4.183   2.742   1.131
 3370SOL     OW11008   0.507   5.671   2.250
 3370SOL    HW111009   0.565   5.589   2.253
 3370SOL    HW211010   0.554   5.746   2.297
 3371SOL     OW11011   2.325   2.615   3.468
 3371SOL    HW111012   2.336   2.681   3.394
 3371SOL    HW211013   2.284   2.531   3.432
 3372SOL     OW11014   6.672   3.762   1.248
 3372SOL    HW111015   6.721   3.741   1.332
 3372SOL    HW211016   6.609   3.837   1.263
 3373SOL     OW11017   0.374   2.669   0.915
 3373SOL    HW111018   0.308   2.694   0.985
 3373SOL    HW211019   0.341   2.701   0.825
 3374SOL     OW11020   0.690   0.343   3.986
 3374SOL    HW111021   0.596   0.377   3.988
 3374SOL    HW211022   0.707   0.287   4.067
 3375SOL     OW11023   6.841   4.881   6.322
 3375SOL    HW111024   6.819   4.854   6.416
 3375SOL    HW211025   6.880   4.803   6.273
 3376SOL     OW11026   2.515   3.746   5.371
 3376SOL    HW111027   2.606   3.705   5.371
 3376SOL    HW211028   2.519   3.836   5.328
 3377SOL     OW11029   6.153   4.770   3.108
 3377SOL    HW111030   6.210   4.697   3.071
 3377SOL    HW211031   6.139   4.757   3.206
 3378SOL     OW11032   1.016   6.496   0.351
 3378SOL    HW111033   0.970   6.424   0.300
 3378SOL    HW211034   1.098   6.459   0.395
 3379SOL     OW11035   0.123   3.917   3.507
 3379SOL    HW111036   0.155   3.844   3.568
 3379SOL    HW211037   0.199   3.979   3.487
 3380SOL     OW11038   3.479   4.268   5.899
 3380SOL    HW111039   3.523   4.275   5.988
 3380SOL    HW211040   3.385   4.234   5.910
 3381SOL     OW11041   1.561   3.915   1.178
 3381SOL    HW111042   1.579   3.911   1.276
 3381SOL    HW211043   1.646   3.896   1.128
 3382SOL     OW11044   0.321   2.379   0.864
 3382SOL    HW111045   0.386   2.452   0.883
 3382SOL    HW211046   0.369   2.292   0.854
 3383SOL     OW11047   5.106   5.299   0.235
 3383SOL    HW111048   5.035   5.255   0.180
 3383SOL    HW211049   5.177   5.232   0.257
 3384SOL     OW11050   2.234   4.445   0.129
 3384SOL    HW111051   2.184   4.464   0.044
 3384SOL    HW211052   2.183   4.484   0.206
 3385SOL     OW11053   0.614   1.622   3.488
 3385SOL    HW111054   0.629   1.527   3.513
 3385SOL    HW211055   0.601   1.677   3.570
 3386SOL     OW11056   6.513   4.895   6.450
 3386SOL    HW111057   6.503   4.870   6.353
 3386SOL    HW211058   6.573   4.829   6.495
 3387SOL     OW11059   6.491   0.012   3.661
 3387SOL    HW111060   6.417   6.987   3.707
 3387SOL    HW211061   6.544   0.062   3.729
 3388SOL     OW11062   6.460   3.324   1.119
 3388SOL    HW111063   6.540   3.384   1.121
 3388SOL    HW211064   6.453   3.281   1.029
 3389SOL     OW11065   6.417   6.359   1.037
 3389SOL    HW111066   6.317   6.364   1.035
 3389SOL    HW211067   6.446   6.266   1.014
 3390SOL     OW11068   3.711   6.675   6.200
 3390SOL    HW111069   3.735   6.588   6.158
 3390SOL    HW211070   3.647   6.659   6.275
 3391SOL     OW11071   5.483   3.060   3.847
 3391SOL    HW111072   5.431   3.097   3.770
 3391SOL    HW211073   5.422   3.008   3.907
 3392SOL     OW11074   4.153   6.998   5.547
 3392SOL    HW111075   4.170   6.942   5.466
 3392SOL    HW211076   4.101   6.945   5.614
 3393SOL     OW11077   5.689   6.321   1.311
 3393SOL    HW111078   5.730   6.394   1.256
 3393SOL    HW211079   5.706   6.338   1.408
 3394SOL     OW11080   3.190   5.713   1.755
 3394SOL    HW111081   3.174   5.615   1.760
 3394SOL    HW211082   3.246   5.734   1.674
 3395SOL     OW11083   3.265   0.374   3.250
 3395SOL    HW111084   3.216   0.320   3.182
 3395SOL    HW211085   3.243   0.341   3.341
 3396SOL     OW11086   4.110   1.737   4.172
 3396SOL    HW111087   4.022   1.691   4.172
 3396SOL    HW211088   4.131   1.768   4.079
 3397SOL     OW11089   2.387   5.762   6.817
 3397SOL    HW111090   2.294   5.763   6.855
 3397SOL    HW211091   2.417   5.668   6.804
 3398SOL     OW11092   6.910   1.412   4.665
 3398SOL    HW111093   6.824   1.424   4.615
 3398SOL    HW211094   6.892   1.366   4.751
 3399SOL     OW11095   6.790   5.046   2.291
 3399SOL    HW111096   6.836   5.121   2.243
 3399SOL    HW211097   6.760   4.978   2.224
 3400SOL     OW11098   5.538   2.152   6.173
 3400SOL    HW111099   5.525   2.249   6.195
 3400SOL    HW211100   5.636   2.131   6.174
 3401SOL     OW11101   0.178   3.482   5.503
 3401SOL    HW111102   0.273   3.471   5.529
 3401SOL    HW211103   0.164   3.572   5.462
 3402SOL     OW11104   6.402   4.173   1.437
 3402SOL    HW111105   6.430   4.233   1.362
 3402SOL    HW211106   6.444   4.204   1.522
 3403SOL     OW11107   4.251   6.942   0.015
 3403SOL    HW111108   4.322   6.913   0.079
 3403SOL    HW211109   4.182   6.869   0.008
 3404SOL     OW11110   5.273   3.751   5.021
 3404SOL    HW111111   5.180   3.733   5.053
 3404SOL    HW211112   5.272   3.774   4.924
 3405SOL     OW11113   5.635   6.063   6.101
 3405SOL    HW111114   5.573   6.118   6.044
 3405SOL    HW211115   5.582   5.993   6.149
 3406SOL     OW11116   1.908   4.442   2.053
 3406SOL    HW111117   1.925   4.516   2.118
 3406SOL    HW211118   1.963   4.457   1.971
 3407SOL     OW11119   1.654   3.971   0.560
 3407SOL    HW111120   1.661   3.993   0.463
 3407SOL    HW211121   1.714   3.894   0.581
 3408SOL     OW11122   4.829   2.582   3.723
 3408SOL    HW111123   4.924   2.578   3.692
 3408SOL    HW211124   4.827   2.592   3.823
 3409SOL     OW11125   4.907   0.653   0.810
 3409SOL    HW111126   4.973   0.578   0.801
 3409SOL    HW211127   4.952   0.740   0.788
 3410SOL     OW11128   5.042   0.186   2.509
 3410SOL    HW111129   5.071   0.277   2.537
 3410SOL    HW211130   4.945   0.187   2.484
 3411SOL     OW11131   6.910   2.340   0.493
 3411SOL    HW111132   6.977   2.354   0.566
 3411SOL    HW211133   6.957   2.337   0.405
 3412SOL     OW11134   5.537   3.358   1.465
 3412SOL    HW111135   5.497   3.415   1.394
 3412SOL    HW211136   5.467   3.300   1.505
 3413SOL     OW11137   0.314   2.168   6.007
 3413SOL    HW111138   0.273   2.196   6.094
 3413SOL    HW211139   0.367   2.084   6.021
 3414SOL     OW11140   3.282   3.681   0.464
 3414SOL    HW111141   3.293   3.716   0.371
 3414SOL    HW211142   3.187   3.688   0.492
 3415SOL     OW11143   2.210   2.613   5.254
 3415SOL    HW111144   2.133   2.660   5.297
 3415SOL    HW211145   2.181   2.577   5.165
 3416SOL     OW11146   5.808   0.037   6.876
 3416SOL    HW111147   5.906   0.053   6.861
 3416SOL    HW211148   5.759   0.124   6.874
 3417SOL     OW11149   6.466   6.739   3.010
 3417SOL    HW111150   6.418   6.822   2.981
 3417SOL    HW211151   6.565   6.757   3.013
 3418SOL     OW11152   5.026   4.620   1.145
 3418SOL    HW111153   5.030   4.520   1.144
 3418SOL    HW211154   4.972   4.652   1.067
 3419SOL     OW11155   3.585   5.877   6.197
 3419SOL    HW111156   3.565   5.944   6.125
 3419SOL    HW211157   3.646   5.918   6.265
 3420SOL     OW11158   4.377   2.269   3.508
 3420SOL    HW111159   4.431   2.222   3.578
 3420SOL    HW211160   4.293   2.304   3.550
 3421SOL     OW11161   6.160   2.391   3.525
 3421SOL    HW111162   6.119   2.473   3.487
 3421SOL    HW211163   6.089   2.321   3.536
 3422SOL     OW11164   2.138   0.001   1.079
 3422SOL    HW111165   2.120   0.094   1.045
 3422SOL    HW211166   2.055   6.972   1.071
 3423SOL     OW11167   0.965   5.025   5.807
 3423SOL    HW111168   0.890   4.963   5.831
 3423SOL    HW211169   0.988   5.014   5.711
 3424SOL     OW11170   4.487   0.254   1.697
 3424SOL    HW111171   4.450   0.165   1.724
 3424SOL    HW211172   4.475   0.319   1.772
 3425SOL     OW11173   5.642   3.677   1.332
 3425SOL    HW111174   5.649   3.767   1.289
 3425SOL    HW211175   5.702   3.612   1.285
 3426SOL     OW11176   5.498   2.908   6.827
 3426SOL    HW111177   5.533   2.847   6.756
 3426SOL    HW211178   5.432   2.859   6.884
 3427SOL     OW11179   1.133   2.687   0.231
 3427SOL    HW111180   1.200   2.676   0.158
 3427SOL    HW211181   1.163   2.635   0.312
 3428SOL     OW11182   4.974   6.040   5.636
 3428SOL    HW111183   4.936   6.096   5.562
 3428SOL    HW211184   4.949   6.079   5.724
 3429SOL     OW11185   6.661   0.563   0.803
 3429SOL    HW111186   6.685   0.653   0.767
 3429SOL    HW211187   6.676   0.562   0.902
 3430SOL     OW11188   1.756   4.466   5.394
 3430SOL    HW111189   1.728   4.560   5.411
 3430SOL    HW211190   1.844   4.449   5.438
 3431SOL     OW11191   2.330   6.127   3.021
 3431SOL    HW111192   2.344   6.210   2.966
 3431SOL    HW211193   2.241   6.131   3.066
 3432SOL     OW11194   1.950   4.456   1.273
 3432SOL    HW111195   1.995   4.497   1.352
 3432SOL    HW211196   1.888   4.384   1.304
 3433SOL     OW11197   2.660   0.975   6.493
 3433SOL    HW111198   2.644   1.006   6.587
 3433SOL    HW211199   2.689   0.879   6.494
 3434SOL     OW11200   2.736   2.249   1.119
 3434SOL    HW111201   2.672   2.308   1.168
 3434SOL    HW211202   2.776   2.300   1.042
 3435SOL     OW11203   2.291   0.730   6.983
 3435SOL    HW111204   2.294   0.802   0.026
 3435SOL    HW211205   2.357   0.658   7.007
 3436SOL     OW11206   3.333   5.868   6.907
 3436SOL    HW111207   3.308   5.940   6.843
 3436SOL    HW211208   3.349   5.907   6.997
 3437SOL     OW11209   1.485   6.563   6.570
 3437SOL    HW111210   1.508   6.654   6.604
 3437SOL    HW211211   1.558   6.529   6.511
 3438SOL     OW11212   1.232   3.846   1.484
 3438SOL    HW111213   1.142   3.836   1.527
 3438SOL    HW211214   1.256   3.761   1.437
 3439SOL     OW11215   2.157   5.804   1.885
 3439SOL    HW111216   2.218   5.798   1.805
 3439SOL    HW211217   2.178   5.730   1.948
 3440SOL     OW11218   4.078   3.797   4.432
 3440SOL    HW111219   4.045   3.707   4.400
 3440SOL    HW211220   4.144   3.833   4.366
 3441SOL     OW11221   5.328   5.181   5.784
 3441SOL    HW111222   5.250   5.231   5.822
 3441SOL    HW211223   5.374   5.238   5.717
 3442SOL     OW11224   3.737   3.284   0.909
 3442SOL    HW111225   3.684   3.366   0.888
 3442SOL    HW211226   3.717   3.255   1.003
 3443SOL     OW11227   1.978   6.352   2.065
 3443SOL    HW111228   2.019   6.396   1.985
 3443SOL    HW211229   1.955   6.421   2.133
 3444SOL     OW11230   5.855   3.580   0.777
 3444SOL    HW111231   5.911   3.500   0.796
 3444SOL    HW211232   5.822   3.576   0.683
 3445SOL     OW11233   5.739   4.229   3.262
 3445SOL    HW111234   5.719   4.136   3.291
 3445SOL    HW211235   5.828   4.257   3.297
 3446SOL     OW11236   5.065   1.230   1.246
 3446SOL    HW111237   4.973   1.191   1.249
 3446SOL    HW211238   5.114   1.207   1.331
 3447SOL     OW11239   5.473   0.882   0.014
 3447SOL    HW111240   5.563   0.862   7.002
 3447SOL    HW211241   5.434   0.961   6.992
 3448SOL     OW11242   1.524   5.982   4.670
 3448SOL    HW111243   1.534   6.074   4.709
 3448SOL    HW211244   1.551   5.914   4.737
 3449SOL     OW11245   6.140   4.051   5.229
 3449SOL    HW111246   6.107   4.036   5.322
 3449SOL    HW211247   6.152   3.963   5.183
 3450SOL     OW11248   1.274   6.146   1.059
 3450SOL    HW111249   1.336   6.101   1.123
 3450SOL    HW211250   1.281   6.102   0.970
 3451SOL     OW11251   2.565   0.189   1.173
 3451SOL    HW111252   2.646   0.211   1.227
 3451SOL    HW211253   2.484   0.223   1.220
 3452SOL     OW11254   4.503   0.573   4.914
 3452SOL    HW111255   4.579   0.528   4.960
 3452SOL    HW211256   4.507   0.672   4.930
 3453SOL     OW11257   4.460   6.369   5.959
 3453SOL    HW111258   4.482   6.298   6.026
 3453SOL    HW211259   4.428   6.451   6.007
 3454SOL     OW11260   1.396   2.722   1.777
 3454SOL    HW111261   1.361   2.712   1.870
 3454SOL    HW211262   1.323   2.699   1.712
 3455SOL     OW11263   0.438   3.439   6.129
 3455SOL    HW111264   0.521   3.464   6.079
 3455SOL    HW211265   0.458   3.436   6.227
 3456SOL     OW11266   5.225   4.247   2.241
 3456SOL    HW111267   5.220   4.345   2.226
 3456SOL    HW211268   5.319   4.220   2.262
 3457SOL     OW11269   3.782   5.347   5.347
 3457SOL    HW111270   3.856   5.364   5.412
 3457SOL    HW211271   3.763   5.430   5.296
 3458SOL     OW11272   3.958   1.580   2.766
 3458SOL    HW111273   3.917   1.636   2.693
 3458SOL    HW211274   4.049   1.549   2.737
 3459SOL     OW11275   4.493   6.981   3.424
 3459SOL    HW111276   4.550   7.005   3.345
 3459SOL    HW211277   4.445   0.037   3.456
 3460SOL     OW11278   4.298   1.605   5.332
 3460SOL    HW111279   4.240   1.662   5.391
 3460SOL    HW211280   4.300   1.512   5.368
 3461SOL     OW11281   5.835   5.323   5.753
 3461SOL    HW111282   5.846   5.246   5.691
 3461SOL    HW211283   5.750   5.313   5.805
 3462SOL     OW11284   1.509   4.428   0.139
 3462SOL    HW111285   1.584   4.449   0.201
 3462SOL    HW211286   1.525   4.338   0.097
 3463SOL     OW11287   6.187   4.165   1.093
 3463SOL    HW111288   6.269   4.199   1.139
 3463SOL    HW211289   6.116   4.145   1.161
 3464SOL     OW11290   0.452   4.633   6.419
 3464SOL    HW111291   0.500   4.720   6.404
 3464SOL    HW211292   0.453   4.580   6.335
 3465SOL     OW11293   2.186   0.465   0.999
 3465SOL    HW111294   2.137   0.538   0.951
 3465SOL    HW211295   2.207   0.494   1.092
 3466SOL     OW11296   6.573   3.760   5.168
 3466SOL    HW111297   6.612   3.670   5.148
 3466SOL    HW211298   6.532   3.798   5.085
 3467SOL     OW11299   1.890   2.084   6.768
 3467SOL    HW111300   1.850   2.143   6.698
 3467SOL    HW211301   1.947   2.140   6.829
 3468SOL     OW11302   3.258   0.245   4.331
 3468SOL    HW111303   3.286   0.221   4.424
 3468SOL    HW211304   3.168   0.288   4.334
 3469SOL     OW11305   6.155   2.319   3.046
 3469SOL    HW111306   6.195   2.230   3.070
 3469SOL    HW211307   6.169   2.336   2.949
 3470SOL     OW11308   0.035   5.679   0.855
 3470SOL    HW111309   6.992   5.611   0.881
 3470SOL    HW211310   0.103   5.635   0.796
 3471SOL     OW11311   3.912   6.290   4.977
 3471SOL    HW111312   3.847   6.242   4.918
 3471SOL    HW211313   3.960   6.360   4.924
 3472SOL     OW11314   2.802   1.369   5.447
 3472SOL    HW111315   2.800   1.381   5.347
 3472SOL    HW211316   2.769   1.278   5.470
 3473SOL     OW11317   4.861   0.676   6.257
 3473SOL    HW111318   4.902   0.591   6.289
 3473SOL    HW211319   4.775   0.656   6.210
 3474SOL     OW11320   4.970   5.270   1.175
 3474SOL    HW111321   4.951   5.314   1.263
 3474SOL    HW211322   5.067   5.247   1.169
 3475SOL     OW11323   1.674   5.876   4.389
 3475SOL    HW111324   1.593   5.927   4.360
 3475SOL    HW211325   1.645   5.801   4.448
 3476SOL     OW11326   4.583   1.002   4.496
 3476SOL    HW111327   4.518   1.026   4.424
 3476SOL    HW211328   4.551   0.921   4.544
 3477SOL     OW11329   3.905   6.234   1.245
 3477SOL    HW111330   3.870   6.193   1.161
 3477SOL    HW211331   3.866   6.185   1.324
 3478SOL     OW11332   4.068   5.179   0.742
 3478SOL    HW111333   4.007   5.208   0.669
 3478SOL    HW211334   4.014   5.142   0.818
 3479SOL     OW11335   0.796   0.408   1.849
 3479SOL    HW111336   0.784   0.319   1.805
 3479SOL    HW211337   0.795   0.480   1.780
 3480SOL     OW11338   0.806   1.272   3.363
 3480SOL    HW111339   0.775   1.246   3.271
 3480SOL    HW211340   0.822   1.370   3.367
 3481SOL     OW11341   2.468   6.789   0.011
 3481SOL    HW111342   2.532   6.779   6.960
 3481SOL    HW211343   2.517   6.826   0.090
 3482SOL     OW11344   0.266   2.468   0.113
 3482SOL    HW111345   0.348   2.415   0.091
 3482SOL    HW211346   0.291   2.564   0.125
 3483SOL     OW11347   3.218   0.009   1.320
 3483SOL    HW111348   3.235   0.107   1.334
 3483SOL    HW211349   3.188   6.994   1.406
 3484SOL     OW11350   4.004   3.799   3.259
 3484SOL    HW111351   4.025   3.811   3.162
 3484SOL    HW211352   4.066   3.730   3.298
 3485SOL     OW11353   1.215   2.376   5.373
 3485SOL    HW111354   1.241   2.398   5.279
 3485SOL    HW211355   1.221   2.278   5.388
 3486SOL     OW11356   4.281   1.854   1.970
 3486SOL    HW111357   4.300   1.949   1.943
 3486SOL    HW211358   4.286   1.846   2.069
 3487SOL     OW11359   6.391   1.386   6.733
 3487SOL    HW111360   6.450   1.308   6.753
 3487SOL    HW211361   6.394   1.406   6.635
 3488SOL     OW11362   5.164   3.414   3.940
 3488SOL    HW111363   5.209   3.426   3.851
 3488SOL    HW211364   5.183   3.323   3.975
 3489SOL     OW11365   3.527   0.746   1.259
 3489SOL    HW111366   3.625   0.743   1.279
 3489SOL    HW211367   3.502   0.667   1.203
 3490SOL     OW11368   3.947   4.083   6.926
 3490SOL    HW111369   3.910   4.168   6.965
 3490SOL    HW211370   3.950   4.013   6.997
 3491SOL     OW11371   0.136   2.984   4.650
 3491SOL    HW111372   0.110   2.980   4.746
 3491SOL    HW211373   0.057   3.011   4.595
 3492SOL     OW11374   6.761   4.455   6.841
 3492SOL    HW111375   6.855   4.425   6.855
 3492SOL    HW211376   6.698   4.389   6.883
 3493SOL     OW11377   6.825   4.640   0.853
 3493SOL    HW111378   6.828   4.731   0.814
 3493SOL    HW211379   6.821   4.572   0.780
 3494SOL     OW11380   3.356   0.540   0.478
 3494SOL    HW111381   3.380   0.606   0.407
 3494SOL    HW211382   3.440   0.498   0.514
 3495SOL     OW11383   4.862   4.728   0.920
 3495SOL    HW111384   4.790   4.678   0.968
 3495SOL    HW211385   4.842   4.826   0.922
 3496SOL     OW11386   2.276   2.873   0.971
 3496SOL    HW111387   2.348   2.857   1.039
 3496SOL    HW211388   2.242   2.786   0.938
 3497SOL     OW11389   4.479   0.596   3.812
 3497SOL    HW111390   4.400   0.654   3.834
 3497SOL    HW211391   4.502   0.606   3.715
 3498SOL     OW11392   2.430   1.622   2.018
 3498SOL    HW111393   2.507   1.676   2.054
 3498SOL    HW211394   2.465   1.555   1.953
 3499SOL     OW11395   6.524   3.130   3.744
 3499SOL    HW111396   6.525   3.228   3.766
 3499SOL    HW211397   6.545   3.118   3.647
 3500SOL     OW11398   6.270   3.954   6.834
 3500SOL    HW111399   6.310   4.046   6.828
 3500SOL    HW211400   6.341   3.886   6.818
 3501SOL     OW11401   1.676   4.277   4.234
 3501SOL    HW111402   1.699   4.183   4.259
 3501SOL    HW211403   1.700   4.338   4.309
 3502SOL     OW11404   0.991   3.242   1.335
 3502SOL    HW111405   0.947   3.307   1.273
 3502SOL    HW211406   0.962   3.261   1.429
 3503SOL     OW11407   5.051   6.118   4.669
 3503SOL    HW111408   5.013   6.037   4.625
 3503SOL    HW211409   5.077   6.185   4.599
 3504SOL     OW11410   2.308   3.369   1.626
 3504SOL    HW111411   2.362   3.397   1.705
 3504SOL    HW211412   2.326   3.430   1.549
 3505SOL     OW11413   5.215   5.084   5.202
 3505SOL    HW111414   5.248   4.999   5.161
 3505SOL    HW211415   5.188   5.067   5.297
 3506SOL     OW11416   4.883   5.520   3.282
 3506SOL    HW111417   4.797   5.537   3.331
 3506SOL    HW211418   4.896   5.422   3.272
 3507SOL     OW11419   0.910   6.689   6.561
 3507SOL    HW111420   0.960   6.738   6.490
 3507SOL    HW211421   0.969   6.678   6.642
 3508SOL     OW11422   5.714   3.780   6.794
 3508SOL    HW111423   5.687   3.867   6.836
 3508SOL    HW211424   5.784   3.797   6.724
 3509SOL     OW11425   6.728   6.606   0.607
 3509SOL    HW111426   6.737   6.512   0.640
 3509SOL    HW211427   6.700   6.605   0.511
 3510SOL     OW11428   2.207   2.746   2.399
 3510SOL    HW111429   2.177   2.701   2.483
 3510SOL    HW211430   2.212   2.679   2.325
 3511SOL     OW11431   0.697   1.849   6.661
 3511SOL    HW111432   0.743   1.783   6.601
 3511SOL    HW211433   0.764   1.890   6.723
 3512SOL     OW11434   2.560   3.244   1.021
 3512SOL    HW111435   2.575   3.173   0.952
 3512SOL    HW211436   2.636   3.246   1.085
 3513SOL     OW11437   6.299   4.759   1.278
 3513SOL    HW111438   6.282   4.729   1.184
 3513SOL    HW211439   6.213   4.771   1.326
 3514SOL     OW11440   0.222   5.935   1.686
 3514SOL    HW111441   0.291   5.924   1.757
 3514SOL    HW211442   0.255   5.999   1.617
 3515SOL     OW11443   3.138   6.190   3.599
 3515SOL    HW111444   3.066   6.123   3.580
 3515SOL    HW211445   3.130   6.267   3.536
 3516SOL     OW11446   3.246   1.373   1.185
 3516SOL    HW111447   3.254   1.360   1.086
 3516SOL    HW211448   3.162   1.423   1.206
 3517SOL     OW11449   1.330   1.239   6.232
 3517SOL    HW111450   1.358   1.212   6.140
 3517SOL    HW211451   1.387   1.192   6.299
 3518SOL     OW11452   4.200   2.702   5.678
 3518SOL    HW111453   4.108   2.712   5.717
 3518SOL    HW211454   4.193   2.678   5.581
 3519SOL     OW11455   1.948   6.327   0.081
 3519SOL    HW111456   1.881   6.338   0.155
 3519SOL    HW211457   1.911   6.264   0.012
 3520SOL     OW11458   3.854   5.761   1.092
 3520SOL    HW111459   3.847   5.844   1.037
 3520SOL    HW211460   3.911   5.694   1.044
 3521SOL     OW11461   6.285   2.528   0.967
 3521SOL    HW111462   6.235   2.487   0.890
 3521SOL    HW211463   6.234   2.606   1.003
 3522SOL     OW11464   3.479   4.923   2.332
 3522SOL    HW111465   3.398   4.870   2.307
 3522SOL    HW211466   3.453   4.997   2.394
 3523SOL     OW11467   2.484   4.582   5.107
 3523SOL    HW111468   2.414   4.511   5.095
 3523SOL    HW211469   2.561   4.544   5.159
 3524SOL     OW11470   2.782   0.326   0.747
 3524SOL    HW111471   2.834   0.258   0.695
 3524SOL    HW211472   2.805   0.318   0.844
 3525SOL     OW11473   0.892   2.668   2.730
 3525SOL    HW111474   0.962   2.665   2.801
 3525SOL    HW211475   0.829   2.592   2.741
 3526SOL     OW11476   1.940   0.983   2.414
 3526SOL    HW111477   1.976   0.978   2.320
 3526SOL    HW211478   1.947   1.077   2.447
 3527SOL     OW11479   5.524   2.863   5.840
 3527SOL    HW111480   5.525   2.959   5.810
 3527SOL    HW211481   5.495   2.858   5.935
 3528SOL     OW11482   0.374   6.618   4.763
 3528SOL    HW111483   0.338   6.709   4.780
 3528SOL    HW211484   0.327   6.577   4.685
 3529SOL     OW11485   3.706   6.388   6.107
 3529SOL    HW111486   3.751   6.395   6.196
 3529SOL    HW211487   3.768   6.420   6.036
 3530SOL     OW11488   2.049   5.508   3.454
 3530SOL    HW111489   2.106   5.434   3.420
 3530SOL    HW211490   2.105   5.572   3.508
 3531SOL     OW11491   5.654   4.035   6.926
 3531SOL    HW111492   5.589   4.076   6.991
 3531SOL    HW211493   5.731   3.996   6.976
 3532SOL     OW11494   1.833   6.782   6.769
 3532SOL    HW111495   1.911   6.836   6.801
 3532SOL    HW211496   1.757   6.792   6.834
 3533SOL     OW11497   1.292   1.362   2.791
 3533SOL    HW111498   1.216   1.298   2.776
 3533SOL    HW211499   1.259   1.442   2.842
 3534SOL     OW11500   4.973   0.830   4.941
 3534SOL    HW111501   4.936   0.907   4.889
 3534SOL    HW211502   4.976   0.748   4.883
 3535SOL     OW11503   5.158   5.110   6.068
 3535SOL    HW111504   5.152   5.171   6.147
 3535SOL    HW211505   5.124   5.158   5.987
 3536SOL     OW11506   1.134   4.135   3.150
 3536SOL    HW111507   1.040   4.102   3.150
 3536SOL    HW211508   1.164   4.149   3.056
 3537SOL     OW11509   2.922   5.463   1.086
 3537SOL    HW111510   2.902   5.521   1.165
 3537SOL    HW211511   2.862   5.383   1.087
 3538SOL     OW11512   2.706   0.891   3.968
 3538SOL    HW111513   2.788   0.929   3.927
 3538SOL    HW211514   2.732   0.828   4.042
 3539SOL     OW11515   4.909   5.513   5.791
 3539SOL    HW111516   4.877   5.482   5.701
 3539SOL    HW211517   4.875   5.605   5.809
 3540SOL     OW11518   3.029   3.197   0.035
 3540SOL    HW111519   2.931   3.183   0.052
 3540SOL    HW211520   3.081   3.173   0.117
 3541SOL     OW11521   3.609   2.657   0.812
 3541SOL    HW111522   3.513   2.634   0.797
 3541SOL    HW211523   3.665   2.609   0.745
 3542SOL     OW11524   5.302   2.486   6.394
 3542SOL    HW111525   5.354   2.549   6.452
 3542SOL    HW211526   5.218   2.531   6.362
 3543SOL     OW11527   1.085   2.633   3.804
 3543SOL    HW111528   1.059   2.729   3.812
 3543SOL    HW211529   1.125   2.617   3.714
 3544SOL     OW11530   2.643   4.414   6.123
 3544SOL    HW111531   2.614   4.503   6.087
 3544SOL    HW211532   2.654   4.420   6.222
 3545SOL     OW11533   3.525   6.671   1.611
 3545SOL    HW111534   3.446   6.623   1.648
 3545SOL    HW211535   3.569   6.615   1.541
 3546SOL     OW11536   0.195   3.395   3.219
 3546SOL    HW111537   0.157   3.422   3.307
 3546SOL    HW211538   0.163   3.458   3.148
 3547SOL     OW11539   0.330   3.807   5.552
 3547SOL    HW111540   0.371   3.833   5.640
 3547SOL    HW211541   0.381   3.730   5.513
 3548SOL     OW11542   5.982   0.316   5.145
 3548SOL    HW111543   5.951   0.303   5.051
 3548SOL    HW211544   5.953   0.405   5.179
 3549SOL     OW11545   2.959   5.895   6.613
 3549SOL    HW111546   2.956   5.969   6.680
 3549SOL    HW211547   2.865   5.868   6.590
 3550SOL     OW11548   5.503   1.186   5.381
 3550SOL    HW111549   5.453   1.147   5.458
 3550SOL    HW211550   5.479   1.136   5.297
 3551SOL     OW11551   4.070   1.923   4.364
 3551SOL    HW111552   4.035   1.888   4.451
 3551SOL    HW211553   4.077   1.849   4.298
 3552SOL     OW11554   0.451   6.116   2.879
 3552SOL    HW111555   0.421   6.055   2.953
 3552SOL    HW211556   0.513   6.067   2.818
 3553SOL     OW11557   4.312   5.607   0.155
 3553SOL    HW111558   4.295   5.518   0.114
 3553SOL    HW211559   4.286   5.606   0.251
 3554SOL     OW11560   4.887   3.405   1.148
 3554SOL    HW111561   4.893   3.339   1.073
 3554SOL    HW211562   4.978   3.440   1.169
 3555SOL     OW11563   2.593   2.033   5.109
 3555SOL    HW111564   2.555   2.122   5.133
 3555SOL    HW211565   2.536   1.961   5.150
 3556SOL     OW11566   4.770   0.821   5.655
 3556SOL    HW111567   4.850   0.775   5.616
 3556SOL    HW211568   4.790   0.848   5.749
 3557SOL     OW11569   6.655   1.096   1.504
 3557SOL    HW111570   6.596   1.027   1.461
 3557SOL    HW211571   6.603   1.147   1.572
 3558SOL     OW11572   3.342   6.029   1.768
 3558SOL    HW111573   3.281   5.976   1.827
 3558SOL    HW211574   3.351   6.122   1.805
 3559SOL     OW11575   3.876   6.087   4.512
 3559SOL    HW111576   3.830   6.020   4.454
 3559SOL    HW211577   3.882   6.051   4.606
 3560SOL     OW11578   2.292   5.799   4.232
 3560SOL    HW111579   2.378   5.849   4.219
 3560SOL    HW211580   2.220   5.840   4.175
 3561SOL     OW11581   4.854   4.203   5.274
 3561SOL    HW111582   4.878   4.272   5.206
 3561SOL    HW211583   4.849   4.245   5.364
 3562SOL     OW11584   2.111   1.457   5.551
 3562SOL    HW111585   2.168   1.529   5.591
 3562SOL    HW211586   2.169   1.396   5.496
 3563SOL     OW11587   5.767   2.425   5.422
 3563SOL    HW111588   5.833   2.399   5.351
 3563SOL    HW211589   5.736   2.343   5.471
 3564SOL     OW11590   6.523   4.273   1.924
 3564SOL    HW111591   6.588   4.328   1.976
 3564SOL    HW211592   6.487   4.200   1.983
 3565SOL     OW11593   3.678   5.640   3.108
 3565SOL    HW111594   3.774   5.664   3.092
 3565SOL    HW211595   3.673   5.550   3.151
 3566SOL     OW11596   1.213   0.588   5.592
 3566SOL    HW111597   1.273   0.512   5.618
 3566SOL    HW211598   1.163   0.620   5.672
 3567SOL     OW11599   0.770   4.135   6.358
 3567SOL    HW111600   0.729   4.150   6.268
 3567SOL    HW211601   0.737   4.048   6.395
 3568SOL     OW11602   6.246   3.897   5.921
 3568SOL    HW111603   6.188   3.957   5.976
 3568SOL    HW211604   6.202   3.880   5.833
 3569SOL     OW11605   1.839   2.073   5.204
 3569SOL    HW111606   1.831   2.166   5.238
 3569SOL    HW211607   1.825   2.072   5.105
 3570SOL     OW11608   6.040   1.362   4.135
 3570SOL    HW111609   5.981   1.394   4.209
 3570SOL    HW211610   5.991   1.371   4.048
 3571SOL     OW11611   6.117   5.838   6.453
 3571SOL    HW111612   6.089   5.865   6.545
 3571SOL    HW211613   6.130   5.739   6.449
 3572SOL     OW11614   5.707   4.299   4.530
 3572SOL    HW111615   5.785   4.271   4.586
 3572SOL    HW211616   5.657   4.218   4.499
 3573SOL     OW11617   1.235   3.267   3.261
 3573SOL    HW111618   1.227   3.364   3.282
 3573SOL    HW211619   1.295   3.223   3.327
 3574SOL     OW11620   0.446   4.086   0.517
 3574SOL    HW111621   0.410   4.165   0.567
 3574SOL    HW211622   0.410   4.002   0.556
 3575SOL     OW11623   5.890   4.880   2.240
 3575SOL    HW111624   5.816   4.924   2.291
 3575SOL    HW211625   5.866   4.875   2.143
 3576SOL     OW11626   0.517   1.157   6.136
 3576SOL    HW111627   0.427   1.178   6.099
 3576SOL    HW211628   0.508   1.127   6.231
 3577SOL     OW11629   0.114   2.882   6.744
 3577SOL    HW111630   0.194   2.839   6.704
 3577SOL    HW211631   0.051   2.911   6.672
 3578SOL     OW11632   2.999   4.975   0.667
 3578SOL    HW111633   2.903   5.002   0.675
 3578SOL    HW211634   3.016   4.897   0.726
 3579SOL     OW11635   6.652   3.745   4.790
 3579SOL    HW111636   6.620   3.832   4.752
 3579SOL    HW211637   6.602   3.670   4.746
 3580SOL     OW11638   6.713   1.840   2.060
 3580SOL    HW111639   6.624   1.877   2.033
 3580SOL    HW211640   6.735   1.871   2.152
 3581SOL     OW11641   0.353   0.739   2.448
 3581SOL    HW111642   0.408   0.822   2.444
 3581SOL    HW211643   0.276   0.753   2.510
 3582SOL     OW11644   1.415   0.159   6.224
 3582SOL    HW111645   1.356   0.143   6.145
 3582SOL    HW211646   1.379   0.109   6.303
 3583SOL     OW11647   1.063   5.606   7.007
 3583SOL    HW111648   1.027   5.653   0.062
 3583SOL    HW211649   1.132   5.663   6.963
 3584SOL     OW11650   5.249   6.238   6.469
 3584SOL    HW111651   5.238   6.140   6.481
 3584SOL    HW211652   5.276   6.279   6.556
 3585SOL     OW11653   3.359   4.977   4.463
 3585SOL    HW111654   3.354   5.075   4.484
 3585SOL    HW211655   3.268   4.942   4.442
 3586SOL     OW11656   6.432   3.673   5.959
 3586SOL    HW111657   6.358   3.740   5.956
 3586SOL    HW211658   6.488   3.682   5.877
 3587SOL     OW11659   3.912   6.457   0.640
 3587SOL    HW111660   3.966   6.541   0.637
 3587SOL    HW211661   3.820   6.476   0.604
 3588SOL     OW11662   1.331   2.353   6.207
 3588SOL    HW111663   1.380   2.381   6.125
 3588SOL    HW211664   1.387   2.287   6.258
 3589SOL     OW11665   2.907   0.665   5.344
 3589SOL    HW111666   2.840   0.729   5.380
 3589SOL    HW211667   2.889   0.648   5.247
 3590SOL     OW11668   1.598   5.441   5.764
 3590SOL    HW111669   1.662   5.479   5.697
 3590SOL    HW211670   1.634   5.355   5.801
 3591SOL     OW11671   5.118   2.296   6.078
 3591SOL    HW111672   5.022   2.281   6.054
 3591SOL    HW211673   5.141   2.393   6.068
 3592SOL     OW11674   5.484   2.809   2.872
 3592SOL    HW111675   5.416   2.881   2.866
 3592SOL    HW211676   5.493   2.764   2.783
 3593SOL     OW11677   1.694   6.635   3.844
 3593SOL    HW111678   1.621   6.608   3.780
 3593SOL    HW211679   1.689   6.734   3.859
 3594SOL     OW11680   2.840   1.312   3.917
 3594SOL    HW111681   2.789   1.304   4.003
 3594SOL    HW211682   2.859   1.220   3.881
 3595SOL     OW11683   2.713   6.377   6.318
 3595SOL    HW111684   2.767   6.447   6.364
 3595SOL    HW211685   2.615   6.398   6.328
 3596SOL     OW11686   6.599   1.407   2.080
 3596SOL    HW111687   6.683   1.410   2.025
 3596SOL    HW211688   6.530   1.465   2.038
 3597SOL     OW11689   3.763   5.864   4.416
 3597SOL    HW111690   3.664   5.855   4.417
 3597SOL    HW211691   3.804   5.775   4.394
 3598SOL     OW11692   1.190   6.911   5.833
 3598SOL    HW111693   1.227   6.897   5.925
 3598SOL    HW211694   1.131   6.834   5.809
 3599SOL     OW11695   6.885   1.872   5.297
 3599SOL    HW111696   6.894   1.838   5.391
 3599SOL    HW211697   6.963   1.931   5.275
 3600SOL     OW11698   6.048   2.568   0.830
 3600SOL    HW111699   6.003   2.657   0.839
 3600SOL    HW211700   6.013   2.505   0.900
 3601SOL     OW11701   0.256   4.082   0.217
 3601SOL    HW111702   0.338   4.026   0.228
 3601SOL    HW211703   0.278   4.164   0.165
 3602SOL     OW11704   2.165   1.150   6.886
 3602SOL    HW111705   2.097   1.194   6.945
 3602SOL    HW211706   2.125   1.134   6.796
 3603SOL     OW11707   4.027   4.851   3.854
 3603SOL    HW111708   4.000   4.766   3.899
 3603SOL    HW211709   4.124   4.845   3.827
 3604SOL     OW11710   0.308   2.037   2.939
 3604SOL    HW111711   0.305   1.984   2.854
 3604SOL    HW211712   0.225   2.022   2.991
 3605SOL     OW11713   5.821   3.929   6.480
 3605SOL    HW111714   5.910   3.951   6.519
 3605SOL    HW211715   5.830   3.851   6.418
 3606SOL     OW11716   6.765   4.330   5.366
 3606SOL    HW111717   6.833   4.285   5.423
 3606SOL    HW211718   6.724   4.406   5.416
 3607SOL     OW11719   5.108   6.836   0.753
 3607SOL    HW111720   5.162   6.766   0.705
 3607SOL    HW211721   5.016   6.801   0.768
 3608SOL     OW11722   0.692   2.153   1.621
 3608SOL    HW111723   0.725   2.247   1.612
 3608SOL    HW211724   0.593   2.152   1.613
 3609SOL     OW11725   6.523   1.014   5.292
 3609SOL    HW111726   6.542   1.108   5.263
 3609SOL    HW211727   6.562   0.950   5.225
 3610SOL     OW11728   1.146   6.271   5.808
 3610SOL    HW111729   1.093   6.250   5.726
 3610SOL    HW211730   1.124   6.364   5.838
 3611SOL     OW11731   3.477   5.444   5.286
 3611SOL    HW111732   3.470   5.380   5.363
 3611SOL    HW211733   3.546   5.410   5.222
 3612SOL     OW11734   1.069   6.282   0.726
 3612SOL    HW111735   1.104   6.202   0.775
 3612SOL    HW211736   1.118   6.293   0.640
 3613SOL     OW11737   5.313   4.794   0.331
 3613SOL    HW111738   5.395   4.776   0.387
 3613SOL    HW211739   5.235   4.747   0.371
 3614SOL     OW11740   3.644   3.246   2.745
 3614SOL    HW111741   3.610   3.257   2.838
 3614SOL    HW211742   3.569   3.217   2.685
 3615SOL     OW11743   5.440   5.737   5.422
 3615SOL    HW111744   5.373   5.801   5.460
 3615SOL    HW211745   5.500   5.786   5.359
 3616SOL     OW11746   6.800   2.273   5.292
 3616SOL    HW111747   6.881   2.220   5.314
 3616SOL    HW211748   6.721   2.213   5.284
 3617SOL     OW11749   6.585   2.047   6.174
 3617SOL    HW111750   6.562   2.071   6.269
 3617SOL    HW211751   6.584   2.130   6.118
 3618SOL     OW11752   1.822   1.841   5.872
 3618SOL    HW111753   1.765   1.869   5.794
 3618SOL    HW211754   1.918   1.842   5.845
 3619SOL     OW11755   5.723   1.901   3.975
 3619SOL    HW111756   5.816   1.930   3.951
 3619SOL    HW211757   5.720   1.801   3.976
 3620SOL     OW11758   5.760   0.412   5.528
 3620SOL    HW111759   5.688   0.383   5.592
 3620SOL    HW211760   5.751   0.509   5.509
 3621SOL     OW11761   2.649   2.698   5.684
 3621SOL    HW111762   2.567   2.693   5.628
 3621SOL    HW211763   2.625   2.678   5.779
 3622SOL     OW11764   0.754   1.888   2.501
 3622SOL    HW111765   0.689   1.814   2.485
 3622SOL    HW211766   0.715   1.975   2.470
 3623SOL     OW11767   5.409   5.103   4.007
 3623SOL    HW111768   5.448   5.012   4.025
 3623SOL    HW211769   5.343   5.096   3.932
 3624SOL     OW11770   2.313   6.875   3.227
 3624SOL    HW111771   2.245   6.933   3.273
 3624SOL    HW211772   2.322   6.905   3.132
 3625SOL     OW11773   6.154   3.226   5.852
 3625SOL    HW111774   6.163   3.239   5.753
 3625SOL    HW211775   6.167   3.313   5.899
 3626SOL     OW11776   1.718   3.603   5.077
 3626SOL    HW111777   1.711   3.503   5.068
 3626SOL    HW211778   1.807   3.627   5.116
 3627SOL     OW11779   3.686   3.911   3.243
 3627SOL    HW111780   3.777   3.872   3.252
 3627SOL    HW211781   3.679   3.960   3.156
 3628SOL     OW11782   2.143   5.687   2.123
 3628SOL    HW111783   2.079   5.628   2.172
 3628SOL    HW211784   2.209   5.725   2.188
 3629SOL     OW11785   5.833   1.955   5.433
 3629SOL    HW111786   5.742   1.978   5.397
 3629SOL    HW211787   5.888   1.913   5.361
 3630SOL     OW11788   5.838   2.290   4.902
 3630SOL    HW111789   5.839   2.190   4.897
 3630SOL    HW211790   5.781   2.327   4.829
 3631SOL     OW11791   2.450   0.112   4.343
 3631SOL    HW111792   2.395   0.041   4.299
 3631SOL    HW211793   2.469   0.086   4.437
 3632SOL     OW11794   4.955   0.935   0.976
 3632SOL    HW111795   4.992   1.028   0.972
 3632SOL    HW211796   4.989   0.882   0.898
 3633SOL     OW11797   2.840   2.462   6.092
 3633SOL    HW111798   2.778   2.516   6.148
 3633SOL    HW211799   2.883   2.521   6.023
 3634SOL     OW11800   1.599   6.370   4.801
 3634SOL    HW111801   1.546   6.420   4.732
 3634SOL    HW211802   1.657   6.434   4.851
 3635SOL     OW11803   2.628   1.629   5.328
 3635SOL    HW111804   2.727   1.641   5.335
 3635SOL    HW211805   2.589   1.703   5.273
 3636SOL     OW11806   0.045   5.899   6.221
 3636SOL    HW111807   7.009   5.825   6.249
 3636SOL    HW211808   0.011   5.985   6.258
 3637SOL     OW11809   5.817   1.540   1.990
 3637SOL    HW111810   5.797   1.534   1.892
 3637SOL    HW211811   5.890   1.606   2.006
 3638SOL     OW11812   6.573   4.428   4.044
 3638SOL    HW111813   6.636   4.351   4.041
 3638SOL    HW211814   6.568   4.463   4.138
 3639SOL     OW11815   2.962   4.207   0.824
 3639SOL    HW111816   2.862   4.210   0.830
 3639SOL    HW211817   2.996   4.123   0.867
 3640SOL     OW11818   2.954   6.233   0.666
 3640SOL    HW111819   2.868   6.275   0.695
 3640SOL    HW211820   3.027   6.259   0.729
 3641SOL     OW11821   3.338   1.551   4.899
 3641SOL    HW111822   3.341   1.645   4.865
 3641SOL    HW211823   3.276   1.546   4.977
 3642SOL     OW11824   4.505   0.583   5.221
 3642SOL    HW111825   4.448   0.575   5.140
 3642SOL    HW211826   4.585   0.639   5.200
 3643SOL     OW11827   2.879   5.421   5.006
 3643SOL    HW111828   2.946   5.380   5.068
 3643SOL    HW211829   2.787   5.409   5.043
 3644SOL     OW11830   6.535   2.604   1.063
 3644SOL    HW111831   6.455   2.553   1.033
 3644SOL    HW211832   6.509   2.700   1.078
 3645SOL     OW11833   4.920   1.689   3.645
 3645SOL    HW111834   4.839   1.667   3.699
 3645SOL    HW211835   4.935   1.618   3.576
 3646SOL     OW11836   0.339   5.161   5.495
 3646SOL    HW111837   0.413   5.189   5.556
 3646SOL    HW211838   0.253   5.163   5.544
 3647SOL     OW11839   0.973   3.180   0.344
 3647SOL    HW111840   0.900   3.146   0.404
 3647SOL    HW211841   0.990   3.112   0.272
 3648SOL     OW11842   4.178   5.199   2.295
 3648SOL    HW111843   4.276   5.212   2.311
 3648SOL    HW211844   4.141   5.136   2.364
 3649SOL     OW11845   4.485   3.626   0.655
 3649SOL    HW111846   4.408   3.689   0.664
 3649SOL    HW211847   4.514   3.594   0.745
 3650SOL     OW11848   6.735   6.634   1.323
 3650SOL    HW111849   6.800   6.702   1.290
 3650SOL    HW211850   6.742   6.551   1.267
 3651SOL     OW11851   0.911   6.106   2.422
 3651SOL    HW111852   0.879   6.046   2.495
 3651SOL    HW211853   1.006   6.083   2.399
 3652SOL     OW11854   4.765   6.526   3.605
 3652SOL    HW111855   4.755   6.473   3.689
 3652SOL    HW211856   4.685   6.512   3.547
 3653SOL     OW11857   6.077   1.224   3.258
 3653SOL    HW111858   5.998   1.284   3.250
 3653SOL    HW211859   6.153   1.274   3.300
 3654SOL     OW11860   2.580   6.531   0.483
 3654SOL    HW111861   2.607   6.521   0.579
 3654SOL    HW211862   2.497   6.587   0.478
 3655SOL     OW11863   1.476   0.034   4.325
 3655SOL    HW111864   1.515   6.968   4.322
 3655SOL    HW211865   1.546   0.100   4.351
 3656SOL     OW11866   2.031   2.442   2.244
 3656SOL    HW111867   2.100   2.440   2.317
 3656SOL    HW211868   2.075   2.429   2.156
 3657SOL     OW11869   4.083   5.662   6.950
 3657SOL    HW111870   4.061   5.753   6.914
 3657SOL    HW211871   4.182   5.652   6.957
 3658SOL     OW11872   1.003   5.640   4.949
 3658SOL    HW111873   0.929   5.670   4.888
 3658SOL    HW211874   0.967   5.575   5.015
 3659SOL     OW11875   3.023   4.709   0.124
 3659SOL    HW111876   3.002   4.693   0.221
 3659SOL    HW211877   3.034   4.807   0.109
 3660SOL     OW11878   4.771   6.106   2.050
 3660SOL    HW111879   4.711   6.182   2.074
 3660SOL    HW211880   4.770   6.038   2.124
 3661SOL     OW11881   5.277   1.859   0.664
 3661SOL    HW111882   5.222   1.776   0.665
 3661SOL    HW211883   5.226   1.934   0.707
 3662SOL     OW11884   3.600   0.009   5.086
 3662SOL    HW111885   3.662   6.973   5.134
 3662SOL    HW211886   3.566   0.079   5.149
 3663SOL     OW11887   1.763   1.857   0.358
 3663SOL    HW111888   1.852   1.814   0.346
 3663SOL    HW211889   1.761   1.944   0.310
 3664SOL     OW11890   4.795   1.507   0.471
 3664SOL    HW111891   4.814   1.582   0.534
 3664SOL    HW211892   4.701   1.476   0.483
 3665SOL     OW11893   0.531   6.618   5.368
 3665SOL    HW111894   0.570   6.707   5.344
 3665SOL    HW211895   0.604   6.557   5.399
 3666SOL     OW11896   1.617   4.726   3.718
 3666SOL    HW111897   1.619   4.819   3.756
 3666SOL    HW211898   1.655   4.727   3.626
 3667SOL     OW11899   6.200   1.049   6.417
 3667SOL    HW111900   6.179   1.144   6.441
 3667SOL    HW211901   6.158   1.028   6.329
 3668SOL     OW11902   1.393   6.978   2.717
 3668SOL    HW111903   1.339   6.900   2.749
 3668SOL    HW211904   1.415   0.011   2.795
 3669SOL     OW11905   5.784   1.882   4.463
 3669SOL    HW111906   5.809   1.865   4.368
 3669SOL    HW211907   5.761   1.979   4.475
 3670SOL     OW11908   2.240   5.450   6.985
 3670SOL    HW111909   2.296   5.387   6.930
 3670SOL    HW211910   2.189   5.511   6.924
 3671SOL     OW11911   6.700   0.543   3.072
 3671SOL    HW111912   6.666   0.484   3.145
 3671SOL    HW211913   6.685   0.639   3.097
 3672SOL     OW11914   6.653   2.257   0.534
 3672SOL    HW111915   6.623   2.178   0.481
 3672SOL    HW211916   6.751   2.270   0.521
 3673SOL     OW11917   4.119   1.225   6.204
 3673SOL    HW111918   4.072   1.211   6.291
 3673SOL    HW211919   4.183   1.149   6.188
 3674SOL     OW11920   0.351   6.414   6.942
 3674SOL    HW111921   0.284   6.446   7.008
 3674SOL    HW211922   0.442   6.449   6.967
 3675SOL     OW11923   1.640   2.605   5.738
 3675SOL    HW111924   1.602   2.590   5.646
 3675SOL    HW211925   1.609   2.693   5.772
 3676SOL     OW11926   3.439   5.275   3.725
 3676SOL    HW111927   3.522   5.317   3.762
 3676SOL    HW211928   3.360   5.308   3.777
 3677SOL     OW11929   0.245   6.441   3.125
 3677SOL    HW111930   0.306   6.512   3.159
 3677SOL    HW211931   0.266   6.423   3.029
 3678SOL     OW11932   1.398   2.210   3.889
 3678SOL    HW111933   1.414   2.195   3.791
 3678SOL    HW211934   1.484   2.197   3.939
 3679SOL     OW11935   0.269   1.041   2.808
 3679SOL    HW111936   0.248   1.039   2.710
 3679SOL    HW211937   0.291   0.948   2.839
 3680SOL     OW11938   6.049   2.701   3.910
 3680SOL    HW111939   6.000   2.640   3.847
 3680SOL    HW211940   6.147   2.683   3.905
 3681SOL     OW11941   1.077   0.474   6.159
 3681SOL    HW111942   1.117   0.550   6.107
 3681SOL    HW211943   0.999   0.508   6.212
 3682SOL     OW11944   6.590   1.807   5.669
 3682SOL    HW111945   6.551   1.891   5.631
 3682SOL    HW211946   6.518   1.737   5.674
 3683SOL     OW11947   6.490   6.454   4.250
 3683SOL    HW111948   6.454   6.377   4.304
 3683SOL    HW211949   6.485   6.432   4.153
 3684SOL     OW11950   2.010   2.993   1.847
 3684SOL    HW111951   2.090   3.042   1.815
 3684SOL    HW211952   1.999   3.006   1.945
 3685SOL     OW11953   6.472   5.799   6.513
 3685SOL    HW111954   6.557   5.814   6.462
 3685SOL    HW211955   6.472   5.857   6.595
 3686SOL     OW11956   6.350   4.560   2.229
 3686SOL    HW111957   6.328   4.532   2.135
 3686SOL    HW211958   6.300   4.502   2.293
 3687SOL     OW11959   3.072   6.626   0.022
 3687SOL    HW111960   3.138   6.552   0.016
 3687SOL    HW211961   3.052   6.646   0.118
 3688SOL     OW11962   0.710   3.491   6.989
 3688SOL    HW111963   0.737   3.395   6.992
 3688SOL    HW211964   0.631   3.505   0.023
 3689SOL     OW11965   1.513   1.034   5.548
 3689SOL    HW111966   1.551   0.993   5.465
 3689SOL    HW211967   1.497   0.962   5.615
 3690SOL     OW11968   4.830   0.918   5.887
 3690SOL    HW111969   4.914   0.968   5.907
 3690SOL    HW211970   4.757   0.950   5.948
 3691SOL     OW11971   2.703   3.476   6.687
 3691SOL    HW111972   2.638   3.484   6.611
 3691SOL    HW211973   2.727   3.380   6.701
 3692SOL     OW11974   0.859   6.012   4.603
 3692SOL    HW111975   0.790   5.942   4.582
 3692SOL    HW211976   0.839   6.095   4.550
 3693SOL     OW11977   2.020   2.206   3.240
 3693SOL    HW111978   1.941   2.231   3.297
 3693SOL    HW211979   2.007   2.243   3.148
 3694SOL     OW11980   0.875   5.728   3.403
 3694SOL    HW111981   0.933   5.687   3.474
 3694SOL    HW211982   0.792   5.673   3.392
 3695SOL     OW11983   1.094   2.402   2.748
 3695SOL    HW111984   0.998   2.428   2.734
 3695SOL    HW211985   1.102   2.351   2.834
 3696SOL     OW11986   4.476   6.029   5.713
 3696SOL    HW111987   4.545   6.052   5.645
 3696SOL    HW211988   4.517   6.033   5.805
 3697SOL     OW11989   0.002   6.725   3.471
 3697SOL    HW111990   0.034   6.643   3.518
 3697SOL    HW211991   6.945   6.703   3.419
 3698SOL     OW11992   3.542   0.452   5.233
 3698SOL    HW111993   3.611   0.488   5.170
 3698SOL    HW211994   3.532   0.514   5.311
 3699SOL     OW11995   0.084   3.677   2.729
 3699SOL    HW111996   7.016   3.693   2.699
 3699SOL    HW211997   0.107   3.741   2.801
 3700SOL     OW11998   5.995   6.877   4.262
 3700SOL    HW111999   5.940   6.796   4.282
 3700SOL    HW212000   6.060   6.892   4.336
 3701SOL     OW12001   0.355   1.059   4.213
 3701SOL    HW112002   0.387   1.033   4.121
 3701SOL    HW212003   0.366   0.981   4.275
 3702SOL     OW12004   4.138   0.318   1.821
 3702SOL    HW112005   4.131   0.223   1.853
 3702SOL    HW212006   4.222   0.359   1.857
 3703SOL     OW12007   4.129   4.159   5.697
 3703SOL    HW112008   4.204   4.225   5.698
 3703SOL    HW212009   4.042   4.208   5.685
 3704SOL     OW12010   2.773   1.443   2.607
 3704SOL    HW112011   2.834   1.366   2.622
 3704SOL    HW212012   2.790   1.513   2.677
 3705SOL     OW12013   4.602   0.741   4.013
 3705SOL    HW112014   4.551   0.689   3.944
 3705SOL    HW212015   4.603   0.837   3.987
 3706SOL     OW12016   1.617   2.805   4.633
 3706SOL    HW112017   1.580   2.744   4.563
 3706SOL    HW212018   1.542   2.842   4.688
 3707SOL     OW12019   5.144   2.610   6.110
 3707SOL    HW112020   5.168   2.590   6.015
 3707SOL    HW212021   5.142   2.709   6.123
 3708SOL     OW12022   6.437   1.013   6.557
 3708SOL    HW112023   6.360   1.026   6.494
 3708SOL    HW212024   6.462   1.101   6.597
 3709SOL     OW12025   3.857   0.976   5.683
 3709SOL    HW112026   3.944   0.934   5.711
 3709SOL    HW212027   3.850   1.068   5.723
 3710SOL     OW12028   6.633   5.618   0.087
 3710SOL    HW112029   6.619   5.714   0.060
 3710SOL    HW212030   6.728   5.605   0.117
 3711SOL     OW12031   0.269   5.848   2.591
 3711SOL    HW112032   0.190   5.830   2.650
 3711SOL    HW212033   0.259   5.797   2.505
 3712SOL     OW12034   0.337   6.553   6.702
 3712SOL    HW112035   0.408   6.622   6.714
 3712SOL    HW212036   0.347   6.482   6.772
 3713SOL     OW12037   2.177   5.855   5.275
 3713SOL    HW112038   2.077   5.862   5.281
 3713SOL    HW212039   2.212   5.935   5.226
 3714SOL     OW12040   4.983   6.651   4.273
 3714SOL    HW112041   5.017   6.711   4.345
 3714SOL    HW212042   4.946   6.706   4.198
 3715SOL     OW12043   6.026   4.804   4.460
 3715SOL    HW112044   5.930   4.816   4.484
 3715SOL    HW212045   6.072   4.892   4.461
 3716SOL     OW12046   6.451   0.320   4.406
 3716SOL    HW112047   6.547   0.302   4.383
 3716SOL    HW212048   6.430   0.416   4.391
 3717SOL     OW12049   6.272   5.608   0.926
 3717SOL    HW112050   6.363   5.645   0.944
 3717SOL    HW212051   6.260   5.523   0.977
 3718SOL     OW12052   1.065   6.662   6.797
 3718SOL    HW112053   1.074   6.569   6.761
 3718SOL    HW212054   0.990   6.665   6.863
 3719SOL     OW12055   5.095   4.694   0.449
 3719SOL    HW112056   5.055   4.736   0.530
 3719SOL    HW212057   5.088   4.594   0.457
 3720SOL     OW12058   6.503   2.052   6.440
 3720SOL    HW112059   6.470   1.959   6.455
 3720SOL    HW212060   6.557   2.082   6.519
 3721SOL     OW12061   6.044   4.989   6.558
 3721SOL    HW112062   5.992   5.022   6.637
 3721SOL    HW212063   6.132   5.036   6.555
 3722SOL     OW12064   6.820   5.983   2.535
 3722SOL    HW112065   6.749   6.049   2.512
 3722SOL    HW212066   6.802   5.896   2.490
 3723SOL     OW12067   5.714   6.556   2.020
 3723SOL    HW112068   5.708   6.464   2.060
 3723SOL    HW212069   5.798   6.600   2.050
 3724SOL     OW12070   1.471   5.051   6.885
 3724SOL    HW112071   1.431   4.963   6.911
 3724SOL    HW212072   1.406   5.103   6.831
 3725SOL     OW12073   6.347   6.106   0.154
 3725SOL    HW112074   6.424   6.122   0.092
 3725SOL    HW212075   6.348   6.175   0.227
 3726SOL     OW12076   6.716   3.869   1.833
 3726SOL    HW112077   6.714   3.899   1.738
 3726SOL    HW212078   6.726   3.948   1.893
 3727SOL     OW12079   0.654   3.291   5.692
 3727SOL    HW112080   0.724   3.315   5.759
 3727SOL    HW212081   0.683   3.320   5.601
 3728SOL     OW12082   2.320   3.279   0.642
 3728SOL    HW112083   2.304   3.201   0.703
 3728SOL    HW212084   2.336   3.361   0.697
 3729SOL     OW12085   0.720   2.116   3.150
 3729SOL    HW112086   0.626   2.151   3.145
 3729SOL    HW212087   0.783   2.193   3.152
 3730SOL     OW12088   2.771   0.619   0.111
 3730SOL    HW112089   2.705   0.619   0.186
 3730SOL    HW212090   2.750   0.545   0.048
 3731SOL     OW12091   5.089   1.916   1.034
 3731SOL    HW112092   5.168   1.971   1.007
 3731SOL    HW212093   5.049   1.873   0.953
 3732SOL     OW12094   2.369   3.361   5.798
 3732SOL    HW112095   2.285   3.406   5.830
 3732SOL    HW212096   2.344   3.283   5.741
 3733SOL     OW12097   2.617   4.142   1.566
 3733SOL    HW112098   2.690   4.170   1.628
 3733SOL    HW212099   2.529   4.168   1.605
 3734SOL     OW12100   4.627   1.202   2.778
 3734SOL    HW112101   4.726   1.214   2.767
 3734SOL    HW212102   4.580   1.284   2.745
 3735SOL     OW12103   1.399   2.323   2.476
 3735SOL    HW112104   1.367   2.269   2.553
 3735SOL    HW212105   1.337   2.310   2.398
 3736SOL     OW12106   0.419   2.903   1.074
 3736SOL    HW112107   0.475   2.836   1.025
 3736SOL    HW212108   0.336   2.922   1.022
 3737SOL     OW12109   5.315   0.019   3.199
 3737SOL    HW112110   5.345   7.024   3.292
 3737SOL    HW212111   5.392   0.010   3.136
 3738SOL     OW12112   6.039   5.706   2.914
 3738SOL    HW112113   6.028   5.735   2.819
 3738SOL    HW212114   5.960   5.737   2.967
 3739SOL     OW12115   1.644   3.924   2.417
 3739SOL    HW112116   1.687   3.995   2.474
 3739SOL    HW212117   1.682   3.927   2.325
 3740SOL     OW12118   4.844   1.135   6.680
 3740SOL    HW112119   4.863   1.037   6.680
 3740SOL    HW212120   4.813   1.163   6.589
 3741SOL     OW12121   4.366   3.609   0.928
 3741SOL    HW112122   4.367   3.516   0.964
 3741SOL    HW212123   4.285   3.622   0.871
 3742SOL     OW12124   3.167   2.230   6.145
 3742SOL    HW112125   3.190   2.252   6.239
 3742SOL    HW212126   3.213   2.294   6.083
 3743SOL     OW12127   6.409   5.211   0.383
 3743SOL    HW112128   6.425   5.190   0.286
 3743SOL    HW212129   6.489   5.259   0.420
 3744SOL     OW12130   0.627   4.651   3.984
 3744SOL    HW112131   0.692   4.676   3.912
 3744SOL    HW212132   0.544   4.614   3.942
 3745SOL     OW12133   3.633   5.491   2.782
 3745SOL    HW112134   3.691   5.572   2.781
 3745SOL    HW212135   3.548   5.510   2.832
 3746SOL     OW12136   4.577   1.679   1.628
 3746SOL    HW112137   4.543   1.653   1.719
 3746SOL    HW212138   4.674   1.655   1.621
 3747SOL     OW12139   3.232   6.405   6.444
 3747SOL    HW112140   3.201   6.497   6.421
 3747SOL    HW212141   3.170   6.338   6.404
 3748SOL     OW12142   6.043   1.038   1.307
 3748SOL    HW112143   6.122   1.051   1.368
 3748SOL    HW212144   6.069   0.978   1.231
 3749SOL     OW12145   1.567   6.801   4.371
 3749SOL    HW112146   1.632   6.748   4.317
 3749SOL    HW212147   1.480   6.752   4.377
 3750SOL     OW12148   0.803   4.039   0.070
 3750SOL    HW112149   0.736   4.088   0.125
 3750SOL    HW212150   0.851   3.972   0.127
 3751SOL     OW12151   0.252   4.124   3.013
 3751SOL    HW112152   0.340   4.147   2.970
 3751SOL    HW212153   0.252   4.156   3.107
 3752SOL     OW12154   5.776   0.941   5.895
 3752SOL    HW112155   5.767   1.016   5.831
 3752SOL    HW212156   5.822   0.864   5.850
 3753SOL     OW12157   6.435   1.269   4.253
 3753SOL    HW112158   6.420   1.202   4.180
 3753SOL    HW212159   6.363   1.261   4.322
 3754SOL     OW12160   2.225   1.396   2.429
 3754SOL    HW112161   2.197   1.424   2.337
 3754SOL    HW212162   2.248   1.299   2.429
 3755SOL     OW12163   3.071   4.967   4.476
 3755SOL    HW112164   3.018   4.914   4.542
 3755SOL    HW212165   3.059   4.929   4.384
 3756SOL     OW12166   2.544   5.957   0.233
 3756SOL    HW112167   2.455   5.975   0.276
 3756SOL    HW212168   2.530   5.928   0.138
 3757SOL     OW12169   6.439   4.657   1.775
 3757SOL    HW112170   6.485   4.610   1.850
 3757SOL    HW212171   6.364   4.712   1.812
 3758SOL     OW12172   1.751   0.660   3.593
 3758SOL    HW112173   1.701   0.664   3.506
 3758SOL    HW212174   1.689   0.686   3.668
 3759SOL     OW12175   5.550   0.959   4.252
 3759SOL    HW112176   5.485   1.012   4.305
 3759SOL    HW212177   5.559   0.867   4.292
 3760SOL     OW12178   7.018   0.543   4.034
 3760SOL    HW112179   0.049   0.464   4.011
 3760SOL    HW212180   0.037   0.598   4.104
 3761SOL     OW12181   5.471   1.328   4.688
 3761SOL    HW112182   5.471   1.371   4.597
 3761SOL    HW212183   5.558   1.346   4.733
 3762SOL     OW12184   1.109   4.073   2.506
 3762SOL    HW112185   1.103   4.088   2.604
 3762SOL    HW212186   1.168   3.994   2.487
 3763SOL     OW12187   0.084   4.198   0.589
 3763SOL    HW112188   0.035   4.150   0.516
 3763SOL    HW212189   0.128   4.280   0.552
 3764SOL     OW12190   2.014   0.374   3.201
 3764SOL    HW112191   2.098   0.329   3.171
 3764SOL    HW212192   2.013   0.468   3.168
 3765SOL     OW12193   6.482   1.896   1.190
 3765SOL    HW112194   6.574   1.861   1.207
 3765SOL    HW212195   6.475   1.926   1.095
 3766SOL     OW12196   1.878   3.202   3.414
 3766SOL    HW112197   1.843   3.138   3.346
 3766SOL    HW212198   1.838   3.182   3.503
 3767SOL     OW12199   3.283   4.188   6.102
 3767SOL    HW112200   3.262   4.278   6.141
 3767SOL    HW212201   3.198   4.144   6.073
 3768SOL     OW12202   1.464   0.592   4.786
 3768SOL    HW112203   1.400   0.648   4.839
 3768SOL    HW212204   1.414   0.520   4.738
 3769SOL     OW12205   4.893   5.848   4.784
 3769SOL    HW112206   4.799   5.839   4.752
 3769SOL    HW212207   4.939   5.922   4.735
 3770SOL     OW12208   1.275   1.448   0.760
 3770SOL    HW112209   1.299   1.504   0.680
 3770SOL    HW212210   1.196   1.489   0.806
 3771SOL     OW12211   0.106   5.015   0.424
 3771SOL    HW112212   0.155   4.946   0.370
 3771SOL    HW212213   0.149   5.105   0.410
 3772SOL     OW12214   1.247   6.057   0.790
 3772SOL    HW112215   1.178   5.997   0.749
 3772SOL    HW212216   1.336   6.039   0.749
 3773SOL     OW12217   5.864   3.281   6.174
 3773SOL    HW112218   5.807   3.314   6.099
 3773SOL    HW212219   5.822   3.198   6.213
 3774SOL     OW12220   5.527   6.003   1.161
 3774SOL    HW112221   5.427   6.001   1.155
 3774SOL    HW212222   5.555   6.005   1.257
 3775SOL     OW12223   4.072   4.891   3.237
 3775SOL    HW112224   4.002   4.957   3.213
 3775SOL    HW212225   4.044   4.839   3.318
 3776SOL     OW12226   3.689   2.929   6.618
 3776SOL    HW112227   3.612   2.873   6.649
 3776SOL    HW212228   3.675   3.024   6.646
 3777SOL     OW12229   2.690   6.388   4.342
 3777SOL    HW112230   2.596   6.421   4.340
 3777SOL    HW212231   2.722   6.383   4.437
 3778SOL     OW12232   2.906   5.679   5.326
 3778SOL    HW112233   2.914   5.685   5.226
 3778SOL    HW212234   2.819   5.636   5.350
 3779SOL     OW12235   6.840   5.492   0.397
 3779SOL    HW112236   6.848   5.556   0.474
 3779SOL    HW212237   6.931   5.464   0.368
 3780SOL     OW12238   6.806   2.941   1.777
 3780SOL    HW112239   6.812   2.940   1.877
 3780SOL    HW212240   6.750   3.018   1.748
 3781SOL     OW12241   2.052   6.597   5.208
 3781SOL    HW112242   2.021   6.559   5.295
 3781SOL    HW212243   1.993   6.674   5.182
 3782SOL     OW12244   4.738   6.164   1.737
 3782SOL    HW112245   4.709   6.249   1.693
 3782SOL    HW212246   4.812   6.184   1.802
 3783SOL     OW12247   5.436   5.308   5.572
 3783SOL    HW112248   5.473   5.278   5.484
 3783SOL    HW212249   5.476   5.395   5.598
 3784SOL     OW12250   5.073   2.744   3.302
 3784SOL    HW112251   5.100   2.648   3.310
 3784SOL    HW212252   4.990   2.750   3.246
 3785SOL     OW12253   0.949   3.123   4.280
 3785SOL    HW112254   0.871   3.131   4.342
 3785SOL    HW212255   0.919   3.138   4.186
 3786SOL     OW12256   2.664   2.410   4.577
 3786SOL    HW112257   2.648   2.488   4.637
 3786SOL    HW212258   2.576   2.372   4.548
 3787SOL     OW12259   4.135   0.165   3.509
 3787SOL    HW112260   4.223   0.195   3.474
 3787SOL    HW212261   4.062   0.199   3.449
 3788SOL     OW12262   0.402   3.474   5.219
 3788SOL    HW112263   0.323   3.472   5.159
 3788SOL    HW212264   0.432   3.568   5.233
 3789SOL     OW12265   1.382   2.366   3.048
 3789SOL    HW112266   1.458   2.372   3.112
 3789SOL    HW212267   1.297   2.346   3.097
 3790SOL     OW12268   0.430   6.244   0.606
 3790SOL    HW112269   0.499   6.172   0.598
 3790SOL    HW212270   0.460   6.313   0.672
 3791SOL     OW12271   5.672   0.993   6.138
 3791SOL    HW112272   5.696   0.966   6.045
 3791SOL    HW212273   5.607   1.068   6.135
 3792SOL     OW12274   0.617   0.811   4.142
 3792SOL    HW112275   0.677   0.854   4.210
 3792SOL    HW212276   0.574   0.730   4.182
 3793SOL     OW12277   6.566   6.297   0.512
 3793SOL    HW112278   6.572   6.374   0.448
 3793SOL    HW212279   6.636   6.307   0.583
 3794SOL     OW12280   2.057   4.207   1.075
 3794SOL    HW112281   2.112   4.204   1.158
 3794SOL    HW212282   2.017   4.299   1.066
 3795SOL     OW12283   2.756   6.057   0.939
 3795SOL    HW112284   2.716   6.035   1.027
 3795SOL    HW212285   2.848   6.094   0.952
 3796SOL     OW12286   4.064   1.933   0.919
 3796SOL    HW112287   4.094   1.894   1.006
 3796SOL    HW212288   4.011   2.016   0.935
 3797SOL     OW12289   0.799   4.273   3.167
 3797SOL    HW112290   0.721   4.336   3.165
 3797SOL    HW212291   0.799   4.217   3.084
 3798SOL     OW12292   2.633   6.694   2.995
 3798SOL    HW112293   2.670   6.693   2.902
 3798SOL    HW212294   2.681   6.763   3.049
 3799SOL     OW12295   6.667   2.560   3.242
 3799SOL    HW112296   6.606   2.482   3.234
 3799SOL    HW212297   6.749   2.534   3.293
 3800SOL     OW12298   5.665   1.754   3.152
 3800SOL    HW112299   5.617   1.795   3.230
 3800SOL    HW212300   5.600   1.735   3.079
 3801SOL     OW12301   5.532   6.753   2.086
 3801SOL    HW112302   5.566   6.807   2.163
 3801SOL    HW212303   5.604   6.692   2.052
 3802SOL     OW12304   6.666   2.142   2.193
 3802SOL    HW112305   6.699   2.216   2.251
 3802SOL    HW212306   6.659   2.173   2.099
 3803SOL     OW12307   2.981   3.845   4.205
 3803SOL    HW112308   2.932   3.777   4.151
 3803SOL    HW212309   3.025   3.911   4.144
 3804SOL     OW12310   3.825   0.112   4.494
 3804SOL    HW112311   3.815   0.090   4.591
 3804SOL    HW212312   3.883   0.194   4.485
 3805SOL     OW12313   2.306   3.173   0.410
 3805SOL    HW112314   2.350   3.084   0.394
 3805SOL    HW212315   2.317   3.200   0.506
 3806SOL     OW12316   4.533   4.366   6.578
 3806SOL    HW112317   4.576   4.447   6.617
 3806SOL    HW212318   4.577   4.344   6.491
 3807SOL     OW12319   1.279   5.247   4.041
 3807SOL    HW112320   1.361   5.283   4.085
 3807SOL    HW212321   1.223   5.322   4.008
 3808SOL     OW12322   4.937   0.296   6.062
 3808SOL    HW112323   4.984   0.282   5.975
 3808SOL    HW212324   4.840   0.273   6.051
 3809SOL     OW12325   5.665   1.868   1.044
 3809SOL    HW112326   5.579   1.874   1.094
 3809SOL    HW212327   5.710   1.782   1.066
 3810SOL     OW12328   6.524   2.432   2.618
 3810SOL    HW112329   6.507   2.420   2.520
 3810SOL    HW212330   6.530   2.530   2.639
 3811SOL     OW12331   0.233   5.034   4.869
 3811SOL    HW112332   0.171   5.112   4.857
 3811SOL    HW212333   0.322   5.057   4.829
 3812SOL     OW12334   3.992   5.886   6.837
 3812SOL    HW112335   3.910   5.905   6.891
 3812SOL    HW212336   4.048   5.969   6.831
 3813SOL     OW12337   6.476   3.651   0.846
 3813SOL    HW112338   6.393   3.607   0.812
 3813SOL    HW212339   6.488   3.629   0.943
 3814SOL     OW12340   6.576   6.900   4.499
 3814SOL    HW112341   6.607   6.810   4.470
 3814SOL    HW212342   6.498   6.891   4.561
 3815SOL     OW12343   5.157   3.147   0.403
 3815SOL    HW112344   5.222   3.200   0.458
 3815SOL    HW212345   5.117   3.075   0.460
 3816SOL     OW12346   1.196   6.177   5.430
 3816SOL    HW112347   1.229   6.271   5.414
 3816SOL    HW212348   1.159   6.140   5.345
 3817SOL     OW12349   4.855   3.701   2.780
 3817SOL    HW112350   4.848   3.731   2.875
 3817SOL    HW212351   4.827   3.776   2.720
 3818SOL     OW12352   0.476   0.582   1.692
 3818SOL    HW112353   0.566   0.594   1.650
 3818SOL    HW212354   0.486   0.574   1.791
 3819SOL     OW12355   6.380   4.396   3.289
 3819SOL    HW112356   6.326   4.326   3.243
 3819SOL    HW212357   6.408   4.362   3.379
 3820SOL     OW12358   5.498   6.874   4.279
 3820SOL    HW112359   5.554   6.845   4.356
 3820SOL    HW212360   5.429   6.805   4.260
 3821SOL     OW12361   0.683   6.949   6.835
 3821SOL    HW112362   0.651   7.007   6.910
 3821SOL    HW212363   0.770   6.986   6.800
 3822SOL     OW12364   3.783   0.941   0.085
 3822SOL    HW112365   3.874   0.901   0.095
 3822SOL    HW212366   3.748   0.967   0.174
 3823SOL     OW12367   4.857   4.821   6.038
 3823SOL    HW112368   4.916   4.782   6.109
 3823SOL    HW212369   4.782   4.871   6.081
 3824SOL     OW12370   1.273   3.092   0.184
 3824SOL    HW112371   1.344   3.056   0.244
 3824SOL    HW212372   1.185   3.050   0.207
 3825SOL     OW12373   1.124   4.284   0.635
 3825SOL    HW112374   1.162   4.251   0.721
 3825SOL    HW212375   1.197   4.327   0.580
 3826SOL     OW12376   6.248   4.392   2.411
 3826SOL    HW112377   6.158   4.352   2.397
 3826SOL    HW212378   6.274   4.382   2.507
 3827SOL     OW12379   0.895   0.967   1.378
 3827SOL    HW112380   0.817   1.028   1.367
 3827SOL    HW212381   0.979   1.017   1.356
 3828SOL     OW12382   3.587   4.208   4.507
 3828SOL    HW112383   3.511   4.219   4.570
 3828SOL    HW212384   3.672   4.199   4.558
 3829SOL     OW12385   0.535   4.843   2.217
 3829SOL    HW112386   0.603   4.906   2.180
 3829SOL    HW212387   0.541   4.755   2.170
 3830SOL     OW12388   0.754   0.514   5.304
 3830SOL    HW112389   0.662   0.527   5.266
 3830SOL    HW212390   0.803   0.445   5.250
 3831SOL     OW12391   4.353   1.700   2.922
 3831SOL    HW112392   4.259   1.718   2.892
 3831SOL    HW212393   4.417   1.734   2.852
 3832SOL     OW12394   0.521   0.325   1.971
 3832SOL    HW112395   0.495   0.259   1.902
 3832SOL    HW212396   0.614   0.358   1.953
 3833SOL     OW12397   1.406   6.768   6.344
 3833SOL    HW112398   1.379   6.688   6.397
 3833SOL    HW212399   1.497   6.754   6.305
 3834SOL     OW12400   4.416   4.280   0.927
 3834SOL    HW112401   4.391   4.350   0.994
 3834SOL    HW212402   4.457   4.325   0.847
 3835SOL     OW12403   3.418   5.938   5.584
 3835SOL    HW112404   3.371   5.878   5.519
 3835SOL    HW212405   3.356   6.010   5.613
 3836SOL     OW12406   0.542   5.514   6.331
 3836SOL    HW112407   0.461   5.541   6.383
 3836SOL    HW212408   0.541   5.560   6.242
 3837SOL     OW12409   3.931   5.161   5.199
 3837SOL    HW112410   3.870   5.089   5.165
 3837SOL    HW212411   3.876   5.235   5.238
 3838SOL     OW12412   1.835   1.083   3.323
 3838SOL    HW112413   1.834   1.130   3.235
 3838SOL    HW212414   1.742   1.077   3.360
 3839SOL     OW12415   4.502   0.161   3.081
 3839SOL    HW112416   4.413   0.138   3.119
 3839SOL    HW212417   4.574   0.132   3.144
 3840SOL     OW12418   2.443   0.549   6.566
 3840SOL    HW112419   2.371   0.496   6.611
 3840SOL    HW212420   2.531   0.505   6.580
 3841SOL     OW12421   0.207   4.529   4.173
 3841SOL    HW112422   0.220   4.461   4.245
 3841SOL    HW212423   0.235   4.619   4.208
 3842SOL     OW12424   2.161   2.799   4.647
 3842SOL    HW112425   2.065   2.828   4.650
 3842SOL    HW212426   2.207   2.842   4.570
 3843SOL     OW12427   5.077   3.134   0.901
 3843SOL    HW112428   5.002   3.198   0.888
 3843SOL    HW212429   5.118   3.147   0.991
 3844SOL     OW12430   1.333   5.089   0.475
 3844SOL    HW112431   1.270   5.102   0.398
 3844SOL    HW212432   1.402   5.021   0.451
 3845SOL     OW12433   1.985   5.732   0.218
 3845SOL    HW112434   1.992   5.815   0.274
 3845SOL    HW212435   2.067   5.723   0.161
 3846SOL     OW12436   0.518   3.031   4.608
 3846SOL    HW112437   0.569   2.951   4.639
 3846SOL    HW212438   0.437   3.042   4.665
 3847SOL     OW12439   5.462   1.978   4.722
 3847SOL    HW112440   5.379   2.032   4.715
 3847SOL    HW212441   5.440   1.886   4.755
 3848SOL     OW12442   4.941   2.941   2.747
 3848SOL    HW112443   4.919   3.007   2.675
 3848SOL    HW212444   4.865   2.876   2.756
 3849SOL     OW12445   0.672   6.642   6.418
 3849SOL    HW112446   0.671   6.732   6.374
 3849SOL    HW212447   0.765   6.623   6.451
 3850SOL     OW12448   2.796   2.874   1.436
 3850SOL    HW112449   2.758   2.966   1.437
 3850SOL    HW212450   2.826   2.851   1.343
 3851SOL     OW12451   0.246   5.142   3.636
 3851SOL    HW112452   0.187   5.189   3.701
 3851SOL    HW212453   0.321   5.204   3.608
 3852SOL     OW12454   3.246   6.858   4.139
 3852SOL    HW112455   3.290   6.887   4.054
 3852SOL    HW212456   3.211   6.765   4.129
 3853SOL     OW12457   2.268   1.706   3.777
 3853SOL    HW112458   2.279   1.621   3.828
 3853SOL    HW212459   2.173   1.736   3.783
 3854SOL     OW12460   1.607   3.011   3.024
 3854SOL    HW112461   1.520   3.055   3.045
 3854SOL    HW212462   1.591   2.933   2.963
 3855SOL     OW12463   4.220   6.345   0.667
 3855SOL    HW112464   4.287   6.384   0.603
 3855SOL    HW212465   4.134   6.395   0.660
 3856SOL     OW12466   1.001   1.980   6.336
 3856SOL    HW112467   0.989   2.057   6.275
 3856SOL    HW212468   0.961   1.898   6.295
 3857SOL     OW12469   2.320   6.427   5.763
 3857SOL    HW112470   2.323   6.513   5.712
 3857SOL    HW212471   2.318   6.446   5.861
 3858SOL     OW12472   3.671   1.694   6.147
 3858SOL    HW112473   3.616   1.771   6.115
 3858SOL    HW212474   3.611   1.621   6.179
 3859SOL     OW12475   6.156   0.855   1.110
 3859SOL    HW112476   6.200   0.943   1.092
 3859SOL    HW212477   6.222   0.781   1.096
 3860SOL     OW12478   1.907   0.510   4.420
 3860SOL    HW112479   1.807   0.513   4.426
 3860SOL    HW212480   1.946   0.595   4.455
 3861SOL     OW12481   4.163   5.918   2.692
 3861SOL    HW112482   4.216   5.977   2.753
 3861SOL    HW212483   4.092   5.972   2.646
 3862SOL     OW12484   0.598   0.415   4.312
 3862SOL    HW112485   0.507   0.386   4.281
 3862SOL    HW212486   0.667   0.350   4.279
 3863SOL     OW12487   5.694   0.863   0.237
 3863SOL    HW112488   5.614   0.913   0.206
 3863SOL    HW212489   5.666   0.779   0.284
 3864SOL     OW12490   2.455   0.730   4.906
 3864SOL    HW112491   2.374   0.787   4.921
 3864SOL    HW212492   2.426   0.639   4.877
 3865SOL     OW12493   4.518   0.756   0.491
 3865SOL    HW112494   4.447   0.827   0.493
 3865SOL    HW212495   4.608   0.800   0.496
 3866SOL     OW12496   4.009   1.402   6.967
 3866SOL    HW112497   4.001   1.309   7.003
 3866SOL    HW212498   4.053   1.400   6.877
 3867SOL     OW12499   1.410   4.853   3.218
 3867SOL    HW112500   1.465   4.886   3.295
 3867SOL    HW212501   1.446   4.766   3.186
 3868SOL     OW12502   3.897   0.358   6.609
 3868SOL    HW112503   3.916   0.317   6.520
 3868SOL    HW212504   3.829   0.431   6.598
 3869SOL     OW12505   6.791   3.441   4.065
 3869SOL    HW112506   6.704   3.454   4.113
 3869SOL    HW212507   6.784   3.364   4.002
 3870SOL     OW12508   6.580   6.824   2.340
 3870SOL    HW112509   6.600   6.916   2.374
 3870SOL    HW212510   6.520   6.777   2.405
 3871SOL     OW12511   3.211   6.703   3.392
 3871SOL    HW112512   3.212   6.801   3.374
 3871SOL    HW212513   3.170   6.685   3.481
 3872SOL     OW12514   3.341   3.014   3.945
 3872SOL    HW112515   3.330   3.098   3.892
 3872SOL    HW212516   3.415   2.959   3.905
 3873SOL     OW12517   5.098   3.929   0.946
 3873SOL    HW112518   5.122   3.966   0.856
 3873SOL    HW212519   5.116   3.831   0.948
 3874SOL     OW12520   4.138   0.688   0.491
 3874SOL    HW112521   4.042   0.670   0.510
 3874SOL    HW212522   4.178   0.609   0.445
 3875SOL     OW12523   1.643   3.439   4.112
 3875SOL    HW112524   1.712   3.367   4.105
 3875SOL    HW212525   1.677   3.512   4.171
 3876SOL     OW12526   3.369   5.413   0.859
 3876SOL    HW112527   3.332   5.362   0.936
 3876SOL    HW212528   3.324   5.384   0.775
 3877SOL     OW12529   6.566   2.279   0.801
 3877SOL    HW112530   6.484   2.226   0.823
 3877SOL    HW212531   6.594   2.260   0.707
 3878SOL     OW12532   4.903   6.534   4.793
 3878SOL    HW112533   4.813   6.526   4.838
 3878SOL    HW212534   4.935   6.443   4.767
 3879SOL     OW12535   6.048   4.919   0.375
 3879SOL    HW112536   5.955   4.952   0.363
 3879SOL    HW212537   6.047   4.836   0.431
 3880SOL     OW12538   4.921   3.951   4.445
 3880SOL    HW112539   4.873   4.008   4.378
 3880SOL    HW212540   4.905   3.855   4.424
 3881SOL     OW12541   1.803   3.589   1.267
 3881SOL    HW112542   1.845   3.512   1.218
 3881SOL    HW212543   1.843   3.597   1.358
 3882SOL     OW12544   1.391   1.596   0.272
 3882SOL    HW112545   1.376   1.556   0.182
 3882SOL    HW212546   1.468   1.549   0.316
 3883SOL     OW12547   4.524   0.943   2.831
 3883SOL    HW112548   4.480   0.950   2.921
 3883SOL    HW212549   4.573   1.028   2.811
 3884SOL     OW12550   0.519   5.433   2.445
 3884SOL    HW112551   0.597   5.493   2.430
 3884SOL    HW212552   0.457   5.475   2.512
 3885SOL     OW12553   6.079   6.217   3.372
 3885SOL    HW112554   6.093   6.136   3.429
 3885SOL    HW212555   6.054   6.295   3.429
 3886SOL     OW12556   4.482   5.832   5.365
 3886SOL    HW112557   4.406   5.892   5.340
 3886SOL    HW212558   4.457   5.777   5.445
 3887SOL     OW12559   0.949   6.741   0.449
 3887SOL    HW112560   1.034   6.789   0.469
 3887SOL    HW212561   0.969   6.645   0.427
 3888SOL     OW12562   6.389   6.371   4.985
 3888SOL    HW112563   6.369   6.379   5.083
 3888SOL    HW212564   6.413   6.276   4.964
 3889SOL     OW12565   6.698   2.731   0.064
 3889SOL    HW112566   6.619   2.786   0.093
 3889SOL    HW212567   6.673   2.634   0.065
 3890SOL     OW12568   6.096   4.745   3.368
 3890SOL    HW112569   6.109   4.656   3.411
 3890SOL    HW212570   6.011   4.786   3.401
 3891SOL     OW12571   4.775   3.929   3.705
 3891SOL    HW112572   4.777   3.844   3.653
 3891SOL    HW212573   4.867   3.967   3.711
 3892SOL     OW12574   0.814   2.939   0.916
 3892SOL    HW112575   0.863   2.905   0.836
 3892SOL    HW212576   0.753   2.868   0.950
 3893SOL     OW12577   4.067   3.965   0.826
 3893SOL    HW112578   4.008   4.045   0.822
 3893SOL    HW212579   4.144   3.983   0.887
 3894SOL     OW12580   5.272   0.720   6.765
 3894SOL    HW112581   5.285   0.819   6.771
 3894SOL    HW212582   5.298   0.689   6.673
 3895SOL     OW12583   1.204   6.694   5.269
 3895SOL    HW112584   1.167   6.766   5.210
 3895SOL    HW212585   1.293   6.721   5.304
 3896SOL     OW12586   0.900   1.170   6.470
 3896SOL    HW112587   0.927   1.077   6.495
 3896SOL    HW212588   0.842   1.209   6.542
 3897SOL     OW12589   4.064   5.675   2.754
 3897SOL    HW112590   3.973   5.668   2.714
 3897SOL    HW212591   4.105   5.763   2.730
 3898SOL     OW12592   3.242   1.813   6.990
 3898SOL    HW112593   3.288   1.895   6.957
 3898SOL    HW212594   3.229   1.819   0.063
 3899SOL     OW12595   4.403   6.794   6.192
 3899SOL    HW112596   4.401   6.773   6.290
 3899SOL    HW212597   4.337   6.735   6.145
 3900SOL     OW12598   4.623   2.717   3.646
 3900SOL    HW112599   4.646   2.797   3.701
 3900SOL    HW212600   4.693   2.647   3.658
 3901SOL     OW12601   3.451   0.825   6.095
 3901SOL    HW112602   3.511   0.899   6.064
 3901SOL    HW212603   3.437   0.761   6.020
 3902SOL     OW12604   6.338   3.076   2.318
 3902SOL    HW112605   6.305   3.072   2.223
 3902SOL    HW212606   6.262   3.058   2.380
 3903SOL     OW12607   3.718   0.030   0.231
 3903SOL    HW112608   3.621   0.021   0.255
 3903SOL    HW212609   3.734   7.014   0.141
 3904SOL     OW12610   1.944   0.640   6.630
 3904SOL    HW112611   1.974   0.545   6.628
 3904SOL    HW212612   2.000   0.694   6.567
 3905SOL     OW12613   6.424   6.675   6.100
 3905SOL    HW112614   6.377   6.587   6.095
 3905SOL    HW212615   6.374   6.743   6.046
 3906SOL     OW12616   5.692   6.746   5.469
 3906SOL    HW112617   5.725   6.818   5.408
 3906SOL    HW212618   5.696   6.658   5.423
 3907SOL     OW12619   5.947   0.974   4.144
 3907SOL    HW112620   5.981   1.050   4.200
 3907SOL    HW212621   5.852   0.991   4.120
 3908SOL     OW12622   0.754   2.696   6.389
 3908SOL    HW112623   0.806   2.717   6.471
 3908SOL    HW212624   0.708   2.608   6.400
 3909SOL     OW12625   6.055   6.064   4.528
 3909SOL    HW112626   6.132   6.026   4.580
 3909SOL    HW212627   6.067   6.163   4.520
 3910SOL     OW12628   3.500   3.785   2.421
 3910SOL    HW112629   3.499   3.835   2.335
 3910SOL    HW212630   3.411   3.740   2.434
 3911SOL     OW12631   5.730   1.713   5.757
 3911SOL    HW112632   5.682   1.632   5.723
 3911SOL    HW212633   5.825   1.711   5.727
 3912SOL     OW12634   5.593   0.355   4.992
 3912SOL    HW112635   5.621   0.433   5.048
 3912SOL    HW212636   5.671   0.294   4.978
 3913SOL     OW12637   2.264   6.476   6.017
 3913SOL    HW112638   2.233   6.571   6.023
 3913SOL    HW212639   2.215   6.420   6.084
 3914SOL     OW12640   2.745   0.598   1.402
 3914SOL    HW112641   2.759   0.674   1.340
 3914SOL    HW212642   2.723   0.633   1.493
 3915SOL     OW12643   5.290   6.121   0.965
 3915SOL    HW112644   5.219   6.051   0.950
 3915SOL    HW212645   5.267   6.203   0.912
 3916SOL     OW12646   1.004   0.155   3.559
 3916SOL    HW112647   0.939   0.124   3.629
 3916SOL    HW212648   1.094   0.116   3.577
 3917SOL     OW12649   6.540   6.192   6.986
 3917SOL    HW112650   6.630   6.157   7.014
 3917SOL    HW212651   6.528   6.178   6.888
 3918SOL     OW12652   5.801   5.656   1.463
 3918SOL    HW112653   5.702   5.658   1.476
 3918SOL    HW212654   5.827   5.720   1.391
 3919SOL     OW12655   4.532   6.885   0.554
 3919SOL    HW112656   4.605   6.832   0.512
 3919SOL    HW212657   4.562   6.980   0.567
 3920SOL     OW12658   2.901   3.352   0.515
 3920SOL    HW112659   2.926   3.335   0.419
 3920SOL    HW212660   2.974   3.319   0.575
 3921SOL     OW12661   0.138   3.248   1.638
 3921SOL    HW112662   0.054   3.295   1.609
 3921SOL    HW212663   0.114   3.160   1.681
 3922SOL     OW12664   6.517   3.680   2.010
 3922SOL    HW112665   6.544   3.774   1.990
 3922SOL    HW212666   6.424   3.680   2.048
 3923SOL     OW12667   0.333   1.240   0.512
 3923SOL    HW112668   0.379   1.289   0.438
 3923SOL    HW212669   0.238   1.270   0.519
 3924SOL     OW12670   5.692   4.805   3.945
 3924SOL    HW112671   5.710   4.855   3.861
 3924SOL    HW212672   5.762   4.829   4.013
 3925SOL     OW12673   2.300   5.424   0.937
 3925SOL    HW112674   2.311   5.409   0.838
 3925SOL    HW212675   2.317   5.338   0.985
 3926SOL     OW12676   5.948   5.318   2.565
 3926SOL    HW112677   5.960   5.352   2.658
 3926SOL    HW212678   6.037   5.311   2.521
 3927SOL     OW12679   6.066   2.489   4.915
 3927SOL    HW112680   5.973   2.456   4.935
 3927SOL    HW212681   6.062   2.585   4.889
 3928SOL     OW12682   3.993   6.141   6.635
 3928SOL    HW112683   3.893   6.147   6.632
 3928SOL    HW212684   4.023   6.141   6.730
 3929SOL     OW12685   0.425   0.452   4.820
 3929SOL    HW112686   0.475   0.420   4.900
 3929SOL    HW212687   0.336   0.489   4.848
 3930SOL     OW12688   3.084   2.163   4.066
 3930SOL    HW112689   3.143   2.200   3.994
 3930SOL    HW212690   3.011   2.109   4.024
 3931SOL     OW12691   1.601   1.565   1.199
 3931SOL    HW112692   1.648   1.541   1.284
 3931SOL    HW212693   1.534   1.637   1.217
 3932SOL     OW12694   1.572   4.035   3.556
 3932SOL    HW112695   1.478   4.021   3.587
 3932SOL    HW212696   1.630   4.056   3.635
 3933SOL     OW12697   1.788   6.169   6.928
 3933SOL    HW112698   1.787   6.073   6.899
 3933SOL    HW212699   1.694   6.204   6.931
 3934SOL     OW12700   0.425   0.984   6.934
 3934SOL    HW112701   0.432   1.061   6.997
 3934SOL    HW212702   0.341   0.932   6.953
 3935SOL     OW12703   2.644   6.682   6.856
 3935SOL    HW112704   2.588   6.698   6.775
 3935SOL    HW212705   2.719   6.620   6.833
 3936SOL     OW12706   0.089   4.924   5.548
 3936SOL    HW112707   0.089   5.017   5.584
 3936SOL    HW212708   0.096   4.926   5.448
 3937SOL     OW12709   0.091   1.294   3.243
 3937SOL    HW112710   0.022   1.334   3.182
 3937SOL    HW212711   0.060   1.301   3.338
 3938SOL     OW12712   0.431   2.036   3.734
 3938SOL    HW112713   0.338   2.019   3.767
 3938SOL    HW212714   0.483   2.082   3.807
 3939SOL     OW12715   1.900   3.083   3.064
 3939SOL    HW112716   1.967   3.009   3.068
 3939SOL    HW212717   1.811   3.046   3.040
 3940SOL     OW12718   5.105   4.457   1.454
 3940SOL    HW112719   5.186   4.510   1.431
 3940SOL    HW212720   5.060   4.425   1.371
 3941SOL     OW12721   5.343   3.391   5.398
 3941SOL    HW112722   5.429   3.414   5.353
 3941SOL    HW212723   5.275   3.365   5.330
 3942SOL     OW12724   0.373   6.525   6.218
 3942SOL    HW112725   0.322   6.464   6.158
 3942SOL    HW212726   0.380   6.616   6.177
 3943SOL     OW12727   6.569   2.820   3.198
 3943SOL    HW112728   6.486   2.786   3.154
 3943SOL    HW212729   6.624   2.743   3.231
 3944SOL     OW12730   4.593   2.605   4.913
 3944SOL    HW112731   4.594   2.639   4.819
 3944SOL    HW212732   4.508   2.553   4.928
 3945SOL     OW12733   1.058   2.292   0.142
 3945SOL    HW112734   1.041   2.346   0.224
 3945SOL    HW212735   1.050   2.195   0.163
 3946SOL     OW12736   5.201   4.861   4.555
 3946SOL    HW112737   5.241   4.906   4.475
 3946SOL    HW212738   5.159   4.930   4.614
 3947SOL     OW12739   4.778   6.489   0.132
 3947SOL    HW112740   4.846   6.429   0.090
 3947SOL    HW212741   4.819   6.580   0.146
 3948SOL     OW12742   0.147   4.993   2.454
 3948SOL    HW112743   0.192   4.984   2.365
 3948SOL    HW212744   0.215   5.015   2.524
 3949SOL     OW12745   5.164   0.456   3.387
 3949SOL    HW112746   5.119   0.370   3.365
 3949SOL    HW212747   5.262   0.447   3.371
 3950SOL     OW12748   1.984   4.553   0.610
 3950SOL    HW112749   1.982   4.488   0.686
 3950SOL    HW212750   1.924   4.630   0.631
 3951SOL     OW12751   4.829   0.268   1.446
 3951SOL    HW112752   4.849   0.173   1.469
 3951SOL    HW212753   4.732   0.278   1.423
 3952SOL     OW12754   6.902   2.428   1.820
 3952SOL    HW112755   6.920   2.383   1.907
 3952SOL    HW212756   6.896   2.527   1.835
 3953SOL     OW12757   3.860   4.877   1.198
 3953SOL    HW112758   3.825   4.783   1.195
 3953SOL    HW212759   3.785   4.941   1.186
 3954SOL     OW12760   4.196   5.442   5.209
 3954SOL    HW112761   4.198   5.372   5.138
 3954SOL    HW212762   4.288   5.478   5.223
 3955SOL     OW12763   2.886   6.959   6.099
 3955SOL    HW112764   2.866   6.888   6.031
 3955SOL    HW212765   2.804   7.014   6.115
 3956SOL     OW12766   0.955   1.000   2.626
 3956SOL    HW112767   0.960   0.911   2.672
 3956SOL    HW212768   0.965   0.988   2.528
 3957SOL     OW12769   4.878   6.796   4.036
 3957SOL    HW112770   4.885   6.895   4.029
 3957SOL    HW212771   4.930   6.753   3.962
 3958SOL     OW12772   5.895   1.247   4.712
 3958SOL    HW112773   5.857   1.339   4.721
 3958SOL    HW212774   5.986   1.243   4.753
 3959SOL     OW12775   4.354   6.929   0.339
 3959SOL    HW112776   4.407   6.912   0.422
 3959SOL    HW212777   4.259   6.898   0.353
 3960SOL     OW12778   5.192   1.326   6.408
 3960SOL    HW112779   5.200   1.228   6.428
 3960SOL    HW212780   5.177   1.376   6.494
 3961SOL     OW12781   5.356   1.601   2.430
 3961SOL    HW112782   5.355   1.602   2.330
 3961SOL    HW212783   5.289   1.534   2.464
 3962SOL     OW12784   2.199   4.639   6.725
 3962SOL    HW112785   2.227   4.663   6.818
 3962SOL    HW212786   2.104   4.667   6.711
 3963SOL     OW12787   4.672   5.337   2.946
 3963SOL    HW112788   4.724   5.284   3.013
 3963SOL    HW212789   4.689   5.300   2.854
 3964SOL     OW12790   4.640   5.069   3.620
 3964SOL    HW112791   4.724   5.123   3.627
 3964SOL    HW212792   4.568   5.110   3.676
 3965SOL     OW12793   4.946   2.957   4.457
 3965SOL    HW112794   5.010   2.986   4.387
 3965SOL    HW212795   4.932   3.031   4.523
 3966SOL     OW12796   4.499   6.174   6.157
 3966SOL    HW112797   4.598   6.176   6.144
 3966SOL    HW212798   4.464   6.082   6.139
 3967SOL     OW12799   2.165   3.769   2.311
 3967SOL    HW112800   2.092   3.726   2.364
 3967SOL    HW212801   2.166   3.867   2.329
 3968SOL     OW12802   4.542   0.441   1.107
 3968SOL    HW112803   4.550   0.506   1.031
 3968SOL    HW212804   4.453   0.452   1.151
 3969SOL     OW12805   0.900   4.416   2.172
 3969SOL    HW112806   0.820   4.367   2.140
 3969SOL    HW212807   0.924   4.386   2.265
 3970SOL     OW12808   5.648   6.258   3.466
 3970SOL    HW112809   5.549   6.269   3.460
 3970SOL    HW212810   5.675   6.254   3.562
 3971SOL     OW12811   3.167   5.313   3.614
 3971SOL    HW112812   3.147   5.318   3.516
 3971SOL    HW212813   3.231   5.387   3.638
 3972SOL     OW12814   1.049   3.734   0.555
 3972SOL    HW112815   1.128   3.727   0.495
 3972SOL    HW212816   1.002   3.820   0.539
 3973SOL     OW12817   1.669   5.752   6.180
 3973SOL    HW112818   1.651   5.700   6.096
 3973SOL    HW212819   1.671   5.690   6.258
 3974SOL     OW12820   1.970   0.142   5.177
 3974SOL    HW112821   2.013   0.086   5.106
 3974SOL    HW212822   2.034   0.154   5.253
 3975SOL     OW12823   5.335   1.627   6.141
 3975SOL    HW112824   5.236   1.623   6.150
 3975SOL    HW212825   5.372   1.691   6.209
 3976SOL     OW12826   1.499   6.304   2.010
 3976SOL    HW112827   1.484   6.274   2.104
 3976SOL    HW212828   1.552   6.389   2.010
 3977SOL     OW12829   2.053   3.141   6.123
 3977SOL    HW112830   2.060   3.135   6.222
 3977SOL    HW212831   2.133   3.189   6.086
 3978SOL     OW12832   5.918   5.230   3.492
 3978SOL    HW112833   5.895   5.211   3.587
 3978SOL    HW212834   5.876   5.161   3.433
 3979SOL     OW12835   3.653   1.142   6.991
 3979SOL    HW112836   3.559   1.109   6.983
 3979SOL    HW212837   3.710   1.071   0.007
 3980SOL     OW12838   5.701   5.906   6.790
 3980SOL    HW112839   5.760   5.841   6.742
 3980SOL    HW212840   5.608   5.899   6.754
 3981SOL     OW12841   3.438   0.103   0.678
 3981SOL    HW112842   3.513   0.128   0.617
 3981SOL    HW212843   3.432   0.170   0.752
 3982SOL     OW12844   2.564   6.528   3.437
 3982SOL    HW112845   2.531   6.577   3.356
 3982SOL    HW212846   2.655   6.561   3.461
 3983SOL     OW12847   4.950   5.011   4.387
 3983SOL    HW112848   4.947   4.938   4.455
 3983SOL    HW212849   5.014   4.986   4.314
 3984SOL     OW12850   6.674   1.150   2.166
 3984SOL    HW112851   6.631   1.239   2.153
 3984SOL    HW212852   6.774   1.161   2.168
 3985SOL     OW12853   2.566   4.580   6.837
 3985SOL    HW112854   2.510   4.567   6.755
 3985SOL    HW212855   2.514   4.551   6.918
 3986SOL     OW12856   5.197   1.545   2.777
 3986SOL    HW112857   5.148   1.533   2.691
 3986SOL    HW212858   5.272   1.479   2.783
 3987SOL     OW12859   3.963   4.769   3.439
 3987SOL    HW112860   3.910   4.835   3.492
 3987SOL    HW212861   3.901   4.703   3.397
 3988SOL     OW12862   2.997   5.107   6.556
 3988SOL    HW112863   3.059   5.151   6.621
 3988SOL    HW212864   3.018   5.010   6.551
 3989SOL     OW12865   6.745   2.634   6.791
 3989SOL    HW112866   6.715   2.540   6.775
 3989SOL    HW212867   6.739   2.655   6.889
 3990SOL     OW12868   4.333   2.149   2.479
 3990SOL    HW112869   4.375   2.135   2.390
 3990SOL    HW212870   4.334   2.247   2.501
 3991SOL     OW12871   6.794   1.272   2.499
 3991SOL    HW112872   6.730   1.348   2.504
 3991SOL    HW212873   6.885   1.306   2.476
 3992SOL     OW12874   3.556   1.489   6.958
 3992SOL    HW112875   3.621   1.536   6.898
 3992SOL    HW212876   3.592   1.485   0.025
 3993SOL     OW12877   1.307   2.653   2.041
 3993SOL    HW112878   1.230   2.679   2.099
 3993SOL    HW212879   1.358   2.578   2.085
 3994SOL     OW12880   2.007   6.729   6.321
 3994SOL    HW112881   2.015   6.637   6.283
 3994SOL    HW212882   1.969   6.790   6.251
 3995SOL     OW12883   1.913   4.034   6.259
 3995SOL    HW112884   1.863   3.994   6.181
 3995SOL    HW212885   1.885   4.129   6.271
 3996SOL     OW12886   0.377   6.428   4.973
 3996SOL    HW112887   0.399   6.478   4.889
 3996SOL    HW212888   0.290   6.461   5.009
 3997SOL     OW12889   5.620   1.419   3.151
 3997SOL    HW112890   5.675   1.406   3.233
 3997SOL    HW212891   5.667   1.379   3.072
 3998SOL     OW12892   3.565   0.963   3.763
 3998SOL    HW112893   3.626   0.969   3.842
 3998SOL    HW212894   3.478   1.007   3.785
 3999SOL     OW12895   5.663   2.531   4.071
 3999SOL    HW112896   5.695   2.615   4.114
 3999SOL    HW212897   5.578   2.500   4.115
 4000SOL     OW12898   2.897   0.030   3.607
 4000SOL    HW112899   2.991   7.023   3.604
 4000SOL    HW212900   2.894   0.127   3.581
 4001SOL     OW12901   2.298   1.510   3.978
 4001SOL    HW112902   2.246   1.425   3.990
 4001SOL    HW212903   2.385   1.490   3.933
 4002SOL     OW12904   3.317   4.206   0.767
 4002SOL    HW112905   3.223   4.206   0.735
 4002SOL    HW212906   3.378   4.237   0.693
 4003SOL     OW12907   3.364   6.997   3.913
 4003SOL    HW112908   3.300   0.043   3.942
 4003SOL    HW212909   3.457   0.007   3.912
 4004SOL     OW12910   5.390   2.140   4.101
 4004SOL    HW112911   5.377   2.109   4.007
 4004SOL    HW212912   5.477   2.105   4.136
 4005SOL     OW12913   4.828   5.493   0.109
 4005SOL    HW112914   4.897   5.565   0.119
 4005SOL    HW212915   4.825   5.438   0.193
 4006SOL     OW12916   4.431   5.278   2.375
 4006SOL    HW112917   4.483   5.250   2.294
 4006SOL    HW212918   4.483   5.346   2.426
 4007SOL     OW12919   0.061   2.552   6.664
 4007SOL    HW112920   0.160   2.547   6.646
 4007SOL    HW212921   0.027   2.642   6.635
 4008SOL     OW12922   2.806   1.990   4.938
 4008SOL    HW112923   2.781   1.992   4.842
 4008SOL    HW212924   2.726   2.012   4.994
 4009SOL     OW12925   4.553   3.219   1.330
 4009SOL    HW112926   4.502   3.275   1.395
 4009SOL    HW212927   4.588   3.138   1.377
 4010SOL     OW12928   2.226   2.901   1.383
 4010SOL    HW112929   2.208   3.000   1.388
 4010SOL    HW212930   2.319   2.882   1.415
 4011SOL     OW12931   0.788   1.352   2.241
 4011SOL    HW112932   0.877   1.314   2.218
 4011SOL    HW212933   0.773   1.436   2.189
 4012SOL     OW12934   6.823   4.205   1.637
 4012SOL    HW112935   6.732   4.247   1.636
 4012SOL    HW212936   6.878   4.244   1.562
 4013SOL     OW12937   3.744   1.592   4.981
 4013SOL    HW112938   3.739   1.676   4.927
 4013SOL    HW212939   3.684   1.600   5.061
 4014SOL     OW12940   5.707   6.310   2.410
 4014SOL    HW112941   5.675   6.405   2.407
 4014SOL    HW212942   5.676   6.262   2.328
 4015SOL     OW12943   4.798   4.741   6.458
 4015SOL    HW112944   4.778   4.829   6.414
 4015SOL    HW212945   4.817   4.672   6.389
 4016SOL     OW12946   2.297   6.268   6.227
 4016SOL    HW112947   2.213   6.217   6.243
 4016SOL    HW212948   2.375   6.206   6.235
 4017SOL     OW12949   0.019   5.987   0.720
 4017SOL    HW112950   6.946   5.996   0.708
 4017SOL    HW212951   0.038   5.965   0.816
 4018SOL     OW12952   3.727   5.766   2.303
 4018SOL    HW112953   3.770   5.705   2.237
 4018SOL    HW212954   3.637   5.729   2.329
 4019SOL     OW12955   5.090   4.575   3.481
 4019SOL    HW112956   5.025   4.581   3.404
 4019SOL    HW212957   5.171   4.524   3.452
 4020SOL     OW12958   4.589   2.040   5.322
 4020SOL    HW112959   4.565   2.121   5.376
 4020SOL    HW212960   4.566   1.957   5.373
 4021SOL     OW12961   3.475   5.170   6.607
 4021SOL    HW112962   3.486   5.234   6.531
 4021SOL    HW212963   3.465   5.077   6.571
 4022SOL     OW12964   4.660   1.729   0.109
 4022SOL    HW112965   4.644   1.778   0.194
 4022SOL    HW212966   4.692   1.636   0.130
 4023SOL     OW12967   6.183   1.982   4.838
 4023SOL    HW112968   6.240   1.903   4.861
 4023SOL    HW212969   6.131   2.010   4.918
 4024SOL     OW12970   3.574   6.064   4.730
 4024SOL    HW112971   3.527   6.018   4.655
 4024SOL    HW212972   3.601   6.156   4.702
 4025SOL     OW12973   0.866   3.722   3.093
 4025SOL    HW112974   0.876   3.738   2.995
 4025SOL    HW212975   0.894   3.629   3.114
 4026SOL     OW12976   5.662   5.811   4.328
 4026SOL    HW112977   5.743   5.867   4.344
 4026SOL    HW212978   5.674   5.757   4.245
 4027SOL     OW12979   3.679   4.165   1.909
 4027SOL    HW112980   3.733   4.090   1.870
 4027SOL    HW212981   3.681   4.243   1.846
 4028SOL     OW12982   1.799   2.255   4.319
 4028SOL    HW112983   1.875   2.317   4.338
 4028SOL    HW212984   1.827   2.161   4.337
 4029SOL     OW12985   1.928   3.610   5.635
 4029SOL    HW112986   1.961   3.525   5.594
 4029SOL    HW212987   1.947   3.687   5.572
 4030SOL     OW12988   0.470   1.651   5.610
 4030SOL    HW112989   0.409   1.647   5.689
 4030SOL    HW212990   0.428   1.606   5.532
 4031SOL     OW12991   4.476   5.622   3.576
 4031SOL    HW112992   4.396   5.610   3.517
 4031SOL    HW212993   4.446   5.638   3.670
 4032SOL     OW12994   5.767   6.507   4.063
 4032SOL    HW112995   5.726   6.589   4.025
 4032SOL    HW212996   5.758   6.431   3.998
 4033SOL     OW12997   2.918   3.738   4.441
 4033SOL    HW112998   2.916   3.638   4.436
 4033SOL    HW212999   2.927   3.776   4.349
 4034SOL     OW13000   6.629   1.399   4.601
 4034SOL    HW113001   6.638   1.326   4.534
 4034SOL    HW213002   6.567   1.469   4.567
 4035SOL     OW13003   0.479   4.379   6.527
 4035SOL    HW113004   0.573   4.345   6.535
 4035SOL    HW213005   0.482   4.474   6.496
 4036SOL     OW13006   5.971   6.040   2.680
 4036SOL    HW113007   5.948   6.133   2.651
 4036SOL    HW213008   5.889   5.995   2.716
 4037SOL     OW13009   0.829   3.571   6.531
 4037SOL    HW113010   0.927   3.572   6.510
 4037SOL    HW213011   0.811   3.506   6.604
 4038SOL     OW13012   5.295   4.414   3.389
 4038SOL    HW113013   5.314   4.408   3.291
 4038SOL    HW213014   5.362   4.360   3.439
 4039SOL     OW13015   5.432   6.301   0.317
 4039SOL    HW113016   5.529   6.279   0.334
 4039SOL    HW213017   5.379   6.282   0.400
 4040SOL     OW13018   3.117   6.806   1.193
 4040SOL    HW113019   3.105   6.888   1.249
 4040SOL    HW213020   3.194   6.819   1.131
 4041SOL     OW13021   1.435   6.369   3.573
 4041SOL    HW113022   1.356   6.392   3.516
 4041SOL    HW213023   1.445   6.270   3.579
 4042SOL     OW13024   5.759   5.154   1.680
 4042SOL    HW113025   5.661   5.167   1.667
 4042SOL    HW213026   5.809   5.236   1.651
 4043SOL     OW13027   5.302   2.364   2.406
 4043SOL    HW113028   5.259   2.286   2.360
 4043SOL    HW213029   5.342   2.425   2.338
 4044SOL     OW13030   5.831   0.007   3.570
 4044SOL    HW113031   5.917   6.982   3.576
 4044SOL    HW213032   5.779   7.001   3.491
 4045SOL     OW13033   1.701   4.954   6.790
 4045SOL    HW113034   1.617   5.004   6.807
 4045SOL    HW213035   1.779   5.015   6.802
 4046SOL     OW13036   1.208   2.637   1.609
 4046SOL    HW113037   1.145   2.669   1.680
 4046SOL    HW213038   1.177   2.670   1.519
 4047SOL     OW13039   3.304   3.842   1.718
 4047SOL    HW113040   3.325   3.868   1.623
 4047SOL    HW213041   3.206   3.853   1.735
 4048SOL     OW13042   5.142   0.484   0.806
 4048SOL    HW113043   5.221   0.428   0.780
 4048SOL    HW213044   5.097   0.444   0.885
 4049SOL     OW13045   5.270   6.605   5.573
 4049SOL    HW113046   5.289   6.509   5.596
 4049SOL    HW213047   5.208   6.644   5.641
 4050SOL     OW13048   1.672   6.165   0.414
 4050SOL    HW113049   1.657   6.205   0.505
 4050SOL    HW213050   1.747   6.099   0.418
 4051SOL     OW13051   3.085   4.772   0.833
 4051SOL    HW113052   3.140   4.737   0.758
 4051SOL    HW213053   3.033   4.698   0.875
 4052SOL     OW13054   0.866   0.636   6.875
 4052SOL    HW113055   0.778   0.658   6.918
 4052SOL    HW213056   0.940   0.651   6.940
 4053SOL     OW13057   3.392   5.024   3.654
 4053SOL    HW113058   3.452   4.993   3.727
 4053SOL    HW213059   3.382   5.124   3.659
 4054SOL     OW13060   3.616   2.300   1.115
 4054SOL    HW113061   3.713   2.311   1.094
 4054SOL    HW213062   3.572   2.390   1.117
 4055SOL     OW13063   3.539   1.929   6.054
 4055SOL    HW113064   3.455   1.968   6.018
 4055SOL    HW213065   3.617   1.982   6.020
 4056SOL     OW13066   3.538   3.232   6.865
 4056SOL    HW113067   3.557   3.142   6.905
 4056SOL    HW213068   3.598   3.247   6.787
 4057SOL     OW13069   4.389   2.856   6.510
 4057SOL    HW113070   4.382   2.871   6.411
 4057SOL    HW213071   4.298   2.861   6.551
 4058SOL     OW13072   2.199   1.073   5.544
 4058SOL    HW113073   2.219   1.113   5.634
 4058SOL    HW213074   2.199   1.145   5.475
 4059SOL     OW13075   1.617   1.977   5.330
 4059SOL    HW113076   1.608   1.880   5.350
 4059SOL    HW213077   1.689   1.990   5.262
 4060SOL     OW13078   4.023   5.105   4.224
 4060SOL    HW113079   3.991   5.172   4.291
 4060SOL    HW213080   4.023   5.013   4.266
 4061SOL     OW13081   3.258   4.089   2.022
 4061SOL    HW113082   3.357   4.101   2.015
 4061SOL    HW213083   3.214   4.179   2.024
 4062SOL     OW13084   3.324   0.493   2.816
 4062SOL    HW113085   3.237   0.450   2.793
 4062SOL    HW213086   3.390   0.423   2.843
 4063SOL     OW13087   3.252   4.888   6.037
 4063SOL    HW113088   3.157   4.913   6.022
 4063SOL    HW213089   3.272   4.801   5.992
 4064SOL     OW13090   6.885   0.719   3.870
 4064SOL    HW113091   6.956   0.770   3.821
 4064SOL    HW213092   6.926   0.645   3.922
 4065SOL     OW13093   6.698   6.857   0.444
 4065SOL    HW113094   6.643   6.815   0.517
 4065SOL    HW213095   6.729   6.947   0.474
 4066SOL     OW13096   6.011   4.297   1.647
 4066SOL    HW113097   6.086   4.234   1.626
 4066SOL    HW213098   6.019   4.377   1.588
 4067SOL     OW13099   6.599   1.743   2.547
 4067SOL    HW113100   6.501   1.743   2.570
 4067SOL    HW213101   6.653   1.750   2.630
 4068SOL     OW13102   5.851   0.197   3.996
 4068SOL    HW113103   5.896   0.158   4.076
 4068SOL    HW213104   5.913   0.259   3.949
 4069SOL     OW13105   5.549   5.487   0.919
 4069SOL    HW113106   5.517   5.572   0.962
 4069SOL    HW213107   5.645   5.498   0.892
 4070SOL     OW13108   2.124   3.923   3.402
 4070SOL    HW113109   2.088   3.859   3.334
 4070SOL    HW213110   2.125   4.015   3.363
 4071SOL     OW13111   1.623   0.416   3.825
 4071SOL    HW113112   1.701   0.417   3.763
 4071SOL    HW213113   1.637   0.344   3.894
 4072SOL     OW13114   1.532   0.050   4.971
 4072SOL    HW113115   1.453   0.111   4.975
 4072SOL    HW213116   1.611   0.094   5.013
 4073SOL     OW13117   2.666   6.511   0.066
 4073SOL    HW113118   2.648   6.557   7.005
 4073SOL    HW213119   2.720   6.570   0.125
 4074SOL     OW13120   1.765   2.535   0.839
 4074SOL    HW113121   1.827   2.575   0.772
 4074SOL    HW213122   1.768   2.435   0.832
 4075SOL     OW13123   5.173   1.636   3.020
 4075SOL    HW113124   5.264   1.637   3.062
 4075SOL    HW213125   5.180   1.600   2.927
 4076SOL     OW13126   1.744   3.675   4.243
 4076SOL    HW113127   1.647   3.694   4.257
 4076SOL    HW213128   1.771   3.703   4.151
 4077SOL     OW13129   3.665   1.308   1.175
 4077SOL    HW113130   3.650   1.273   1.268
 4077SOL    HW213131   3.601   1.383   1.158
 4078SOL     OW13132   6.473   3.954   1.239
 4078SOL    HW113133   6.494   4.009   1.158
 4078SOL    HW213134   6.476   4.012   1.320
 4079SOL     OW13135   0.426   0.373   4.001
 4079SOL    HW113136   0.389   0.378   4.094
 4079SOL    HW213137   0.428   0.465   3.961
 4080SOL     OW13138   3.531   3.867   1.862
 4080SOL    HW113139   3.457   3.866   1.795
 4080SOL    HW213140   3.616   3.897   1.818
 4081SOL     OW13141   1.898   2.002   5.486
 4081SOL    HW113142   1.881   2.035   5.393
 4081SOL    HW213143   1.996   1.997   5.503
 4082SOL     OW13144   1.253   2.703   4.513
 4082SOL    HW113145   1.286   2.740   4.600
 4082SOL    HW213146   1.246   2.777   4.446
 4083SOL     OW13147   5.515   4.909   3.205
 4083SOL    HW113148   5.434   4.959   3.234
 4083SOL    HW213149   5.560   4.959   3.131
 4084SOL     OW13150   4.239   0.738   3.264
 4084SOL    HW113151   4.312   0.783   3.213
 4084SOL    HW213152   4.153   0.788   3.252
 4085SOL     OW13153   3.250   4.874   2.186
 4085SOL    HW113154   3.284   4.849   2.096
 4085SOL    HW213155   3.153   4.899   2.179
 4086SOL     OW13156   6.565   5.455   6.048
 4086SOL    HW113157   6.480   5.407   6.024
 4086SOL    HW213158   6.643   5.405   6.011
 4087SOL     OW13159   2.703   0.327   2.425
 4087SOL    HW113160   2.730   0.326   2.521
 4087SOL    HW213161   2.743   0.249   2.378
 4088SOL     OW13162   0.248   1.225   5.650
 4088SOL    HW113163   0.291   1.170   5.722
 4088SOL    HW213164   0.318   1.263   5.590
 4089SOL     OW13165   0.424   0.086   3.999
 4089SOL    HW113166   0.410   0.063   3.903
 4089SOL    HW213167   0.458   0.180   4.007
 4090SOL     OW13168   2.894   0.477   5.553
 4090SOL    HW113169   2.874   0.572   5.527
 4090SOL    HW213170   2.980   0.449   5.511
 4091SOL     OW13171   2.193   5.404   1.443
 4091SOL    HW113172   2.177   5.486   1.499
 4091SOL    HW213173   2.105   5.359   1.425
 4092SOL     OW13174   4.950   3.274   4.251
 4092SOL    HW113175   4.976   3.330   4.172
 4092SOL    HW213176   4.926   3.334   4.327
 4093SOL     OW13177   4.769   5.595   2.997
 4093SOL    HW113178   4.729   5.519   2.946
 4093SOL    HW213179   4.749   5.584   3.094
 4094SOL     OW13180   0.215   5.625   6.979
 4094SOL    HW113181   0.295   5.601   6.924
 4094SOL    HW213182   0.132   5.612   6.925
 4095SOL     OW13183   0.220   5.190   6.787
 4095SOL    HW113184   0.253   5.275   6.747
 4095SOL    HW213185   0.159   5.144   6.722
 4096SOL     OW13186   1.587   2.085   6.908
 4096SOL    HW113187   1.505   2.048   6.950
 4096SOL    HW213188   1.664   2.075   6.972
 4097SOL     OW13189   6.989   4.473   4.851
 4097SOL    HW113190   6.917   4.521   4.802
 4097SOL    HW213191   0.051   4.492   4.806
 4098SOL     OW13192   2.226   5.113   3.132
 4098SOL    HW113193   2.223   5.160   3.220
 4098SOL    HW213194   2.169   5.031   3.136
 4099SOL     OW13195   4.458   4.993   5.994
 4099SOL    HW113196   4.517   5.044   5.931
 4099SOL    HW213197   4.373   4.968   5.947
 4100SOL     OW13198   1.354   0.712   3.591
 4100SOL    HW113199   1.363   0.673   3.683
 4100SOL    HW213200   1.306   0.647   3.532
 4101SOL     OW13201   6.534   0.627   0.340
 4101SOL    HW113202   6.549   0.724   0.360
 4101SOL    HW213203   6.510   0.617   0.243
 4102SOL     OW13204   1.626   0.910   6.907
 4102SOL    HW113205   1.615   0.847   6.830
 4102SOL    HW213206   1.698   0.976   6.885
 4103SOL     OW13207   1.550   6.430   2.717
 4103SOL    HW113208   1.508   6.358   2.663
 4103SOL    HW213209   1.568   6.397   2.810
 4104SOL     OW13210   0.521   5.804   4.006
 4104SOL    HW113211   0.549   5.720   3.958
 4104SOL    HW213212   0.581   5.879   3.978
 4105SOL     OW13213   4.755   1.332   1.040
 4105SOL    HW113214   4.828   1.290   1.093
 4105SOL    HW213215   4.691   1.261   1.009
 4106SOL     OW13216   6.792   2.242   3.859
 4106SOL    HW113217   6.759   2.148   3.870
 4106SOL    HW213218   6.785   2.269   3.763
 4107SOL     OW13219   6.923   6.423   6.451
 4107SOL    HW113220   7.012   6.385   6.425
 4107SOL    HW213221   6.886   6.371   6.528
 4108SOL     OW13222   6.400   5.448   3.915
 4108SOL    HW113223   6.473   5.387   3.885
 4108SOL    HW213224   6.383   5.434   4.013
 4109SOL     OW13225   5.992   6.688   3.335
 4109SOL    HW113226   5.909   6.637   3.357
 4109SOL    HW213227   6.064   6.625   3.307
 4110SOL     OW13228   4.601   4.232   0.061
 4110SOL    HW113229   4.507   4.238   0.029
 4110SOL    HW213230   4.663   4.268   7.017
 4111SOL     OW13231   6.758   3.936   3.942
 4111SOL    HW113232   6.812   3.971   3.865
 4111SOL    HW213233   6.806   3.860   3.985
 4112SOL     OW13234   4.950   0.102   5.139
 4112SOL    HW113235   4.999   0.112   5.225
 4112SOL    HW213236   5.013   0.075   5.066
 4113SOL     OW13237   4.117   4.808   4.652
 4113SOL    HW113238   4.037   4.784   4.597
 4113SOL    HW213239   4.090   4.876   4.721
 4114SOL     OW13240   0.162   1.786   2.360
 4114SOL    HW113241   0.115   1.793   2.272
 4114SOL    HW213242   0.152   1.693   2.395
 4115SOL     OW13243   3.738   4.870   4.136
 4115SOL    HW113244   3.823   4.842   4.180
 4115SOL    HW213245   3.665   4.874   4.204
 4116SOL     OW13246   5.280   2.515   3.385
 4116SOL    HW113247   5.301   2.491   3.290
 4116SOL    HW213248   5.314   2.607   3.405
 4117SOL     OW13249   0.933   2.278   3.187
 4117SOL    HW113250   0.996   2.351   3.158
 4117SOL    HW213251   0.985   2.197   3.213
 4118SOL     OW13252   6.859   6.863   5.961
 4118SOL    HW113253   6.778   6.833   5.910
 4118SOL    HW213254   6.857   6.822   6.052
 4119SOL     OW13255   2.239   1.326   3.658
 4119SOL    HW113256   2.178   1.278   3.595
 4119SOL    HW213257   2.245   1.275   3.744
 4120SOL     OW13258   2.279   1.261   6.615
 4120SOL    HW113259   2.211   1.200   6.575
 4120SOL    HW213260   2.336   1.208   6.679
 4121SOL     OW13261   6.660   6.754   1.795
 4121SOL    HW113262   6.707   6.690   1.734
 4121SOL    HW213263   6.652   6.843   1.750
 4122SOL     OW13264   6.829   4.867   4.185
 4122SOL    HW113265   6.920   4.909   4.195
 4122SOL    HW213266   6.831   4.775   4.225
 4123SOL     OW13267   3.778   4.841   2.429
 4123SOL    HW113268   3.812   4.888   2.511
 4123SOL    HW213269   3.679   4.844   2.427
 4124SOL     OW13270   6.811   6.028   0.205
 4124SOL    HW113271   6.797   6.127   0.209
 4124SOL    HW213272   6.905   6.008   0.180
 4125SOL     OW13273   5.752   1.993   2.109
 4125SOL    HW113274   5.760   1.936   2.190
 4125SOL    HW213275   5.660   2.031   2.103
 4126SOL     OW13276   1.179   3.240   1.989
 4126SOL    HW113277   1.187   3.143   1.962
 4126SOL    HW213278   1.177   3.247   2.088
 4127SOL     OW13279   3.833   1.912   4.127
 4127SOL    HW113280   3.880   1.856   4.059
 4127SOL    HW213281   3.834   2.007   4.099
 4128SOL     OW13282   0.098   3.194   0.733
 4128SOL    HW113283   0.126   3.211   0.828
 4128SOL    HW213284   0.030   3.261   0.705
 4129SOL     OW13285   2.598   3.027   0.805
 4129SOL    HW113286   2.583   2.929   0.791
 4129SOL    HW213287   2.634   3.067   0.721
 4130SOL     OW13288   5.610   2.886   1.463
 4130SOL    HW113289   5.581   2.790   1.459
 4130SOL    HW213290   5.706   2.891   1.491
 4131SOL     OW13291   4.560   0.813   2.575
 4131SOL    HW113292   4.569   0.830   2.673
 4131SOL    HW213293   4.645   0.838   2.529
 4132SOL     OW13294   6.858   4.179   4.287
 4132SOL    HW113295   6.844   4.259   4.230
 4132SOL    HW213296   6.914   4.112   4.239
 4133SOL     OW13297   5.771   0.178   2.167
 4133SOL    HW113298   5.697   0.120   2.131
 4133SOL    HW213299   5.743   0.216   2.255
 4134SOL     OW13300   2.234   3.252   1.114
 4134SOL    HW113301   2.197   3.170   1.071
 4134SOL    HW213302   2.303   3.293   1.055
 4135SOL     OW13303   0.083   1.306   2.377
 4135SOL    HW113304   0.149   1.315   2.303
 4135SOL    HW213305   0.130   1.277   2.460
 4136SOL     OW13306   1.227   4.744   2.061
 4136SOL    HW113307   1.298   4.750   2.132
 4136SOL    HW213308   1.214   4.649   2.036
 4137SOL     OW13309   1.652   2.729   0.061
 4137SOL    HW113310   1.664   2.828   0.058
 4137SOL    HW213311   1.676   2.695   0.152
 4138SOL     OW13312   4.979   6.437   0.872
 4138SOL    HW113313   4.909   6.367   0.883
 4138SOL    HW213314   5.014   6.464   0.961
 4139SOL     OW13315   2.163   2.501   2.890
 4139SOL    HW113316   2.098   2.539   2.824
 4139SOL    HW213317   2.149   2.544   2.979
 4140SOL     OW13318   2.541   2.266   5.205
 4140SOL    HW113319   2.475   2.315   5.262
 4140SOL    HW213320   2.627   2.317   5.204
 4141SOL     OW13321   4.623   0.041   6.953
 4141SOL    HW113322   4.667   0.130   6.967
 4141SOL    HW213323   4.659   7.025   6.869
 4142SOL     OW13324   6.940   4.177   3.186
 4142SOL    HW113325   6.889   4.263   3.182
 4142SOL    HW213326   6.931   4.129   3.099
 4143SOL     OW13327   6.003   2.943   0.551
 4143SOL    HW113328   5.966   2.944   0.458
 4143SOL    HW213329   5.940   2.894   0.611
 4144SOL     OW13330   5.744   1.949   0.478
 4144SOL    HW113331   5.707   2.042   0.474
 4144SOL    HW213332   5.736   1.914   0.571
 4145SOL     OW13333   0.278   6.773   1.732
 4145SOL    HW113334   0.188   6.814   1.746
 4145SOL    HW213335   0.299   6.772   1.634
 4146SOL     OW13336   5.306   6.477   3.576
 4146SOL    HW113337   5.215   6.466   3.616
 4146SOL    HW213338   5.342   6.387   3.550
 4147SOL     OW13339   5.093   4.133   5.739
 4147SOL    HW113340   5.148   4.206   5.699
 4147SOL    HW213341   5.137   4.045   5.724
 4148SOL     OW13342   3.136   1.296   5.782
 4148SOL    HW113343   3.128   1.288   5.881
 4148SOL    HW213344   3.071   1.235   5.737
 4149SOL     OW13345   2.134   2.906   0.478
 4149SOL    HW113346   2.132   2.931   0.575
 4149SOL    HW213347   2.167   2.813   0.469
 4150SOL     OW13348   5.734   2.401   6.386
 4150SOL    HW113349   5.651   2.383   6.333
 4150SOL    HW213350   5.709   2.444   6.473
 4151SOL     OW13351   2.232   6.445   4.600
 4151SOL    HW113352   2.183   6.363   4.627
 4151SOL    HW213353   2.296   6.471   4.673
 4152SOL     OW13354   3.005   5.277   1.660
 4152SOL    HW113355   3.079   5.257   1.596
 4152SOL    HW213356   2.922   5.301   1.609
 4153SOL     OW13357   6.849   5.081   1.513
 4153SOL    HW113358   6.885   5.010   1.573
 4153SOL    HW213359   6.806   5.038   1.433
 4154SOL     OW13360   1.352   6.002   4.445
 4154SOL    HW113361   1.370   5.991   4.543
 4154SOL    HW213362   1.300   5.923   4.411
 4155SOL     OW13363   0.984   2.207   1.601
 4155SOL    HW113364   0.904   2.149   1.616
 4155SOL    HW213365   1.065   2.150   1.587
 4156SOL     OW13366   6.912   5.114   5.303
 4156SOL    HW113367   6.993   5.055   5.306
 4156SOL    HW213368   6.887   5.132   5.208
 4157SOL     OW13369   6.763   6.148   2.193
 4157SOL    HW113370   6.726   6.137   2.286
 4157SOL    HW213371   6.771   6.059   2.149
 4158SOL     OW13372   1.386   2.597   2.463
 4158SOL    HW113373   1.346   2.506   2.466
 4158SOL    HW213374   1.355   2.649   2.543
 4159SOL     OW13375   3.016   1.658   3.660
 4159SOL    HW113376   3.060   1.744   3.686
 4159SOL    HW213377   2.996   1.605   3.743
 4160SOL     OW13378   6.321   0.312   6.283
 4160SOL    HW113379   6.296   0.222   6.318
 4160SOL    HW213380   6.394   0.303   6.215
 4161SOL     OW13381   2.939   2.407   1.458
 4161SOL    HW113382   2.978   2.354   1.533
 4161SOL    HW213383   2.983   2.380   1.372
 4162SOL     OW13384   6.364   6.588   1.481
 4162SOL    HW113385   6.374   6.499   1.437
 4162SOL    HW213386   6.434   6.650   1.445
 4163SOL     OW13387   3.834   6.497   1.297
 4163SOL    HW113388   3.840   6.554   1.215
 4163SOL    HW213389   3.858   6.403   1.275
 4164SOL     OW13390   6.897   6.880   4.926
 4164SOL    HW113391   6.843   6.796   4.921
 4164SOL    HW213392   6.971   6.868   4.992
 4165SOL     OW13393   4.906   1.190   5.661
 4165SOL    HW113394   4.887   1.204   5.564
 4165SOL    HW213395   4.951   1.101   5.673
 4166SOL     OW13396   6.051   0.751   2.438
 4166SOL    HW113397   6.136   0.803   2.440
 4166SOL    HW213398   5.991   0.783   2.511
 4167SOL     OW13399   3.975   5.147   5.526
 4167SOL    HW113400   4.005   5.086   5.452
 4167SOL    HW213401   3.885   5.119   5.559
 4168SOL     OW13402   5.890   4.375   0.364
 4168SOL    HW113403   5.845   4.290   0.390
 4168SOL    HW213404   5.989   4.366   0.379
 4169SOL     OW13405   4.850   3.944   4.994
 4169SOL    HW113406   4.804   3.856   4.984
 4169SOL    HW213407   4.912   3.959   4.917
 4170SOL     OW13408   5.832   3.577   4.467
 4170SOL    HW113409   5.760   3.517   4.431
 4170SOL    HW213410   5.800   3.619   4.551
 4171SOL     OW13411   1.209   4.043   0.876
 4171SOL    HW113412   1.117   4.029   0.838
 4171SOL    HW213413   1.273   3.981   0.830
 4172SOL     OW13414   2.776   4.000   0.579
 4172SOL    HW113415   2.725   3.938   0.639
 4172SOL    HW213416   2.755   4.094   0.603
 4173SOL     OW13417   4.752   2.647   5.116
 4173SOL    HW113418   4.706   2.626   5.029
 4173SOL    HW213419   4.849   2.627   5.107
 4174SOL     OW13420   4.373   0.719   4.463
 4174SOL    HW113421   4.320   0.635   4.479
 4174SOL    HW213422   4.439   0.702   4.389
 4175SOL     OW13423   1.641   4.551   6.578
 4175SOL    HW113424   1.643   4.595   6.668
 4175SOL    HW213425   1.712   4.480   6.574
 4176SOL     OW13426   4.741   6.438   6.709
 4176SOL    HW113427   4.829   6.483   6.695
 4176SOL    HW213428   4.745   6.345   6.673
 4177SOL     OW13429   4.478   4.728   3.991
 4177SOL    HW113430   4.424   4.775   3.921
 4177SOL    HW213431   4.479   4.782   4.075
 4178SOL     OW13432   3.286   5.607   2.096
 4178SOL    HW113433   3.371   5.597   2.045
 4178SOL    HW213434   3.262   5.519   2.138
 4179SOL     OW13435   5.055   3.036   4.219
 4179SOL    HW113436   5.020   3.124   4.250
 4179SOL    HW213437   4.993   2.998   4.150
 4180SOL     OW13438   5.460   3.291   0.370
 4180SOL    HW113439   5.497   3.291   0.463
 4180SOL    HW213440   5.469   3.200   0.330
 4181SOL     OW13441   5.118   0.179   5.410
 4181SOL    HW113442   5.188   0.128   5.461
 4181SOL    HW213443   5.162   0.228   5.334
 4182SOL     OW13444   6.951   5.950   3.988
 4182SOL    HW113445   6.883   6.004   4.036
 4182SOL    HW213446   6.915   5.858   3.971
 4183SOL     OW13447   2.805   1.233   2.100
 4183SOL    HW113448   2.771   1.319   2.061
 4183SOL    HW213449   2.732   1.190   2.153
 4184SOL     OW13450   3.267   6.048   3.354
 4184SOL    HW113451   3.255   6.090   3.444
 4184SOL    HW213452   3.180   6.008   3.325
 4185SOL     OW13453   6.639   3.799   3.190
 4185SOL    HW113454   6.724   3.793   3.138
 4185SOL    HW213455   6.620   3.894   3.211
 4186SOL     OW13456   1.496   5.836   6.940
 4186SOL    HW113457   1.508   5.773   6.863
 4186SOL    HW213458   1.557   5.914   6.929
 4187SOL     OW13459   1.864   3.717   6.860
 4187SOL    HW113460   1.783   3.764   6.824
 4187SOL    HW213461   1.946   3.766   6.832
 4188SOL     OW13462   4.755   0.283   6.962
 4188SOL    HW113463   4.835   0.256   7.014
 4188SOL    HW213464   4.783   0.333   6.880
 4189SOL     OW13465   4.611   5.821   2.969
 4189SOL    HW113466   4.600   5.868   2.882
 4189SOL    HW213467   4.658   5.734   2.955
 4190SOL     OW13468   0.425   7.015   1.015
 4190SOL    HW113469   0.372   6.936   0.983
 4190SOL    HW213470   0.457   0.042   0.937
 4191SOL     OW13471   4.741   4.221   6.094
 4191SOL    HW113472   4.676   4.194   6.023
 4191SOL    HW213473   4.693   4.271   6.165
 4192SOL     OW13474   1.302   1.953   2.350
 4192SOL    HW113475   1.373   1.937   2.419
 4192SOL    HW213476   1.253   2.037   2.372
 4193SOL     OW13477   6.284   0.646   0.951
 4193SOL    HW113478   6.312   0.561   0.995
 4193SOL    HW213479   6.308   0.643   0.854
 4194SOL     OW13480   4.537   1.177   5.398
 4194SOL    HW113481   4.625   1.215   5.370
 4194SOL    HW213482   4.552   1.110   5.471
 4195SOL     OW13483   4.536   5.921   1.984
 4195SOL    HW113484   4.458   5.945   1.926
 4195SOL    HW213485   4.607   5.991   1.975
 4196SOL     OW13486   6.727   1.932   3.423
 4196SOL    HW113487   6.726   1.871   3.344
 4196SOL    HW213488   6.821   1.962   3.440
 4197SOL     OW13489   3.597   6.606   6.467
 4197SOL    HW113490   3.581   6.507   6.474
 4197SOL    HW213491   3.540   6.654   6.533
 4198SOL     OW13492   6.665   0.412   2.203
 4198SOL    HW113493   6.598   0.387   2.273
 4198SOL    HW213494   6.725   0.484   2.239
 4199SOL     OW13495   1.273   4.273   6.198
 4199SOL    HW113496   1.281   4.175   6.179
 4199SOL    HW213497   1.229   4.286   6.287
 4200SOL     OW13498   4.281   0.781   5.035
 4200SOL    HW113499   4.316   0.874   5.024
 4200SOL    HW213500   4.182   0.784   5.050
 4201SOL     OW13501   6.219   0.108   4.011
 4201SOL    HW113502   6.155   0.043   4.054
 4201SOL    HW213503   6.249   0.072   3.923
 4202SOL     OW13504   3.812   5.796   0.288
 4202SOL    HW113505   3.724   5.806   0.334
 4202SOL    HW213506   3.798   5.794   0.189
 4203SOL     OW13507   5.651   5.400   0.377
 4203SOL    HW113508   5.603   5.451   0.448
 4203SOL    HW213509   5.619   5.431   0.287
 4204SOL     OW13510   3.364   3.547   5.726
 4204SOL    HW113511   3.329   3.477   5.788
 4204SOL    HW213512   3.437   3.598   5.770
 4205SOL     OW13513   3.764   5.563   5.163
 4205SOL    HW113514   3.838   5.607   5.213
 4205SOL    HW213515   3.786   5.560   5.066
 4206SOL     OW13516   1.944   2.205   4.799
 4206SOL    HW113517   1.900   2.184   4.712
 4206SOL    HW213518   1.935   2.302   4.819
 4207SOL     OW13519   2.203   2.253   1.604
 4207SOL    HW113520   2.162   2.198   1.532
 4207SOL    HW213521   2.149   2.336   1.618
 4208SOL     OW13522   1.925   3.989   4.838
 4208SOL    HW113523   1.998   3.929   4.870
 4208SOL    HW213524   1.885   3.952   4.754
 4209SOL     OW13525   0.088   5.574   2.635
 4209SOL    HW113526   0.036   5.607   2.713
 4209SOL    HW213527   0.079   5.638   2.559
 4210SOL     OW13528   4.193   3.616   4.957
 4210SOL    HW113529   4.110   3.583   4.913
 4210SOL    HW213530   4.260   3.641   4.888
 4211SOL     OW13531   3.586   2.146   5.236
 4211SOL    HW113532   3.596   2.047   5.239
 4211SOL    HW213533   3.492   2.172   5.257
 4212SOL     OW13534   0.079   1.339   3.961
 4212SOL    HW113535   0.029   1.257   3.987
 4212SOL    HW213536   0.018   1.419   3.970
 4213SOL     OW13537   2.993   0.925   2.672
 4213SOL    HW113538   3.012   0.920   2.770
 4213SOL    HW213539   2.901   0.890   2.654
 4214SOL     OW13540   0.923   5.176   4.215
 4214SOL    HW113541   1.005   5.188   4.271
 4214SOL    HW213542   0.913   5.080   4.190
 4215SOL     OW13543   4.965   6.277   4.870
 4215SOL    HW113544   4.998   6.220   4.795
 4215SOL    HW213545   4.936   6.218   4.946
 4216SOL     OW13546   1.820   0.499   2.841
 4216SOL    HW113547   1.761   0.540   2.910
 4216SOL    HW213548   1.906   0.550   2.836
 4217SOL     OW13549   1.565   0.291   2.098
 4217SOL    HW113550   1.487   0.284   2.159
 4217SOL    HW213551   1.583   0.202   2.056
 4218SOL     OW13552   3.481   1.531   1.149
 4218SOL    HW113553   3.383   1.514   1.141
 4218SOL    HW213554   3.502   1.625   1.123
 4219SOL     OW13555   4.468   6.261   4.092
 4219SOL    HW113556   4.520   6.176   4.098
 4219SOL    HW213557   4.375   6.246   4.125
 4220SOL     OW13558   5.065   2.171   1.605
 4220SOL    HW113559   4.999   2.246   1.609
 4220SOL    HW213560   5.016   2.085   1.585
 4221SOL     OW13561   6.513   5.478   6.586
 4221SOL    HW113562   6.518   5.400   6.648
 4221SOL    HW213563   6.476   5.449   6.498
 4222SOL     OW13564   5.369   2.110   3.692
 4222SOL    HW113565   5.384   2.027   3.746
 4222SOL    HW213566   5.422   2.185   3.731
 4223SOL     OW13567   4.160   4.180   1.308
 4223SOL    HW113568   4.214   4.096   1.312
 4223SOL    HW213569   4.063   4.157   1.316
 4224SOL     OW13570   5.242   4.181   4.759
 4224SOL    HW113571   5.305   4.164   4.834
 4224SOL    HW213572   5.199   4.270   4.770
 4225SOL     OW13573   0.855   2.336   5.211
 4225SOL    HW113574   0.864   2.378   5.301
 4225SOL    HW213575   0.921   2.261   5.202
 4226SOL     OW13576   0.552   5.587   4.663
 4226SOL    HW113577   0.496   5.543   4.734
 4226SOL    HW213578   0.635   5.534   4.648
 4227SOL     OW13579   5.027   5.799   1.761
 4227SOL    HW113580   5.021   5.877   1.823
 4227SOL    HW213581   5.002   5.715   1.810
 4228SOL     OW13582   1.111   5.914   4.567
 4228SOL    HW113583   1.149   5.870   4.648
 4228SOL    HW213584   1.024   5.956   4.589
 4229SOL     OW13585   5.687   5.576   6.028
 4229SOL    HW113586   5.652   5.498   5.976
 4229SOL    HW213587   5.610   5.636   6.051
 4230SOL     OW13588   1.690   0.014   2.664
 4230SOL    HW113589   1.601   6.997   2.650
 4230SOL    HW213590   1.678   0.108   2.697
 4231SOL     OW13591   5.364   0.656   5.467
 4231SOL    HW113592   5.412   0.741   5.444
 4231SOL    HW213593   5.340   0.656   5.564
 4232SOL     OW13594   2.230   5.332   3.343
 4232SOL    HW113595   2.263   5.306   3.434
 4232SOL    HW213596   2.301   5.385   3.296
 4233SOL     OW13597   6.250   6.469   4.011
 4233SOL    HW113598   6.246   6.504   4.105
 4233SOL    HW213599   6.342   6.434   3.992
 4234SOL     OW13600   2.181   5.258   5.566
 4234SOL    HW113601   2.242   5.333   5.592
 4234SOL    HW213602   2.086   5.289   5.567
 4235SOL     OW13603   6.639   4.544   5.498
 4235SOL    HW113604   6.708   4.616   5.501
 4235SOL    HW213605   6.550   4.583   5.474
 4236SOL     OW13606   0.299   5.243   2.437
 4236SOL    HW113607   0.386   5.291   2.437
 4236SOL    HW213608   0.273   5.220   2.344
 4237SOL     OW13609   6.845   3.725   4.086
 4237SOL    HW113610   6.942   3.734   4.106
 4237SOL    HW213611   6.821   3.628   4.080
 4238SOL     OW13612   1.489   1.135   3.133
 4238SOL    HW113613   1.572   1.173   3.092
 4238SOL    HW213614   1.432   1.095   3.062
 4239SOL     OW13615   4.441   0.939   3.082
 4239SOL    HW113616   4.496   0.856   3.097
 4239SOL    HW213617   4.487   1.017   3.123
 4240SOL     OW13618   1.571   5.191   0.222
 4240SOL    HW113619   1.503   5.244   0.171
 4240SOL    HW213620   1.569   5.219   0.318
 4241SOL     OW13621   0.426   1.808   0.645
 4241SOL    HW113622   0.444   1.714   0.672
 4241SOL    HW213623   0.349   1.844   0.698
 4242SOL     OW13624   2.673   2.343   4.295
 4242SOL    HW113625   2.692   2.385   4.383
 4242SOL    HW213626   2.750   2.286   4.268
 4243SOL     OW13627   5.238   0.847   2.729
 4243SOL    HW113628   5.275   0.814   2.815
 4243SOL    HW213629   5.140   0.864   2.738
 4244SOL     OW13630   3.763   3.646   2.174
 4244SOL    HW113631   3.758   3.736   2.131
 4244SOL    HW213632   3.683   3.634   2.234
 4245SOL     OW13633   6.756   1.961   5.860
 4245SOL    HW113634   6.679   1.917   5.814
 4245SOL    HW213635   6.722   2.029   5.925
 4246SOL     OW13636   6.492   3.895   2.739
 4246SOL    HW113637   6.438   3.947   2.805
 4246SOL    HW213638   6.572   3.856   2.784
 4247SOL     OW13639   0.152   6.021   4.777
 4247SOL    HW113640   0.175   6.034   4.680
 4247SOL    HW213641   0.202   6.088   4.832
 4248SOL     OW13642   1.539   2.391   5.214
 4248SOL    HW113643   1.622   2.358   5.168
 4248SOL    HW213644   1.479   2.313   5.234
 4249SOL     OW13645   6.781   3.053   5.700
 4249SOL    HW113646   6.797   3.144   5.663
 4249SOL    HW213647   6.860   3.024   5.755
 4250SOL     OW13648   0.004   4.845   3.331
 4250SOL    HW113649   6.981   4.822   3.416
 4250SOL    HW213650   0.087   4.896   3.353
 4251SOL     OW13651   5.973   3.991   0.585
 4251SOL    HW113652   5.926   3.911   0.547
 4251SOL    HW213653   6.055   3.961   0.635
 4252SOL     OW13654   6.569   5.720   4.907
 4252SOL    HW113655   6.650   5.774   4.884
 4252SOL    HW213656   6.551   5.654   4.834
 4253SOL     OW13657   4.034   0.723   1.707
 4253SOL    HW113658   4.042   0.793   1.635
 4253SOL    HW213659   3.938   0.696   1.716
 4254SOL     OW13660   1.627   3.116   1.614
 4254SOL    HW113661   1.610   3.033   1.561
 4254SOL    HW213662   1.539   3.158   1.638
 4255SOL     OW13663   5.902   2.527   3.731
 4255SOL    HW113664   5.851   2.443   3.753
 4255SOL    HW213665   5.838   2.597   3.701
 4256SOL     OW13666   1.622   7.003   1.343
 4256SOL    HW113667   1.582   0.037   1.412
 4256SOL    HW213668   1.558   6.929   1.322
 4257SOL     OW13669   3.616   1.654   5.435
 4257SOL    HW113670   3.555   1.651   5.514
 4257SOL    HW213671   3.695   1.596   5.451
 4258SOL     OW13672   5.895   6.753   2.156
 4258SOL    HW113673   5.889   6.747   2.256
 4258SOL    HW213674   5.986   6.724   2.126
 4259SOL     OW13675   2.354   1.415   6.854
 4259SOL    HW113676   2.283   1.347   6.872
 4259SOL    HW213677   2.359   1.432   6.755
 4260SOL     OW13678   4.377   5.960   3.757
 4260SOL    HW113679   4.314   6.024   3.713
 4260SOL    HW213680   4.459   6.010   3.785
 4261SOL     OW13681   2.815   6.721   1.546
 4261SOL    HW113682   2.815   6.775   1.630
 4261SOL    HW213683   2.904   6.680   1.532
 4262SOL     OW13684   1.841   5.222   5.643
 4262SOL    HW113685   1.878   5.129   5.634
 4262SOL    HW213686   1.805   5.252   5.554
 4263SOL     OW13687   2.719   6.468   4.635
 4263SOL    HW113688   2.691   6.553   4.678
 4263SOL    HW213689   2.812   6.445   4.664
 4264SOL     OW13690   0.118   1.803   0.431
 4264SOL    HW113691   0.181   1.880   0.433
 4264SOL    HW213692   0.024   1.836   0.425
 4265SOL     OW13693   6.616   2.036   0.357
 4265SOL    HW113694   6.554   1.975   0.405
 4265SOL    HW213695   6.585   2.050   0.263
 4266SOL     OW13696   3.155   5.450   0.168
 4266SOL    HW113697   3.152   5.436   0.069
 4266SOL    HW213698   3.065   5.483   0.200
 4267SOL     OW13699   2.118   3.854   4.945
 4267SOL    HW113700   2.170   3.933   4.977
 4267SOL    HW213701   2.179   3.776   4.932
 4268SOL     OW13702   1.495   6.558   0.203
 4268SOL    HW113703   1.561   6.568   0.277
 4268SOL    HW213704   1.497   6.463   0.169
 4269SOL     OW13705   2.527   2.308   0.248
 4269SOL    HW113706   2.504   2.258   0.331
 4269SOL    HW213707   2.571   2.395   0.272
 4270SOL     OW13708   3.775   3.220   4.625
 4270SOL    HW113709   3.774   3.217   4.525
 4270SOL    HW213710   3.682   3.238   4.658
 4271SOL     OW13711   0.085   0.150   5.372
 4271SOL    HW113712   0.010   0.208   5.340
 4271SOL    HW213713   0.048   0.076   5.429
 4272SOL     OW13714   0.089   4.780   4.853
 4272SOL    HW113715   0.158   4.852   4.859
 4272SOL    HW213716   0.134   4.690   4.850
 4273SOL     OW13717   4.714   6.353   4.649
 4273SOL    HW113718   4.794   6.368   4.591
 4273SOL    HW213719   4.670   6.267   4.625
 4274SOL     OW13720   0.660   6.687   3.107
 4274SOL    HW113721   0.686   6.673   3.012
 4274SOL    HW213722   0.597   6.615   3.136
 4275SOL     OW13723   0.014   0.744   5.900
 4275SOL    HW113724   6.972   0.782   5.837
 4275SOL    HW213725   7.003   0.747   5.993
 4276SOL     OW13726   1.558   5.486   2.480
 4276SOL    HW113727   1.633   5.483   2.414
 4276SOL    HW213728   1.513   5.397   2.483
 4277SOL     OW13729   6.856   4.889   3.864
 4277SOL    HW113730   6.911   4.819   3.908
 4277SOL    HW213731   6.805   4.941   3.933
 4278SOL     OW13732   6.757   6.636   4.938
 4278SOL    HW113733   6.783   6.541   4.958
 4278SOL    HW213734   6.693   6.668   5.007
 4279SOL     OW13735   3.653   6.536   5.607
 4279SOL    HW113736   3.654   6.560   5.510
 4279SOL    HW213737   3.580   6.586   5.653
 4280SOL     OW13738   6.168   1.433   5.311
 4280SOL    HW113739   6.172   1.520   5.359
 4280SOL    HW213740   6.174   1.358   5.377
 4281SOL     OW13741   1.762   4.737   4.427
 4281SOL    HW113742   1.704   4.729   4.346
 4281SOL    HW213743   1.840   4.796   4.407
 4282SOL     OW13744   2.926   2.224   0.055
 4282SOL    HW113745   2.835   2.244   0.020
 4282SOL    HW213746   2.994   2.279   0.006
 4283SOL     OW13747   1.422   0.301   3.656
 4283SOL    HW113748   1.339   0.349   3.684
 4283SOL    HW213749   1.501   0.339   3.704
 4284SOL     OW13750   5.707   0.085   2.784
 4284SOL    HW113751   5.749   0.059   2.871
 4284SOL    HW213752   5.610   0.105   2.797
 4285SOL     OW13753   0.023   0.040   5.961
 4285SOL    HW113754   0.063   0.036   6.053
 4285SOL    HW213755   6.975   6.999   5.954
 4286SOL     OW13756   4.665   5.211   6.267
 4286SOL    HW113757   4.585   5.266   6.245
 4286SOL    HW213758   4.653   5.166   6.355
 4287SOL     OW13759   5.833   0.577   4.844
 4287SOL    HW113760   5.911   0.620   4.889
 4287SOL    HW213761   5.748   0.610   4.885
 4288SOL     OW13762   1.038   6.883   3.417
 4288SOL    HW113763   1.024   6.976   3.450
 4288SOL    HW213764   0.975   6.864   3.342
 4289SOL     OW13765   5.474   2.642   1.860
 4289SOL    HW113766   5.396   2.621   1.801
 4289SOL    HW213767   5.479   2.576   1.935
 4290SOL     OW13768   2.365   6.594   1.376
 4290SOL    HW113769   2.267   6.605   1.362
 4290SOL    HW213770   2.405   6.683   1.400
 4291SOL     OW13771   5.153   3.193   1.157
 4291SOL    HW113772   5.239   3.244   1.160
 4291SOL    HW213773   5.116   3.185   1.249
 4292SOL     OW13774   6.074   4.659   5.464
 4292SOL    HW113775   6.076   4.657   5.564
 4292SOL    HW213776   6.072   4.754   5.432
 4293SOL     OW13777   6.450   3.900   6.451
 4293SOL    HW113778   6.541   3.871   6.421
 4293SOL    HW213779   6.381   3.849   6.400
 4294SOL     OW13780   4.190   2.871   6.764
 4294SOL    HW113781   4.176   2.786   6.714
 4294SOL    HW213782   4.233   2.852   6.852
 4295SOL     OW13783   4.113   7.004   4.468
 4295SOL    HW113784   4.065   6.988   4.554
 4295SOL    HW213785   4.115   6.919   4.415
 4296SOL     OW13786   2.816   1.976   0.303
 4296SOL    HW113787   2.834   2.055   0.362
 4296SOL    HW213788   2.761   2.004   0.225
 4297SOL     OW13789   4.790   6.908   5.102
 4297SOL    HW113790   4.850   6.988   5.094
 4297SOL    HW213791   4.840   6.834   5.147
 4298SOL     OW13792   1.356   5.360   0.455
 4298SOL    HW113793   1.313   5.270   0.458
 4298SOL    HW213794   1.317   5.414   0.381
 4299SOL     OW13795   1.527   3.364   6.354
 4299SOL    HW113796   1.521   3.293   6.284
 4299SOL    HW213797   1.563   3.448   6.313
 4300SOL     OW13798   2.693   1.090   6.037
 4300SOL    HW113799   2.678   1.182   6.001
 4300SOL    HW213800   2.625   1.069   6.107
 4301SOL     OW13801   2.997   1.551   0.316
 4301SOL    HW113802   3.040   1.479   0.370
 4301SOL    HW213803   3.031   1.640   0.346
 4302SOL     OW13804   1.486   6.061   5.922
 4302SOL    HW113805   1.444   5.970   5.928
 4302SOL    HW213806   1.423   6.128   5.961
 4303SOL     OW13807   6.135   4.409   2.975
 4303SOL    HW113808   6.109   4.473   2.903
 4303SOL    HW213809   6.068   4.335   2.980
 4304SOL     OW13810   3.245   3.783   4.290
 4304SOL    HW113811   3.297   3.863   4.317
 4304SOL    HW213812   3.152   3.811   4.264
 4305SOL     OW13813   6.072   1.416   3.706
 4305SOL    HW113814   6.149   1.428   3.769
 4305SOL    HW213815   6.066   1.321   3.677
 4306SOL     OW13816   0.096   3.879   6.544
 4306SOL    HW113817   0.027   3.818   6.582
 4306SOL    HW213818   0.175   3.826   6.514
 4307SOL     OW13819   4.757   4.332   5.530
 4307SOL    HW113820   4.843   4.348   5.579
 4307SOL    HW213821   4.712   4.251   5.569
 4308SOL     OW13822   4.816   6.085   5.883
 4308SOL    HW113823   4.762   6.159   5.842
 4308SOL    HW213824   4.760   6.032   5.945
 4309SOL     OW13825   1.159   0.277   0.410
 4309SOL    HW113826   1.225   0.333   0.459
 4309SOL    HW213827   1.132   0.199   0.466
 4310SOL     OW13828   1.780   2.579   3.982
 4310SOL    HW113829   1.871   2.618   4.001
 4310SOL    HW213830   1.713   2.653   3.979
 4311SOL     OW13831   1.305   6.165   2.977
 4311SOL    HW113832   1.247   6.246   2.989
 4311SOL    HW213833   1.264   6.088   3.025
 4312SOL     OW13834   1.243   5.706   1.816
 4312SOL    HW113835   1.293   5.624   1.842
 4312SOL    HW213836   1.307   5.782   1.802
 4313SOL     OW13837   5.936   1.133   1.576
 4313SOL    HW113838   5.841   1.151   1.601
 4313SOL    HW213839   5.940   1.099   1.483
 4314SOL     OW13840   4.752   2.789   2.839
 4314SOL    HW113841   4.738   2.765   2.743
 4314SOL    HW213842   4.685   2.741   2.895
 4315SOL     OW13843   2.521   0.550   2.187
 4315SOL    HW113844   2.446   0.612   2.163
 4315SOL    HW213845   2.512   0.466   2.133
 4316SOL     OW13846   5.055   6.856   1.039
 4316SOL    HW113847   5.129   6.809   1.087
 4316SOL    HW213848   5.084   6.876   0.945
 4317SOL     OW13849   3.116   1.227   5.442
 4317SOL    HW113850   3.108   1.201   5.538
 4317SOL    HW213851   3.047   1.296   5.421
 4318SOL     OW13852   0.866   3.724   3.801
 4318SOL    HW113853   0.865   3.740   3.702
 4318SOL    HW213854   0.926   3.791   3.845
 4319SOL     OW13855   2.329   3.646   6.680
 4319SOL    HW113856   2.355   3.737   6.648
 4319SOL    HW213857   2.276   3.600   6.609
 4320SOL     OW13858   1.482   6.264   2.306
 4320SOL    HW113859   1.416   6.213   2.361
 4320SOL    HW213860   1.511   6.346   2.355
 4321SOL     OW13861   6.090   0.797   4.879
 4321SOL    HW113862   6.011   0.837   4.833
 4321SOL    HW213863   6.163   0.781   4.812
 4322SOL     OW13864   6.405   1.429   6.415
 4322SOL    HW113865   6.429   1.519   6.378
 4322SOL    HW213866   6.488   1.372   6.420
 4323SOL     OW13867   5.291   3.056   2.121
 4323SOL    HW113868   5.344   3.084   2.041
 4323SOL    HW213869   5.301   2.957   2.134
 4324SOL     OW13870   5.842   4.349   6.571
 4324SOL    HW113871   5.902   4.342   6.491
 4324SOL    HW213872   5.879   4.417   6.635
 4325SOL     OW13873   1.916   0.908   0.488
 4325SOL    HW113874   1.950   0.875   0.400
 4325SOL    HW213875   1.839   0.970   0.472
 4326SOL     OW13876   6.432   3.022   5.066
 4326SOL    HW113877   6.516   3.060   5.029
 4326SOL    HW213878   6.451   2.936   5.112
 4327SOL     OW13879   5.710   5.029   2.354
 4327SOL    HW113880   5.688   5.036   2.452
 4327SOL    HW213881   5.626   5.016   2.302
 4328SOL     OW13882   4.278   4.577   5.505
 4328SOL    HW113883   4.333   4.660   5.496
 4328SOL    HW213884   4.335   4.497   5.488
 4329SOL     OW13885   3.261   1.723   5.820
 4329SOL    HW113886   3.294   1.730   5.914
 4329SOL    HW213887   3.161   1.711   5.821
 4330SOL     OW13888   2.836   0.164   5.483
 4330SOL    HW113889   2.846   0.263   5.493
 4330SOL    HW213890   2.764   0.132   5.544
 4331SOL     OW13891   5.248   3.293   0.652
 4331SOL    HW113892   5.251   3.204   0.698
 4331SOL    HW213893   5.153   3.318   0.633
 4332SOL     OW13894   5.261   3.504   1.923
 4332SOL    HW113895   5.302   3.533   1.837
 4332SOL    HW213896   5.162   3.517   1.919
 4333SOL     OW13897   5.379   1.425   5.500
 4333SOL    HW113898   5.318   1.433   5.422
 4333SOL    HW213899   5.451   1.358   5.481
 4334SOL     OW13900   2.878   2.119   1.824
 4334SOL    HW113901   2.803   2.161   1.772
 4334SOL    HW213902   2.911   2.183   1.893
 4335SOL     OW13903   2.874   3.633   4.044
 4335SOL    HW113904   2.794   3.574   4.061
 4335SOL    HW213905   2.889   3.640   3.945
 4336SOL     OW13906   1.227   6.454   5.436
 4336SOL    HW113907   1.274   6.502   5.509
 4336SOL    HW213908   1.198   6.519   5.366
 4337SOL     OW13909   0.713   5.219   0.175
 4337SOL    HW113910   0.795   5.270   0.150
 4337SOL    HW213911   0.691   5.236   0.271
 4338SOL     OW13912   5.128   5.255   4.834
 4338SOL    HW113913   5.139   5.347   4.795
 4338SOL    HW213914   5.148   5.258   4.932
 4339SOL     OW13915   5.483   2.565   4.740
 4339SOL    HW113916   5.472   2.605   4.830
 4339SOL    HW213917   5.467   2.466   4.744
 4340SOL     OW13918   6.557   3.328   2.092
 4340SOL    HW113919   6.477   3.372   2.050
 4340SOL    HW213920   6.636   3.390   2.087
 4341SOL     OW13921   1.246   3.671   1.989
 4341SOL    HW113922   1.167   3.711   2.036
 4341SOL    HW213923   1.288   3.740   1.931
 4342SOL     OW13924   6.516   2.647   3.586
 4342SOL    HW113925   6.425   2.689   3.596
 4342SOL    HW213926   6.505   2.549   3.567
 4343SOL     OW13927   3.603   0.766   6.983
 4343SOL    HW113928   3.597   0.769   6.883
 4343SOL    HW213929   3.686   0.815   7.012
 4344SOL     OW13930   1.635   5.083   3.294
 4344SOL    HW113931   1.550   5.056   3.339
 4344SOL    HW213932   1.659   5.015   3.224
 4345SOL     OW13933   1.616   3.019   5.235
 4345SOL    HW113934   1.639   2.993   5.141
 4345SOL    HW213935   1.697   3.058   5.280
 4346SOL     OW13936   2.264   3.168   1.814
 4346SOL    HW113937   2.258   3.253   1.761
 4346SOL    HW213938   2.230   3.185   1.907
 4347SOL     OW13939   0.089   0.731   2.022
 4347SOL    HW113940   0.006   0.757   1.973
 4347SOL    HW213941   0.103   0.632   2.016
 4348SOL     OW13942   0.060   3.144   2.362
 4348SOL    HW113943   0.144   3.163   2.412
 4348SOL    HW213944   0.069   3.177   2.268
 4349SOL     OW13945   0.453   1.682   3.100
 4349SOL    HW113946   0.417   1.655   3.010
 4349SOL    HW213947   0.483   1.601   3.149
 4350SOL     OW13948   4.721   2.290   4.225
 4350SOL    HW113949   4.629   2.283   4.264
 4350SOL    HW213950   4.787   2.257   4.292
 4351SOL     OW13951   2.145   6.454   1.826
 4351SOL    HW113952   2.183   6.381   1.770
 4351SOL    HW213953   2.218   6.497   1.880
 4352SOL     OW13954   0.430   2.199   1.595
 4352SOL    HW113955   0.431   2.298   1.602
 4352SOL    HW213956   0.416   2.159   1.686
 4353SOL     OW13957   2.448   5.582   1.118
 4353SOL    HW113958   2.524   5.608   1.059
 4353SOL    HW213959   2.387   5.521   1.069
 4354SOL     OW13960   2.250   6.582   6.783
 4354SOL    HW113961   2.215   6.535   6.863
 4354SOL    HW213962   2.346   6.606   6.797
 4355SOL     OW13963   3.880   0.425   1.869
 4355SOL    HW113964   3.900   0.490   1.942
 4355SOL    HW213965   3.961   0.370   1.850
 4356SOL     OW13966   4.705   4.046   1.790
 4356SOL    HW113967   4.759   4.120   1.830
 4356SOL    HW213968   4.608   4.061   1.812
 4357SOL     OW13969   6.116   0.664   0.199
 4357SOL    HW113970   6.021   0.663   0.169
 4357SOL    HW213971   6.161   0.748   0.167
 4358SOL     OW13972   6.968   6.573   0.856
 4358SOL    HW113973   0.036   6.538   0.852
 4358SOL    HW213974   6.910   6.507   0.904
 4359SOL     OW13975   1.430   2.254   4.549
 4359SOL    HW113976   1.357   2.314   4.517
 4359SOL    HW213977   1.502   2.309   4.591
 4360SOL     OW13978   0.850   3.729   2.471
 4360SOL    HW113979   0.946   3.723   2.495
 4360SOL    HW213980   0.814   3.637   2.454
 4361SOL     OW13981   3.638   3.065   1.717
 4361SOL    HW113982   3.724   3.046   1.764
 4361SOL    HW213983   3.581   2.983   1.717
 4362SOL     OW13984   6.029   3.743   5.689
 4362SOL    HW113985   5.980   3.728   5.774
 4362SOL    HW213986   5.964   3.764   5.616
 4363SOL     OW13987   4.648   2.121   5.941
 4363SOL    HW113988   4.645   2.041   5.882
 4363SOL    HW213989   4.632   2.093   6.036
 4364SOL     OW13990   2.930   3.651   5.510
 4364SOL    HW113991   2.962   3.739   5.547
 4364SOL    HW213992   3.004   3.608   5.459
 4365SOL     OW13993   2.954   1.627   2.413
 4365SOL    HW113994   2.971   1.568   2.334
 4365SOL    HW213995   2.881   1.587   2.469
 4366SOL     OW13996   6.134   6.522   1.347
 4366SOL    HW113997   6.204   6.550   1.413
 4366SOL    HW213998   6.176   6.464   1.277
 4367SOL     OW13999   0.914   4.707   4.902
 4367SOL    HW114000   0.895   4.609   4.899
 4367SOL    HW214001   1.010   4.723   4.881
 4368SOL     OW14002   4.747   5.100   1.124
 4368SOL    HW114003   4.829   5.145   1.159
 4368SOL    HW214004   4.765   5.066   1.031
 4369SOL     OW14005   5.004   5.369   2.101
 4369SOL    HW114006   4.986   5.399   2.194
 4369SOL    HW214007   5.102   5.351   2.090
 4370SOL     OW14008   5.841   4.726   3.176
 4370SOL    HW114009   5.932   4.685   3.180
 4370SOL    HW214010   5.849   4.825   3.194
 4371SOL     OW14011   6.479   0.717   2.079
 4371SOL    HW114012   6.414   0.647   2.048
 4371SOL    HW214013   6.444   0.807   2.053
 4372SOL     OW14014   4.850   1.065   2.959
 4372SOL    HW114015   4.767   1.049   3.013
 4372SOL    HW214016   4.893   1.150   2.988
 4373SOL     OW14017   6.639   3.130   6.551
 4373SOL    HW114018   6.577   3.108   6.476
 4373SOL    HW214019   6.669   3.046   6.596
 4374SOL     OW14020   1.458   2.020   1.694
 4374SOL    HW114021   1.485   2.109   1.731
 4374SOL    HW214022   1.453   1.954   1.769
 4375SOL     OW14023   2.355   6.859   3.969
 4375SOL    HW114024   2.294   6.817   3.903
 4375SOL    HW214025   2.358   6.803   4.052
 4376SOL     OW14026   6.619   0.066   2.442
 4376SOL    HW114027   6.666   0.067   2.354
 4376SOL    HW214028   6.591   0.160   2.466
 4377SOL     OW14029   5.619   3.497   0.327
 4377SOL    HW114030   5.664   3.462   0.245
 4377SOL    HW214031   5.550   3.431   0.357
 4378SOL     OW14032   2.274   0.441   3.409
 4378SOL    HW114033   2.214   0.435   3.328
 4378SOL    HW214034   2.221   0.420   3.491
 4379SOL     OW14035   2.502   1.016   4.374
 4379SOL    HW114036   2.422   0.977   4.419
 4379SOL    HW214037   2.549   0.946   4.321
 4380SOL     OW14038   1.542   1.119   1.253
 4380SOL    HW114039   1.513   1.078   1.339
 4380SOL    HW214040   1.621   1.070   1.217
 4381SOL     OW14041   1.583   5.596   5.084
 4381SOL    HW114042   1.605   5.540   5.005
 4381SOL    HW214043   1.484   5.600   5.096
 4382SOL     OW14044   6.634   3.172   6.073
 4382SOL    HW114045   6.567   3.242   6.095
 4382SOL    HW214046   6.709   3.213   6.020
 4383SOL     OW14047   5.821   3.494   6.434
 4383SOL    HW114048   5.726   3.471   6.457
 4383SOL    HW214049   5.857   3.425   6.371
 4384SOL     OW14050   6.765   1.006   3.394
 4384SOL    HW114051   6.863   1.014   3.410
 4384SOL    HW214052   6.715   1.029   3.478
 4385SOL     OW14053   4.610   2.341   4.748
 4385SOL    HW114054   4.566   2.397   4.677
 4385SOL    HW214055   4.551   2.335   4.828
 4386SOL     OW14056   1.097   4.193   5.957
 4386SOL    HW114057   1.125   4.102   5.987
 4386SOL    HW214058   1.148   4.262   6.008
 4387SOL     OW14059   5.779   3.133   1.201
 4387SOL    HW114060   5.730   3.081   1.131
 4387SOL    HW214061   5.819   3.069   1.267
 4388SOL     OW14062   5.370   2.027   6.347
 4388SOL    HW114063   5.417   2.054   6.263
 4388SOL    HW214064   5.380   2.100   6.415
 4389SOL     OW14065   6.920   3.359   1.611
 4389SOL    HW114066   6.862   3.314   1.544
 4389SOL    HW214067   6.877   3.444   1.640
 4390SOL     OW14068   5.490   6.872   0.534
 4390SOL    HW114069   5.425   6.947   0.524
 4390SOL    HW214070   5.564   6.899   0.595
 4391SOL     OW14071   1.901   5.259   6.371
 4391SOL    HW114072   1.867   5.294   6.284
 4391SOL    HW214073   1.993   5.295   6.388
 4392SOL     OW14074   0.664   1.892   4.164
 4392SOL    HW114075   0.703   1.816   4.113
 4392SOL    HW214076   0.610   1.856   4.240
 4393SOL     OW14077   6.300   0.510   2.027
 4393SOL    HW114078   6.204   0.528   2.002
 4393SOL    HW214079   6.302   0.449   2.107
 4394SOL     OW14080   0.957   0.336   1.299
 4394SOL    HW114081   1.013   0.356   1.218
 4394SOL    HW214082   0.886   0.405   1.307
 4395SOL     OW14083   1.921   0.142   1.595
 4395SOL    HW114084   1.917   0.056   1.544
 4395SOL    HW214085   1.959   0.213   1.537
 4396SOL     OW14086   1.499   1.614   3.704
 4396SOL    HW114087   1.415   1.560   3.693
 4396SOL    HW214088   1.533   1.641   3.615
 4397SOL     OW14089   2.368   2.891   3.915
 4397SOL    HW114090   2.377   2.816   3.850
 4397SOL    HW214091   2.448   2.894   3.975
 4398SOL     OW14092   1.879   3.665   6.061
 4398SOL    HW114093   1.922   3.718   5.988
 4398SOL    HW214094   1.949   3.623   6.117
 4399SOL     OW14095   1.989   6.138   1.411
 4399SOL    HW114096   2.060   6.207   1.423
 4399SOL    HW214097   2.017   6.053   1.455
 4400SOL     OW14098   1.416   6.571   3.740
 4400SOL    HW114099   1.408   6.495   3.676
 4400SOL    HW214100   1.325   6.599   3.771
 4401SOL     OW14101   3.840   6.377   5.444
 4401SOL    HW114102   3.796   6.442   5.382
 4401SOL    HW214103   3.802   6.285   5.429
 4402SOL     OW14104   1.377   0.800   2.034
 4402SOL    HW114105   1.282   0.772   2.049
 4402SOL    HW214106   1.437   0.723   2.054
 4403SOL     OW14107   0.680   5.505   1.250
 4403SOL    HW114108   0.619   5.564   1.303
 4403SOL    HW214109   0.771   5.506   1.292
 4404SOL     OW14110   1.052   5.327   5.337
 4404SOL    HW114111   1.152   5.328   5.337
 4404SOL    HW214112   1.020   5.254   5.397
 4405SOL     OW14113   2.616   4.897   3.029
 4405SOL    HW114114   2.578   4.974   2.978
 4405SOL    HW214115   2.562   4.882   3.111
 4406SOL     OW14116   6.348   3.421   1.683
 4406SOL    HW114117   6.431   3.452   1.729
 4406SOL    HW214118   6.275   3.488   1.696
 4407SOL     OW14119   7.020   6.051   1.756
 4407SOL    HW114120   0.059   5.995   1.703
 4407SOL    HW214121   0.041   6.131   1.792
 4408SOL     OW14122   3.823   6.486   6.965
 4408SOL    HW114123   3.748   6.546   6.938
 4408SOL    HW214124   3.904   6.505   6.909
 4409SOL     OW14125   4.162   0.843   2.529
 4409SOL    HW114126   4.224   0.765   2.525
 4409SOL    HW214127   4.102   0.834   2.608
 4410SOL     OW14128   0.111   6.315   1.336
 4410SOL    HW114129   0.055   6.233   1.327
 4410SOL    HW214130   0.165   6.328   1.253
 4411SOL     OW14131   3.545   4.642   5.563
 4411SOL    HW114132   3.622   4.665   5.621
 4411SOL    HW214133   3.460   4.674   5.605
 4412SOL     OW14134   5.223   7.024   4.106
 4412SOL    HW114135   5.272   0.085   4.112
 4412SOL    HW214136   5.129   0.015   4.079
 4413SOL     OW14137   3.504   6.848   4.224
 4413SOL    HW114138   3.406   6.841   4.207
 4413SOL    HW214139   3.537   6.936   4.190
 4414SOL     OW14140   5.130   5.335   1.550
 4414SOL    HW114141   5.153   5.344   1.646
 4414SOL    HW214142   5.033   5.354   1.537
 4415SOL     OW14143   3.396   3.935   1.465
 4415SOL    HW114144   3.382   3.889   1.377
 4415SOL    HW214145   3.378   4.033   1.454
 4416SOL     OW14146   3.898   1.547   4.161
 4416SOL    HW114147   3.895   1.510   4.068
 4416SOL    HW214148   3.836   1.495   4.220
 4417SOL     OW14149   6.554   2.627   4.104
 4417SOL    HW114150   6.587   2.561   4.036
 4417SOL    HW214151   6.560   2.586   4.195
 4418SOL     OW14152   6.583   1.449   1.597
 4418SOL    HW114153   6.600   1.528   1.656
 4418SOL    HW214154   6.520   1.386   1.643
 4419SOL     OW14155   6.330   5.940   6.032
 4419SOL    HW114156   6.267   5.890   5.974
 4419SOL    HW214157   6.397   5.877   6.072
 4420SOL     OW14158   3.956   2.407   1.528
 4420SOL    HW114159   3.956   2.361   1.617
 4420SOL    HW214160   3.878   2.373   1.474
 4421SOL     OW14161   1.214   3.190   4.943
 4421SOL    HW114162   1.215   3.276   4.994
 4421SOL    HW214163   1.252   3.117   5.000
 4422SOL     OW14164   1.151   5.314   6.913
 4422SOL    HW114165   1.057   5.282   6.920
 4422SOL    HW214166   1.154   5.398   6.860
 4423SOL     OW14167   6.358   4.461   5.701
 4423SOL    HW114168   6.361   4.502   5.610
 4423SOL    HW214169   6.442   4.409   5.717
 4424SOL     OW14170   4.837   5.845   4.157
 4424SOL    HW114171   4.813   5.809   4.067
 4424SOL    HW214172   4.929   5.883   4.154
 4425SOL     OW14173   2.247   5.209   1.179
 4425SOL    HW114174   2.235   5.173   1.272
 4425SOL    HW214175   2.159   5.241   1.145
 4426SOL     OW14176   0.651   0.439   3.713
 4426SOL    HW114177   0.690   0.530   3.696
 4426SOL    HW214178   0.686   0.404   3.800
 4427SOL     OW14179   3.453   6.427   2.578
 4427SOL    HW114180   3.493   6.458   2.492
 4427SOL    HW214181   3.518   6.442   2.652
 4428SOL     OW14182   4.833   0.771   4.391
 4428SOL    HW114183   4.919   0.760   4.341
 4428SOL    HW214184   4.825   0.866   4.424
 4429SOL     OW14185   3.265   6.793   3.032
 4429SOL    HW114186   3.245   6.807   3.129
 4429SOL    HW214187   3.180   6.793   2.979
 4430SOL     OW14188   5.808   4.531   3.894
 4430SOL    HW114189   5.901   4.513   3.928
 4430SOL    HW214190   5.777   4.620   3.928
 4431SOL     OW14191   3.283   0.188   3.721
 4431SOL    HW114192   3.366   0.202   3.775
 4431SOL    HW214193   3.210   0.247   3.757
 4432SOL     OW14194   1.715   4.163   6.750
 4432SOL    HW114195   1.648   4.236   6.763
 4432SOL    HW214196   1.683   4.100   6.679
 4433SOL     OW14197   0.855   1.902   4.939
 4433SOL    HW114198   0.822   1.808   4.947
 4433SOL    HW214199   0.891   1.917   4.848
 4434SOL     OW14200   0.076   1.747   1.555
 4434SOL    HW114201   0.131   1.830   1.541
 4434SOL    HW214202   0.135   1.667   1.552
 4435SOL     OW14203   3.020   3.639   0.563
 4435SOL    HW114204   2.984   3.585   0.487
 4435SOL    HW214205   2.975   3.729   0.565
 4436SOL     OW14206   4.545   2.146   1.461
 4436SOL    HW114207   4.489   2.152   1.544
 4436SOL    HW214208   4.531   2.056   1.419
 4437SOL     OW14209   0.302   3.658   2.541
 4437SOL    HW114210   0.370   3.687   2.608
 4437SOL    HW214211   0.210   3.680   2.575
 4438SOL     OW14212   4.254   6.619   5.512
 4438SOL    HW114213   4.288   6.625   5.606
 4438SOL    HW214214   4.312   6.674   5.452
 4439SOL     OW14215   1.339   6.526   3.113
 4439SOL    HW114216   1.341   6.626   3.101
 4439SOL    HW214217   1.387   6.502   3.197
 4440SOL     OW14218   2.050   4.969   1.179
 4440SOL    HW114219   1.964   4.948   1.225
 4440SOL    HW214220   2.043   5.058   1.134
 4441SOL     OW14221   1.411   1.966   1.107
 4441SOL    HW114222   1.377   2.017   1.186
 4441SOL    HW214223   1.410   1.868   1.128
 4442SOL     OW14224   1.572   4.916   5.587
 4442SOL    HW114225   1.488   4.878   5.625
 4442SOL    HW214226   1.557   5.012   5.563
 4443SOL     OW14227   0.774   4.640   6.525
 4443SOL    HW114228   0.765   4.547   6.491
 4443SOL    HW214229   0.738   4.646   6.618
 4444SOL     OW14230   4.622   4.028   0.717
 4444SOL    HW114231   4.679   4.036   0.799
 4444SOL    HW214232   4.668   4.073   0.640
 4445SOL     OW14233   0.464   5.257   6.378
 4445SOL    HW114234   0.364   5.263   6.378
 4445SOL    HW214235   0.502   5.339   6.335
 4446SOL     OW14236   4.988   1.510   0.875
 4446SOL    HW114237   5.024   1.431   0.827
 4446SOL    HW214238   4.892   1.523   0.851
 4447SOL     OW14239   5.298   4.625   5.142
 4447SOL    HW114240   5.317   4.605   5.238
 4447SOL    HW214241   5.216   4.683   5.136
 4448SOL     OW14242   3.024   6.430   1.136
 4448SOL    HW114243   2.967   6.444   1.217
 4448SOL    HW214244   3.001   6.498   1.067
 4449SOL     OW14245   4.555   1.284   6.529
 4449SOL    HW114246   4.485   1.228   6.572
 4449SOL    HW214247   4.585   1.354   6.594
 4450SOL     OW14248   3.858   1.199   0.276
 4450SOL    HW114249   3.953   1.224   0.257
 4450SOL    HW214250   3.798   1.248   0.213
 4451SOL     OW14251   4.980   4.889   3.746
 4451SOL    HW114252   4.903   4.848   3.796
 4451SOL    HW214253   4.947   4.925   3.659
 4452SOL     OW14254   5.280   5.924   4.594
 4452SOL    HW114255   5.316   6.011   4.628
 4452SOL    HW214256   5.356   5.868   4.560
 4453SOL     OW14257   0.257   3.388   1.354
 4453SOL    HW114258   0.217   3.302   1.323
 4453SOL    HW214259   0.226   3.408   1.447
 4454SOL     OW14260   0.805   1.544   0.097
 4454SOL    HW114261   0.783   1.625   0.043
 4454SOL    HW214262   0.769   1.555   0.189
 4455SOL     OW14263   6.280   5.760   5.065
 4455SOL    HW114264   6.215   5.687   5.084
 4455SOL    HW214265   6.355   5.724   5.009
 4456SOL     OW14266   2.087   6.416   3.659
 4456SOL    HW114267   2.180   6.443   3.636
 4456SOL    HW214268   2.060   6.459   3.745
 4457SOL     OW14269   1.012   2.165   4.598
 4457SOL    HW114270   1.082   2.208   4.654
 4457SOL    HW214271   1.024   2.193   4.502
 4458SOL     OW14272   2.058   3.506   1.800
 4458SOL    HW114273   2.075   3.593   1.754
 4458SOL    HW214274   2.139   3.481   1.853
 4459SOL     OW14275   1.170   2.339   4.729
 4459SOL    HW114276   1.249   2.309   4.783
 4459SOL    HW214277   1.202   2.379   4.643
 4460SOL     OW14278   6.973   2.886   4.186
 4460SOL    HW114279   0.035   2.878   4.233
 4460SOL    HW214280   6.955   2.981   4.164
 4461SOL     OW14281   2.438   0.715   1.530
 4461SOL    HW114282   2.433   0.755   1.438
 4461SOL    HW214283   2.532   0.719   1.563
 4462SOL     OW14284   6.100   3.564   2.004
 4462SOL    HW114285   6.005   3.582   1.979
 4462SOL    HW214286   6.146   3.649   2.028
 4463SOL     OW14287   5.791   1.202   0.842
 4463SOL    HW114288   5.863   1.157   0.895
 4463SOL    HW214289   5.827   1.230   0.753
 4464SOL     OW14290   0.616   5.210   0.852
 4464SOL    HW114291   0.646   5.180   0.942
 4464SOL    HW214292   0.516   5.218   0.851
 4465SOL     OW14293   2.410   5.856   0.480
 4465SOL    HW114294   2.410   5.944   0.528
 4465SOL    HW214295   2.481   5.797   0.520
 4466SOL     OW14296   2.392   2.065   3.959
 4466SOL    HW114297   2.421   1.993   3.896
 4466SOL    HW214298   2.308   2.107   3.924
 4467SOL     OW14299   3.008   6.002   3.947
 4467SOL    HW114300   3.094   6.052   3.940
 4467SOL    HW214301   2.990   5.953   3.861
 4468SOL     OW14302   0.939   2.805   1.362
 4468SOL    HW114303   0.979   2.861   1.290
 4468SOL    HW214304   0.904   2.863   1.435
 4469SOL     OW14305   3.144   6.890   1.540
 4469SOL    HW114306   3.224   6.894   1.600
 4469SOL    HW214307   3.131   6.795   1.509
 4470SOL     OW14308   1.264   0.827   2.347
 4470SOL    HW114309   1.287   0.732   2.370
 4470SOL    HW214310   1.339   0.887   2.374
 4471SOL     OW14311   2.177   2.376   6.426
 4471SOL    HW114312   2.164   2.474   6.438
 4471SOL    HW214313   2.271   2.352   6.446
 4472SOL     OW14314   1.909   2.867   1.260
 4472SOL    HW114315   1.845   2.943   1.249
 4472SOL    HW214316   1.858   2.780   1.260
 4473SOL     OW14317   6.969   2.728   3.957
 4473SOL    HW114318   6.941   2.791   4.029
 4473SOL    HW214319   0.042   2.737   3.942
 4474SOL     OW14320   3.169   0.847   2.229
 4474SOL    HW114321   3.172   0.945   2.248
 4474SOL    HW214322   3.175   0.832   2.130
 4475SOL     OW14323   1.135   3.483   2.484
 4475SOL    HW114324   1.080   3.487   2.401
 4475SOL    HW214325   1.171   3.390   2.495
 4476SOL     OW14326   5.564   1.346   4.249
 4476SOL    HW114327   5.604   1.432   4.280
 4476SOL    HW214328   5.494   1.316   4.315
 4477SOL     OW14329   2.805   6.945   5.288
 4477SOL    HW114330   2.879   6.936   5.354
 4477SOL    HW214331   2.772   0.014   5.288
 4478SOL     OW14332   1.092   0.060   0.926
 4478SOL    HW114333   1.116   0.048   1.022
 4478SOL    HW214334   1.175   0.074   0.872
 4479SOL     OW14335   0.937   2.442   6.982
 4479SOL    HW114336   0.973   2.375   0.021
 4479SOL    HW214337   0.926   2.530   0.002
 4480SOL     OW14338   0.018   4.680   4.539
 4480SOL    HW114339   0.043   4.584   4.532
 4480SOL    HW214340   0.099   4.737   4.525
 4481SOL     OW14341   2.472   4.777   5.592
 4481SOL    HW114342   2.440   4.695   5.543
 4481SOL    HW214343   2.452   4.766   5.689
 4482SOL     OW14344   2.822   4.559   6.525
 4482SOL    HW114345   2.747   4.510   6.480
 4482SOL    HW214346   2.843   4.642   6.474
 4483SOL     OW14347   0.684   2.827   2.006
 4483SOL    HW114348   0.688   2.783   1.916
 4483SOL    HW214349   0.671   2.926   1.994
 4484SOL     OW14350   2.353   3.373   0.191
 4484SOL    HW114351   2.442   3.408   0.221
 4484SOL    HW214352   2.326   3.296   0.248
 4485SOL     OW14353   4.644   2.709   4.623
 4485SOL    HW114354   4.712   2.692   4.551
 4485SOL    HW214355   4.681   2.775   4.689
 4486SOL     OW14356   5.636   4.681   5.474
 4486SOL    HW114357   5.654   4.778   5.461
 4486SOL    HW214358   5.680   4.628   5.402
 4487SOL     OW14359   1.963   2.940   0.258
 4487SOL    HW114360   2.030   2.923   0.331
 4487SOL    HW214361   1.977   3.031   0.221
 4488SOL     OW14362   0.812   4.411   3.765
 4488SOL    HW114363   0.866   4.348   3.708
 4488SOL    HW214364   0.740   4.360   3.811
 4489SOL     OW14365   4.782   5.268   5.239
 4489SOL    HW114366   4.843   5.218   5.177
 4489SOL    HW214367   4.832   5.343   5.281
 4490SOL     OW14368   5.477   1.688   0.743
 4490SOL    HW114369   5.397   1.724   0.694
 4490SOL    HW214370   5.468   1.708   0.840
 4491SOL     OW14371   0.994   3.071   2.924
 4491SOL    HW114372   1.037   3.135   2.860
 4491SOL    HW214373   1.031   3.086   3.016
 4492SOL     OW14374   5.568   0.849   1.733
 4492SOL    HW114375   5.588   0.934   1.782
 4492SOL    HW214376   5.469   0.836   1.726
 4493SOL     OW14377   5.241   6.709   5.147
 4493SOL    HW114378   5.272   6.777   5.081
 4493SOL    HW214379   5.317   6.682   5.205
 4494SOL     OW14380   0.871   0.560   6.314
 4494SOL    HW114381   0.875   0.489   6.384
 4494SOL    HW214382   0.811   0.634   6.345
 4495SOL     OW14383   3.892   5.878   2.018
 4495SOL    HW114384   3.801   5.878   2.061
 4495SOL    HW214385   3.961   5.863   2.088
 4496SOL     OW14386   4.352   6.277   6.371
 4496SOL    HW114387   4.412   6.247   6.297
 4496SOL    HW214388   4.390   6.358   6.415
 4497SOL     OW14389   3.862   2.037   6.977
 4497SOL    HW114390   3.912   1.961   6.937
 4497SOL    HW214391   3.844   2.106   6.906
 4498SOL     OW14392   0.161   5.070   5.902
 4498SOL    HW114393   0.094   5.001   5.875
 4498SOL    HW214394   0.253   5.035   5.885
 4499SOL     OW14395   6.757   1.957   2.901
 4499SOL    HW114396   6.689   2.016   2.858
 4499SOL    HW214397   6.745   1.863   2.867
 4500SOL     OW14398   3.910   5.246   0.514
 4500SOL    HW114399   3.852   5.193   0.454
 4500SOL    HW214400   3.882   5.342   0.511
 4501SOL     OW14401   6.458   1.859   1.942
 4501SOL    HW114402   6.523   1.921   1.898
 4501SOL    HW214403   6.383   1.838   1.879
 4502SOL     OW14404   0.894   3.296   0.026
 4502SOL    HW114405   0.884   3.231   6.977
 4502SOL    HW214406   0.986   3.334   0.025
 4503SOL     OW14407   2.839   0.119   2.319
 4503SOL    HW114408   2.834   0.029   2.363
 4503SOL    HW214409   2.933   0.135   2.286
 4504SOL     OW14410   0.076   1.567   3.561
 4504SOL    HW114411   0.142   1.580   3.487
 4504SOL    HW214412   0.123   1.576   3.649
 4505SOL     OW14413   6.498   4.498   2.725
 4505SOL    HW114414   6.532   4.473   2.635
 4505SOL    HW214415   6.567   4.479   2.794
 4506SOL     OW14416   4.851   2.708   4.432
 4506SOL    HW114417   4.883   2.802   4.440
 4506SOL    HW214418   4.926   2.645   4.453
 4507SOL     OW14419   6.264   3.236   3.382
 4507SOL    HW114420   6.311   3.156   3.420
 4507SOL    HW214421   6.191   3.265   3.445
 4508SOL     OW14422   0.345   4.501   0.423
 4508SOL    HW114423   0.385   4.582   0.465
 4508SOL    HW214424   0.400   4.472   0.345
 4509SOL     OW14425   4.485   1.768   2.361
 4509SOL    HW114426   4.421   1.739   2.291
 4509SOL    HW214427   4.443   1.760   2.451
 4510SOL     OW14428   4.297   1.579   3.895
 4510SOL    HW114429   4.380   1.627   3.869
 4510SOL    HW214430   4.294   1.569   3.995
 4511SOL     OW14431   6.982   4.420   1.025
 4511SOL    HW114432   6.933   4.336   0.999
 4511SOL    HW214433   6.959   4.493   0.961
 4512SOL     OW14434   3.706   1.942   5.669
 4512SOL    HW114435   3.723   2.005   5.746
 4512SOL    HW214436   3.608   1.938   5.650
 4513SOL     OW14437   1.046   5.740   6.604
 4513SOL    HW114438   1.002   5.797   6.673
 4513SOL    HW214439   1.025   5.774   6.513
 4514SOL     OW14440   3.202   3.041   6.317
 4514SOL    HW114441   3.206   2.943   6.299
 4514SOL    HW214442   3.279   3.068   6.375
 4515SOL     OW14443   5.541   6.980   4.853
 4515SOL    HW114444   5.616   7.022   4.802
 4515SOL    HW214445   5.533   6.884   4.826
 4516SOL     OW14446   2.975   1.957   5.834
 4516SOL    HW114447   2.890   1.905   5.848
 4516SOL    HW214448   3.017   1.977   5.922
 4517SOL     OW14449   4.344   0.704   6.177
 4517SOL    HW114450   4.430   0.654   6.178
 4517SOL    HW214451   4.318   0.723   6.082
 4518SOL     OW14452   1.933   6.498   1.159
 4518SOL    HW114453   1.978   6.530   1.243
 4518SOL    HW214454   1.846   6.455   1.182
 4519SOL     OW14455   5.565   6.682   0.338
 4519SOL    HW114456   5.548   6.765   0.392
 4519SOL    HW214457   5.641   6.632   0.378
 4520SOL     OW14458   4.131   6.389   5.407
 4520SOL    HW114459   4.032   6.394   5.414
 4520SOL    HW214460   4.171   6.479   5.426
 4521SOL     OW14461   4.930   2.464   5.270
 4521SOL    HW114462   5.011   2.484   5.325
 4521SOL    HW214463   4.871   2.401   5.320
 4522SOL     OW14464   5.249   3.187   3.391
 4522SOL    HW114465   5.338   3.223   3.419
 4522SOL    HW214466   5.252   3.087   3.389
 4523SOL     OW14467   0.319   3.759   6.447
 4523SOL    HW114468   0.388   3.830   6.462
 4523SOL    HW214469   0.326   3.725   6.354
 4524SOL     OW14470   0.602   3.244   2.897
 4524SOL    HW114471   0.600   3.158   2.845
 4524SOL    HW214472   0.509   3.274   2.916
 4525SOL     OW14473   2.234   2.601   5.985
 4525SOL    HW114474   2.236   2.576   5.889
 4525SOL    HW214475   2.154   2.659   6.002
 4526SOL     OW14476   0.588   0.205   6.248
 4526SOL    HW114477   0.654   0.180   6.319
 4526SOL    HW214478   0.622   0.285   6.199
 4527SOL     OW14479   6.543   0.171   3.000
 4527SOL    HW114480   6.554   0.220   2.913
 4527SOL    HW214481   6.631   0.165   3.046
 4528SOL     OW14482   4.129   0.876   5.504
 4528SOL    HW114483   4.204   0.820   5.467
 4528SOL    HW214484   4.125   0.963   5.455
 4529SOL     OW14485   2.877   1.018   5.432
 4529SOL    HW114486   2.795   0.983   5.387
 4529SOL    HW214487   2.916   1.092   5.377
 4530SOL     OW14488   2.091   6.403   5.004
 4530SOL    HW114489   2.091   6.468   5.080
 4530SOL    HW214490   2.183   6.396   4.966
 4531SOL     OW14491   1.329   5.117   6.382
 4531SOL    HW114492   1.246   5.081   6.340
 4531SOL    HW214493   1.406   5.057   6.362
 4532SOL     OW14494   5.374   0.778   2.964
 4532SOL    HW114495   5.319   0.802   3.045
 4532SOL    HW214496   5.437   0.704   2.988
 4533SOL     OW14497   2.026   0.496   2.291
 4533SOL    HW114498   1.997   0.408   2.330
 4533SOL    HW214499   2.068   0.551   2.362
 4534SOL     OW14500   4.478   1.813   4.562
 4534SOL    HW114501   4.415   1.764   4.502
 4534SOL    HW214502   4.507   1.753   4.637
 4535SOL     OW14503   3.473   2.313   0.847
 4535SOL    HW114504   3.522   2.331   0.933
 4535SOL    HW214505   3.538   2.310   0.772
 4536SOL     OW14506   2.513   1.942   6.051
 4536SOL    HW114507   2.610   1.923   6.066
 4536SOL    HW214508   2.499   2.040   6.039
 4537SOL     OW14509   3.520   3.746   4.174
 4537SOL    HW114510   3.427   3.777   4.159
 4537SOL    HW214511   3.571   3.750   4.088
 4538SOL     OW14512   6.743   2.607   1.427
 4538SOL    HW114513   6.658   2.566   1.460
 4538SOL    HW214514   6.778   2.554   1.349
 4539SOL     OW14515   1.887   5.356   5.021
 4539SOL    HW114516   1.914   5.262   4.997
 4539SOL    HW214517   1.894   5.368   5.120
 4540SOL     OW14518   0.417   1.101   0.740
 4540SOL    HW114519   0.353   1.026   0.758
 4540SOL    HW214520   0.394   1.143   0.652
 4541SOL     OW14521   4.068   1.730   6.312
 4541SOL    HW114522   4.021   1.772   6.234
 4541SOL    HW214523   4.102   1.639   6.286
 4542SOL     OW14524   0.358   2.216   0.578
 4542SOL    HW114525   0.349   2.147   0.506
 4542SOL    HW214526   0.320   2.180   0.663
 4543SOL     OW14527   3.975   2.287   0.453
 4543SOL    HW114528   3.904   2.222   0.477
 4543SOL    HW214529   4.060   2.238   0.431
 4544SOL     OW14530   5.301   4.907   0.607
 4544SOL    HW114531   5.231   4.863   0.550
 4544SOL    HW214532   5.270   4.909   0.702
 4545SOL     OW14533   0.746   4.015   4.759
 4545SOL    HW114534   0.754   3.965   4.846
 4545SOL    HW214535   0.667   4.076   4.763
 4546SOL     OW14536   2.626   1.204   5.559
 4546SOL    HW114537   2.568   1.124   5.575
 4546SOL    HW214538   2.656   1.242   5.646
 4547SOL     OW14539   6.281   0.565   0.422
 4547SOL    HW114540   6.237   0.623   0.354
 4547SOL    HW214541   6.379   0.561   0.404
 4548SOL     OW14542   2.207   3.001   2.816
 4548SOL    HW114543   2.204   3.087   2.867
 4548SOL    HW214544   2.174   3.016   2.723
 4549SOL     OW14545   5.526   4.523   2.462
 4549SOL    HW114546   5.555   4.577   2.541
 4549SOL    HW214547   5.469   4.580   2.403
 4550SOL     OW14548   0.648   4.610   2.657
 4550SOL    HW114549   0.574   4.605   2.591
 4550SOL    HW214550   0.715   4.678   2.628
 4551SOL     OW14551   1.756   3.535   4.713
 4551SOL    HW114552   1.792   3.621   4.750
 4551SOL    HW214553   1.681   3.555   4.650
 4552SOL     OW14554   6.088   1.307   1.301
 4552SOL    HW114555   6.104   1.270   1.392
 4552SOL    HW214556   6.006   1.266   1.261
 4553SOL     OW14557   5.195   4.917   6.286
 4553SOL    HW114558   5.185   4.964   6.199
 4553SOL    HW214559   5.226   4.823   6.270
 4554SOL     OW14560   0.355   6.122   1.534
 4554SOL    HW114561   0.399   6.211   1.544
 4554SOL    HW214562   0.305   6.119   1.447
 4555SOL     OW14563   1.291   1.676   6.990
 4555SOL    HW114564   1.381   1.632   6.997
 4555SOL    HW214565   1.220   1.609   7.011
 4556SOL     OW14566   6.131   3.506   5.872
 4556SOL    HW114567   6.126   3.602   5.844
 4556SOL    HW214568   6.066   3.489   5.946
 4557SOL     OW14569   6.222   5.090   3.697
 4557SOL    HW114570   6.153   5.020   3.716
 4557SOL    HW214571   6.181   5.181   3.707
 4558SOL     OW14572   6.029   2.882   5.522
 4558SOL    HW114573   6.052   2.966   5.472
 4558SOL    HW214574   6.079   2.879   5.608
 4559SOL     OW14575   0.834   2.848   3.173
 4559SOL    HW114576   0.855   2.946   3.178
 4559SOL    HW214577   0.792   2.828   3.084
 4560SOL     OW14578   6.691   4.528   1.655
 4560SOL    HW114579   6.767   4.558   1.712
 4560SOL    HW214580   6.615   4.592   1.662
 4561SOL     OW14581   3.197   2.142   4.338
 4561SOL    HW114582   3.132   2.131   4.263
 4561SOL    HW214583   3.290   2.142   4.302
 4562SOL     OW14584   2.142   0.039   0.632
 4562SOL    HW114585   2.044   0.053   0.646
 4562SOL    HW214586   2.182   7.022   0.713
 4563SOL     OW14587   0.107   2.892   1.426
 4563SOL    HW114588   0.014   2.861   1.447
 4563SOL    HW214589   0.159   2.900   1.511
 4564SOL     OW14590   0.220   4.328   2.128
 4564SOL    HW114591   0.195   4.372   2.041
 4564SOL    HW214592   0.235   4.231   2.112
 4565SOL     OW14593   1.822   0.588   5.075
 4565SOL    HW114594   1.822   0.586   4.975
 4565SOL    HW214595   1.887   0.520   5.110
 4566SOL     OW14596   6.937   4.241   1.393
 4566SOL    HW114597   0.007   4.271   1.395
 4566SOL    HW214598   6.880   4.315   1.357
 4567SOL     OW14599   6.842   0.151   6.168
 4567SOL    HW114600   6.822   0.082   6.238
 4567SOL    HW214601   6.770   0.149   6.099
 4568SOL     OW14602   0.944   4.448   4.013
 4568SOL    HW114603   0.907   4.445   3.920
 4568SOL    HW214604   0.954   4.543   4.042
 4569SOL     OW14605   3.004   0.990   2.953
 4569SOL    HW114606   2.996   1.015   3.049
 4569SOL    HW214607   3.046   1.065   2.902
 4570SOL     OW14608   6.685   5.554   1.153
 4570SOL    HW114609   6.634   5.489   1.209
 4570SOL    HW214610   6.739   5.614   1.212
 4571SOL     OW14611   3.947   2.920   6.575
 4571SOL    HW114612   3.970   3.017   6.578
 4571SOL    HW214613   3.850   2.908   6.598
 4572SOL     OW14614   2.627   2.555   0.261
 4572SOL    HW114615   2.720   2.553   0.223
 4572SOL    HW214616   2.631   2.533   0.359
 4573SOL     OW14617   1.058   6.438   1.243
 4573SOL    HW114618   1.112   6.502   1.298
 4573SOL    HW214619   1.045   6.353   1.294
 4574SOL     OW14620   6.289   3.595   0.169
 4574SOL    HW114621   6.342   3.530   0.223
 4574SOL    HW214622   6.242   3.659   0.230
 4575SOL     OW14623   6.283   0.841   4.505
 4575SOL    HW114624   6.256   0.937   4.506
 4575SOL    HW214625   6.264   0.802   4.414
 4576SOL     OW14626   2.753   5.013   4.878
 4576SOL    HW114627   2.799   5.049   4.959
 4576SOL    HW214628   2.762   4.913   4.876
 4577SOL     OW14629   1.641   1.995   3.269
 4577SOL    HW114630   1.702   1.953   3.336
 4577SOL    HW214631   1.656   1.953   3.179
 4578SOL     OW14632   1.686   0.622   2.627
 4578SOL    HW114633   1.759   0.573   2.676
 4578SOL    HW214634   1.608   0.561   2.614
 4579SOL     OW14635   4.478   0.178   1.978
 4579SOL    HW114636   4.491   0.276   1.963
 4579SOL    HW214637   4.565   0.130   1.967
 4580SOL     OW14638   5.966   3.574   0.211
 4580SOL    HW114639   5.873   3.553   0.181
 4580SOL    HW214640   6.028   3.576   0.133
 4581SOL     OW14641   3.336   6.498   1.870
 4581SOL    HW114642   3.290   6.574   1.916
 4581SOL    HW214643   3.422   6.477   1.916
 4582SOL     OW14644   5.252   1.097   3.238
 4582SOL    HW114645   5.346   1.086   3.206
 4582SOL    HW214646   5.214   1.182   3.200
 4583SOL     OW14647   2.077   0.092   6.594
 4583SOL    HW114648   2.025   0.039   6.526
 4583SOL    HW214649   2.094   0.035   6.674
 4584SOL     OW14650   1.607   6.942   6.070
 4584SOL    HW114651   1.678   6.986   6.014
 4584SOL    HW214652   1.526   6.925   6.014
 4585SOL     OW14653   1.488   4.224   3.363
 4585SOL    HW114654   1.520   4.180   3.447
 4585SOL    HW214655   1.492   4.323   3.374
 4586SOL     OW14656   5.277   4.366   0.203
 4586SOL    HW114657   5.321   4.300   0.264
 4586SOL    HW214658   5.178   4.366   0.219
 4587SOL     OW14659   3.200   3.580   4.775
 4587SOL    HW114660   3.226   3.673   4.801
 4587SOL    HW214661   3.103   3.578   4.752
 4588SOL     OW14662   2.916   3.714   6.233
 4588SOL    HW114663   2.845   3.645   6.247
 4588SOL    HW214664   2.989   3.675   6.177
 4589SOL     OW14665   5.493   6.121   1.959
 4589SOL    HW114666   5.510   6.144   1.863
 4589SOL    HW214667   5.550   6.043   1.985
 4590SOL     OW14668   3.524   5.468   1.707
 4590SOL    HW114669   3.499   5.393   1.646
 4590SOL    HW214670   3.537   5.552   1.653
 4591SOL     OW14671   2.474   6.892   5.408
 4591SOL    HW114672   2.494   6.957   5.335
 4591SOL    HW214673   2.395   6.836   5.383
 4592SOL     OW14674   2.552   1.250   4.519
 4592SOL    HW114675   2.533   1.300   4.435
 4592SOL    HW214676   2.532   1.153   4.505
 4593SOL     OW14677   0.006   5.763   3.120
 4593SOL    HW114678   6.991   5.850   3.149
 4593SOL    HW214679   0.033   5.710   3.201
 4594SOL     OW14680   2.786   0.125   3.169
 4594SOL    HW114681   2.806   0.153   3.075
 4594SOL    HW214682   2.869   0.130   3.224
 4595SOL     OW14683   4.885   1.731   6.320
 4595SOL    HW114684   4.951   1.782   6.374
 4595SOL    HW214685   4.833   1.795   6.262
 4596SOL     OW14686   1.076   0.886   2.143
 4596SOL    HW114687   1.141   0.878   2.219
 4596SOL    HW214688   1.091   0.811   2.079
 4597SOL     OW14689   2.627   5.138   6.943
 4597SOL    HW114690   2.668   5.059   6.989
 4597SOL    HW214691   2.687   5.218   6.954
 4598SOL     OW14692   2.083   5.218   0.010
 4598SOL    HW114693   2.145   5.289   7.003
 4598SOL    HW214694   2.005   5.211   6.974
 4599SOL     OW14695   1.584   4.028   2.782
 4599SOL    HW114696   1.659   3.974   2.744
 4599SOL    HW214697   1.573   4.007   2.879
 4600SOL     OW14698   6.785   6.525   5.807
 4600SOL    HW114699   6.773   6.492   5.901
 4600SOL    HW214700   6.874   6.569   5.798
 4601SOL     OW14701   0.470   0.761   4.868
 4601SOL    HW114702   0.374   0.736   4.878
 4601SOL    HW214703   0.505   0.728   4.781
 4602SOL     OW14704   2.665   0.402   6.614
 4602SOL    HW114705   2.743   0.359   6.568
 4602SOL    HW214706   2.699   0.475   6.674
 4603SOL     OW14707   4.555   5.871   1.171
 4603SOL    HW114708   4.524   5.875   1.266
 4603SOL    HW214709   4.614   5.950   1.152
 4604SOL     OW14710   4.997   7.008   5.948
 4604SOL    HW114711   4.922   6.950   5.917
 4604SOL    HW214712   5.012   0.056   5.883
 4605SOL     OW14713   2.232   0.046   1.784
 4605SOL    HW114714   2.259   0.050   1.880
 4605SOL    HW214715   2.150   7.015   1.774
 4606SOL     OW14716   6.967   6.581   2.659
 4606SOL    HW114717   6.903   6.592   2.583
 4606SOL    HW214718   0.025   6.537   2.628
 4607SOL     OW14719   2.152   4.056   2.946
 4607SOL    HW114720   2.149   3.963   2.982
 4607SOL    HW214721   2.207   4.114   3.007
 4608SOL     OW14722   6.868   3.190   5.217
 4608SOL    HW114723   6.920   3.174   5.301
 4608SOL    HW214724   6.930   3.188   5.139
 4609SOL     OW14725   4.272   6.418   6.733
 4609SOL    HW114726   4.342   6.393   6.666
 4609SOL    HW214727   4.316   6.450   6.817
 4610SOL     OW14728   5.556   2.003   0.077
 4610SOL    HW114729   5.511   1.942   0.143
 4610SOL    HW214730   5.543   1.968   7.011
 4611SOL     OW14731   0.634   0.695   5.901
 4611SOL    HW114732   0.609   0.605   5.867
 4611SOL    HW214733   0.581   0.765   5.854
 4612SOL     OW14734   2.073   6.362   2.545
 4612SOL    HW114735   2.076   6.365   2.645
 4612SOL    HW214736   2.100   6.271   2.514
 4613SOL     OW14737   1.859   4.674   2.220
 4613SOL    HW114738   1.883   4.668   2.317
 4613SOL    HW214739   1.939   4.706   2.168
 4614SOL     OW14740   5.844   2.997   4.092
 4614SOL    HW114741   5.937   2.963   4.078
 4614SOL    HW214742   5.847   3.096   4.103
 4615SOL     OW14743   1.052   1.176   1.303
 4615SOL    HW114744   1.008   1.239   1.239
 4615SOL    HW214745   1.119   1.121   1.255
 4616SOL     OW14746   6.167   2.782   5.105
 4616SOL    HW114747   6.148   2.784   5.007
 4616SOL    HW214748   6.266   2.781   5.119
 4617SOL     OW14749   0.412   2.650   1.962
 4617SOL    HW114750   0.406   2.556   1.996
 4617SOL    HW214751   0.497   2.692   1.995
 4618SOL     OW14752   2.288   3.911   5.521
 4618SOL    HW114753   2.290   3.820   5.562
 4618SOL    HW214754   2.378   3.954   5.530
 4619SOL     OW14755   3.084   6.234   4.440
 4619SOL    HW114756   3.053   6.306   4.502
 4619SOL    HW214757   3.032   6.150   4.457
 4620SOL     OW14758   0.684   5.259   1.460
 4620SOL    HW114759   0.668   5.273   1.363
 4620SOL    HW214760   0.779   5.282   1.482
 4621SOL     OW14761   5.099   0.464   2.591
 4621SOL    HW114762   5.085   0.442   2.687
 4621SOL    HW214763   5.093   0.563   2.578
 4622SOL     OW14764   4.392   5.527   1.240
 4622SOL    HW114765   4.463   5.537   1.170
 4622SOL    HW214766   4.422   5.462   1.310
 4623SOL     OW14767   3.410   4.988   1.069
 4623SOL    HW114768   3.423   4.981   0.971
 4623SOL    HW214769   3.368   4.904   1.104
 4624SOL     OW14770   3.833   1.239   3.579
 4624SOL    HW114771   3.850   1.187   3.495
 4624SOL    HW214772   3.758   1.304   3.563
 4625SOL     OW14773   1.711   5.521   1.718
 4625SOL    HW114774   1.681   5.557   1.806
 4625SOL    HW214775   1.635   5.473   1.674
 4626SOL     OW14776   4.069   4.078   1.680
 4626SOL    HW114777   4.032   4.170   1.693
 4626SOL    HW214778   4.169   4.081   1.682
 4627SOL     OW14779   7.002   5.808   4.877
 4627SOL    HW114780   0.065   5.847   4.850
 4627SOL    HW214781   6.992   5.814   4.976
 4628SOL     OW14782   4.689   4.917   3.399
 4628SOL    HW114783   4.701   4.836   3.456
 4628SOL    HW214784   4.673   4.996   3.458
 4629SOL     OW14785   2.119   5.644   6.787
 4629SOL    HW114786   2.061   5.611   6.712
 4629SOL    HW214787   2.071   5.716   6.837
 4630SOL     OW14788   1.447   4.713   2.243
 4630SOL    HW114789   1.490   4.639   2.294
 4630SOL    HW214790   1.388   4.767   2.304
 4631SOL     OW14791   0.155   0.322   3.968
 4631SOL    HW114792   0.120   0.235   3.933
 4631SOL    HW214793   0.255   0.319   3.970
 4632SOL     OW14794   3.110   5.167   2.821
 4632SOL    HW114795   3.117   5.160   2.721
 4632SOL    HW214796   3.104   5.075   2.860
 4633SOL     OW14797   5.463   1.493   4.451
 4633SOL    HW114798   5.521   1.551   4.507
 4633SOL    HW214799   5.401   1.550   4.397
 4634SOL     OW14800   2.974   3.774   4.933
 4634SOL    HW114801   3.029   3.736   5.007
 4634SOL    HW214802   2.926   3.855   4.966
 4635SOL     OW14803   4.969   5.276   0.872
 4635SOL    HW114804   4.968   5.283   0.972
 4635SOL    HW214805   4.999   5.185   0.846
 4636SOL     OW14806   2.241   5.129   0.562
 4636SOL    HW114807   2.287   5.055   0.512
 4636SOL    HW214808   2.201   5.093   0.646
 4637SOL     OW14809   1.581   0.038   1.976
 4637SOL    HW114810   1.501   7.017   1.939
 4637SOL    HW214811   1.659   0.026   1.914
 4638SOL     OW14812   3.933   4.906   0.673
 4638SOL    HW114813   3.886   4.969   0.735
 4638SOL    HW214814   4.015   4.869   0.718
 4639SOL     OW14815   2.202   2.674   0.736
 4639SOL    HW114816   2.257   2.610   0.789
 4639SOL    HW214817   2.258   2.715   0.665
 4640SOL     OW14818   5.754   3.306   5.927
 4640SOL    HW114819   5.827   3.243   5.902
 4640SOL    HW214820   5.745   3.377   5.858
 4641SOL     OW14821   0.737   5.946   3.955
 4641SOL    HW114822   0.800   5.870   3.969
 4641SOL    HW214823   0.787   6.025   3.919
 4642SOL     OW14824   1.563   1.748   3.937
 4642SOL    HW114825   1.486   1.797   3.976
 4642SOL    HW214826   1.538   1.713   3.846
 4643SOL     OW14827   0.019   2.393   6.893
 4643SOL    HW114828   0.042   2.452   6.815
 4643SOL    HW214829   7.024   2.450   6.973
 4644SOL     OW14830   1.565   1.610   6.956
 4644SOL    HW114831   1.570   1.708   6.979
 4644SOL    HW214832   1.615   1.594   6.871
 4645SOL     OW14833   1.238   0.937   3.791
 4645SOL    HW114834   1.288   0.868   3.740
 4645SOL    HW214835   1.141   0.914   3.792
 4646SOL     OW14836   2.350   5.104   4.003
 4646SOL    HW114837   2.339   5.203   4.001
 4646SOL    HW214838   2.438   5.082   4.045
 4647SOL     OW14839   2.124   6.312   2.880
 4647SOL    HW114840   2.218   6.345   2.883
 4647SOL    HW214841   2.122   6.223   2.834
 4648SOL     OW14842   2.908   1.043   3.805
 4648SOL    HW114843   2.953   1.113   3.750
 4648SOL    HW214844   2.976   0.979   3.840
 4649SOL     OW14845   5.914   0.583   0.748
 4649SOL    HW114846   5.855   0.660   0.776
 4649SOL    HW214847   5.957   0.544   0.829
 4650SOL     OW14848   5.388   6.181   1.555
 4650SOL    HW114849   5.325   6.111   1.589
 4650SOL    HW214850   5.458   6.139   1.498
 4651SOL     OW14851   6.705   3.836   6.029
 4651SOL    HW114852   6.640   3.811   6.100
 4651SOL    HW214853   6.673   3.919   5.982
 4652SOL     OW14854   0.109   5.956   4.398
 4652SOL    HW114855   0.027   5.990   4.353
 4652SOL    HW214856   0.176   6.030   4.406
 4653SOL     OW14857   4.652   5.859   0.631
 4653SOL    HW114858   4.641   5.930   0.701
 4653SOL    HW214859   4.652   5.769   0.675
 4654SOL     OW14860   7.020   6.347   4.555
 4654SOL    HW114861   6.976   6.261   4.583
 4654SOL    HW214862   6.961   6.424   4.581
 4655SOL     OW14863   5.000   2.516   1.201
 4655SOL    HW114864   4.996   2.426   1.245
 4655SOL    HW214865   5.016   2.504   1.103
 4656SOL     OW14866   0.714   0.843   1.800
 4656SOL    HW114867   0.720   0.827   1.898
 4656SOL    HW214868   0.725   0.941   1.781
 4657SOL     OW14869   5.108   6.626   2.186
 4657SOL    HW114870   5.128   6.724   2.194
 4657SOL    HW214871   5.036   6.601   2.250
 4658SOL     OW14872   2.421   2.730   5.523
 4658SOL    HW114873   2.358   2.807   5.534
 4658SOL    HW214874   2.441   2.717   5.426
 4659SOL     OW14875   3.520   4.139   1.000
 4659SOL    HW114876   3.440   4.136   0.941
 4659SOL    HW214877   3.492   4.140   1.095
 4660SOL     OW14878   1.106   6.586   3.850
 4660SOL    HW114879   1.062   6.651   3.788
 4660SOL    HW214880   1.042   6.514   3.873
 4661SOL     OW14881   1.965   3.831   5.476
 4661SOL    HW114882   2.062   3.852   5.467
 4661SOL    HW214883   1.911   3.914   5.463
 4662SOL     OW14884   2.404   6.556   4.811
 4662SOL    HW114885   2.455   6.524   4.891
 4662SOL    HW214886   2.453   6.632   4.769
 4663SOL     OW14887   1.205   0.383   0.154
 4663SOL    HW114888   1.179   0.478   0.170
 4663SOL    HW214889   1.195   0.331   0.239
 4664SOL     OW14890   6.582   0.050   0.666
 4664SOL    HW114891   6.660   0.109   0.644
 4664SOL    HW214892   6.614   6.998   0.721
 4665SOL     OW14893   2.147   0.516   5.451
 4665SOL    HW114894   2.175   0.608   5.478
 4665SOL    HW214895   2.061   0.492   5.497
 4666SOL     OW14896   1.979   2.684   6.640
 4666SOL    HW114897   1.901   2.621   6.646
 4666SOL    HW214898   1.963   2.761   6.701
 4667SOL     OW14899   6.788   3.532   2.052
 4667SOL    HW114900   6.817   3.581   2.135
 4667SOL    HW214901   6.722   3.588   2.002
 4668SOL     OW14902   4.050   2.221   4.811
 4668SOL    HW114903   4.113   2.270   4.751
 4668SOL    HW214904   3.979   2.177   4.755
 4669SOL     OW14905   5.135   6.972   0.457
 4669SOL    HW114906   5.211   0.011   0.453
 4669SOL    HW214907   5.167   6.882   0.429
 4670SOL     OW14908   1.588   3.661   7.006
 4670SOL    HW114909   1.636   3.733   6.957
 4670SOL    HW214910   1.627   3.651   0.071
 4671SOL     OW14911   0.695   3.151   0.180
 4671SOL    HW114912   0.641   3.209   0.241
 4671SOL    HW214913   0.761   3.207   0.130
 4672SOL     OW14914   3.561   4.241   5.625
 4672SOL    HW114915   3.475   4.233   5.575
 4672SOL    HW214916   3.542   4.248   5.723
 4673SOL     OW14917   5.052   0.549   6.669
 4673SOL    HW114918   5.089   0.496   6.593
 4673SOL    HW214919   5.125   0.605   6.708
 4674SOL     OW14920   0.449   1.393   0.275
 4674SOL    HW114921   0.388   1.471   0.259
 4674SOL    HW214922   0.540   1.427   0.302
 4675SOL     OW14923   3.678   6.215   6.866
 4675SOL    HW114924   3.738   6.282   6.910
 4675SOL    HW214925   3.600   6.197   6.926
 4676SOL     OW14926   0.672   6.373   4.768
 4676SOL    HW114927   0.753   6.432   4.778
 4676SOL    HW214928   0.697   6.278   4.788
 4677SOL     OW14929   3.314   0.358   6.600
 4677SOL    HW114930   3.313   0.259   6.606
 4677SOL    HW214931   3.403   0.392   6.631
 4678SOL     OW14932   1.829   5.060   1.490
 4678SOL    HW114933   1.913   5.006   1.502
 4678SOL    HW214934   1.750   5.004   1.514
 4679SOL     OW14935   2.486   1.049   6.292
 4679SOL    HW114936   2.454   1.144   6.298
 4679SOL    HW214937   2.561   1.035   6.356
 4680SOL     OW14938   1.945   5.330   1.361
 4680SOL    HW114939   1.936   5.239   1.402
 4680SOL    HW214940   1.856   5.375   1.357
 4681SOL     OW14941   0.753   5.614   5.330
 4681SOL    HW114942   0.733   5.528   5.283
 4681SOL    HW214943   0.816   5.598   5.406
 4682SOL     OW14944   4.262   6.326   0.127
 4682SOL    HW114945   4.210   6.381   0.192
 4682SOL    HW214946   4.293   6.383   0.052
 4683SOL     OW14947   6.583   3.688   2.361
 4683SOL    HW114948   6.559   3.597   2.328
 4683SOL    HW214949   6.676   3.711   2.334
 4684SOL     OW14950   1.594   2.680   4.928
 4684SOL    HW114951   1.530   2.649   4.998
 4684SOL    HW214952   1.553   2.756   4.877
 4685SOL     OW14953   5.771   5.220   3.994
 4685SOL    HW114954   5.719   5.214   4.080
 4685SOL    HW214955   5.859   5.174   4.004
 4686SOL     OW14956   4.996   5.906   7.008
 4686SOL    HW114957   4.927   5.896   6.937
 4686SOL    HW214958   5.082   5.936   6.968
 4687SOL     OW14959   6.651   4.045   4.387
 4687SOL    HW114960   6.573   4.088   4.340
 4687SOL    HW214961   6.736   4.086   4.355
 4688SOL     OW14962   0.301   3.536   6.850
 4688SOL    HW114963   0.280   3.444   6.884
 4688SOL    HW214964   0.239   3.601   6.892
 4689SOL     OW14965   0.030   0.002   5.609
 4689SOL    HW114966   7.009   6.939   5.615
 4689SOL    HW214967   0.063   0.027   5.700
 4690SOL     OW14968   1.670   1.226   0.052
 4690SOL    HW114969   1.618   1.226   6.993
 4690SOL    HW214970   1.656   1.140   0.100
 4691SOL     OW14971   2.690   4.213   0.926
 4691SOL    HW114972   2.611   4.173   0.878
 4691SOL    HW214973   2.658   4.286   0.987
 4692SOL     OW14974   0.270   4.797   2.928
 4692SOL    HW114975   0.209   4.766   3.002
 4692SOL    HW214976   0.348   4.845   2.967
 4693SOL     OW14977   0.607   1.284   4.509
 4693SOL    HW114978   0.678   1.242   4.566
 4693SOL    HW214979   0.522   1.233   4.517
 4694SOL     OW14980   2.536   1.508   0.012
 4694SOL    HW114981   2.555   1.435   0.077
 4694SOL    HW214982   2.456   1.483   6.983
 4695SOL     OW14983   3.855   2.956   1.877
 4695SOL    HW114984   3.854   2.881   1.810
 4695SOL    HW214985   3.947   2.994   1.883
 4696SOL     OW14986   0.232   3.620   6.212
 4696SOL    HW114987   0.152   3.600   6.269
 4696SOL    HW214988   0.284   3.537   6.195
 4697SOL     OW14989   1.663   4.045   0.312
 4697SOL    HW114990   1.646   3.986   0.233
 4697SOL    HW214991   1.735   4.111   0.290
 4698SOL     OW14992   5.315   4.602   1.423
 4698SOL    HW114993   5.347   4.688   1.383
 4698SOL    HW214994   5.347   4.595   1.517
 4699SOL     OW14995   0.394   0.185   2.202
 4699SOL    HW114996   0.405   0.206   2.105
 4699SOL    HW214997   0.406   0.268   2.256
 4700SOL     OW14998   5.411   1.378   1.107
 4700SOL    HW114999   5.336   1.361   1.043
 4700SOL    HW215000   5.389   1.458   1.163
 4701SOL     OW15001   1.067   1.359   0.545
 4701SOL    HW115002   1.108   1.331   0.458
 4701SOL    HW215003   1.063   1.459   0.548
 4702SOL     OW15004   3.716   3.820   6.562
 4702SOL    HW115005   3.735   3.723   6.577
 4702SOL    HW215006   3.617   3.833   6.554
 4703SOL     OW15007   1.676   1.300   3.035
 4703SOL    HW115008   1.763   1.290   2.986
 4703SOL    HW215009   1.695   1.331   3.129
 4704SOL     OW15010   0.566   6.802   1.121
 4704SOL    HW115011   0.660   6.830   1.144
 4704SOL    HW215012   0.510   6.883   1.107
 4705SOL     OW15013   3.658   2.885   4.190
 4705SOL    HW115014   3.742   2.864   4.241
 4705SOL    HW215015   3.582   2.893   4.253
 4706SOL     OW15016   3.726   6.138   6.610
 4706SOL    HW115017   3.696   6.176   6.697
 4706SOL    HW215018   3.671   6.177   6.536
 4707SOL     OW15019   1.713   5.628   1.154
 4707SOL    HW115020   1.729   5.726   1.157
 4707SOL    HW215021   1.654   5.601   1.230
 4708SOL     OW15022   3.199   2.354   0.795
 4708SOL    HW115023   3.297   2.335   0.793
 4708SOL    HW215024   3.151   2.276   0.835
 4709SOL     OW15025   3.991   4.890   5.392
 4709SOL    HW115026   4.069   4.921   5.339
 4709SOL    HW215027   3.916   4.866   5.329
 4710SOL     OW15028   4.917   1.044   6.963
 4710SOL    HW115029   4.875   0.953   6.970
 4710SOL    HW215030   4.927   1.068   6.866
 4711SOL     OW15031   3.129   0.144   2.308
 4711SOL    HW115032   3.125   0.222   2.245
 4711SOL    HW215033   3.218   0.099   2.299
 4712SOL     OW15034   1.787   4.828   1.247
 4712SOL    HW115035   1.781   4.758   1.176
 4712SOL    HW215036   1.698   4.873   1.257
 4713SOL     OW15037   2.630   5.564   1.436
 4713SOL    HW115038   2.586   5.652   1.415
 4713SOL    HW215039   2.573   5.489   1.402
 4714SOL     OW15040   2.605   1.233   1.567
 4714SOL    HW115041   2.657   1.312   1.535
 4714SOL    HW215042   2.512   1.262   1.592
 4715SOL     OW15043   6.757   2.954   2.559
 4715SOL    HW115044   6.778   2.904   2.643
 4715SOL    HW215045   6.674   3.007   2.571
 4716SOL     OW15046   3.521   5.288   6.849
 4716SOL    HW115047   3.505   5.225   6.772
 4716SOL    HW215048   3.607   5.263   6.894
 4717SOL     OW15049   1.221   5.692   2.668
 4717SOL    HW115050   1.315   5.697   2.636
 4717SOL    HW215051   1.185   5.600   2.655
 4718SOL     OW15052   5.235   1.833   6.865
 4718SOL    HW115053   5.147   1.825   6.912
 4718SOL    HW215054   5.260   1.744   6.827
 4719SOL     OW15055   5.742   3.675   2.569
 4719SOL    HW115056   5.815   3.729   2.612
 4719SOL    HW215057   5.782   3.615   2.500
 4720SOL     OW15058   2.724   6.445   5.872
 4720SOL    HW115059   2.654   6.397   5.924
 4720SOL    HW215060   2.815   6.414   5.901
 4721SOL     OW15061   1.819   2.263   0.832
 4721SOL    HW115062   1.795   2.225   0.922
 4721SOL    HW215063   1.767   2.215   0.761
 4722SOL     OW15064   1.646   6.612   0.443
 4722SOL    HW115065   1.740   6.640   0.422
 4722SOL    HW215066   1.616   6.656   0.528
 4723SOL     OW15067   2.603   6.323   6.779
 4723SOL    HW115068   2.675   6.376   6.823
 4723SOL    HW215069   2.640   6.237   6.746
 4724SOL     OW15070   4.008   6.486   2.437
 4724SOL    HW115071   4.062   6.447   2.362
 4724SOL    HW215072   4.033   6.442   2.523
 4725SOL     OW15073   5.186   6.290   3.198
 4725SOL    HW115074   5.117   6.293   3.125
 4725SOL    HW215075   5.192   6.198   3.235
 4726SOL     OW15076   1.344   3.967   6.640
 4726SOL    HW115077   1.350   3.970   6.740
 4726SOL    HW215078   1.336   4.060   6.604
 4727SOL     OW15079   6.888   5.694   0.584
 4727SOL    HW115080   6.857   5.773   0.531
 4727SOL    HW215081   6.982   5.709   0.614
 4728SOL     OW15082   6.821   1.292   6.917
 4728SOL    HW115083   6.843   1.241   6.833
 4728SOL    HW215084   6.894   1.358   6.935
 4729SOL     OW15085   2.610   0.152   2.171
 4729SOL    HW115086   2.531   0.151   2.233
 4729SOL    HW215087   2.694   0.136   2.223
 4730SOL     OW15088   2.342   6.164   5.639
 4730SOL    HW115089   2.341   6.253   5.684
 4730SOL    HW215090   2.294   6.098   5.697
 4731SOL     OW15091   5.711   1.080   5.007
 4731SOL    HW115092   5.693   1.040   4.916
 4731SOL    HW215093   5.644   1.152   5.025
 4732SOL     OW15094   6.916   3.480   6.788
 4732SOL    HW115095   6.860   3.535   6.850
 4732SOL    HW215096   7.012   3.497   6.807
 4733SOL     OW15097   0.348   3.319   2.934
 4733SOL    HW115098   0.291   3.334   2.854
 4733SOL    HW215099   0.293   3.326   3.017
 4734SOL     OW15100   4.432   3.332   0.157
 4734SOL    HW115101   4.412   3.270   0.081
 4734SOL    HW215102   4.502   3.291   0.216
 4735SOL     OW15103   0.563   3.920   4.119
 4735SOL    HW115104   0.571   4.017   4.100
 4735SOL    HW215105   0.554   3.870   4.033
 4736SOL     OW15106   1.050   1.143   0.221
 4736SOL    HW115107   0.961   1.187   0.231
 4736SOL    HW215108   1.123   1.211   0.233
 4737SOL     OW15109   2.710   4.929   2.052
 4737SOL    HW115110   2.674   4.855   2.108
 4737SOL    HW215111   2.807   4.942   2.073
 4738SOL     OW15112   6.680   6.353   1.612
 4738SOL    HW115113   6.626   6.343   1.695
 4738SOL    HW215114   6.740   6.433   1.620
 4739SOL     OW15115   4.317   0.444   2.796
 4739SOL    HW115116   4.324   0.417   2.700
 4739SOL    HW215117   4.222   0.445   2.824
 4740SOL     OW15118   0.685   2.171   2.848
 4740SOL    HW115119   0.689   2.074   2.826
 4740SOL    HW215120   0.612   2.188   2.914
 4741SOL     OW15121   4.107   3.100   1.886
 4741SOL    HW115122   4.085   3.197   1.894
 4741SOL    HW215123   4.181   3.088   1.819
 4742SOL     OW15124   3.120   6.961   0.259
 4742SOL    HW115125   3.209   6.990   0.294
 4742SOL    HW215126   3.097   6.872   0.299
 4743SOL     OW15127   1.998   4.673   1.770
 4743SOL    HW115128   2.031   4.579   1.763
 4743SOL    HW215129   1.977   4.708   1.679
 4744SOL     OW15130   1.872   6.559   0.904
 4744SOL    HW115131   1.900   6.541   0.999
 4744SOL    HW215132   1.852   6.473   0.858
 4745SOL     OW15133   2.079   4.412   0.840
 4745SOL    HW115134   2.009   4.456   0.896
 4745SOL    HW215135   2.041   4.330   0.797
 4746SOL     OW15136   4.730   5.427   4.023
 4746SOL    HW115137   4.744   5.355   4.091
 4746SOL    HW215138   4.659   5.489   4.055
 4747SOL     OW15139   1.832   2.943   0.626
 4747SOL    HW115140   1.917   2.987   0.655
 4747SOL    HW215141   1.803   2.981   0.538
 4748SOL     OW15142   1.886   6.472   2.892
 4748SOL    HW115143   1.830   6.465   2.809
 4748SOL    HW215144   1.971   6.421   2.880
 4749SOL     OW15145   1.955   0.238   0.497
 4749SOL    HW115146   1.858   0.212   0.491
 4749SOL    HW215147   2.007   0.186   0.429
 4750SOL     OW15148   5.718   3.670   4.730
 4750SOL    HW115149   5.694   3.762   4.700
 4750SOL    HW215150   5.810   3.671   4.770
 4751SOL     OW15151   4.996   0.746   2.553
 4751SOL    HW115152   4.975   0.807   2.629
 4751SOL    HW215153   4.912   0.700   2.523
 4752SOL     OW15154   4.363   2.325   0.001
 4752SOL    HW115155   4.351   2.425   0.001
 4752SOL    HW215156   4.292   2.283   6.972
 4753SOL     OW15157   2.359   6.408   5.259
 4753SOL    HW115158   2.379   6.331   5.320
 4753SOL    HW215159   2.339   6.490   5.314
 4754SOL     OW15160   4.636   4.650   6.623
 4754SOL    HW115161   4.697   4.678   6.549
 4754SOL    HW215162   4.553   4.705   6.621
 4755SOL     OW15163   1.551   0.804   1.624
 4755SOL    HW115164   1.563   0.742   1.702
 4755SOL    HW215165   1.453   0.820   1.610
 4756SOL     OW15166   6.311   4.494   6.549
 4756SOL    HW115167   6.400   4.503   6.595
 4756SOL    HW215168   6.283   4.398   6.549
 4757SOL     OW15169   1.947   3.020   1.525
 4757SOL    HW115170   1.928   2.960   1.447
 4757SOL    HW215171   2.037   3.063   1.513
 4758SOL     OW15172   1.897   0.130   3.183
 4758SOL    HW115173   1.800   0.134   3.160
 4758SOL    HW215174   1.930   0.221   3.204
 4759SOL     OW15175   1.016   5.004   1.540
 4759SOL    HW115176   1.019   4.983   1.442
 4759SOL    HW215177   1.001   4.919   1.591
 4760SOL     OW15178   1.594   6.536   0.970
 4760SOL    HW115179   1.691   6.555   0.959
 4760SOL    HW215180   1.582   6.455   1.026
 4761SOL     OW15181   0.235   6.839   0.896
 4761SOL    HW115182   0.165   6.910   0.892
 4761SOL    HW215183   0.220   6.782   0.977
 4762SOL     OW15184   2.093   5.349   2.497
 4762SOL    HW115185   2.094   5.393   2.587
 4762SOL    HW215186   2.185   5.317   2.474
 4763SOL     OW15187   4.728   5.698   2.012
 4763SOL    HW115188   4.659   5.769   2.004
 4763SOL    HW215189   4.817   5.739   2.030
 4764SOL     OW15190   4.684   3.839   5.920
 4764SOL    HW115191   4.754   3.871   5.856
 4764SOL    HW215192   4.593   3.854   5.881
 4765SOL     OW15193   3.877   1.571   5.379
 4765SOL    HW115194   3.898   1.659   5.420
 4765SOL    HW215195   3.910   1.569   5.285
 4766SOL     OW15196   6.796   6.958   4.288
 4766SOL    HW115197   6.756   6.954   4.379
 4766SOL    HW215198   6.825   6.866   4.260
 4767SOL     OW15199   2.274   5.250   4.566
 4767SOL    HW115200   2.319   5.166   4.533
 4767SOL    HW215201   2.333   5.328   4.547
 4768SOL     OW15202   4.560   2.649   6.833
 4768SOL    HW115203   4.660   2.653   6.823
 4768SOL    HW215204   4.517   2.660   6.744
 4769SOL     OW15205   3.449   5.631   1.379
 4769SOL    HW115206   3.409   5.703   1.321
 4769SOL    HW215207   3.419   5.542   1.346
 4770SOL     OW15208   0.180   1.628   5.521
 4770SOL    HW115209   0.249   1.576   5.470
 4770SOL    HW215210   0.188   1.725   5.497
 4771SOL     OW15211   2.531   0.127   4.885
 4771SOL    HW115212   2.481   0.173   4.957
 4771SOL    HW215213   2.625   0.110   4.915
 4772SOL     OW15214   2.559   5.719   0.894
 4772SOL    HW115215   2.487   5.787   0.875
 4772SOL    HW215216   2.639   5.740   0.838
 4773SOL     OW15217   2.224   5.517   4.792
 4773SOL    HW115218   2.193   5.531   4.698
 4773SOL    HW215219   2.268   5.600   4.825
 4774SOL     OW15220   1.288   4.012   6.902
 4774SOL    HW115221   1.280   3.924   6.950
 4774SOL    HW215222   1.225   4.078   6.944
 4775SOL     OW15223   5.909   6.572   5.060
 4775SOL    HW115224   5.965   6.654   5.054
 4775SOL    HW215225   5.919   6.530   5.150
 4776SOL     OW15226   1.306   0.487   6.327
 4776SOL    HW115227   1.244   0.454   6.257
 4776SOL    HW215228   1.273   0.458   6.417
 4777SOL     OW15229   0.456   6.205   0.981
 4777SOL    HW115230   0.428   6.148   0.903
 4777SOL    HW215231   0.522   6.156   1.037
 4778SOL     OW15232   0.979   2.364   5.478
 4778SOL    HW115233   0.962   2.455   5.516
 4778SOL    HW215234   1.075   2.356   5.452
 4779SOL     OW15235   5.235   1.061   3.719
 4779SOL    HW115236   5.263   1.140   3.773
 4779SOL    HW215237   5.243   0.978   3.774
 4780SOL     OW15238   5.914   2.349   5.212
 4780SOL    HW115239   5.852   2.313   5.142
 4780SOL    HW215240   5.975   2.416   5.171
 4781SOL     OW15241   1.946   5.739   2.443
 4781SOL    HW115242   2.012   5.719   2.516
 4781SOL    HW215243   1.876   5.667   2.440
 4782SOL     OW15244   5.779   4.830   4.632
 4782SOL    HW115245   5.777   4.730   4.628
 4782SOL    HW215246   5.746   4.860   4.721
 4783SOL     OW15247   6.212   3.195   1.185
 4783SOL    HW115248   6.302   3.239   1.187
 4783SOL    HW215249   6.219   3.104   1.226
 4784SOL     OW15250   5.411   2.256   6.497
 4784SOL    HW115251   5.462   2.278   6.580
 4784SOL    HW215252   5.354   2.334   6.471
 4785SOL     OW15253   0.876   6.039   3.523
 4785SOL    HW115254   0.861   5.972   3.595
 4785SOL    HW215255   0.789   6.080   3.496
 4786SOL     OW15256   2.842   6.681   0.673
 4786SOL    HW115257   2.905   6.650   0.603
 4786SOL    HW215258   2.817   6.777   0.657
 4787SOL     OW15259   3.578   1.495   4.560
 4787SOL    HW115260   3.485   1.521   4.587
 4787SOL    HW215261   3.600   1.405   4.600
 4788SOL     OW15262   6.375   6.312   6.772
 4788SOL    HW115263   6.385   6.410   6.791
 4788SOL    HW215264   6.278   6.287   6.771
 4789SOL     OW15265   4.908   0.505   2.304
 4789SOL    HW115266   4.965   0.424   2.316
 4789SOL    HW215267   4.864   0.527   2.391
 4790SOL     OW15268   5.761   2.080   5.139
 4790SOL    HW115269   5.721   2.018   5.072
 4790SOL    HW215270   5.857   2.095   5.118
 4791SOL     OW15271   6.736   2.904   0.661
 4791SOL    HW115272   6.722   2.825   0.602
 4791SOL    HW215273   6.648   2.948   0.679
 4792SOL     OW15274   2.077   3.679   4.086
 4792SOL    HW115275   2.093   3.708   3.992
 4792SOL    HW215276   2.079   3.579   4.091
 4793SOL     OW15277   0.652   3.446   6.350
 4793SOL    HW115278   0.691   3.373   6.295
 4793SOL    HW215279   0.725   3.504   6.387
 4794SOL     OW15280   4.303   0.987   4.089
 4794SOL    HW115281   4.361   1.062   4.055
 4794SOL    HW215282   4.285   0.923   4.015
 4795SOL     OW15283   0.346   0.479   5.650
 4795SOL    HW115284   0.338   0.561   5.708
 4795SOL    HW215285   0.266   0.421   5.664
 4796SOL     OW15286   3.735   1.486   5.743
 4796SOL    HW115287   3.765   1.513   5.834
 4796SOL    HW215288   3.660   1.545   5.713
 4797SOL     OW15289   1.032   5.371   4.600
 4797SOL    HW115290   1.029   5.271   4.596
 4797SOL    HW215291   1.124   5.402   4.578
 4798SOL     OW15292   5.074   4.771   6.535
 4798SOL    HW115293   4.977   4.749   6.523
 4798SOL    HW215294   5.106   4.822   6.456
 4799SOL     OW15295   3.382   3.210   6.430
 4799SOL    HW115296   3.466   3.263   6.419
 4799SOL    HW215297   3.328   3.248   6.505
 4800SOL     OW15298   1.480   4.936   0.270
 4800SOL    HW115299   1.521   5.024   0.248
 4800SOL    HW215300   1.537   4.862   0.234
 4801SOL     OW15301   4.789   2.478   1.802
 4801SOL    HW115302   4.698   2.490   1.843
 4801SOL    HW215303   4.804   2.549   1.734
 4802SOL     OW15304   6.871   6.584   2.158
 4802SOL    HW115305   6.902   6.620   2.246
 4802SOL    HW215306   6.876   6.484   2.159
 4803SOL     OW15307   5.626   4.301   6.420
 4803SOL    HW115308   5.594   4.210   6.446
 4803SOL    HW215309   5.706   4.325   6.474
 4804SOL     OW15310   5.535   1.193   0.538
 4804SOL    HW115311   5.587   1.275   0.563
 4804SOL    HW215312   5.517   1.139   0.620
 4805SOL     OW15313   6.026   1.945   1.302
 4805SOL    HW115314   5.963   2.010   1.344
 4805SOL    HW215315   6.116   1.987   1.293
 4806SOL     OW15316   1.240   2.821   3.034
 4806SOL    HW115317   1.192   2.738   3.064
 4806SOL    HW215318   1.182   2.872   2.971
 4807SOL     OW15319   1.524   2.804   6.815
 4807SOL    HW115320   1.503   2.706   6.814
 4807SOL    HW215321   1.456   2.853   6.869
 4808SOL     OW15322   3.667   6.004   0.614
 4808SOL    HW115323   3.622   5.960   0.536
 4808SOL    HW215324   3.743   6.060   0.581
 4809SOL     OW15325   3.496   4.911   1.664
 4809SOL    HW115326   3.420   4.927   1.727
 4809SOL    HW215327   3.467   4.932   1.571
 4810SOL     OW15328   1.377   3.856   3.651
 4810SOL    HW115329   1.351   3.840   3.556
 4810SOL    HW215330   1.312   3.810   3.712
 4811SOL     OW15331   3.094   3.987   4.808
 4811SOL    HW115332   3.072   3.892   4.833
 4811SOL    HW215333   3.061   4.005   4.716
 4812SOL     OW15334   0.247   6.667   2.412
 4812SOL    HW115335   0.230   6.577   2.453
 4812SOL    HW215336   0.282   6.656   2.319
 4813SOL     OW15337   6.153   1.575   0.043
 4813SOL    HW115338   6.095   1.501   0.008
 4813SOL    HW215339   6.219   1.601   6.998
 4814SOL     OW15340   6.905   3.501   1.296
 4814SOL    HW115341   6.958   3.583   1.276
 4814SOL    HW215342   6.946   3.423   1.250
 4815SOL     OW15343   5.998   5.050   2.654
 4815SOL    HW115344   5.952   5.138   2.657
 4815SOL    HW215345   5.933   4.978   2.628
 4816SOL     OW15346   1.180   0.043   2.330
 4816SOL    HW115347   1.254   0.111   2.328
 4816SOL    HW215348   1.215   6.984   2.372
 4817SOL     OW15349   3.710   1.468   1.587
 4817SOL    HW115350   3.669   1.422   1.666
 4817SOL    HW215351   3.788   1.416   1.554
 4818SOL     OW15352   2.907   0.560   4.689
 4818SOL    HW115353   2.888   0.637   4.627
 4818SOL    HW215354   2.874   0.582   4.780
 4819SOL     OW15355   3.439   1.002   1.278
 4819SOL    HW115356   3.474   0.909   1.284
 4819SOL    HW215357   3.490   1.061   1.340
 4820SOL     OW15358   6.756   4.248   2.355
 4820SOL    HW115359   6.852   4.231   2.330
 4820SOL    HW215360   6.716   4.163   2.391
 4821SOL     OW15361   6.213   5.335   1.535
 4821SOL    HW115362   6.196   5.364   1.629
 4821SOL    HW215363   6.273   5.255   1.535
 4822SOL     OW15364   2.167   4.095   3.643
 4822SOL    HW115365   2.193   4.186   3.613
 4822SOL    HW215366   2.157   4.035   3.564
 4823SOL     OW15367   0.990   0.132   4.402
 4823SOL    HW115368   1.080   0.089   4.397
 4823SOL    HW215369   0.994   0.212   4.462
 4824SOL     OW15370   5.191   2.420   2.663
 4824SOL    HW115371   5.136   2.503   2.673
 4824SOL    HW215372   5.216   2.408   2.567
 4825SOL     OW15373   1.920   3.681   3.457
 4825SOL    HW115374   1.986   3.674   3.531
 4825SOL    HW215375   1.837   3.727   3.489
 4826SOL     OW15376   0.377   6.544   0.553
 4826SOL    HW115377   0.447   6.568   0.486
 4826SOL    HW215378   0.418   6.536   0.643
 4827SOL     OW15379   4.596   1.110   0.974
 4827SOL    HW115380   4.604   1.017   0.939
 4827SOL    HW215381   4.517   1.155   0.933
 4828SOL     OW15382   4.995   3.239   1.697
 4828SOL    HW115383   4.994   3.329   1.653
 4828SOL    HW215384   5.054   3.242   1.777
 4829SOL     OW15385   3.054   0.465   5.922
 4829SOL    HW115386   3.085   0.541   5.864
 4829SOL    HW215387   3.059   0.492   6.018
 4830SOL     OW15388   4.990   6.091   3.579
 4830SOL    HW115389   5.031   6.033   3.649
 4830SOL    HW215390   4.986   6.186   3.612
 4831SOL     OW15391   6.562   4.229   5.202
 4831SOL    HW115392   6.642   4.271   5.244
 4831SOL    HW215393   6.545   4.140   5.245
 4832SOL     OW15394   3.067   3.061   5.809
 4832SOL    HW115395   3.024   3.009   5.882
 4832SOL    HW215396   3.041   3.158   5.817
 4833SOL     OW15397   4.167   1.206   3.404
 4833SOL    HW115398   4.095   1.144   3.436
 4833SOL    HW215399   4.166   1.210   3.304
 4834SOL     OW15400   4.335   1.295   1.561
 4834SOL    HW115401   4.428   1.286   1.525
 4834SOL    HW215402   4.339   1.331   1.655
 4835SOL     OW15403   2.178   6.784   6.591
 4835SOL    HW115404   2.178   6.696   6.639
 4835SOL    HW215405   2.146   6.856   6.653
 4836SOL     OW15406   4.930   1.980   3.776
 4836SOL    HW115407   4.852   1.927   3.809
 4836SOL    HW215408   5.009   1.920   3.767
 4837SOL     OW15409   2.507   2.384   1.214
 4837SOL    HW115410   2.542   2.475   1.193
 4837SOL    HW215411   2.463   2.386   1.304
 4838SOL     OW15412   3.866   4.855   2.006
 4838SOL    HW115413   3.774   4.881   2.037
 4838SOL    HW215414   3.879   4.883   1.911
 4839SOL     OW15415   0.020   5.738   5.658
 4839SOL    HW115416   0.094   5.741   5.591
 4839SOL    HW215417   6.985   5.663   5.637
 4840SOL     OW15418   6.078   6.459   0.365
 4840SOL    HW115419   6.082   6.551   0.404
 4840SOL    HW215420   6.038   6.463   0.273
 4841SOL     OW15421   3.220   5.887   1.963
 4841SOL    HW115422   3.201   5.804   1.911
 4841SOL    HW215423   3.249   5.861   2.056
 4842SOL     OW15424   4.103   5.871   1.707
 4842SOL    HW115425   4.138   5.815   1.781
 4842SOL    HW215426   4.003   5.865   1.705
 4843SOL     OW15427   0.010   4.127   0.311
 4843SOL    HW115428   0.103   4.108   0.278
 4843SOL    HW215429   6.979   4.158   0.235
 4844SOL     OW15430   6.715   2.852   6.664
 4844SOL    HW115431   6.717   2.763   6.709
 4844SOL    HW215432   6.626   2.894   6.679
 4845SOL     OW15433   6.288   5.816   3.631
 4845SOL    HW115434   6.379   5.781   3.654
 4845SOL    HW215435   6.240   5.750   3.573
 4846SOL     OW15436   1.522   2.986   0.969
 4846SOL    HW115437   1.474   2.928   0.903
 4846SOL    HW215438   1.620   2.969   0.963
 4847SOL     OW15439   3.638   1.883   5.243
 4847SOL    HW115440   3.585   1.831   5.309
 4847SOL    HW215441   3.618   1.850   5.150
 4848SOL     OW15442   1.709   1.360   3.301
 4848SOL    HW115443   1.807   1.359   3.286
 4848SOL    HW215444   1.690   1.350   3.399
 4849SOL     OW15445   1.694   0.278   0.400
 4849SOL    HW115446   1.762   0.350   0.387
 4849SOL    HW215447   1.614   0.297   0.343
 4850SOL     OW15448   4.002   0.427   1.543
 4850SOL    HW115449   4.005   0.508   1.485
 4850SOL    HW215450   4.069   0.436   1.617
 4851SOL     OW15451   4.033   6.034   5.666
 4851SOL    HW115452   4.033   5.977   5.584
 4851SOL    HW215453   4.117   6.089   5.669
 4852SOL     OW15454   1.916   0.878   0.032
 4852SOL    HW115455   1.888   0.956   7.003
 4852SOL    HW215456   1.931   0.799   6.998
 4853SOL     OW15457   3.514   1.457   2.865
 4853SOL    HW115458   3.433   1.399   2.858
 4853SOL    HW215459   3.501   1.523   2.940
 4854SOL     OW15460   4.627   5.542   2.291
 4854SOL    HW115461   4.642   5.560   2.388
 4854SOL    HW215462   4.583   5.621   2.249
 4855SOL     OW15463   6.057   1.682   2.024
 4855SOL    HW115464   6.112   1.610   2.066
 4855SOL    HW215465   6.107   1.722   1.948
 4856SOL     OW15466   3.080   4.864   3.977
 4856SOL    HW115467   2.996   4.811   3.995
 4856SOL    HW215468   3.103   4.857   3.880
 4857SOL     OW15469   0.929   2.041   5.977
 4857SOL    HW115470   1.021   2.037   6.016
 4857SOL    HW215471   0.920   1.971   5.906
 4858SOL     OW15472   1.749   2.326   4.586
 4858SOL    HW115473   1.724   2.282   4.500
 4858SOL    HW215474   1.811   2.403   4.568
 4859SOL     OW15475   1.618   5.804   4.844
 4859SOL    HW115476   1.710   5.766   4.836
 4859SOL    HW215477   1.586   5.795   4.938
 4860SOL     OW15478   4.871   5.463   1.531
 4860SOL    HW115479   4.870   5.454   1.631
 4860SOL    HW215480   4.780   5.485   1.499
 4861SOL     OW15481   4.924   4.863   0.035
 4861SOL    HW115482   4.956   4.781   0.083
 4861SOL    HW215483   4.884   4.836   6.973
 4862SOL     OW15484   1.340   5.261   2.856
 4862SOL    HW115485   1.253   5.213   2.856
 4862SOL    HW215486   1.360   5.294   2.948
 4863SOL     OW15487   5.818   4.100   0.371
 4863SOL    HW115488   5.872   4.094   0.456
 4863SOL    HW215489   5.757   4.020   0.365
 4864SOL     OW15490   2.762   1.024   3.424
 4864SOL    HW115491   2.772   1.123   3.431
 4864SOL    HW215492   2.851   0.982   3.408
 4865SOL     OW15493   2.331   6.167   4.423
 4865SOL    HW115494   2.391   6.145   4.501
 4865SOL    HW215495   2.244   6.119   4.434
 4866SOL     OW15496   0.109   3.586   1.513
 4866SOL    HW115497   0.089   3.651   1.440
 4866SOL    HW215498   0.029   3.576   1.573
 4867SOL     OW15499   4.597   5.731   2.655
 4867SOL    HW115500   4.541   5.807   2.622
 4867SOL    HW215501   4.665   5.708   2.585
 4868SOL     OW15502   6.261   4.358   1.933
 4868SOL    HW115503   6.350   4.316   1.950
 4868SOL    HW215504   6.256   4.386   1.837
 4869SOL     OW15505   1.499   1.862   0.284
 4869SOL    HW115506   1.591   1.863   0.322
 4869SOL    HW215507   1.469   1.768   0.268
 4870SOL     OW15508   0.726   6.097   2.223
 4870SOL    HW115509   0.627   6.096   2.240
 4870SOL    HW215510   0.775   6.082   2.308
 4871SOL     OW15511   1.584   0.918   4.413
 4871SOL    HW115512   1.511   0.987   4.422
 4871SOL    HW215513   1.554   0.848   4.348
 4872SOL     OW15514   7.002   6.394   3.147
 4872SOL    HW115515   0.073   6.415   3.139
 4872SOL    HW215516   6.959   6.402   3.057
 4873SOL     OW15517   6.882   5.749   4.543
 4873SOL    HW115518   6.929   5.662   4.549
 4873SOL    HW215519   6.831   5.765   4.628
 4874SOL     OW15520   4.861   2.338   3.198
 4874SOL    HW115521   4.885   2.298   3.286
 4874SOL    HW215522   4.764   2.319   3.179
 4875SOL     OW15523   5.114   6.887   6.916
 4875SOL    HW115524   5.188   6.820   6.908
 4875SOL    HW215525   5.071   6.900   6.827
 4876SOL     OW15526   1.253   1.615   3.209
 4876SOL    HW115527   1.329   1.553   3.192
 4876SOL    HW215528   1.286   1.698   3.255
 4877SOL     OW15529   0.640   2.119   4.988
 4877SOL    HW115530   0.711   2.054   4.958
 4877SOL    HW215531   0.584   2.076   5.058
 4878SOL     OW15532   0.023   1.730   1.816
 4878SOL    HW115533   6.970   1.791   1.825
 4878SOL    HW215534   0.055   1.730   1.721
 4879SOL     OW15535   4.744   1.664   2.490
 4879SOL    HW115536   4.814   1.736   2.488
 4879SOL    HW215537   4.663   1.696   2.442
 4880SOL     OW15538   6.502   3.004   6.792
 4880SOL    HW115539   6.568   3.036   6.860
 4880SOL    HW215540   6.448   3.082   6.759
 4881SOL     OW15541   1.687   2.642   1.501
 4881SOL    HW115542   1.635   2.557   1.501
 4881SOL    HW215543   1.714   2.665   1.408
 4882SOL     OW15544   4.190   2.015   5.091
 4882SOL    HW115545   4.289   2.018   5.104
 4882SOL    HW215546   4.146   1.969   5.168
 4883SOL     OW15547   5.315   3.861   1.683
 4883SOL    HW115548   5.318   3.838   1.586
 4883SOL    HW215549   5.223   3.845   1.719
 4884SOL     OW15550   1.804   5.873   0.888
 4884SOL    HW115551   1.895   5.895   0.852
 4884SOL    HW215552   1.788   5.774   0.879
 4885SOL     OW15553   2.316   4.766   2.050
 4885SOL    HW115554   2.356   4.848   2.090
 4885SOL    HW215555   2.372   4.687   2.074
 4886SOL     OW15556   3.710   0.349   2.132
 4886SOL    HW115557   3.657   0.370   2.214
 4886SOL    HW215558   3.655   0.365   2.050
 4887SOL     OW15559   1.417   6.942   1.707
 4887SOL    HW115560   1.367   6.898   1.632
 4887SOL    HW215561   1.353   6.962   1.782
 4888SOL     OW15562   3.009   6.686   2.598
 4888SOL    HW115563   3.107   6.676   2.615
 4888SOL    HW215564   2.969   6.749   2.664
 4889SOL     OW15565   6.754   1.682   4.495
 4889SOL    HW115566   6.800   1.753   4.441
 4889SOL    HW215567   6.794   1.680   4.587
 4890SOL     OW15568   0.906   0.893   5.665
 4890SOL    HW115569   0.916   0.988   5.635
 4890SOL    HW215570   0.886   0.836   5.585
 4891SOL     OW15571   2.650   4.868   6.251
 4891SOL    HW115572   2.583   4.855   6.324
 4891SOL    HW215573   2.614   4.936   6.186
 4892SOL     OW15574   5.875   6.767   2.429
 4892SOL    HW115575   5.970   6.759   2.458
 4892SOL    HW215576   5.820   6.800   2.505
 4893SOL     OW15577   0.193   2.919   2.085
 4893SOL    HW115578   0.218   2.880   1.997
 4893SOL    HW215579   0.168   3.015   2.073
 4894SOL     OW15580   3.837   0.128   1.926
 4894SOL    HW115581   3.909   0.069   1.964
 4894SOL    HW215582   3.823   0.206   1.987
 4895SOL     OW15583   0.129   4.687   3.140
 4895SOL    HW115584   0.072   4.718   3.216
 4895SOL    HW215585   0.192   4.616   3.172
 4896SOL     OW15586   2.004   5.239   3.898
 4896SOL    HW115587   2.036   5.200   3.984
 4896SOL    HW215588   2.070   5.218   3.826
 4897SOL     OW15589   1.661   5.797   5.544
 4897SOL    HW115590   1.709   5.836   5.623
 4897SOL    HW215591   1.682   5.699   5.538
 4898SOL     OW15592   3.974   0.902   4.939
 4898SOL    HW115593   4.016   0.884   4.850
 4898SOL    HW215594   3.889   0.849   4.947
 4899SOL     OW15595   6.031   5.472   2.190
 4899SOL    HW115596   5.965   5.543   2.212
 4899SOL    HW215597   5.996   5.383   2.220
 4900SOL     OW15598   4.261   6.176   5.702
 4900SOL    HW115599   4.273   6.214   5.610
 4900SOL    HW215600   4.339   6.118   5.724
 4901SOL     OW15601   0.888   2.622   5.584
 4901SOL    HW115602   0.955   2.696   5.578
 4901SOL    HW215603   0.893   2.580   5.675
 4902SOL     OW15604   2.083   0.490   6.353
 4902SOL    HW115605   2.050   0.566   6.408
 4902SOL    HW215606   2.077   0.405   6.407
 4903SOL     OW15607   4.589   5.612   1.061
 4903SOL    HW115608   4.680   5.588   1.094
 4903SOL    HW215609   4.563   5.702   1.097
 4904SOL     OW15610   2.163   0.450   6.054
 4904SOL    HW115611   2.130   0.466   6.147
 4904SOL    HW215612   2.124   0.365   6.019
 4905SOL     OW15613   3.151   6.992   2.608
 4905SOL    HW115614   3.163   6.931   2.529
 4905SOL    HW215615   3.149   0.061   2.576
 4906SOL     OW15616   4.834   3.376   5.268
 4906SOL    HW115617   4.745   3.342   5.299
 4906SOL    HW215618   4.822   3.466   5.224
 4907SOL     OW15619   4.762   1.212   0.461
 4907SOL    HW115620   4.665   1.218   0.482
 4907SOL    HW215621   4.793   1.299   0.422
 4908SOL     OW15622   4.734   0.610   0.318
 4908SOL    HW115623   4.735   0.583   0.414
 4908SOL    HW215624   4.714   0.530   0.261
 4909SOL     OW15625   6.247   3.908   3.290
 4909SOL    HW115626   6.292   3.843   3.227
 4909SOL    HW215627   6.173   3.863   3.338
 4910SOL     OW15628   5.656   0.718   5.022
 4910SOL    HW115629   5.571   0.771   5.030
 4910SOL    HW215630   5.662   0.653   5.097
 4911SOL     OW15631   1.783   2.375   2.887
 4911SOL    HW115632   1.729   2.391   2.804
 4911SOL    HW215633   1.769   2.450   2.952
 4912SOL     OW15634   5.547   1.894   5.756
 4912SOL    HW115635   5.481   1.878   5.682
 4912SOL    HW215636   5.615   1.821   5.755
 4913SOL     OW15637   5.332   2.715   5.669
 4913SOL    HW115638   5.308   2.760   5.582
 4913SOL    HW215639   5.408   2.764   5.712
 4914SOL     OW15640   4.218   0.564   4.890
 4914SOL    HW115641   4.280   0.506   4.837
 4914SOL    HW215642   4.266   0.645   4.922
 4915SOL     OW15643   2.780   6.248   5.403
 4915SOL    HW115644   2.698   6.191   5.412
 4915SOL    HW215645   2.771   6.328   5.461
 4916SOL     OW15646   6.652   0.573   4.345
 4916SOL    HW115647   6.558   0.574   4.312
 4916SOL    HW215648   6.709   0.520   4.282
 4917SOL     OW15649   3.569   5.978   0.874
 4917SOL    HW115650   3.577   6.007   0.779
 4917SOL    HW215651   3.472   5.974   0.899
 4918SOL     OW15652   6.244   5.500   2.051
 4918SOL    HW115653   6.329   5.467   2.092
 4918SOL    HW215654   6.170   5.495   2.118
 4919SOL     OW15655   4.011   3.106   2.165
 4919SOL    HW115656   4.085   3.063   2.113
 4919SOL    HW215657   3.958   3.036   2.212
 4920SOL     OW15658   5.776   0.223   5.310
 4920SOL    HW115659   5.867   0.247   5.277
 4920SOL    HW215660   5.751   0.284   5.385
 4921SOL     OW15661   0.718   6.141   1.023
 4921SOL    HW115662   0.686   6.178   0.936
 4921SOL    HW215663   0.817   6.127   1.019
 4922SOL     OW15664   3.331   2.081   5.089
 4922SOL    HW115665   3.307   2.174   5.118
 4922SOL    HW215666   3.249   2.034   5.056
 4923SOL     OW15667   3.161   1.970   2.963
 4923SOL    HW115668   3.192   1.988   3.056
 4923SOL    HW215669   3.203   2.037   2.901
 4924SOL     OW15670   2.458   1.409   5.783
 4924SOL    HW115671   2.552   1.385   5.761
 4924SOL    HW215672   2.456   1.466   5.865
 4925SOL     OW15673   4.339   6.744   3.430
 4925SOL    HW115674   4.391   6.829   3.418
 4925SOL    HW215675   4.268   6.758   3.498
 4926SOL     OW15676   6.032   1.704   1.505
 4926SOL    HW115677   6.079   1.644   1.569
 4926SOL    HW215678   6.089   1.783   1.484
 4927SOL     OW15679   2.711   2.305   6.412
 4927SOL    HW115680   2.775   2.286   6.487
 4927SOL    HW215681   2.761   2.303   6.325
 4928SOL     OW15682   1.154   1.479   1.143
 4928SOL    HW115683   1.089   1.509   1.212
 4928SOL    HW215684   1.225   1.423   1.186
 4929SOL     OW15685   0.033   0.147   3.590
 4929SOL    HW115686   0.004   0.220   3.652
 4929SOL    HW215687   0.129   0.159   3.568
 4930SOL     OW15688   6.019   0.351   2.144
 4930SOL    HW115689   5.935   0.297   2.150
 4930SOL    HW215690   6.032   0.401   2.230
 4931SOL     OW15691   6.014   6.751   1.763
 4931SOL    HW115692   5.931   6.697   1.754
 4931SOL    HW215693   6.094   6.694   1.744
 4932SOL     OW15694   3.369   4.137   3.055
 4932SOL    HW115695   3.312   4.099   3.127
 4932SOL    HW215696   3.313   4.158   2.975
 4933SOL     OW15697   2.446   6.499   4.399
 4933SOL    HW115698   2.423   6.594   4.418
 4933SOL    HW215699   2.376   6.439   4.438
 4934SOL     OW15700   3.125   6.067   2.681
 4934SOL    HW115701   3.187   6.131   2.636
 4934SOL    HW215702   3.163   6.039   2.769
 4935SOL     OW15703   1.389   2.236   6.796
 4935SOL    HW115704   1.322   2.172   6.833
 4935SOL    HW215705   1.481   2.199   6.809
 4936SOL     OW15706   2.419   4.506   1.052
 4936SOL    HW115707   2.383   4.554   0.972
 4936SOL    HW215708   2.390   4.411   1.050
 4937SOL     OW15709   4.959   3.106   4.902
 4937SOL    HW115710   5.056   3.118   4.925
 4937SOL    HW215711   4.907   3.087   4.985
 4938SOL     OW15712   3.724   5.513   5.631
 4938SOL    HW115713   3.683   5.544   5.545
 4938SOL    HW215714   3.820   5.488   5.614
 4939SOL     OW15715   4.816   3.403   5.707
 4939SOL    HW115716   4.873   3.361   5.777
 4939SOL    HW215717   4.735   3.346   5.691
 4940SOL     OW15718   1.912   6.857   5.173
 4940SOL    HW115719   2.004   6.895   5.163
 4940SOL    HW215720   1.890   6.848   5.271
 4941SOL     OW15721   4.497   1.278   6.935
 4941SOL    HW115722   4.496   1.371   6.897
 4941SOL    HW215723   4.591   1.254   6.960
 4942SOL     OW15724   5.141   3.906   5.350
 4942SOL    HW115725   5.161   3.825   5.405
 4942SOL    HW215726   5.223   3.963   5.344
 4943SOL     OW15727   4.396   2.615   0.849
 4943SOL    HW115728   4.299   2.593   0.850
 4943SOL    HW215729   4.410   2.706   0.889
 4944SOL     OW15730   2.470   4.408   3.363
 4944SOL    HW115731   2.467   4.434   3.266
 4944SOL    HW215732   2.563   4.418   3.398
 4945SOL     OW15733   0.807   6.921   3.972
 4945SOL    HW115734   0.735   6.851   3.964
 4945SOL    HW215735   0.815   6.969   3.884
 4946SOL     OW15736   1.542   3.241   2.053
 4946SOL    HW115737   1.466   3.285   2.005
 4946SOL    HW215738   1.538   3.265   2.150
 4947SOL     OW15739   0.942   6.993   0.730
 4947SOL    HW115740   0.934   6.894   0.724
 4947SOL    HW215741   0.978   7.018   0.820
 4948SOL     OW15742   2.489   1.260   2.657
 4948SOL    HW115743   2.505   1.359   2.657
 4948SOL    HW215744   2.554   1.216   2.719
 4949SOL     OW15745   5.388   0.205   5.116
 4949SOL    HW115746   5.451   0.274   5.081
 4949SOL    HW215747   5.419   0.172   5.205
 4950SOL     OW15748   2.384   6.008   4.859
 4950SOL    HW115749   2.322   5.989   4.783
 4950SOL    HW215750   2.420   5.923   4.895
 4951SOL     OW15751   4.316   1.661   4.400
 4951SOL    HW115752   4.281   1.624   4.486
 4951SOL    HW215753   4.246   1.652   4.329
 4952SOL     OW15754   0.009   6.763   5.227
 4952SOL    HW115755   0.034   6.859   5.216
 4952SOL    HW215756   0.065   6.707   5.165
 4953SOL     OW15757   2.073   5.593   0.878
 4953SOL    HW115758   2.158   5.552   0.910
 4953SOL    HW215759   2.090   5.646   0.795
 4954SOL     OW15760   5.308   5.065   0.303
 4954SOL    HW115761   5.285   4.969   0.318
 4954SOL    HW215762   5.407   5.075   0.302
 4955SOL     OW15763   1.899   6.894   1.057
 4955SOL    HW115764   1.884   6.795   1.062
 4955SOL    HW215765   1.873   6.927   0.966
 4956SOL     OW15766   4.149   6.956   5.238
 4956SOL    HW115767   4.091   0.011   5.231
 4956SOL    HW215768   4.245   6.984   5.247
 4957SOL     OW15769   0.739   1.222   4.263
 4957SOL    HW115770   0.655   1.257   4.305
 4957SOL    HW215771   0.812   1.219   4.331
 4958SOL     OW15772   0.388   6.391   6.478
 4958SOL    HW115773   0.404   6.457   6.405
 4958SOL    HW215774   0.337   6.435   6.552
 4959SOL     OW15775   0.704   1.094   0.483
 4959SOL    HW115776   0.613   1.062   0.457
 4959SOL    HW215777   0.774   1.045   0.429
 4960SOL     OW15778   3.768   6.209   4.322
 4960SOL    HW115779   3.815   6.174   4.402
 4960SOL    HW215780   3.783   6.147   4.245
 4961SOL     OW15781   5.049   7.007   4.915
 4961SOL    HW115782   5.029   6.920   4.869
 4961SOL    HW215783   5.145   7.008   4.942
 4962SOL     OW15784   5.728   2.543   1.729
 4962SOL    HW115785   5.766   2.540   1.637
 4962SOL    HW215786   5.628   2.551   1.725
 4963SOL     OW15787   0.666   5.172   1.117
 4963SOL    HW115788   0.683   5.073   1.119
 4963SOL    HW215789   0.753   5.220   1.125
 4964SOL     OW15790   3.399   6.377   3.261
 4964SOL    HW115791   3.442   6.463   3.290
 4964SOL    HW215792   3.456   6.300   3.289
 4965SOL     OW15793   0.274   6.990   4.556
 4965SOL    HW115794   0.368   7.018   4.573
 4965SOL    HW215795   0.252   6.910   4.611
 4966SOL     OW15796   3.137   5.804   5.072
 4966SOL    HW115797   3.101   5.896   5.091
 4966SOL    HW215798   3.063   5.743   5.046
 4967SOL     OW15799   3.826   2.699   6.901
 4967SOL    HW115800   3.749   2.728   6.844
 4967SOL    HW215801   3.795   2.688   6.995
 4968SOL     OW15802   4.821   2.920   3.854
 4968SOL    HW115803   4.805   3.008   3.899
 4968SOL    HW215804   4.882   2.864   3.911
 4969SOL     OW15805   1.951   1.390   1.383
 4969SOL    HW115806   1.962   1.432   1.293
 4969SOL    HW215807   1.972   1.293   1.377
 4970SOL     OW15808   1.306   1.790   4.959
 4970SOL    HW115809   1.402   1.774   4.935
 4970SOL    HW215810   1.248   1.766   4.881
 4971SOL     OW15811   6.038   6.326   2.891
 4971SOL    HW115812   6.016   6.239   2.846
 4971SOL    HW215813   5.969   6.394   2.866
 4972SOL     OW15814   1.626   3.689   0.724
 4972SOL    HW115815   1.633   3.633   0.806
 4972SOL    HW215816   1.578   3.638   0.652
 4973SOL     OW15817   6.012   6.067   2.311
 4973SOL    HW115818   6.031   6.109   2.222
 4973SOL    HW215819   5.915   6.043   2.316
 4974SOL     OW15820   5.323   5.878   2.905
 4974SOL    HW115821   5.254   5.889   2.977
 4974SOL    HW215822   5.316   5.786   2.866
 4975SOL     OW15823   6.328   6.499   0.631
 4975SOL    HW115824   6.268   6.440   0.686
 4975SOL    HW215825   6.358   6.577   0.686
 4976SOL     OW15826   3.167   1.078   4.883
 4976SOL    HW115827   3.211   1.162   4.915
 4976SOL    HW215828   3.068   1.087   4.892
 4977SOL     OW15829   4.320   3.786   0.344
 4977SOL    HW115830   4.346   3.693   0.369
 4977SOL    HW215831   4.363   3.851   0.407
 4978SOL     OW15832   5.530   3.619   5.540
 4978SOL    HW115833   5.561   3.611   5.446
 4978SOL    HW215834   5.474   3.539   5.563
 4979SOL     OW15835   0.559   0.437   5.833
 4979SOL    HW115836   0.577   0.340   5.848
 4979SOL    HW215837   0.479   0.447   5.774
 4980SOL     OW15838   3.668   5.151   2.426
 4980SOL    HW115839   3.733   5.178   2.355
 4980SOL    HW215840   3.606   5.227   2.446
 4981SOL     OW15841   4.410   7.017   5.219
 4981SOL    HW115842   4.454   6.938   5.262
 4981SOL    HW215843   4.428   0.073   5.274
 4982SOL     OW15844   2.062   2.232   6.988
 4982SOL    HW115845   2.043   2.298   6.915
 4982SOL    HW215846   2.148   2.257   0.007
 4983SOL     OW15847   5.322   2.579   3.755
 4983SOL    HW115848   5.386   2.564   3.680
 4983SOL    HW215849   5.335   2.507   3.825
 4984SOL     OW15850   5.104   4.101   4.303
 4984SOL    HW115851   5.153   4.051   4.231
 4984SOL    HW215852   5.028   4.046   4.336
 4985SOL     OW15853   5.059   5.261   2.679
 4985SOL    HW115854   5.119   5.190   2.643
 4985SOL    HW215855   5.020   5.314   2.604
 4986SOL     OW15856   5.717   4.545   3.362
 4986SOL    HW115857   5.685   4.457   3.328
 4986SOL    HW215858   5.743   4.604   3.286
 4987SOL     OW15859   0.143   3.174   1.012
 4987SOL    HW115860   0.133   3.078   0.985
 4987SOL    HW215861   0.193   3.179   1.099
 4988SOL     OW15862   0.542   1.502   4.354
 4988SOL    HW115863   0.511   1.453   4.272
 4988SOL    HW215864   0.558   1.436   4.428
 4989SOL     OW15865   0.282   1.550   0.807
 4989SOL    HW115866   0.204   1.565   0.746
 4989SOL    HW215867   0.277   1.616   0.883
 4990SOL     OW15868   0.543   2.791   5.222
 4990SOL    HW115869   0.532   2.886   5.252
 4990SOL    HW215870   0.599   2.741   5.288
 4991SOL     OW15871   0.216   2.952   4.373
 4991SOL    HW115872   0.264   3.028   4.328
 4991SOL    HW215873   0.188   2.980   4.465
 4992SOL     OW15874   3.418   1.082   5.307
 4992SOL    HW115875   3.473   1.165   5.298
 4992SOL    HW215876   3.339   1.086   5.246
 4993SOL     OW15877   3.054   5.888   4.216
 4993SOL    HW115878   3.029   5.931   4.130
 4993SOL    HW215879   2.976   5.839   4.254
 4994SOL     OW15880   0.720   0.052   3.073
 4994SOL    HW115881   0.747   0.005   2.989
 4994SOL    HW215882   0.737   7.019   3.152
 4995SOL     OW15883   6.912   2.626   6.023
 4995SOL    HW115884   6.969   2.664   6.096
 4995SOL    HW215885   6.816   2.645   6.042
 4996SOL     OW15886   0.346   2.155   1.864
 4996SOL    HW115887   0.281   2.107   1.804
 4996SOL    HW215888   0.297   2.192   1.943
 4997SOL     OW15889   6.765   2.356   2.763
 4997SOL    HW115890   6.675   2.365   2.720
 4997SOL    HW215891   6.792   2.443   2.802
 4998SOL     OW15892   1.309   5.395   4.430
 4998SOL    HW115893   1.386   5.347   4.473
 4998SOL    HW215894   1.247   5.328   4.389
 4999SOL     OW15895   5.764   5.575   0.748
 4999SOL    HW115896   5.836   5.507   0.742
 4999SOL    HW215897   5.805   5.666   0.761
 5000SOL     OW15898   0.894   0.349   4.587
 5000SOL    HW115899   0.818   0.328   4.649
 5000SOL    HW215900   0.925   0.443   4.604
 5001SOL     OW15901   2.934   4.071   5.462
 5001SOL    HW115902   2.846   4.037   5.429
 5001SOL    HW215903   2.981   4.119   5.389
 5002SOL     OW15904   2.180   1.114   2.224
 5002SOL    HW115905   2.092   1.153   2.249
 5002SOL    HW215906   2.230   1.089   2.307
 5003SOL     OW15907   6.718   6.347   2.596
 5003SOL    HW115908   6.702   6.343   2.694
 5003SOL    HW215909   6.684   6.434   2.560
 5004SOL     OW15910   2.145   5.645   6.438
 5004SOL    HW115911   2.235   5.640   6.393
 5004SOL    HW215912   2.127   5.739   6.466
 5005SOL     OW15913   4.342   3.209   0.540
 5005SOL    HW115914   4.263   3.148   0.552
 5005SOL    HW215915   4.310   3.300   0.513
 5006SOL     OW15916   5.623   6.304   5.002
 5006SOL    HW115917   5.625   6.297   5.102
 5006SOL    HW215918   5.530   6.286   4.969
 5007SOL     OW15919   4.398   1.186   5.745
 5007SOL    HW115920   4.432   1.268   5.698
 5007SOL    HW215921   4.434   1.183   5.838
 5008SOL     OW15922   5.436   1.344   3.614
 5008SOL    HW115923   5.379   1.313   3.691
 5008SOL    HW215924   5.519   1.289   3.612
 5009SOL     OW15925   0.914   6.687   2.458
 5009SOL    HW115926   0.865   6.602   2.477
 5009SOL    HW215927   0.948   6.685   2.364
 5010SOL     OW15928   3.935   3.975   3.563
 5010SOL    HW115929   4.013   3.944   3.618
 5010SOL    HW215930   3.954   3.958   3.466
 5011SOL     OW15931   0.795   2.792   2.449
 5011SOL    HW115932   0.767   2.699   2.471
 5011SOL    HW215933   0.751   2.855   2.514
 5012SOL     OW15934   6.856   2.431   5.648
 5012SOL    HW115935   6.916   2.492   5.700
 5012SOL    HW215936   6.907   2.349   5.622
 5013SOL     OW15937   4.338   1.048   6.189
 5013SOL    HW115938   4.420   0.992   6.177
 5013SOL    HW215939   4.364   1.140   6.216
 5014SOL     OW15940   6.161   6.637   1.002
 5014SOL    HW115941   6.086   6.671   0.945
 5014SOL    HW215942   6.155   6.538   1.010
 5015SOL     OW15943   4.296   2.346   3.847
 5015SOL    HW115944   4.341   2.434   3.832
 5015SOL    HW215945   4.362   2.272   3.832
 5016SOL     OW15946   2.144   0.428   2.577
 5016SOL    HW115947   2.214   0.391   2.638
 5016SOL    HW215948   2.179   0.510   2.532
 5017SOL     OW15949   2.500   1.802   1.150
 5017SOL    HW115950   2.476   1.759   1.062
 5017SOL    HW215951   2.569   1.873   1.135
 5018SOL     OW15952   6.629   5.041   3.114
 5018SOL    HW115953   6.613   5.110   3.184
 5018SOL    HW215954   6.722   5.005   3.123
 5019SOL     OW15955   2.303   4.387   0.713
 5019SOL    HW115956   2.209   4.389   0.748
 5019SOL    HW215957   2.333   4.293   0.701
 5020SOL     OW15958   4.361   4.995   6.464
 5020SOL    HW115959   4.338   5.029   6.373
 5020SOL    HW215960   4.449   5.033   6.492
 5021SOL     OW15961   1.987   4.481   5.555
 5021SOL    HW115962   2.044   4.400   5.568
 5021SOL    HW215963   2.046   4.562   5.552
 5022SOL     OW15964   1.768   6.367   0.741
 5022SOL    HW115965   1.741   6.280   0.781
 5022SOL    HW215966   1.697   6.399   0.679
 5023SOL     OW15967   5.991   2.822   0.854
 5023SOL    HW115968   5.946   2.860   0.935
 5023SOL    HW215969   6.077   2.871   0.838
 5024SOL     OW15970   6.439   3.773   3.552
 5024SOL    HW115971   6.509   3.844   3.544
 5024SOL    HW215972   6.348   3.816   3.550
 5025SOL     OW15973   4.912   2.164   2.965
 5025SOL    HW115974   4.929   2.189   2.870
 5025SOL    HW215975   4.923   2.245   3.023
 5026SOL     OW15976   6.300   5.349   4.181
 5026SOL    HW115977   6.302   5.342   4.281
 5026SOL    HW215978   6.206   5.370   4.151
 5027SOL     OW15979   0.658   6.882   3.316
 5027SOL    HW115980   0.579   6.940   3.297
 5027SOL    HW215981   0.656   6.803   3.255
 5028SOL     OW15982   0.345   6.382   2.882
 5028SOL    HW115983   0.386   6.291   2.890
 5028SOL    HW215984   0.400   6.439   2.822
 5029SOL     OW15985   0.273   2.459   1.251
 5029SOL    HW115986   0.365   2.421   1.260
 5029SOL    HW215987   0.279   2.558   1.236
 5030SOL     OW15988   6.639   0.461   6.693
 5030SOL    HW115989   6.617   0.409   6.776
 5030SOL    HW215990   6.606   0.411   6.613
 5031SOL     OW15991   5.625   0.707   4.389
 5031SOL    HW115992   5.583   0.625   4.429
 5031SOL    HW215993   5.656   0.687   4.296
 5032SOL     OW15994   1.457   5.094   1.074
 5032SOL    HW115995   1.550   5.125   1.099
 5032SOL    HW215996   1.464   5.016   1.013
 5033SOL     OW15997   2.483   4.510   5.430
 5033SOL    HW115998   2.545   4.485   5.356
 5033SOL    HW215999   2.516   4.470   5.515
 5034SOL     OW16000   6.474   2.315   1.952
 5034SOL    HW116001   6.465   2.393   2.013
 5034SOL    HW216002   6.384   2.272   1.940
 5035SOL     OW16003   4.942   5.628   0.600
 5035SOL    HW116004   5.019   5.606   0.541
 5035SOL    HW216005   4.892   5.706   0.562
 5036SOL     OW16006   0.846   6.541   1.076
 5036SOL    HW116007   0.928   6.520   1.129
 5036SOL    HW216008   0.817   6.635   1.096
 5037SOL     OW16009   4.054   1.756   3.585
 5037SOL    HW116010   4.068   1.674   3.641
 5037SOL    HW216011   3.984   1.737   3.515
 5038SOL     OW16012   0.976   5.837   5.478
 5038SOL    HW116013   1.020   5.751   5.453
 5038SOL    HW216014   0.888   5.819   5.520
 5039SOL     OW16015   2.458   2.752   5.253
 5039SOL    HW116016   2.361   2.727   5.248
 5039SOL    HW216017   2.468   2.848   5.227
 5040SOL     OW16018   3.154   3.767   6.364
 5040SOL    HW116019   3.211   3.835   6.319
 5040SOL    HW216020   3.074   3.748   6.306
 5041SOL     OW16021   1.047   3.330   1.775
 5041SOL    HW116022   1.092   3.304   1.861
 5041SOL    HW216023   1.007   3.249   1.732
 5042SOL     OW16024   5.760   3.047   6.257
 5042SOL    HW116025   5.721   3.083   6.341
 5042SOL    HW216026   5.689   3.038   6.188
 5043SOL     OW16027   3.975   0.476   3.430
 5043SOL    HW116028   4.014   0.544   3.367
 5043SOL    HW216029   3.879   0.461   3.407
 5044SOL     OW16030   6.033   5.399   3.274
 5044SOL    HW116031   6.014   5.346   3.357
 5044SOL    HW216032   6.016   5.341   3.194
 5045SOL     OW16033   6.159   2.934   0.039
 5045SOL    HW116034   6.194   3.014   0.087
 5045SOL    HW216035   6.233   2.890   7.015
 5046SOL     OW16036   3.293   3.129   5.082
 5046SOL    HW116037   3.265   3.206   5.025
 5046SOL    HW216038   3.237   3.126   5.165
 5047SOL     OW16039   6.410   0.608   2.594
 5047SOL    HW116040   6.421   0.589   2.691
 5047SOL    HW216041   6.471   0.684   2.568
 5048SOL     OW16042   0.019   2.473   1.357
 5048SOL    HW116043   0.008   2.528   1.440
 5048SOL    HW216044   0.108   2.492   1.316
 5049SOL     OW16045   1.022   2.076   2.204
 5049SOL    HW116046   1.045   2.099   2.299
 5049SOL    HW216047   1.002   2.159   2.153
 5050SOL     OW16048   1.078   2.627   1.872
 5050SOL    HW116049   1.090   2.688   1.951
 5050SOL    HW216050   1.130   2.543   1.887
 5051SOL     OW16051   2.698   4.512   0.774
 5051SOL    HW116052   2.709   4.483   0.869
 5051SOL    HW216053   2.686   4.432   0.715
 5052SOL     OW16054   4.552   5.129   0.784
 5052SOL    HW116055   4.540   5.201   0.852
 5052SOL    HW216056   4.606   5.164   0.707
 5053SOL     OW16057   2.543   4.186   1.305
 5053SOL    HW116058   2.563   4.096   1.265
 5053SOL    HW216059   2.571   4.187   1.401
 5054SOL     OW16060   3.447   5.653   4.748
 5054SOL    HW116061   3.377   5.587   4.777
 5054SOL    HW216062   3.404   5.742   4.735
 5055SOL     OW16063   1.110   1.558   5.371
 5055SOL    HW116064   1.106   1.637   5.311
 5055SOL    HW216065   1.119   1.475   5.316
 5056SOL     OW16066   0.349   3.728   5.838
 5056SOL    HW116067   0.257   3.718   5.800
 5056SOL    HW216068   0.347   3.709   5.936
 5057SOL     OW16069   0.617   5.853   3.648
 5057SOL    HW116070   0.550   5.798   3.598
 5057SOL    HW216071   0.669   5.795   3.710
 5058SOL     OW16072   4.600   4.151   6.386
 5058SOL    HW116073   4.538   4.123   6.313
 5058SOL    HW216074   4.694   4.130   6.360
 5059SOL     OW16075   3.578   2.151   4.889
 5059SOL    HW116076   3.521   2.136   4.807
 5059SOL    HW216077   3.540   2.226   4.942
 5060SOL     OW16078   0.585   3.275   5.229
 5060SOL    HW116079   0.528   3.355   5.213
 5060SOL    HW216080   0.611   3.270   5.325
 5061SOL     OW16081   4.019   3.276   4.751
 5061SOL    HW116082   4.026   3.258   4.849
 5061SOL    HW216083   3.925   3.260   4.721
 5062SOL     OW16084   5.009   1.029   3.343
 5062SOL    HW116085   5.105   1.038   3.317
 5062SOL    HW216086   4.957   1.105   3.306
 5063SOL     OW16087   1.247   6.859   2.497
 5063SOL    HW116088   1.160   6.844   2.543
 5063SOL    HW216089   1.317   6.883   2.565
 5064SOL     OW16090   4.574   5.775   0.380
 5064SOL    HW116091   4.497   5.829   0.346
 5064SOL    HW216092   4.584   5.790   0.479
 5065SOL     OW16093   2.515   6.881   3.448
 5065SOL    HW116094   2.429   6.854   3.405
 5065SOL    HW216095   2.582   6.808   3.436
 5066SOL     OW16096   1.955   4.779   1.492
 5066SOL    HW116097   1.875   4.754   1.438
 5066SOL    HW216098   2.031   4.718   1.470
 5067SOL     OW16099   3.999   2.677   1.667
 5067SOL    HW116100   3.997   2.595   1.608
 5067SOL    HW216101   4.079   2.732   1.646
 5068SOL     OW16102   3.867   6.269   0.835
 5068SOL    HW116103   3.868   6.321   0.750
 5068SOL    HW216104   3.961   6.254   0.866
 5069SOL     OW16105   3.166   4.448   6.169
 5069SOL    HW116106   3.087   4.445   6.107
 5069SOL    HW216107   3.134   4.446   6.264
 5070SOL     OW16108   5.516   3.286   3.991
 5070SOL    HW116109   5.497   3.207   3.933
 5070SOL    HW216110   5.610   3.317   3.976
 5071SOL     OW16111   3.521   0.990   3.496
 5071SOL    HW116112   3.561   0.998   3.587
 5071SOL    HW216113   3.550   1.067   3.439
 5072SOL     OW16114   1.992   1.279   0.824
 5072SOL    HW116115   1.994   1.223   0.740
 5072SOL    HW216116   1.911   1.255   0.877
 5073SOL     OW16117   2.766   6.676   2.236
 5073SOL    HW116118   2.680   6.684   2.286
 5073SOL    HW216119   2.769   6.590   2.185
 5074SOL     OW16120   3.918   2.288   1.762
 5074SOL    HW116121   3.905   2.191   1.740
 5074SOL    HW216122   3.833   2.326   1.799
 5075SOL     OW16123   1.705   3.337   0.111
 5075SOL    HW116124   1.677   3.358   0.017
 5075SOL    HW216125   1.624   3.314   0.165
 5076SOL     OW16126   5.589   0.744   0.905
 5076SOL    HW116127   5.652   0.770   0.978
 5076SOL    HW216128   5.614   0.654   0.870
 5077SOL     OW16129   0.853   5.107   3.867
 5077SOL    HW116130   0.937   5.156   3.886
 5077SOL    HW216131   0.848   5.025   3.925
 5078SOL     OW16132   0.487   0.980   3.967
 5078SOL    HW116133   0.537   0.994   3.881
 5078SOL    HW216134   0.549   0.943   4.036
 5079SOL     OW16135   1.962   2.250   5.876
 5079SOL    HW116136   1.917   2.313   5.812
 5079SOL    HW216137   2.013   2.302   5.944
 5080SOL     OW16138   6.536   5.139   5.930
 5080SOL    HW116139   6.628   5.125   5.966
 5080SOL    HW216140   6.482   5.055   5.943
 5081SOL     OW16141   3.571   5.890   5.789
 5081SOL    HW116142   3.605   5.979   5.821
 5081SOL    HW216143   3.512   5.904   5.710
 5082SOL     OW16144   4.848   6.560   1.347
 5082SOL    HW116145   4.897   6.585   1.430
 5082SOL    HW216146   4.767   6.507   1.371
 5083SOL     OW16147   2.655   0.516   2.968
 5083SOL    HW116148   2.598   0.597   2.955
 5083SOL    HW216149   2.739   0.526   2.915
 5084SOL     OW16150   0.688   4.873   4.864
 5084SOL    HW116151   0.711   4.956   4.812
 5084SOL    HW216152   0.768   4.812   4.866
 5085SOL     OW16153   1.119   3.623   6.495
 5085SOL    HW116154   1.197   3.588   6.546
 5085SOL    HW216155   1.114   3.723   6.507
 5086SOL     OW16156   1.227   4.385   2.352
 5086SOL    HW116157   1.228   4.433   2.263
 5086SOL    HW216158   1.132   4.366   2.378
 5087SOL     OW16159   6.718   5.134   2.672
 5087SOL    HW116160   6.761   5.169   2.756
 5087SOL    HW216161   6.786   5.085   2.618
 5088SOL     OW16162   4.429   5.916   2.555
 5088SOL    HW116163   4.343   5.890   2.599
 5088SOL    HW216164   4.411   5.952   2.464
 5089SOL     OW16165   5.238   4.567   4.542
 5089SOL    HW116166   5.325   4.518   4.547
 5089SOL    HW216167   5.250   4.660   4.578
 5090SOL     OW16168   2.452   0.571   3.958
 5090SOL    HW116169   2.460   0.575   4.058
 5090SOL    HW216170   2.499   0.490   3.924
 5091SOL     OW16171   6.462   0.099   0.377
 5091SOL    HW116172   6.479   0.196   0.390
 5091SOL    HW216173   6.483   0.050   0.462
 5092SOL     OW16174   3.696   3.821   4.546
 5092SOL    HW116175   3.742   3.735   4.568
 5092SOL    HW216176   3.630   3.843   4.618
 5093SOL     OW16177   1.672   1.597   3.101
 5093SOL    HW116178   1.654   1.648   3.017
 5093SOL    HW216179   1.667   1.499   3.082
 5094SOL     OW16180   2.149   5.336   6.450
 5094SOL    HW116181   2.223   5.282   6.411
 5094SOL    HW216182   2.185   5.394   6.523
 5095SOL     OW16183   0.318   1.167   3.315
 5095SOL    HW116184   0.244   1.223   3.277
 5095SOL    HW216185   0.317   1.077   3.271
 5096SOL     OW16186   5.237   3.439   6.359
 5096SOL    HW116187   5.172   3.497   6.407
 5096SOL    HW216188   5.287   3.493   6.291
 5097SOL     OW16189   6.633   6.992   6.264
 5097SOL    HW116190   6.612   6.948   6.177
 5097SOL    HW216191   6.641   6.923   6.336
 5098SOL     OW16192   3.517   1.995   1.942
 5098SOL    HW116193   3.551   1.934   1.869
 5098SOL    HW216194   3.561   2.084   1.933
 5099SOL     OW16195   0.478   5.463   1.940
 5099SOL    HW116196   0.383   5.495   1.933
 5099SOL    HW216197   0.511   5.440   1.848
 5100SOL     OW16198   5.063   4.428   2.968
 5100SOL    HW116199   5.119   4.461   2.892
 5100SOL    HW216200   4.972   4.470   2.963
 5101SOL     OW16201   4.175   0.272   5.329
 5101SOL    HW116202   4.103   0.254   5.396
 5101SOL    HW216203   4.134   0.311   5.246
 5102SOL     OW16204   5.531   5.316   3.919
 5102SOL    HW116205   5.489   5.250   3.981
 5102SOL    HW216206   5.630   5.304   3.918
 5103SOL     OW16207   1.136   0.199   5.617
 5103SOL    HW116208   1.057   0.259   5.603
 5103SOL    HW216209   1.175   0.217   5.708
 5104SOL     OW16210   3.661   5.111   1.508
 5104SOL    HW116211   3.634   5.203   1.481
 5104SOL    HW216212   3.652   5.101   1.607
 5105SOL     OW16213   3.291   3.442   6.856
 5105SOL    HW116214   3.338   3.414   6.940
 5105SOL    HW216215   3.290   3.542   6.850
 5106SOL     OW16216   4.061   2.790   0.993
 5106SOL    HW116217   4.112   2.798   0.908
 5106SOL    HW216218   3.963   2.788   0.974
 5107SOL     OW16219   5.288   2.179   1.258
 5107SOL    HW116220   5.220   2.109   1.282
 5107SOL    HW216221   5.267   2.216   1.168
 5108SOL     OW16222   4.435   3.753   6.473
 5108SOL    HW116223   4.434   3.787   6.567
 5108SOL    HW216224   4.360   3.688   6.460
 5109SOL     OW16225   2.032   3.096   1.008
 5109SOL    HW116226   2.036   2.997   1.013
 5109SOL    HW216227   1.999   3.133   1.095
 5110SOL     OW16228   5.690   6.798   6.433
 5110SOL    HW116229   5.707   6.700   6.449
 5110SOL    HW216230   5.759   6.833   6.369
 5111SOL     OW16231   1.304   5.623   5.052
 5111SOL    HW116232   1.275   5.711   5.090
 5111SOL    HW216233   1.226   5.579   5.007
 5112SOL     OW16234   0.197   0.531   3.685
 5112SOL    HW116235   0.154   0.620   3.704
 5112SOL    HW216236   0.168   0.465   3.754
 5113SOL     OW16237   2.374   5.074   0.974
 5113SOL    HW116238   2.426   4.996   1.008
 5113SOL    HW216239   2.328   5.119   1.051
 5114SOL     OW16240   3.970   0.049   0.356
 5114SOL    HW116241   4.040   0.077   0.290
 5114SOL    HW216242   3.882   0.042   0.309
 5115SOL     OW16243   2.192   3.910   1.917
 5115SOL    HW116244   2.187   3.973   1.995
 5115SOL    HW216245   2.203   3.817   1.950
 5116SOL     OW16246   2.665   7.008   6.697
 5116SOL    HW116247   2.730   0.033   6.642
 5116SOL    HW216248   2.614   6.944   6.639
 5117SOL     OW16249   1.213   2.444   4.481
 5117SOL    HW116250   1.227   2.539   4.454
 5117SOL    HW216251   1.130   2.409   4.437
 5118SOL     OW16252   6.308   6.660   0.110
 5118SOL    HW116253   6.280   6.756   0.102
 5118SOL    HW216254   6.343   6.643   0.202
 5119SOL     OW16255   5.415   1.833   0.225
 5119SOL    HW116256   5.407   1.885   0.310
 5119SOL    HW216257   5.333   1.776   0.213
 5120SOL     OW16258   5.237   0.674   4.494
 5120SOL    HW116259   5.215   0.600   4.558
 5120SOL    HW216260   5.335   0.693   4.498
 5121SOL     OW16261   2.855   3.654   6.981
 5121SOL    HW116262   2.756   3.640   6.994
 5121SOL    HW216263   2.897   3.570   6.948
 5122SOL     OW16264   4.288   5.586   3.371
 5122SOL    HW116265   4.320   5.629   3.286
 5122SOL    HW216266   4.267   5.490   3.354
 5123SOL     OW16267   4.937   1.931   2.125
 5123SOL    HW116268   4.917   2.021   2.086
 5123SOL    HW216269   4.864   1.867   2.102
 5124SOL     OW16270   2.036   6.161   3.621
 5124SOL    HW116271   2.040   6.259   3.638
 5124SOL    HW216272   1.993   6.115   3.699
 5125SOL     OW16273   0.541   2.215   3.926
 5125SOL    HW116274   0.532   2.310   3.955
 5125SOL    HW216275   0.636   2.185   3.941
 5126SOL     OW16276   1.851   0.029   0.747
 5126SOL    HW116277   1.786   7.025   0.677
 5126SOL    HW216278   1.894   6.974   0.788
 5127SOL     OW16279   1.911   5.437   0.518
 5127SOL    HW116280   1.964   5.374   0.462
 5127SOL    HW216281   1.814   5.410   0.517
 5128SOL     OW16282   6.775   6.072   1.632
 5128SOL    HW116283   6.868   6.063   1.667
 5128SOL    HW216284   6.734   6.157   1.665
 5129SOL     OW16285   4.637   6.361   1.339
 5129SOL    HW116286   4.579   6.381   1.418
 5129SOL    HW216287   4.581   6.359   1.256
 5130SOL     OW16288   6.445   4.722   3.333
 5130SOL    HW116289   6.378   4.790   3.364
 5130SOL    HW216290   6.398   4.650   3.282
 5131SOL     OW16291   1.136   2.591   3.543
 5131SOL    HW116292   1.140   2.660   3.472
 5131SOL    HW216293   1.092   2.509   3.508
 5132SOL     OW16294   3.853   4.428   6.652
 5132SOL    HW116295   3.911   4.465   6.579
 5132SOL    HW216296   3.787   4.497   6.681
 5133SOL     OW16297   3.844   5.797   6.538
 5133SOL    HW116298   3.887   5.848   6.464
 5133SOL    HW216299   3.805   5.860   6.605
 5134SOL     OW16300   0.528   3.346   1.446
 5134SOL    HW116301   0.585   3.395   1.380
 5134SOL    HW216302   0.432   3.358   1.422
 5135SOL     OW16303   6.925   2.011   4.915
 5135SOL    HW116304   6.987   2.061   4.975
 5135SOL    HW216305   6.977   1.956   4.850
 5136SOL     OW16306   5.027   0.384   4.475
 5136SOL    HW116307   5.023   0.454   4.404
 5136SOL    HW216308   4.941   0.381   4.525
 5137SOL     OW16309   5.158   3.933   6.749
 5137SOL    HW116310   5.172   3.935   6.650
 5137SOL    HW216311   5.101   3.854   6.773
 5138SOL     OW16312   2.917   3.377   6.346
 5138SOL    HW116313   2.823   3.374   6.310
 5138SOL    HW216314   2.970   3.302   6.306
 5139SOL     OW16315   1.609   6.574   4.098
 5139SOL    HW116316   1.664   6.654   4.122
 5139SOL    HW216317   1.578   6.582   4.003
 5140SOL     OW16318   3.341   2.576   0.882
 5140SOL    HW116319   3.263   2.512   0.877
 5140SOL    HW216320   3.391   2.561   0.967
 5141SOL     OW16321   5.616   3.473   0.861
 5141SOL    HW116322   5.702   3.505   0.821
 5141SOL    HW216323   5.636   3.425   0.946
 5142SOL     OW16324   5.774   3.099   4.416
 5142SOL    HW116325   5.799   3.153   4.335
 5142SOL    HW216326   5.834   3.020   4.423
 5143SOL     OW16327   0.298   4.804   4.169
 5143SOL    HW116328   0.275   4.878   4.233
 5143SOL    HW216329   0.392   4.816   4.137
 5144SOL     OW16330   1.657   6.993   6.351
 5144SOL    HW116331   1.635   6.932   6.275
 5144SOL    HW216332   1.594   0.045   6.352
 5145SOL     OW16333   2.452   5.370   5.717
 5145SOL    HW116334   2.451   5.434   5.640
 5145SOL    HW216335   2.542   5.372   5.761
 5146SOL     OW16336   3.538   3.723   6.935
 5146SOL    HW116337   3.588   3.636   6.929
 5146SOL    HW216338   3.440   3.706   6.931
 5147SOL     OW16339   6.801   4.607   0.572
 5147SOL    HW116340   6.702   4.601   0.561
 5147SOL    HW216341   6.827   4.700   0.596
 5148SOL     OW16342   6.853   5.908   1.428
 5148SOL    HW116343   6.838   5.974   1.501
 5148SOL    HW216344   6.861   5.816   1.466
 5149SOL     OW16345   6.233   1.220   3.022
 5149SOL    HW116346   6.273   1.130   3.043
 5149SOL    HW216347   6.163   1.242   3.089
 5150SOL     OW16348   1.703   6.308   3.600
 5150SOL    HW116349   1.768   6.372   3.558
 5150SOL    HW216350   1.612   6.349   3.600
 5151SOL     OW16351   5.143   1.367   6.690
 5151SOL    HW116352   5.229   1.412   6.713
 5151SOL    HW216353   5.101   1.330   6.773
 5152SOL     OW16354   1.237   4.799   0.315
 5152SOL    HW116355   1.324   4.844   0.298
 5152SOL    HW216356   1.191   4.844   0.392
 5153SOL     OW16357   2.579   2.283   0.689
 5153SOL    HW116358   2.554   2.233   0.606
 5153SOL    HW216359   2.612   2.218   0.758
 5154SOL     OW16360   1.752   3.132   6.344
 5154SOL    HW116361   1.834   3.076   6.346
 5154SOL    HW216362   1.766   3.210   6.283
 5155SOL     OW16363   4.293   6.231   2.065
 5155SOL    HW116364   4.327   6.281   1.985
 5155SOL    HW216365   4.370   6.202   2.121
 5156SOL     OW16366   6.607   2.225   5.627
 5156SOL    HW116367   6.619   2.216   5.726
 5156SOL    HW216368   6.634   2.317   5.599
 5157SOL     OW16369   5.050   2.563   3.569
 5157SOL    HW116370   5.138   2.538   3.530
 5157SOL    HW216371   5.031   2.660   3.551
 5158SOL     OW16372   3.585   1.711   1.430
 5158SOL    HW116373   3.528   1.628   1.436
 5158SOL    HW216374   3.545   1.774   1.364
 5159SOL     OW16375   0.470   2.777   4.293
 5159SOL    HW116376   0.462   2.842   4.217
 5159SOL    HW216377   0.395   2.793   4.358
 5160SOL     OW16378   1.370   3.453   4.424
 5160SOL    HW116379   1.375   3.377   4.490
 5160SOL    HW216380   1.289   3.508   4.444
 5161SOL     OW16381   1.229   3.631   5.501
 5161SOL    HW116382   1.272   3.656   5.415
 5161SOL    HW216383   1.133   3.658   5.500
 5162SOL     OW16384   6.925   5.709   3.829
 5162SOL    HW116385   6.925   5.718   3.730
 5162SOL    HW216386   6.844   5.657   3.858
 5163SOL     OW16387   5.368   5.209   0.552
 5163SOL    HW116388   5.340   5.115   0.571
 5163SOL    HW216389   5.383   5.221   0.454
 5164SOL     OW16390   5.502   2.829   5.315
 5164SOL    HW116391   5.430   2.807   5.381
 5164SOL    HW216392   5.586   2.850   5.364
 5165SOL     OW16393   6.280   4.692   4.401
 5165SOL    HW116394   6.214   4.752   4.446
 5165SOL    HW216395   6.299   4.613   4.460
 5166SOL     OW16396   1.324   4.363   1.654
 5166SOL    HW116397   1.336   4.436   1.721
 5166SOL    HW216398   1.264   4.293   1.691
 5167SOL     OW16399   6.001   6.603   5.941
 5167SOL    HW116400   6.018   6.702   5.937
 5167SOL    HW216401   5.904   6.587   5.961
 5168SOL     OW16402   4.086   2.143   3.062
 5168SOL    HW116403   4.130   2.224   3.100
 5168SOL    HW216404   4.112   2.062   3.114
 5169SOL     OW16405   3.321   4.011   6.334
 5169SOL    HW116406   3.233   4.040   6.371
 5169SOL    HW216407   3.348   4.072   6.260
 5170SOL     OW16408   6.406   4.436   4.917
 5170SOL    HW116409   6.441   4.350   4.881
 5170SOL    HW216410   6.429   4.443   5.014
 5171SOL     OW16411   2.511   4.985   4.374
 5171SOL    HW116412   2.473   4.901   4.415
 5171SOL    HW216413   2.608   4.992   4.398
 5172SOL     OW16414   0.534   3.641   1.854
 5172SOL    HW116415   0.585   3.726   1.847
 5172SOL    HW216416   0.597   3.563   1.854
 5173SOL     OW16417   6.057   4.035   6.090
 5173SOL    HW116418   6.074   4.131   6.066
 5173SOL    HW216419   5.966   4.027   6.132
 5174SOL     OW16420   1.320   4.957   5.165
 5174SOL    HW116421   1.350   4.864   5.143
 5174SOL    HW216422   1.229   4.972   5.128
 5175SOL     OW16423   1.657   4.667   0.544
 5175SOL    HW116424   1.678   4.605   0.469
 5175SOL    HW216425   1.741   4.692   0.592
 5176SOL     OW16426   4.213   3.738   0.674
 5176SOL    HW116427   4.144   3.667   0.656
 5176SOL    HW216428   4.167   3.822   0.703
 5177SOL     OW16429   4.358   6.617   5.780
 5177SOL    HW116430   4.421   6.556   5.732
 5177SOL    HW216431   4.410   6.680   5.839
 5178SOL     OW16432   2.873   2.959   1.735
 5178SOL    HW116433   2.860   2.865   1.704
 5178SOL    HW216434   2.800   3.017   1.698
 5179SOL     OW16435   4.025   6.848   5.716
 5179SOL    HW116436   3.942   6.901   5.732
 5179SOL    HW216437   4.005   6.773   5.653
 5180SOL     OW16438   3.504   1.884   0.259
 5180SOL    HW116439   3.418   1.844   0.229
 5180SOL    HW216440   3.577   1.859   0.195
 5181SOL     OW16441   4.088   0.266   2.597
 5181SOL    HW116442   4.087   0.363   2.573
 5181SOL    HW216443   4.053   0.254   2.689
 5182SOL     OW16444   5.716   4.470   1.501
 5182SOL    HW116445   5.676   4.561   1.490
 5182SOL    HW216446   5.814   4.473   1.480
 5183SOL     OW16447   4.409   0.026   2.197
 5183SOL    HW116448   4.476   0.034   2.271
 5183SOL    HW216449   4.440   0.079   2.119
 5184SOL     OW16450   1.086   1.432   3.368
 5184SOL    HW116451   1.152   1.497   3.330
 5184SOL    HW216452   1.097   1.343   3.324
 5185SOL     OW16453   3.616   7.026   2.225
 5185SOL    HW116454   3.629   0.060   2.304
 5185SOL    HW216455   3.659   6.937   2.243
 5186SOL     OW16456   7.012   4.052   1.164
 5186SOL    HW116457   6.925   4.019   1.126
 5186SOL    HW216458   0.043   4.088   1.089
 5187SOL     OW16459   6.309   1.757   3.640
 5187SOL    HW116460   6.270   1.694   3.572
 5187SOL    HW216461   6.409   1.750   3.639
 5188SOL     OW16462   0.876   5.095   6.569
 5188SOL    HW116463   0.845   5.187   6.546
 5188SOL    HW216464   0.797   5.034   6.580
 5189SOL     OW16465   5.218   4.485   6.544
 5189SOL    HW116466   5.139   4.545   6.529
 5189SOL    HW216467   5.295   4.517   6.489
 5190SOL     OW16468   0.802   2.135   4.300
 5190SOL    HW116469   0.780   2.039   4.280
 5190SOL    HW216470   0.718   2.189   4.297
 5191SOL     OW16471   3.365   1.351   2.162
 5191SOL    HW116472   3.463   1.338   2.179
 5191SOL    HW216473   3.332   1.429   2.216
 5192SOL     OW16474   5.454   5.711   2.596
 5192SOL    HW116475   5.491   5.628   2.554
 5192SOL    HW216476   5.416   5.688   2.686
 5193SOL     OW16477   4.719   4.785   3.852
 5193SOL    HW116478   4.782   4.707   3.856
 5193SOL    HW216479   4.636   4.763   3.904
 5194SOL     OW16480   5.354   0.584   5.764
 5194SOL    HW116481   5.416   0.520   5.810
 5194SOL    HW216482   5.273   0.598   5.821
 5195SOL     OW16483   6.344   6.951   4.969
 5195SOL    HW116484   6.296   0.009   4.997
 5195SOL    HW216485   6.282   6.873   4.978
 5196SOL     OW16486   0.421   4.176   1.818
 5196SOL    HW116487   0.376   4.130   1.741
 5196SOL    HW216488   0.358   4.239   1.862
 5197SOL     OW16489   2.026   6.127   4.424
 5197SOL    HW116490   1.952   6.062   4.444
 5197SOL    HW216491   2.060   6.112   4.331
 5198SOL     OW16492   3.789   6.105   5.453
 5198SOL    HW116493   3.840   6.083   5.536
 5198SOL    HW216494   3.828   6.056   5.376
 5199SOL     OW16495   2.357   5.909   1.559
 5199SOL    HW116496   2.412   5.940   1.637
 5199SOL    HW216497   2.411   5.847   1.503
 5200SOL     OW16498   0.656   1.567   4.686
 5200SOL    HW116499   0.753   1.563   4.659
 5200SOL    HW216500   0.635   1.490   4.747
 5201SOL     OW16501   5.426   4.837   4.036
 5201SOL    HW116502   5.511   4.795   4.003
 5201SOL    HW216503   5.348   4.790   3.995
 5202SOL     OW16504   4.678   3.379   6.124
 5202SOL    HW116505   4.721   3.396   6.213
 5202SOL    HW216506   4.671   3.466   6.073
 5203SOL     OW16507   2.009   0.757   0.267
 5203SOL    HW116508   1.974   0.800   0.184
 5203SOL    HW216509   1.960   0.671   0.284
 5204SOL     OW16510   3.159   0.584   6.488
 5204SOL    HW116511   3.231   0.633   6.438
 5204SOL    HW216512   3.200   0.509   6.540
 5205SOL     OW16513   0.276   6.090   1.253
 5205SOL    HW116514   0.323   6.167   1.209
 5205SOL    HW216515   0.180   6.091   1.225
 5206SOL     OW16516   0.396   4.409   5.010
 5206SOL    HW116517   0.324   4.340   5.014
 5206SOL    HW216518   0.465   4.389   5.079
 5207SOL     OW16519   0.128   0.607   5.198
 5207SOL    HW116520   0.046   0.637   5.149
 5207SOL    HW216521   0.178   0.687   5.230
 5208SOL     OW16522   4.777   2.472   0.189
 5208SOL    HW116523   4.780   2.565   0.226
 5208SOL    HW216524   4.709   2.468   0.116
 5209SOL     OW16525   4.816   6.683   3.179
 5209SOL    HW116526   4.773   6.737   3.107
 5209SOL    HW216527   4.834   6.741   3.258
 5210SOL     OW16528   5.148   4.008   0.700
 5210SOL    HW116529   5.176   3.949   0.624
 5210SOL    HW216530   5.093   4.083   0.665
 5211SOL     OW16531   4.708   2.515   4.048
 5211SOL    HW116532   4.679   2.589   4.109
 5211SOL    HW216533   4.717   2.430   4.100
 5212SOL     OW16534   1.396   3.224   0.635
 5212SOL    HW116535   1.374   3.253   0.729
 5212SOL    HW216536   1.317   3.239   0.576
 5213SOL     OW16537   3.839   2.944   2.339
 5213SOL    HW116538   3.790   2.893   2.410
 5213SOL    HW216539   3.795   3.033   2.325
 5214SOL     OW16540   5.578   4.032   6.479
 5214SOL    HW116541   5.673   4.004   6.493
 5214SOL    HW216542   5.527   4.022   6.564
 5215SOL     OW16543   6.529   3.518   4.680
 5215SOL    HW116544   6.604   3.472   4.631
 5215SOL    HW216545   6.461   3.450   4.708
 5216SOL     OW16546   5.518   4.634   0.739
 5216SOL    HW116547   5.548   4.657   0.832
 5216SOL    HW216548   5.453   4.557   0.743
 5217SOL     OW16549   4.007   5.734   4.212
 5217SOL    HW116550   4.050   5.748   4.301
 5217SOL    HW216551   3.975   5.821   4.176
 5218SOL     OW16552   0.731   0.628   0.902
 5218SOL    HW116553   0.666   0.587   0.838
 5218SOL    HW216554   0.788   0.695   0.853
 5219SOL     OW16555   2.429   2.034   4.867
 5219SOL    HW116556   2.529   2.039   4.870
 5219SOL    HW216557   2.399   1.954   4.917
 5220SOL     OW16558   2.022   4.642   3.320
 5220SOL    HW116559   2.118   4.661   3.341
 5220SOL    HW216560   1.980   4.593   3.396
 5221SOL     OW16561   6.939   0.274   1.677
 5221SOL    HW116562   7.000   0.320   1.613
 5221SOL    HW216563   6.970   0.290   1.770
 5222SOL     OW16564   4.502   4.713   1.369
 5222SOL    HW116565   4.446   4.706   1.451
 5222SOL    HW216566   4.583   4.655   1.378
 5223SOL     OW16567   0.521   3.036   0.758
 5223SOL    HW116568   0.555   3.130   0.761
 5223SOL    HW216569   0.594   2.973   0.787
 5224SOL     OW16570   0.746   2.048   3.944
 5224SOL    HW116571   0.781   1.980   3.879
 5224SOL    HW216572   0.695   2.001   4.016
 5225SOL     OW16573   0.252   1.622   5.185
 5225SOL    HW116574   0.178   1.565   5.149
 5225SOL    HW216575   0.238   1.717   5.156
 5226SOL     OW16576   0.320   5.856   4.168
 5226SOL    HW116577   0.278   5.947   4.169
 5226SOL    HW216578   0.381   5.848   4.089
 5227SOL     OW16579   6.638   2.973   5.265
 5227SOL    HW116580   6.722   2.960   5.214
 5227SOL    HW216581   6.619   3.071   5.274
 5228SOL     OW16582   2.045   3.170   5.677
 5228SOL    HW116583   2.023   3.267   5.670
 5228SOL    HW216584   1.984   3.126   5.743
 5229SOL     OW16585   3.895   0.672   6.590
 5229SOL    HW116586   3.973   0.650   6.649
 5229SOL    HW216587   3.914   0.638   6.497
 5230SOL     OW16588   6.832   0.005   1.655
 5230SOL    HW116589   6.889   0.086   1.665
 5230SOL    HW216590   6.748   0.016   1.709
 5231SOL     OW16591   6.027   1.810   2.622
 5231SOL    HW116592   6.091   1.846   2.690
 5231SOL    HW216593   6.023   1.710   2.629
 5232SOL     OW16594   1.846   3.436   5.849
 5232SOL    HW116595   1.823   3.497   5.774
 5232SOL    HW216596   1.775   3.439   5.919
 5233SOL     OW16597   3.074   0.255   2.543
 5233SOL    HW116598   3.089   0.217   2.452
 5233SOL    HW216599   3.112   0.347   2.547
 5234SOL     OW16600   2.284   2.325   1.007
 5234SOL    HW116601   2.246   2.232   1.010
 5234SOL    HW216602   2.333   2.344   1.092
 5235SOL     OW16603   2.726   1.972   1.142
 5235SOL    HW116604   2.706   2.069   1.131
 5235SOL    HW216605   2.757   1.954   1.235
 5236SOL     OW16606   3.168   5.257   2.047
 5236SOL    HW116607   3.236   5.236   2.118
 5236SOL    HW216608   3.154   5.176   1.990
 5237SOL     OW16609   2.023   2.391   4.383
 5237SOL    HW116610   2.091   2.461   4.359
 5237SOL    HW216611   2.068   2.303   4.394
 5238SOL     OW16612   1.105   5.620   2.950
 5238SOL    HW116613   1.014   5.659   2.968
 5238SOL    HW216614   1.124   5.624   2.852
 5239SOL     OW16615   3.332   3.684   1.228
 5239SOL    HW116616   3.430   3.683   1.211
 5239SOL    HW216617   3.311   3.629   1.310
 5240SOL     OW16618   2.668   2.627   6.207
 5240SOL    HW116619   2.584   2.599   6.253
 5240SOL    HW216620   2.673   2.726   6.204
 5241SOL     OW16621   1.329   6.010   2.485
 5241SOL    HW116622   1.329   5.912   2.465
 5241SOL    HW216623   1.265   6.057   2.424
 5242SOL     OW16624   4.964   0.586   0.114
 5242SOL    HW116625   4.893   0.578   0.184
 5242SOL    HW216626   5.016   0.501   0.111
 5243SOL     OW16627   1.566   6.081   1.908
 5243SOL    HW116628   1.661   6.060   1.930
 5243SOL    HW216629   1.540   6.167   1.954
 5244SOL     OW16630   4.877   3.224   0.062
 5244SOL    HW116631   4.888   3.283   0.142
 5244SOL    HW216632   4.953   3.160   0.056
 5245SOL     OW16633   4.057   3.856   0.397
 5245SOL    HW116634   4.064   3.943   0.446
 5245SOL    HW216635   4.148   3.821   0.379
 5246SOL     OW16636   5.945   3.057   1.420
 5246SOL    HW116637   5.964   3.144   1.465
 5246SOL    HW216638   5.936   2.985   1.489
 5247SOL     OW16639   3.954   2.131   6.009
 5247SOL    HW116640   3.952   2.156   6.106
 5247SOL    HW216641   4.006   2.199   5.958
 5248SOL     OW16642   6.424   1.839   2.804
 5248SOL    HW116643   6.447   1.865   2.898
 5248SOL    HW216644   6.481   1.890   2.740
 5249SOL     OW16645   0.678   4.928   6.602
 5249SOL    HW116646   0.584   4.959   6.589
 5249SOL    HW216647   0.679   4.828   6.609
 5250SOL     OW16648   2.129   5.862   0.466
 5250SOL    HW116649   2.226   5.871   0.446
 5250SOL    HW216650   2.109   5.767   0.493
 5251SOL     OW16651   0.716   4.309   0.941
 5251SOL    HW116652   0.726   4.311   0.842
 5251SOL    HW216653   0.792   4.257   0.981
 5252SOL     OW16654   3.480   0.369   2.297
 5252SOL    HW116655   3.428   0.329   2.222
 5252SOL    HW216656   3.450   0.328   2.384
 5253SOL     OW16657   5.647   4.946   4.407
 5253SOL    HW116658   5.628   4.857   4.365
 5253SOL    HW216659   5.705   4.933   4.487
 5254SOL     OW16660   5.811   0.004   3.020
 5254SOL    HW116661   5.876   6.956   3.036
 5254SOL    HW216662   5.827   0.077   3.087
 5255SOL     OW16663   6.065   1.461   4.845
 5255SOL    HW116664   6.162   1.448   4.825
 5255SOL    HW216665   6.014   1.470   4.760
 5256SOL     OW16666   5.593   0.773   3.250
 5256SOL    HW116667   5.653   0.828   3.192
 5256SOL    HW216668   5.533   0.833   3.304
 5257SOL     OW16669   4.189   0.646   6.402
 5257SOL    HW116670   4.250   0.679   6.331
 5257SOL    HW216671   4.182   0.547   6.398
 5258SOL     OW16672   4.982   1.549   2.389
 5258SOL    HW116673   4.938   1.638   2.380
 5258SOL    HW216674   5.008   1.516   2.298
 5259SOL     OW16675   4.976   4.892   3.267
 5259SOL    HW116676   4.911   4.960   3.233
 5259SOL    HW216677   5.053   4.939   3.311
 5260SOL     OW16678   2.247   0.301   6.974
 5260SOL    HW116679   2.305   0.372   6.936
 5260SOL    HW216680   2.271   0.285   0.044
 5261SOL     OW16681   6.383   4.762   0.252
 5261SOL    HW116682   6.313   4.831   0.237
 5261SOL    HW216683   6.462   4.782   0.194
 5262SOL     OW16684   2.264   0.609   2.415
 5262SOL    HW116685   2.305   0.690   2.373
 5262SOL    HW216686   2.313   0.527   2.383
 5263SOL     OW16687   1.932   1.425   3.551
 5263SOL    HW116688   1.866   1.407   3.624
 5263SOL    HW216689   1.995   1.347   3.542
 5264SOL     OW16690   0.003   2.565   1.620
 5264SOL    HW116691   6.986   2.653   1.637
 5264SOL    HW216692   6.986   2.495   1.678
 5265SOL     OW16693   5.808   3.428   5.006
 5265SOL    HW116694   5.772   3.352   4.952
 5265SOL    HW216695   5.794   3.514   4.957
 5266SOL     OW16696   2.349   0.190   0.439
 5266SOL    HW116697   2.410   0.257   0.481
 5266SOL    HW216698   2.283   0.157   0.507
 5267SOL     OW16699   4.299   2.315   4.720
 5267SOL    HW116700   4.350   2.352   4.643
 5267SOL    HW216701   4.350   2.332   4.805
 5268SOL     OW16702   5.517   0.900   6.352
 5268SOL    HW116703   5.584   0.920   6.280
 5268SOL    HW216704   5.519   0.973   6.420
 5269SOL     OW16705   0.187   6.470   2.609
 5269SOL    HW116706   0.240   6.518   2.680
 5269SOL    HW216707   0.238   6.390   2.578
 5270SOL     OW16708   0.003   1.751   6.668
 5270SOL    HW116709   0.097   1.734   6.641
 5270SOL    HW216710   7.009   1.704   6.753
 5271SOL     OW16711   6.099   5.534   4.144
 5271SOL    HW116712   6.153   5.586   4.079
 5271SOL    HW216713   6.002   5.538   4.118
 5272SOL     OW16714   4.197   0.153   0.178
 5272SOL    HW116715   4.286   0.199   0.168
 5272SOL    HW216716   4.208   0.056   0.156
 5273SOL     OW16717   1.126   3.044   2.499
 5273SOL    HW116718   1.075   3.083   2.575
 5273SOL    HW216719   1.119   2.944   2.502
 5274SOL     OW16720   4.879   5.992   2.496
 5274SOL    HW116721   4.938   6.063   2.459
 5274SOL    HW216722   4.885   5.993   2.596
 5275SOL     OW16723   3.525   0.707   0.309
 5275SOL    HW116724   3.563   0.743   0.224
 5275SOL    HW216725   3.570   0.620   0.331
 5276SOL     OW16726   3.036   6.470   1.906
 5276SOL    HW116727   2.978   6.533   1.856
 5276SOL    HW216728   3.107   6.521   1.954
 5277SOL     OW16729   1.952   1.266   2.285
 5277SOL    HW116730   1.904   1.251   2.372
 5277SOL    HW216731   1.892   1.315   2.222
 5278SOL     OW16732   4.696   5.385   2.077
 5278SOL    HW116733   4.796   5.386   2.080
 5278SOL    HW216734   4.661   5.450   2.144
 5279SOL     OW16735   2.761   5.362   1.572
 5279SOL    HW116736   2.726   5.446   1.529
 5279SOL    HW216737   2.703   5.285   1.549
 5280SOL     OW16738   3.411   6.055   4.936
 5280SOL    HW116739   3.479   6.070   4.865
 5280SOL    HW216740   3.349   5.981   4.907
 5281SOL     OW16741   0.787   1.951   2.080
 5281SOL    HW116742   0.821   1.880   2.142
 5281SOL    HW216743   0.843   2.034   2.091
 5282SOL     OW16744   3.141   1.918   3.796
 5282SOL    HW116745   3.071   1.969   3.846
 5282SOL    HW216746   3.205   1.877   3.861
 5283SOL     OW16747   5.236   5.663   7.009
 5283SOL    HW116748   5.279   5.740   0.031
 5283SOL    HW216749   5.168   5.699   6.944
 5284SOL     OW16750   5.774   3.276   2.680
 5284SOL    HW116751   5.806   3.276   2.586
 5284SOL    HW216752   5.675   3.257   2.681
 5285SOL     OW16753   3.008   5.139   3.779
 5285SOL    HW116754   3.048   5.207   3.718
 5285SOL    HW216755   2.989   5.181   3.868
 5286SOL     OW16756   1.577   4.196   1.809
 5286SOL    HW116757   1.486   4.187   1.850
 5286SOL    HW216758   1.570   4.251   1.725
 5287SOL     OW16759   2.493   2.159   0.452
 5287SOL    HW116760   2.557   2.097   0.498
 5287SOL    HW216761   2.412   2.109   0.423
 5288SOL     OW16762   3.523   0.209   1.051
 5288SOL    HW116763   3.510   0.291   0.996
 5288SOL    HW216764   3.433   0.170   1.074
 5289SOL     OW16765   0.905   5.279   1.103
 5289SOL    HW116766   0.914   5.254   1.007
 5289SOL    HW216767   0.996   5.293   1.143
 5290SOL     OW16768   3.861   5.670   0.704
 5290SOL    HW116769   3.939   5.643   0.760
 5290SOL    HW216770   3.791   5.712   0.762
 5291SOL     OW16771   2.152   5.215   5.317
 5291SOL    HW116772   2.165   5.226   5.415
 5291SOL    HW216773   2.120   5.122   5.297
 5292SOL     OW16774   4.797   2.877   6.054
 5292SOL    HW116775   4.820   2.908   6.146
 5292SOL    HW216776   4.855   2.924   5.987
 5293SOL     OW16777   0.604   0.310   4.653
 5293SOL    HW116778   0.637   0.381   4.590
 5293SOL    HW216779   0.538   0.350   4.716
 5294SOL     OW16780   6.393   2.687   6.347
 5294SOL    HW116781   6.386   2.594   6.311
 5294SOL    HW216782   6.478   2.730   6.315
 5295SOL     OW16783   6.683   1.097   2.677
 5295SOL    HW116784   6.707   1.156   2.600
 5295SOL    HW216785   6.647   1.010   2.644
 5296SOL     OW16786   0.668   4.565   1.034
 5296SOL    HW116787   0.679   4.481   0.981
 5296SOL    HW216788   0.741   4.630   1.009
 5297SOL     OW16789   2.249   1.916   1.496
 5297SOL    HW116790   2.263   1.850   1.422
 5297SOL    HW216791   2.282   1.877   1.582
 5298SOL     OW16792   0.210   5.498   1.326
 5298SOL    HW116793   0.208   5.542   1.416
 5298SOL    HW216794   0.258   5.557   1.262
 5299SOL     OW16795   3.076   0.456   1.706
 5299SOL    HW116796   2.999   0.510   1.741
 5299SOL    HW216797   3.149   0.518   1.676
 5300SOL     OW16798   6.695   5.935   3.485
 5300SOL    HW116799   6.762   5.884   3.431
 5300SOL    HW216800   6.615   5.956   3.428
 5301SOL     OW16801   4.312   1.249   0.102
 5301SOL    HW116802   4.398   1.262   0.052
 5301SOL    HW216803   4.246   1.204   0.042
 5302SOL     OW16804   5.782   4.285   2.740
 5302SOL    HW116805   5.722   4.297   2.820
 5302SOL    HW216806   5.733   4.234   2.670
 5303SOL     OW16807   6.508   4.342   3.534
 5303SOL    HW116808   6.504   4.265   3.597
 5303SOL    HW216809   6.599   4.347   3.493
 5304SOL     OW16810   5.476   1.772   6.325
 5304SOL    HW116811   5.449   1.865   6.353
 5304SOL    HW216812   5.573   1.759   6.343
 5305SOL     OW16813   2.424   1.051   3.220
 5305SOL    HW116814   2.427   1.057   3.320
 5305SOL    HW216815   2.384   0.964   3.193
 5306SOL     OW16816   3.102   0.327   5.395
 5306SOL    HW116817   3.069   0.297   5.305
 5306SOL    HW216818   3.148   0.250   5.441
 5307SOL     OW16819   4.692   6.824   0.023
 5307SOL    HW116820   4.696   6.919   7.018
 5307SOL    HW216821   4.770   6.805   0.082
 5308SOL     OW16822   0.133   1.476   2.865
 5308SOL    HW116823   0.181   1.440   2.944
 5308SOL    HW216824   0.146   1.416   2.786
 5309SOL     OW16825   3.641   4.065   3.459
 5309SOL    HW116826   3.714   4.060   3.527
 5309SOL    HW216827   3.664   4.007   3.381
 5310SOL     OW16828   5.115   2.066   0.756
 5310SOL    HW116829   5.016   2.080   0.756
 5310SOL    HW216830   5.160   2.144   0.799
 5311SOL     OW16831   1.758   5.331   6.654
 5311SOL    HW116832   1.746   5.282   6.567
 5311SOL    HW216833   1.846   5.379   6.653
 5312SOL     OW16834   0.503   4.074   3.162
 5312SOL    HW116835   0.469   4.074   3.256
 5312SOL    HW216836   0.557   4.157   3.147
 5313SOL     OW16837   1.469   5.940   0.217
 5313SOL    HW116838   1.566   5.956   0.199
 5313SOL    HW216839   1.418   5.944   0.131
 5314SOL     OW16840   3.673   5.244   0.833
 5314SOL    HW116841   3.668   5.253   0.733
 5314SOL    HW216842   3.595   5.191   0.866
 5315SOL     OW16843   5.704   2.823   2.204
 5315SOL    HW116844   5.710   2.850   2.300
 5315SOL    HW216845   5.709   2.723   2.197
 5316SOL     OW16846   6.933   4.524   3.807
 5316SOL    HW116847   6.834   4.533   3.792
 5316SOL    HW216848   6.955   4.553   3.900
 5317SOL     OW16849   5.556   6.517   2.737
 5317SOL    HW116850   5.534   6.599   2.790
 5317SOL    HW216851   5.472   6.466   2.718
 5318SOL     OW16852   0.529   2.753   4.708
 5318SOL    HW116853   0.495   2.706   4.790
 5318SOL    HW216854   0.608   2.702   4.671
 5319SOL     OW16855   5.206   0.612   0.567
 5319SOL    HW116856   5.303   0.610   0.593
 5319SOL    HW216857   5.153   0.557   0.631
 5320SOL     OW16858   5.904   2.799   6.211
 5320SOL    HW116859   5.848   2.729   6.165
 5320SOL    HW216860   5.844   2.863   6.259
 5321SOL     OW16861   2.273   5.270   5.923
 5321SOL    HW116862   2.331   5.340   5.881
 5321SOL    HW216863   2.279   5.186   5.869
 5322SOL     OW16864   3.279   6.066   6.710
 5322SOL    HW116865   3.300   6.164   6.719
 5322SOL    HW216866   3.282   6.041   6.613
 5323SOL     OW16867   5.025   2.810   1.221
 5323SOL    HW116868   5.029   2.710   1.213
 5323SOL    HW216869   4.946   2.844   1.170
 5324SOL     OW16870   3.796   3.386   1.408
 5324SOL    HW116871   3.829   3.455   1.343
 5324SOL    HW216872   3.867   3.366   1.475
 5325SOL     OW16873   5.192   5.964   2.654
 5325SOL    HW116874   5.280   5.977   2.610
 5325SOL    HW216875   5.199   5.990   2.751
 5326SOL     OW16876   0.104   6.280   1.887
 5326SOL    HW116877   0.202   6.278   1.909
 5326SOL    HW216878   0.081   6.365   1.841
 5327SOL     OW16879   6.472   0.567   4.114
 5327SOL    HW116880   6.466   0.611   4.024
 5327SOL    HW216881   6.415   0.485   4.115
 5328SOL     OW16882   4.275   4.256   0.292
 5328SOL    HW116883   4.358   4.201   0.295
 5328SOL    HW216884   4.255   4.282   0.198
 5329SOL     OW16885   0.222   4.977   6.947
 5329SOL    HW116886   0.307   4.956   6.995
 5329SOL    HW216887   0.231   5.065   6.901
 5330SOL     OW16888   4.528   4.160   1.201
 5330SOL    HW116889   4.485   4.111   1.277
 5330SOL    HW216890   4.462   4.171   1.126
 5331SOL     OW16891   4.431   3.783   6.965
 5331SOL    HW116892   4.526   3.759   6.986
 5331SOL    HW216893   4.399   3.853   0.004
 5332SOL     OW16894   6.137   3.467   0.389
 5332SOL    HW116895   6.114   3.371   0.375
 5332SOL    HW216896   6.098   3.522   0.315
 5333SOL     OW16897   1.925   1.618   4.037
 5333SOL    HW116898   1.871   1.575   4.110
 5333SOL    HW216899   2.011   1.651   4.075
 5334SOL     OW16900   4.499   4.958   1.979
 5334SOL    HW116901   4.472   5.005   1.895
 5334SOL    HW216902   4.566   4.887   1.957
 5335SOL     OW16903   6.938   4.602   1.528
 5335SOL    HW116904   6.955   4.622   1.431
 5335SOL    HW216905   6.997   4.526   1.557
 5336SOL     OW16906   1.011   3.162   3.833
 5336SOL    HW116907   1.103   3.173   3.871
 5336SOL    HW216908   0.975   3.252   3.808
 5337SOL     OW16909   7.012   4.481   0.690
 5337SOL    HW116910   6.950   4.537   0.634
 5337SOL    HW216911   6.986   4.385   0.680
 5338SOL     OW16912   6.805   3.348   1.025
 5338SOL    HW116913   6.755   3.296   0.956
 5338SOL    HW216914   6.740   3.399   1.082
 5339SOL     OW16915   5.882   2.536   2.797
 5339SOL    HW116916   5.886   2.570   2.891
 5339SOL    HW216917   5.788   2.511   2.775
 5340SOL     OW16918   5.236   2.749   2.180
 5340SOL    HW116919   5.324   2.703   2.188
 5340SOL    HW216920   5.207   2.782   2.270
 5341SOL     OW16921   4.420   5.689   3.841
 5341SOL    HW116922   4.351   5.648   3.900
 5341SOL    HW216923   4.391   5.781   3.814
 5342SOL     OW16924   5.824   6.646   4.309
 5342SOL    HW116925   5.746   6.649   4.372
 5342SOL    HW216926   5.805   6.580   4.236
 5343SOL     OW16927   3.963   3.641   5.807
 5343SOL    HW116928   4.024   3.717   5.827
 5343SOL    HW216929   3.991   3.598   5.721
 5344SOL     OW16930   1.105   1.638   5.761
 5344SOL    HW116931   1.107   1.571   5.835
 5344SOL    HW216932   1.192   1.634   5.711
 5345SOL     OW16933   5.156   2.228   0.403
 5345SOL    HW116934   5.196   2.203   0.314
 5345SOL    HW216935   5.080   2.166   0.424
 5346SOL     OW16936   3.021   5.871   3.716
 5346SOL    HW116937   3.022   5.773   3.735
 5346SOL    HW216938   3.114   5.904   3.708
 5347SOL     OW16939   5.732   1.543   3.672
 5347SOL    HW116940   5.704   1.591   3.756
 5347SOL    HW216941   5.775   1.608   3.610
 5348SOL     OW16942   5.005   1.787   3.168
 5348SOL    HW116943   5.009   1.872   3.116
 5348SOL    HW216944   5.069   1.721   3.128
 5349SOL     OW16945   6.923   3.970   2.603
 5349SOL    HW116946   7.019   3.945   2.607
 5349SOL    HW216947   6.914   4.067   2.579
 5350SOL     OW16948   1.466   6.229   6.898
 5350SOL    HW116949   1.407   6.149   6.895
 5350SOL    HW216950   1.484   6.254   6.993
 5351SOL     OW16951   6.756   5.579   1.924
 5351SOL    HW116952   6.806   5.494   1.937
 5351SOL    HW216953   6.817   5.657   1.940
 5352SOL     OW16954   1.595   3.273   4.337
 5352SOL    HW116955   1.620   3.219   4.256
 5352SOL    HW216956   1.540   3.351   4.308
 5353SOL     OW16957   4.123   5.456   3.793
 5353SOL    HW116958   4.066   5.461   3.711
 5353SOL    HW216959   4.134   5.361   3.821
 5354SOL     OW16960   4.164   5.937   0.971
 5354SOL    HW116961   4.096   5.962   0.901
 5354SOL    HW216962   4.137   5.977   1.058
 5355SOL     OW16963   4.980   4.734   5.336
 5355SOL    HW116964   4.923   4.690   5.405
 5355SOL    HW216965   4.956   4.831   5.330
 5356SOL     OW16966   0.312   5.126   1.308
 5356SOL    HW116967   0.382   5.196   1.293
 5356SOL    HW216968   0.351   5.036   1.287
 5357SOL     OW16969   5.480   4.274   2.542
 5357SOL    HW116970   5.500   4.233   2.453
 5357SOL    HW216971   5.505   4.370   2.540
 5358SOL     OW16972   4.227   2.115   0.626
 5358SOL    HW116973   4.175   2.031   0.614
 5358SOL    HW216974   4.240   2.133   0.723
 5359SOL     OW16975   2.687   2.037   6.358
 5359SOL    HW116976   2.770   2.015   6.408
 5359SOL    HW216977   2.666   2.135   6.369
 5360SOL     OW16978   5.567   4.526   3.592
 5360SOL    HW116979   5.628   4.547   3.515
 5360SOL    HW216980   5.493   4.593   3.595
 5361SOL     OW16981   2.971   5.583   2.087
 5361SOL    HW116982   2.924   5.495   2.086
 5361SOL    HW216983   3.013   5.600   1.998
 5362SOL     OW16984   6.038   0.593   1.984
 5362SOL    HW116985   6.036   0.566   1.888
 5362SOL    HW216986   5.977   0.534   2.037
 5363SOL     OW16987   5.737   5.150   3.726
 5363SOL    HW116988   5.771   5.143   3.820
 5363SOL    HW216989   5.700   5.062   3.698
 5364SOL     OW16990   4.854   1.361   3.010
 5364SOL    HW116991   4.893   1.370   2.918
 5364SOL    HW216992   4.758   1.389   3.009
 5365SOL     OW16993   3.796   3.146   3.881
 5365SOL    HW116994   3.722   3.157   3.947
 5365SOL    HW216995   3.786   3.058   3.834
 5366SOL     OW16996   6.446   6.490   2.332
 5366SOL    HW116997   6.398   6.544   2.264
 5366SOL    HW216998   6.510   6.427   2.287
 5367SOL     OW16999   6.265   6.147   1.765
 5367SOL    HW117000   6.322   6.223   1.795
 5367SOL    HW217001   6.276   6.133   1.667
 5368SOL     OW17002   6.556   5.769   3.698
 5368SOL    HW117003   6.620   5.719   3.757
 5368SOL    HW217004   6.598   5.854   3.667
 5369SOL     OW17005   2.290   5.971   2.071
 5369SOL    HW117006   2.261   6.065   2.088
 5369SOL    HW217007   2.241   5.934   1.992
 5370SOL     OW17008   2.360   3.605   1.481
 5370SOL    HW117009   2.317   3.620   1.570
 5370SOL    HW217010   2.300   3.636   1.408
 5371SOL     OW17011   5.569   5.801   4.747
 5371SOL    HW117012   5.565   5.803   4.647
 5371SOL    HW217013   5.491   5.750   4.782
 5372SOL     OW17014   1.031   0.571   3.140
 5372SOL    HW117015   1.032   0.491   3.079
 5372SOL    HW217016   0.937   0.600   3.155
 5373SOL     OW17017   3.341   0.954   6.610
 5373SOL    HW117018   3.282   0.973   6.689
 5373SOL    HW217019   3.315   1.013   6.534
 5374SOL     OW17020   2.277   4.878   2.319
 5374SOL    HW117021   2.348   4.947   2.306
 5374SOL    HW217022   2.189   4.915   2.288
 5375SOL     OW17023   1.304   4.995   3.906
 5375SOL    HW117024   1.313   5.076   3.965
 5375SOL    HW217025   1.251   5.019   3.824
 5376SOL     OW17026   0.229   0.714   6.279
 5376SOL    HW117027   0.309   0.669   6.240
 5376SOL    HW217028   0.146   0.669   6.247
 5377SOL     OW17029   2.403   0.896   2.917
 5377SOL    HW117030   2.485   0.842   2.938
 5377SOL    HW217031   2.326   0.861   2.969
 5378SOL     OW17032   5.375   0.950   1.947
 5378SOL    HW117033   5.458   1.000   1.921
 5378SOL    HW217034   5.370   0.865   1.896
 5379SOL     OW17035   1.541   2.133   6.393
 5379SOL    HW117036   1.605   2.194   6.441
 5379SOL    HW217037   1.593   2.062   6.346
 5380SOL     OW17038   4.659   6.918   1.236
 5380SOL    HW117039   4.718   6.840   1.213
 5380SOL    HW217040   4.575   6.913   1.183
 5381SOL     OW17041   4.994   6.605   3.850
 5381SOL    HW117042   5.022   6.666   3.776
 5381SOL    HW217043   5.065   6.537   3.866
 5382SOL     OW17044   4.432   1.671   1.875
 5382SOL    HW117045   4.504   1.635   1.934
 5382SOL    HW217046   4.378   1.738   1.926
 5383SOL     OW17047   1.918   2.885   4.670
 5383SOL    HW117048   1.939   2.972   4.716
 5383SOL    HW217049   1.820   2.866   4.678
 5384SOL     OW17050   5.549   5.427   4.555
 5384SOL    HW117051   5.527   5.345   4.606
 5384SOL    HW217052   5.616   5.405   4.484
 5385SOL     OW17053   4.046   2.292   5.616
 5385SOL    HW117054   3.992   2.221   5.571
 5385SOL    HW217055   4.062   2.267   5.712
 5386SOL     OW17056   6.120   4.687   3.892
 5386SOL    HW117057   6.094   4.607   3.837
 5386SOL    HW217058   6.133   4.659   3.987
 5387SOL     OW17059   1.132   1.093   3.017
 5387SOL    HW117060   1.126   1.087   3.117
 5387SOL    HW217061   1.224   1.068   2.988
 5388SOL     OW17062   1.135   6.455   2.340
 5388SOL    HW117063   1.136   6.476   2.438
 5388SOL    HW217064   1.099   6.533   2.290
 5389SOL     OW17065   4.418   1.769   4.099
 5389SOL    HW117066   4.499   1.826   4.087
 5389SOL    HW217067   4.354   1.815   4.160
 5390SOL     OW17068   0.035   2.810   3.221
 5390SOL    HW117069   0.096   2.803   3.300
 5390SOL    HW217070   6.968   2.830   3.253
 5391SOL     OW17071   2.533   3.738   0.909
 5391SOL    HW117072   2.631   3.745   0.928
 5391SOL    HW217073   2.483   3.729   0.995
 5392SOL     OW17074   5.887   1.761   3.559
 5392SOL    HW117075   5.881   1.729   3.464
 5392SOL    HW217076   5.812   1.824   3.578
 5393SOL     OW17077   3.873   1.845   5.414
 5393SOL    HW117078   3.838   1.865   5.506
 5393SOL    HW217079   3.802   1.862   5.346
 5394SOL     OW17080   1.422   1.355   1.240
 5394SOL    HW117081   1.459   1.263   1.245
 5394SOL    HW217082   1.492   1.417   1.204
 5395SOL     OW17083   6.481   1.615   1.079
 5395SOL    HW117084   6.409   1.567   1.130
 5395SOL    HW217085   6.440   1.667   1.005
 5396SOL     OW17086   5.456   4.978   2.215
 5396SOL    HW117087   5.470   5.012   2.122
 5396SOL    HW217088   5.367   5.008   2.249
 5397SOL     OW17089   0.433   1.227   2.498
 5397SOL    HW117090   0.467   1.140   2.461
 5397SOL    HW217091   0.505   1.296   2.490
 5398SOL     OW17092   5.121   1.999   3.001
 5398SOL    HW117093   5.175   2.024   2.921
 5398SOL    HW217094   5.046   2.064   3.012
 5399SOL     OW17095   2.345   0.584   6.317
 5399SOL    HW117096   2.386   0.580   6.409
 5399SOL    HW217097   2.246   0.575   6.324
 5400SOL     OW17098   4.361   3.085   1.725
 5400SOL    HW117099   4.373   3.184   1.717
 5400SOL    HW217100   4.435   3.046   1.779
 5401SOL     OW17101   5.821   3.593   1.558
 5401SOL    HW117102   5.822   3.496   1.583
 5401SOL    HW217103   5.763   3.606   1.477
 5402SOL     OW17104   1.108   6.419   1.666
 5402SOL    HW117105   1.070   6.402   1.757
 5402SOL    HW217106   1.201   6.384   1.662
 5403SOL     OW17107   5.083   2.611   6.866
 5403SOL    HW117108   5.128   2.645   6.949
 5403SOL    HW217109   4.984   2.627   6.873
 5404SOL     OW17110   6.788   1.557   0.467
 5404SOL    HW117111   6.741   1.521   0.548
 5404SOL    HW217112   6.860   1.494   0.440
 5405SOL     OW17113   5.958   5.263   6.862
 5405SOL    HW117114   6.030   5.310   6.913
 5405SOL    HW217115   5.879   5.324   6.852
 5406SOL     OW17116   2.576   0.386   4.680
 5406SOL    HW117117   2.674   0.367   4.687
 5406SOL    HW217118   2.549   0.387   4.583
 5407SOL     OW17119   1.705   6.851   2.946
 5407SOL    HW117120   1.794   6.897   2.940
 5407SOL    HW217121   1.666   6.842   2.854
 5408SOL     OW17122   3.489   2.083   4.225
 5408SOL    HW117123   3.524   2.101   4.133
 5408SOL    HW217124   3.467   1.985   4.234
 5409SOL     OW17125   1.395   2.714   0.843
 5409SOL    HW117126   1.305   2.701   0.884
 5409SOL    HW217127   1.386   2.731   0.745
 5410SOL     OW17128   1.362   2.738   0.529
 5410SOL    HW117129   1.459   2.724   0.550
 5410SOL    HW217130   1.323   2.652   0.496
 5411SOL     OW17131   3.291   5.104   6.864
 5411SOL    HW117132   3.317   5.020   6.817
 5411SOL    HW217133   3.241   5.163   6.802
 5412SOL     OW17134   0.201   2.195   6.280
 5412SOL    HW117135   0.210   2.198   6.379
 5412SOL    HW217136   0.105   2.181   6.256
 5413SOL     OW17137   6.820   6.390   5.024
 5413SOL    HW117138   6.760   6.352   5.093
 5413SOL    HW217139   6.801   6.348   4.935
 5414SOL     OW17140   5.670   4.045   4.883
 5414SOL    HW117141   5.744   4.005   4.938
 5414SOL    HW217142   5.668   4.000   4.794
 5415SOL     OW17143   3.943   0.596   6.988
 5415SOL    HW117144   3.996   0.661   6.933
 5415SOL    HW217145   4.005   0.540   0.017
 5416SOL     OW17146   3.113   5.624   6.288
 5416SOL    HW117147   3.161   5.655   6.206
 5416SOL    HW217148   3.175   5.567   6.342
 5417SOL     OW17149   4.912   6.254   4.128
 5417SOL    HW117150   4.885   6.319   4.057
 5417SOL    HW217151   4.838   6.243   4.194
 5418SOL     OW17152   6.377   3.726   4.344
 5418SOL    HW117153   6.466   3.767   4.324
 5418SOL    HW217154   6.385   3.626   4.344
 5419SOL     OW17155   4.612   0.101   6.380
 5419SOL    HW117156   4.635   0.070   6.473
 5419SOL    HW217157   4.691   0.086   6.320
 5420SOL     OW17158   1.231   0.904   1.598
 5420SOL    HW117159   1.186   0.833   1.544
 5420SOL    HW217160   1.219   0.885   1.695
 5421SOL     OW17161   4.060   4.615   1.794
 5421SOL    HW117162   4.052   4.518   1.771
 5421SOL    HW217163   4.125   4.625   1.869
 5422SOL     OW17164   2.662   5.698   3.821
 5422SOL    HW117165   2.581   5.643   3.801
 5422SOL    HW217166   2.727   5.690   3.746
 5423SOL     OW17167   5.536   5.666   1.817
 5423SOL    HW117168   5.607   5.597   1.834
 5423SOL    HW217169   5.553   5.746   1.874
 5424SOL     OW17170   4.294   4.089   5.460
 5424SOL    HW117171   4.304   4.124   5.553
 5424SOL    HW217172   4.206   4.116   5.423
 5425SOL     OW17173   1.194   3.952   6.087
 5425SOL    HW117174   1.249   3.953   6.003
 5425SOL    HW217175   1.202   3.863   6.132
 5426SOL     OW17176   5.591   5.286   1.413
 5426SOL    HW117177   5.585   5.282   1.314
 5426SOL    HW217178   5.512   5.239   1.454
 5427SOL     OW17179   4.803   2.102   6.310
 5427SOL    HW117180   4.811   2.034   6.382
 5427SOL    HW217181   4.875   2.171   6.321
 5428SOL     OW17182   5.940   6.092   3.180
 5428SOL    HW117183   5.976   6.000   3.164
 5428SOL    HW217184   6.001   6.141   3.243
 5429SOL     OW17185   3.200   0.079   4.576
 5429SOL    HW117186   3.139   0.134   4.634
 5429SOL    HW217187   3.231   7.025   4.628
 5430SOL     OW17188   2.614   3.656   5.875
 5430SOL    HW117189   2.682   3.728   5.863
 5430SOL    HW217190   2.554   3.653   5.794
 5431SOL     OW17191   3.228   4.393   6.899
 5431SOL    HW117192   3.256   4.307   6.854
 5431SOL    HW217193   3.132   4.386   6.927
 5432SOL     OW17194   6.092   5.467   0.059
 5432SOL    HW117195   6.158   5.485   7.012
 5432SOL    HW217196   6.136   5.413   0.130
 5433SOL     OW17197   1.546   0.530   1.401
 5433SOL    HW117198   1.617   0.524   1.330
 5433SOL    HW217199   1.588   0.560   1.487
 5434SOL     OW17200   5.826   0.241   4.898
 5434SOL    HW117201   5.840   0.151   4.856
 5434SOL    HW217202   5.852   0.312   4.833
 5435SOL     OW17203   6.844   4.202   0.912
 5435SOL    HW117204   6.926   4.159   0.874
 5435SOL    HW217205   6.789   4.241   0.838
 5436SOL     OW17206   1.202   5.184   2.565
 5436SOL    HW117207   1.138   5.119   2.525
 5436SOL    HW217208   1.152   5.266   2.594
 5437SOL     OW17209   3.617   5.332   1.293
 5437SOL    HW117210   3.530   5.375   1.269
 5437SOL    HW217211   3.670   5.395   1.350
 5438SOL     OW17212   4.566   5.079   2.564
 5438SOL    HW117213   4.562   5.131   2.649
 5438SOL    HW217214   4.503   5.119   2.497
 5439SOL     OW17215   1.172   4.598   1.558
 5439SOL    HW117216   1.084   4.603   1.605
 5439SOL    HW217217   1.224   4.520   1.593
 5440SOL     OW17218   6.457   6.655   3.728
 5440SOL    HW117219   6.475   6.701   3.815
 5440SOL    HW217220   6.359   6.651   3.713
 5441SOL     OW17221   5.742   2.729   3.660
 5441SOL    HW117222   5.725   2.791   3.736
 5441SOL    HW217223   5.770   2.781   3.579
 5442SOL     OW17224   4.116   0.245   6.123
 5442SOL    HW117225   4.194   0.197   6.082
 5442SOL    HW217226   4.076   0.307   6.057
 5443SOL     OW17227   4.228   0.745   3.958
 5443SOL    HW117228   4.192   0.738   4.051
 5443SOL    HW217229   4.167   0.698   3.895
 5444SOL     OW17230   6.305   0.986   5.009
 5444SOL    HW117231   6.226   0.928   4.989
 5444SOL    HW217232   6.294   1.026   5.100
 5445SOL     OW17233   5.817   5.523   4.708
 5445SOL    HW117234   5.818   5.596   4.639
 5445SOL    HW217235   5.723   5.508   4.739
 5446SOL     OW17236   0.419   4.236   6.051
 5446SOL    HW117237   0.376   4.225   6.140
 5446SOL    HW217238   0.352   4.272   5.986
 5447SOL     OW17239   1.434   2.391   0.826
 5447SOL    HW117240   1.505   2.439   0.774
 5447SOL    HW217241   1.429   2.430   0.918
 5448SOL     OW17242   4.119   5.112   2.993
 5448SOL    HW117243   4.147   5.087   2.900
 5448SOL    HW217244   4.200   5.132   3.048
 5449SOL     OW17245   2.948   1.326   1.767
 5449SOL    HW117246   2.938   1.248   1.830
 5449SOL    HW217247   3.045   1.339   1.747
 5450SOL     OW17248   4.408   5.483   1.771
 5450SOL    HW117249   4.486   5.541   1.792
 5450SOL    HW217250   4.372   5.506   1.680
 5451SOL     OW17251   0.052   0.001   2.752
 5451SOL    HW117252   0.009   0.031   2.837
 5451SOL    HW217253   0.111   6.948   2.769
 5452SOL     OW17254   2.309   4.278   1.964
 5452SOL    HW117255   2.345   4.341   2.032
 5452SOL    HW217256   2.251   4.210   2.008
 5453SOL     OW17257   5.862   4.008   3.343
 5453SOL    HW117258   5.817   3.962   3.266
 5453SOL    HW217259   5.960   4.013   3.326
 5454SOL     OW17260   5.277   5.115   2.503
 5454SOL    HW117261   5.306   5.022   2.527
 5454SOL    HW217262   5.227   5.113   2.416
 5455SOL     OW17263   1.680   1.396   3.695
 5455SOL    HW117264   1.611   1.325   3.685
 5455SOL    HW217265   1.637   1.486   3.693
 5456SOL     OW17266   6.222   1.293   0.321
 5456SOL    HW117267   6.130   1.300   0.284
 5456SOL    HW217268   6.250   1.197   0.324
 5457SOL     OW17269   5.787   1.892   6.731
 5457SOL    HW117270   5.762   1.812   6.786
 5457SOL    HW217271   5.707   1.921   6.677
 5458SOL     OW17272   6.108   3.759   6.975
 5458SOL    HW117273   6.035   3.822   7.001
 5458SOL    HW217274   6.194   3.809   6.964
 5459SOL     OW17275   1.577   3.856   5.495
 5459SOL    HW117276   1.527   3.885   5.414
 5459SOL    HW217277   1.665   3.904   5.500
 5460SOL     OW17278   1.759   0.257   0.907
 5460SOL    HW117279   1.731   0.345   0.870
 5460SOL    HW217280   1.809   0.205   0.838
 5461SOL     OW17281   6.575   1.181   5.675
 5461SOL    HW117282   6.577   1.087   5.640
 5461SOL    HW217283   6.665   1.206   5.709
 5462SOL     OW17284   4.795   5.289   6.769
 5462SOL    HW117285   4.805   5.372   6.714
 5462SOL    HW217286   4.759   5.312   6.859
 5463SOL     OW17287   0.990   3.048   6.874
 5463SOL    HW117288   1.055   3.073   6.946
 5463SOL    HW217289   1.039   3.038   6.788
 5464SOL     OW17290   0.036   6.204   5.882
 5464SOL    HW117291   7.026   6.146   5.809
 5464SOL    HW217292   7.013   6.185   5.967
 5465SOL     OW17293   6.739   6.159   3.686
 5465SOL    HW117294   6.736   6.107   3.600
 5465SOL    HW217295   6.823   6.136   3.736
 5466SOL     OW17296   5.766   2.579   6.062
 5466SOL    HW117297   5.858   2.539   6.072
 5466SOL    HW217298   5.759   2.625   5.973
 5467SOL     OW17299   5.219   3.168   4.038
 5467SOL    HW117300   5.273   3.104   3.983
 5467SOL    HW217301   5.191   3.124   4.122
 5468SOL     OW17302   0.370   1.814   1.441
 5468SOL    HW117303   0.389   1.909   1.416
 5468SOL    HW217304   0.409   1.753   1.371
 5469SOL     OW17305   2.816   0.577   4.954
 5469SOL    HW117306   2.723   0.613   4.951
 5469SOL    HW217307   2.819   0.499   5.017
 5470SOL     OW17308   3.507   5.433   3.932
 5470SOL    HW117309   3.444   5.494   3.981
 5470SOL    HW217310   3.601   5.458   3.955
 5471SOL     OW17311   5.193   0.694   3.157
 5471SOL    HW117312   5.114   0.755   3.165
 5471SOL    HW217313   5.187   0.622   3.227
 5472SOL     OW17314   2.574   2.355   6.772
 5472SOL    HW117315   2.477   2.370   6.753
 5472SOL    HW217316   2.627   2.431   6.735
 5473SOL     OW17317   2.945   4.214   1.428
 5473SOL    HW117318   2.880   4.252   1.494
 5473SOL    HW217319   2.962   4.118   1.450
 5474SOL     OW17320   0.439   5.452   3.751
 5474SOL    HW117321   0.521   5.400   3.776
 5474SOL    HW217322   0.361   5.419   3.805
 5475SOL     OW17323   6.859   1.708   5.552
 5475SOL    HW117324   6.870   1.609   5.548
 5475SOL    HW217325   6.770   1.731   5.592
 5476SOL     OW17326   2.456   6.478   6.339
 5476SOL    HW117327   2.439   6.457   6.435
 5476SOL    HW217328   2.387   6.435   6.281
 5477SOL     OW17329   1.812   5.101   3.754
 5477SOL    HW117330   1.866   5.167   3.807
 5477SOL    HW217331   1.874   5.037   3.708
 5478SOL     OW17332   5.656   4.949   5.448
 5478SOL    HW117333   5.594   4.979   5.521
 5478SOL    HW217334   5.730   5.015   5.438
 5479SOL     OW17335   3.404   1.785   4.765
 5479SOL    HW117336   3.446   1.786   4.674
 5479SOL    HW217337   3.324   1.845   4.766
 5480SOL     OW17338   6.813   3.589   4.456
 5480SOL    HW117339   6.758   3.647   4.397
 5480SOL    HW217340   6.850   3.643   4.532
 5481SOL     OW17341   4.782   1.393   6.792
 5481SOL    HW117342   4.820   1.464   6.733
 5481SOL    HW217343   4.805   1.303   6.756
 5482SOL     OW17344   4.875   3.077   1.124
 5482SOL    HW117345   4.821   3.006   1.169
 5482SOL    HW217346   4.913   3.139   1.192
 5483SOL     OW17347   0.035   3.524   5.965
 5483SOL    HW117348   0.120   3.474   5.946
 5483SOL    HW217349   0.006   3.507   6.059
 5484SOL     OW17350   6.294   6.160   3.901
 5484SOL    HW117351   6.368   6.149   3.834
 5484SOL    HW217352   6.307   6.246   3.950
 5485SOL     OW17353   3.689   6.718   5.392
 5485SOL    HW117354   3.702   6.817   5.395
 5485SOL    HW217355   3.595   6.698   5.366
 5486SOL     OW17356   0.850   0.664   3.447
 5486SOL    HW117357   0.859   0.587   3.383
 5486SOL    HW217358   0.826   0.746   3.395
 5487SOL     OW17359   6.181   4.471   0.400
 5487SOL    HW117360   6.208   4.485   0.305
 5487SOL    HW217361   6.261   4.452   0.456
 5488SOL     OW17362   5.083   2.099   6.850
 5488SOL    HW117363   5.004   2.160   6.854
 5488SOL    HW217364   5.125   2.104   6.760
 5489SOL     OW17365   1.312   4.325   2.772
 5489SOL    HW117366   1.353   4.300   2.684
 5489SOL    HW217367   1.283   4.242   2.820
 5490SOL     OW17368   2.579   1.922   0.827
 5490SOL    HW117369   2.549   1.993   0.890
 5490SOL    HW217370   2.507   1.854   0.816
 5491SOL     OW17371   1.487   4.862   0.942
 5491SOL    HW117372   1.525   4.848   0.850
 5491SOL    HW217373   1.389   4.843   0.941
 5492SOL     OW17374   0.753   1.369   6.336
 5492SOL    HW117375   0.692   1.382   6.258
 5492SOL    HW217376   0.777   1.272   6.343
 5493SOL     OW17377   3.607   3.344   6.440
 5493SOL    HW117378   3.682   3.373   6.380
 5493SOL    HW217379   3.566   3.424   6.483
 5494SOL     OW17380   5.809   3.317   1.597
 5494SOL    HW117381   5.713   3.312   1.567
 5494SOL    HW217382   5.824   3.253   1.672
 5495SOL     OW17383   4.071   3.258   2.519
 5495SOL    HW117384   4.009   3.193   2.561
 5495SOL    HW217385   4.105   3.322   2.588
 5496SOL     OW17386   3.575   5.715   1.599
 5496SOL    HW117387   3.589   5.813   1.614
 5496SOL    HW217388   3.525   5.701   1.513
 5497SOL     OW17389   6.929   1.262   2.179
 5497SOL    HW117390   6.914   1.344   2.124
 5497SOL    HW217391   7.012   1.272   2.233
 5498SOL     OW17392   4.986   1.534   5.797
 5498SOL    HW117393   4.923   1.600   5.837
 5498SOL    HW217394   4.954   1.441   5.817
 5499SOL     OW17395   6.991   1.334   3.475
 5499SOL    HW117396   0.001   1.257   3.528
 5499SOL    HW217397   7.015   1.419   3.521
 5500SOL     OW17398   2.138   6.202   0.215
 5500SOL    HW117399   2.175   6.276   0.272
 5500SOL    HW217400   2.088   6.242   0.138
 5501SOL     OW17401   2.783   0.364   2.034
 5501SOL    HW117402   2.789   0.310   1.950
 5501SOL    HW217403   2.751   0.306   2.109
 5502SOL     OW17404   6.036   4.060   5.488
 5502SOL    HW117405   5.961   4.053   5.554
 5502SOL    HW217406   6.111   4.001   5.517
 5503SOL     OW17407   1.044   4.730   3.531
 5503SOL    HW117408   0.965   4.790   3.543
 5503SOL    HW217409   1.118   4.760   3.590
 5504SOL     OW17410   3.481   1.835   4.492
 5504SOL    HW117411   3.434   1.809   4.408
 5504SOL    HW217412   3.576   1.858   4.472
 5505SOL     OW17413   3.170   5.396   5.731
 5505SOL    HW117414   3.138   5.404   5.637
 5505SOL    HW217415   3.236   5.469   5.750
 5506SOL     OW17416   5.858   0.645   5.767
 5506SOL    HW117417   5.797   0.656   5.689
 5506SOL    HW217418   5.807   0.610   5.845
 5507SOL     OW17419   2.609   6.807   4.271
 5507SOL    HW117420   2.604   6.815   4.172
 5507SOL    HW217421   2.689   6.858   4.304
 5508SOL     OW17422   2.663   0.321   6.234
 5508SOL    HW117423   2.641   0.361   6.145
 5508SOL    HW217424   2.715   0.387   6.289
 5509SOL     OW17425   5.956   6.524   0.103
 5509SOL    HW117426   5.966   6.622   0.118
 5509SOL    HW217427   6.025   6.493   0.038
 5510SOL     OW17428   5.121   0.433   5.607
 5510SOL    HW117429   5.219   0.409   5.604
 5510SOL    HW217430   5.077   0.386   5.683
 5511SOL     OW17431   0.946   0.988   2.353
 5511SOL    HW117432   0.854   1.020   2.330
 5511SOL    HW217433   1.003   0.986   2.271
 5512SOL     OW17434   1.074   0.899   6.860
 5512SOL    HW117435   1.147   0.967   6.865
 5512SOL    HW217436   1.109   0.813   6.823
 5513SOL     OW17437   4.959   4.038   4.722
 5513SOL    HW117438   4.935   4.032   4.625
 5513SOL    HW217439   5.052   4.074   4.731
 5514SOL     OW17440   5.136   4.843   1.636
 5514SOL    HW117441   5.091   4.922   1.676
 5514SOL    HW217442   5.094   4.759   1.670
 5515SOL     OW17443   6.576   2.064   1.824
 5515SOL    HW117444   6.601   2.043   1.730
 5515SOL    HW217445   6.515   2.143   1.825
 5516SOL     OW17446   1.078   3.792   6.930
 5516SOL    HW117447   1.057   3.841   6.845
 5516SOL    HW217448   0.995   3.783   6.985
 5517SOL     OW17449   2.756   1.776   0.979
 5517SOL    HW117450   2.693   1.794   0.904
 5517SOL    HW217451   2.748   1.849   1.047
 5518SOL     OW17452   5.988   5.081   5.618
 5518SOL    HW117453   6.034   5.160   5.660
 5518SOL    HW217454   5.949   5.108   5.530
 5519SOL     OW17455   5.985   3.775   3.839
 5519SOL    HW117456   5.915   3.778   3.768
 5519SOL    HW217457   5.944   3.796   3.927
 5520SOL     OW17458   0.640   3.834   2.238
 5520SOL    HW117459   0.621   3.743   2.274
 5520SOL    HW217460   0.717   3.830   2.175
 5521SOL     OW17461   5.956   6.205   1.279
 5521SOL    HW117462   6.020   6.210   1.355
 5521SOL    HW217463   5.867   6.240   1.308
 5522SOL     OW17464   2.584   3.543   1.706
 5522SOL    HW117465   2.548   3.567   1.616
 5522SOL    HW217466   2.508   3.541   1.772
 5523SOL     OW17467   3.408   0.222   2.540
 5523SOL    HW117468   3.422   0.276   2.623
 5523SOL    HW217469   3.416   0.125   2.563
 5524SOL     OW17470   0.720   4.887   5.898
 5524SOL    HW117471   0.664   4.910   5.819
 5524SOL    HW217472   0.687   4.938   5.978
 5525SOL     OW17473   6.641   5.147   6.327
 5525SOL    HW117474   6.605   5.093   6.403
 5525SOL    HW217475   6.587   5.230   6.316
 5526SOL     OW17476   6.255   3.272   4.098
 5526SOL    HW117477   6.256   3.242   4.194
 5526SOL    HW217478   6.255   3.192   4.038
 5527SOL     OW17479   1.727   2.839   1.735
 5527SOL    HW117480   1.702   2.771   1.667
 5527SOL    HW217481   1.691   2.812   1.824
 5528SOL     OW17482   0.493   2.455   4.757
 5528SOL    HW117483   0.453   2.477   4.668
 5528SOL    HW217484   0.466   2.362   4.784
 5529SOL     OW17485   2.608   0.656   4.652
 5529SOL    HW117486   2.572   0.711   4.728
 5529SOL    HW217487   2.614   0.560   4.680
 5530SOL     OW17488   0.618   2.056   0.386
 5530SOL    HW117489   0.705   2.069   0.433
 5530SOL    HW217490   0.590   2.142   0.342
 5531SOL     OW17491   4.233   2.809   5.357
 5531SOL    HW117492   4.170   2.868   5.407
 5531SOL    HW217493   4.182   2.733   5.316
 5532SOL     OW17494   2.300   1.783   0.504
 5532SOL    HW117495   2.335   1.745   0.419
 5532SOL    HW217496   2.276   1.708   0.566
 5533SOL     OW17497   3.954   0.767   2.334
 5533SOL    HW117498   3.919   0.713   2.257
 5533SOL    HW217499   4.010   0.710   2.392
 5534SOL     OW17500   1.025   3.908   6.647
 5534SOL    HW117501   1.124   3.900   6.661
 5534SOL    HW217502   1.006   3.925   6.550
 5535SOL     OW17503   6.381   3.180   3.055
 5535SOL    HW117504   6.283   3.196   3.061
 5535SOL    HW217505   6.409   3.177   2.959
 5536SOL     OW17506   2.047   0.924   4.299
 5536SOL    HW117507   2.068   0.883   4.210
 5536SOL    HW217508   2.132   0.944   4.348
 5537SOL     OW17509   4.088   0.481   5.115
 5537SOL    HW117510   4.001   0.434   5.106
 5537SOL    HW217511   4.143   0.466   5.033
 5538SOL     OW17512   3.792   1.394   6.291
 5538SOL    HW117513   3.828   1.464   6.353
 5538SOL    HW217514   3.703   1.424   6.257
 5539SOL     OW17515   1.956   0.920   2.124
 5539SOL    HW117516   1.908   0.833   2.129
 5539SOL    HW217517   2.054   0.905   2.128
 5540SOL     OW17518   5.083   2.672   0.114
 5540SOL    HW117519   5.042   2.585   0.142
 5540SOL    HW217520   5.108   2.724   0.195
 5541SOL     OW17521   5.023   3.580   6.050
 5541SOL    HW117522   4.941   3.558   5.997
 5541SOL    HW217523   5.050   3.502   6.105
 5542SOL     OW17524   5.480   4.530   6.406
 5542SOL    HW117525   5.539   4.593   6.456
 5542SOL    HW217526   5.522   4.439   6.405
 5543SOL     OW17527   1.970   6.781   0.780
 5543SOL    HW117528   1.937   6.695   0.818
 5543SOL    HW217529   2.070   6.782   0.782
 5544SOL     OW17530   4.648   5.188   5.899
 5544SOL    HW117531   4.726   5.203   5.960
 5544SOL    HW217532   4.681   5.174   5.805
 5545SOL     OW17533   4.227   1.126   2.735
 5545SOL    HW117534   4.254   1.197   2.800
 5545SOL    HW217535   4.307   1.092   2.687
 5546SOL     OW17536   0.431   6.185   5.017
 5546SOL    HW117537   0.409   6.283   5.021
 5546SOL    HW217538   0.471   6.164   4.927
 5547SOL     OW17539   4.927   1.853   5.709
 5547SOL    HW117540   4.930   1.794   5.628
 5547SOL    HW217541   4.921   1.796   5.791
 5548SOL     OW17542   6.732   3.693   5.761
 5548SOL    HW117543   6.705   3.745   5.842
 5548SOL    HW217544   6.722   3.595   5.780
 5549SOL     OW17545   4.104   3.608   1.718
 5549SOL    HW117546   4.015   3.642   1.747
 5549SOL    HW217547   4.118   3.629   1.621
 5550SOL     OW17548   1.987   4.439   2.957
 5550SOL    HW117549   2.018   4.407   2.868
 5550SOL    HW217550   1.924   4.373   2.997
 5551SOL     OW17551   2.360   5.491   2.935
 5551SOL    HW117552   2.382   5.554   2.861
 5551SOL    HW217553   2.444   5.465   2.983
 5552SOL     OW17554   6.867   6.782   6.216
 5552SOL    HW117555   6.803   6.786   6.292
 5552SOL    HW217556   6.940   6.716   6.237
 5553SOL     OW17557   4.268   0.555   6.661
 5553SOL    HW117558   4.241   0.459   6.651
 5553SOL    HW217559   4.252   0.603   6.574
 5554SOL     OW17560   4.912   2.864   0.951
 5554SOL    HW117561   5.000   2.841   0.908
 5554SOL    HW217562   4.916   2.958   0.986
 5555SOL     OW17563   0.925   3.936   3.248
 5555SOL    HW117564   0.944   3.890   3.335
 5555SOL    HW217565   0.895   3.869   3.180
 5556SOL     OW17566   5.539   0.974   3.979
 5556SOL    HW117567   5.533   0.974   4.079
 5556SOL    HW217568   5.449   0.954   3.941
 5557SOL     OW17569   3.284   5.887   1.532
 5557SOL    HW117570   3.301   5.943   1.613
 5557SOL    HW217571   3.332   5.926   1.454
 5558SOL     OW17572   3.507   4.491   0.322
 5558SOL    HW117573   3.578   4.421   0.317
 5558SOL    HW217574   3.508   4.546   0.238
 5559SOL     OW17575   0.863   0.451   2.684
 5559SOL    HW117576   0.879   0.535   2.632
 5559SOL    HW217577   0.778   0.409   2.653
 5560SOL     OW17578   6.700   5.778   2.964
 5560SOL    HW117579   6.607   5.749   2.989
 5560SOL    HW217580   6.719   5.751   2.870
 5561SOL     OW17581   2.894   1.120   4.876
 5561SOL    HW117582   2.880   1.191   4.807
 5561SOL    HW217583   2.819   1.053   4.870
 5562SOL     OW17584   4.689   4.481   6.815
 5562SOL    HW117585   4.666   4.547   6.743
 5562SOL    HW217586   4.765   4.423   6.783
 5563SOL     OW17587   3.111   4.914   2.908
 5563SOL    HW117588   3.044   4.843   2.886
 5563SOL    HW217589   3.157   4.890   2.994
 5564SOL     OW17590   4.700   6.822   6.226
 5564SOL    HW117591   4.602   6.808   6.243
 5564SOL    HW217592   4.736   6.891   6.288
 5565SOL     OW17593   4.058   3.597   0.168
 5565SOL    HW117594   4.054   3.575   0.266
 5565SOL    HW217595   4.149   3.575   0.133
 5566SOL     OW17596   1.643   4.089   0.794
 5566SOL    HW117597   1.702   4.038   0.856
 5566SOL    HW217598   1.658   4.057   0.700
 5567SOL     OW17599   6.936   3.249   1.954
 5567SOL    HW117600   6.929   3.345   1.981
 5567SOL    HW217601   6.865   3.228   1.887
 5568SOL     OW17602   4.417   6.838   3.116
 5568SOL    HW117603   4.388   6.908   3.182
 5568SOL    HW217604   4.452   6.758   3.165
 5569SOL     OW17605   2.690   1.559   3.346
 5569SOL    HW117606   2.711   1.582   3.441
 5569SOL    HW217607   2.754   1.606   3.285
 5570SOL     OW17608   5.962   3.414   3.352
 5570SOL    HW117609   5.998   3.376   3.438
 5570SOL    HW217610   6.026   3.482   3.316
 5571SOL     OW17611   6.424   5.096   1.896
 5571SOL    HW117612   6.346   5.060   1.845
 5571SOL    HW217613   6.508   5.086   1.842
 5572SOL     OW17614   1.510   4.372   4.937
 5572SOL    HW117615   1.427   4.320   4.917
 5572SOL    HW217616   1.501   4.465   4.903
 5573SOL     OW17617   1.495   5.177   5.163
 5573SOL    HW117618   1.565   5.161   5.094
 5573SOL    HW217619   1.446   5.091   5.181
 5574SOL     OW17620   0.511   3.137   6.811
 5574SOL    HW117621   0.493   3.215   6.751
 5574SOL    HW217622   0.602   3.100   6.790
 5575SOL     OW17623   0.200   6.981   1.472
 5575SOL    HW117624   0.250   6.897   1.496
 5575SOL    HW217625   0.255   0.009   1.409
 5576SOL     OW17626   1.606   4.455   2.890
 5576SOL    HW117627   1.525   4.399   2.871
 5576SOL    HW217628   1.677   4.397   2.931
 5577SOL     OW17629   2.017   3.270   0.452
 5577SOL    HW117630   2.115   3.264   0.432
 5577SOL    HW217631   2.003   3.276   0.551
 5578SOL     OW17632   3.809   3.993   2.435
 5578SOL    HW117633   3.823   3.975   2.337
 5578SOL    HW217634   3.859   3.925   2.488
 5579SOL     OW17635   0.394   3.417   1.068
 5579SOL    HW117636   0.441   3.332   1.042
 5579SOL    HW217637   0.310   3.394   1.117
 5580SOL     OW17638   4.771   1.901   6.125
 5580SOL    HW117639   4.795   1.979   6.182
 5580SOL    HW217640   4.672   1.896   6.115
 5581SOL     OW17641   1.147   1.640   1.415
 5581SOL    HW117642   1.061   1.685   1.441
 5581SOL    HW217643   1.175   1.578   1.488
 5582SOL     OW17644   2.484   4.228   6.520
 5582SOL    HW117645   2.387   4.248   6.513
 5582SOL    HW217646   2.516   4.249   6.613
 5583SOL     OW17647   4.344   0.647   2.541
 5583SOL    HW117648   4.383   0.557   2.521
 5583SOL    HW217649   4.414   0.706   2.582
 5584SOL     OW17650   6.454   4.151   4.239
 5584SOL    HW117651   6.482   4.157   4.143
 5584SOL    HW217652   6.372   4.095   4.247
 5585SOL     OW17653   4.836   5.167   3.086
 5585SOL    HW117654   4.916   5.175   3.027
 5585SOL    HW217655   4.858   5.201   3.177
 5586SOL     OW17656   6.614   3.441   5.829
 5586SOL    HW117657   6.516   3.450   5.809
 5586SOL    HW217658   6.628   3.443   5.928
 5587SOL     OW17659   4.592   0.057   0.303
 5587SOL    HW117660   4.653   0.028   0.229
 5587SOL    HW217661   4.497   0.037   0.278
 5588SOL     OW17662   2.694   6.602   2.662
 5588SOL    HW117663   2.760   6.635   2.594
 5588SOL    HW217664   2.697   6.502   2.666
 5589SOL     OW17665   6.514   4.482   6.733
 5589SOL    HW117666   6.614   4.478   6.736
 5589SOL    HW217667   6.481   4.541   6.807
 5590SOL     OW17668   5.994   6.426   3.556
 5590SOL    HW117669   6.035   6.496   3.614
 5590SOL    HW217670   5.909   6.460   3.517
 5591SOL     OW17671   0.627   1.811   1.071
 5591SOL    HW117672   0.533   1.830   1.043
 5591SOL    HW217673   0.645   1.713   1.060
 5592SOL     OW17674   1.207   5.481   3.769
 5592SOL    HW117675   1.209   5.567   3.820
 5592SOL    HW217676   1.296   5.436   3.776
 5593SOL     OW17677   6.938   2.751   6.542
 5593SOL    HW117678   6.965   2.844   6.517
 5593SOL    HW217679   6.852   2.754   6.592
 5594SOL     OW17680   4.933   0.577   4.784
 5594SOL    HW117681   4.856   0.599   4.724
 5594SOL    HW217682   4.911   0.494   4.836
 5595SOL     OW17683   1.452   1.624   5.238
 5595SOL    HW117684   1.455   1.537   5.288
 5595SOL    HW217685   1.357   1.648   5.218
 5596SOL     OW17686   4.695   6.394   2.615
 5596SOL    HW117687   4.674   6.317   2.675
 5596SOL    HW217688   4.616   6.413   2.556
 5597SOL     OW17689   4.914   2.204   4.398
 5597SOL    HW117690   4.881   2.272   4.465
 5597SOL    HW217691   4.988   2.151   4.439
 5598SOL     OW17692   4.937   3.510   4.089
 5598SOL    HW117693   4.898   3.593   4.049
 5598SOL    HW217694   5.025   3.490   4.047
 5599SOL     OW17695   0.963   0.871   4.147
 5599SOL    HW117696   0.959   0.887   4.048
 5599SOL    HW217697   1.032   0.801   4.167
 5600SOL     OW17698   0.858   2.211   2.575
 5600SOL    HW117699   0.804   2.217   2.659
 5600SOL    HW217700   0.798   2.189   2.498
 5601SOL     OW17701   2.876   0.051   5.822
 5601SOL    HW117702   2.849   0.053   5.918
 5601SOL    HW217703   2.796   0.031   5.765
 5602SOL     OW17704   0.762   1.439   0.570
 5602SOL    HW117705   0.814   1.362   0.606
 5602SOL    HW217706   0.679   1.452   0.624
 5603SOL     OW17707   4.869   2.287   6.778
 5603SOL    HW117708   4.824   2.305   6.866
 5603SOL    HW217709   4.833   2.349   6.709
 5604SOL     OW17710   6.519   2.008   5.512
 5604SOL    HW117711   6.423   2.011   5.541
 5604SOL    HW217712   6.568   2.086   5.551
 5605SOL     OW17713   0.745   0.825   4.603
 5605SOL    HW117714   0.716   0.898   4.666
 5605SOL    HW217715   0.760   0.864   4.512
 5606SOL     OW17716   5.620   6.623   1.220
 5606SOL    HW117717   5.693   6.612   1.152
 5606SOL    HW217718   5.654   6.678   1.296
 5607SOL     OW17719   5.673   0.330   2.385
 5607SOL    HW117720   5.730   0.411   2.381
 5607SOL    HW217721   5.619   0.331   2.470
 5608SOL     OW17722   4.255   6.936   4.813
 5608SOL    HW117723   4.209   6.854   4.777
 5608SOL    HW217724   4.343   6.911   4.852
 5609SOL     OW17725   2.759   4.996   0.811
 5609SOL    HW117726   2.697   4.925   0.779
 5609SOL    HW217727   2.707   5.076   0.839
 5610SOL     OW17728   4.872   6.716   0.794
 5610SOL    HW117729   4.888   6.622   0.825
 5610SOL    HW217730   4.775   6.737   0.801
 5611SOL     OW17731   1.941   5.132   2.448
 5611SOL    HW117732   1.989   5.215   2.475
 5611SOL    HW217733   1.889   5.096   2.526
 5612SOL     OW17734   3.522   1.827   6.831
 5612SOL    HW117735   3.525   1.743   6.778
 5612SOL    HW217736   3.591   1.824   6.904
 5613SOL     OW17737   5.213   4.071   3.239
 5613SOL    HW117738   5.180   4.018   3.161
 5613SOL    HW217739   5.232   4.165   3.210
 5614SOL     OW17740   4.474   2.487   4.579
 5614SOL    HW117741   4.516   2.576   4.599
 5614SOL    HW217742   4.449   2.483   4.482
 5615SOL     OW17743   0.665   0.458   6.143
 5615SOL    HW117744   0.591   0.514   6.107
 5615SOL    HW217745   0.728   0.515   6.196
 5616SOL     OW17746   1.901   1.101   5.658
 5616SOL    HW117747   1.855   1.021   5.618
 5616SOL    HW217748   2.000   1.088   5.655
 5617SOL     OW17749   2.402   6.415   6.624
 5617SOL    HW117750   2.349   6.495   6.652
 5617SOL    HW217751   2.492   6.417   6.667
 5618SOL     OW17752   6.547   3.351   4.165
 5618SOL    HW117753   6.488   3.295   4.107
 5618SOL    HW217754   6.490   3.405   4.227
 5619SOL     OW17755   2.822   3.969   6.182
 5619SOL    HW117756   2.740   4.002   6.229
 5619SOL    HW217757   2.860   3.892   6.233
 5620SOL     OW17758   3.904   3.541   0.779
 5620SOL    HW117759   3.941   3.503   0.864
 5620SOL    HW217760   3.855   3.626   0.800
 5621SOL     OW17761   1.179   2.051   6.081
 5621SOL    HW117762   1.232   2.046   6.166
 5621SOL    HW217763   1.203   1.974   6.022
 5622SOL     OW17764   4.212   0.180   5.775
 5622SOL    HW117765   4.215   0.279   5.763
 5622SOL    HW217766   4.209   0.135   5.686
 5623SOL     OW17767   2.022   5.526   6.223
 5623SOL    HW117768   2.009   5.602   6.159
 5623SOL    HW217769   2.068   5.560   6.306
 5624SOL     OW17770   0.875   4.539   3.436
 5624SOL    HW117771   0.907   4.526   3.342
 5624SOL    HW217772   0.935   4.603   3.483
 5625SOL     OW17773   5.980   2.068   4.219
 5625SOL    HW117774   5.950   2.161   4.237
 5625SOL    HW217775   6.025   2.064   4.130
 5626SOL     OW17776   2.968   6.625   4.835
 5626SOL    HW117777   2.978   6.585   4.926
 5626SOL    HW217778   3.031   6.702   4.826
 5627SOL     OW17779   1.208   5.991   0.463
 5627SOL    HW117780   1.276   5.918   0.460
 5627SOL    HW217781   1.120   5.955   0.493
 5628SOL     OW17782   1.458   2.921   5.823
 5628SOL    HW117783   1.474   2.919   5.724
 5628SOL    HW217784   1.535   2.966   5.868
 5629SOL     OW17785   3.525   3.856   2.169
 5629SOL    HW117786   3.498   3.824   2.078
 5629SOL    HW217787   3.529   3.956   2.169
 5630SOL     OW17788   1.179   5.012   0.687
 5630SOL    HW117789   1.194   4.913   0.691
 5630SOL    HW217790   1.261   5.056   0.650
 5631SOL     OW17791   4.330   1.660   0.044
 5631SOL    HW117792   4.380   1.581   0.008
 5631SOL    HW217793   4.254   1.682   7.008
 5632SOL     OW17794   4.078   2.780   6.312
 5632SOL    HW117795   4.173   2.810   6.317
 5632SOL    HW217796   4.021   2.844   6.363
 5633SOL     OW17797   6.409   2.027   3.726
 5633SOL    HW117798   6.460   2.043   3.642
 5633SOL    HW217799   6.333   1.965   3.706
 5634SOL     OW17800   2.744   6.136   5.775
 5634SOL    HW117801   2.644   6.131   5.779
 5634SOL    HW217802   2.772   6.232   5.770
 5635SOL     OW17803   1.991   3.672   5.161
 5635SOL    HW117804   2.061   3.665   5.232
 5635SOL    HW217805   1.998   3.761   5.115
 5636SOL     OW17806   3.447   6.036   2.547
 5636SOL    HW117807   3.369   6.098   2.539
 5636SOL    HW217808   3.526   6.085   2.584
 5637SOL     OW17809   5.014   0.323   4.112
 5637SOL    HW117810   4.921   0.348   4.088
 5637SOL    HW217811   5.023   0.316   4.211
 5638SOL     OW17812   5.369   3.367   1.142
 5638SOL    HW117813   5.314   3.449   1.128
 5638SOL    HW217814   5.466   3.388   1.129
 5639SOL     OW17815   0.670   0.733   0.364
 5639SOL    HW117816   0.613   0.752   0.284
 5639SOL    HW217817   0.638   0.786   0.441
 5640SOL     OW17818   2.884   0.439   3.804
 5640SOL    HW117819   2.819   0.486   3.864
 5640SOL    HW217820   2.935   0.371   3.857
 5641SOL     OW17821   0.536   4.735   6.090
 5641SOL    HW117822   0.592   4.756   6.170
 5641SOL    HW217823   0.542   4.638   6.069
 5642SOL     OW17824   2.167   6.491   0.008
 5642SOL    HW117825   2.081   6.444   0.029
 5642SOL    HW217826   2.244   6.435   0.038
 5643SOL     OW17827   5.065   1.717   5.149
 5643SOL    HW117828   5.100   1.754   5.063
 5643SOL    HW217829   4.985   1.660   5.131
 5644SOL     OW17830   3.086   6.438   5.454
 5644SOL    HW117831   3.048   6.520   5.497
 5644SOL    HW217832   3.013   6.373   5.436
 5645SOL     OW17833   6.467   3.553   3.765
 5645SOL    HW117834   6.383   3.539   3.816
 5645SOL    HW217835   6.452   3.619   3.691
 5646SOL     OW17836   1.898   5.065   2.953
 5646SOL    HW117837   1.967   5.118   2.904
 5646SOL    HW217838   1.849   5.124   3.017
 5647SOL     OW17839   5.581   6.253   1.725
 5647SOL    HW117840   5.580   6.348   1.758
 5647SOL    HW217841   5.496   6.234   1.676
 5648SOL     OW17842   2.418   5.663   2.466
 5648SOL    HW117843   2.360   5.744   2.480
 5648SOL    HW217844   2.504   5.691   2.422
 5649SOL     OW17845   0.841   6.846   4.255
 5649SOL    HW117846   0.834   6.886   4.164
 5649SOL    HW217847   0.835   6.746   4.247
 5650SOL     OW17848   0.681   4.571   0.337
 5650SOL    HW117849   0.743   4.501   0.303
 5650SOL    HW217850   0.721   4.616   0.416
 5651SOL     OW17851   2.176   0.348   0.652
 5651SOL    HW117852   2.208   0.307   0.737
 5651SOL    HW217853   2.118   0.283   0.602
 5652SOL     OW17854   0.198   5.523   1.917
 5652SOL    HW117855   0.125   5.546   1.852
 5652SOL    HW217856   0.184   5.431   1.952
 5653SOL     OW17857   0.557   6.586   0.089
 5653SOL    HW117858   0.621   6.663   0.086
 5653SOL    HW217859   0.463   6.620   0.088
 5654SOL     OW17860   1.069   5.787   4.317
 5654SOL    HW117861   1.144   5.726   4.292
 5654SOL    HW217862   1.097   5.845   4.394
 5655SOL     OW17863   6.377   3.034   3.976
 5655SOL    HW117864   6.415   3.044   3.885
 5655SOL    HW217865   6.447   3.000   4.038
 5656SOL     OW17866   6.537   3.447   6.372
 5656SOL    HW117867   6.474   3.453   6.450
 5656SOL    HW217868   6.626   3.415   6.404
 5657SOL     OW17869   4.606   4.493   4.813
 5657SOL    HW117870   4.653   4.406   4.829
 5657SOL    HW217871   4.526   4.500   4.874
 5658SOL     OW17872   2.120   3.142   6.382
 5658SOL    HW117873   2.118   3.236   6.414
 5658SOL    HW217874   2.059   3.085   6.438
 5659SOL     OW17875   3.315   3.573   6.065
 5659SOL    HW117876   3.361   3.493   6.029
 5659SOL    HW217877   3.217   3.555   6.074
 5660SOL     OW17878   4.336   0.132   6.355
 5660SOL    HW117879   4.289   0.092   6.276
 5660SOL    HW217880   4.424   0.087   6.367
 5661SOL     OW17881   0.749   5.511   5.754
 5661SOL    HW117882   0.668   5.483   5.702
 5661SOL    HW217883   0.813   5.435   5.762
 5662SOL     OW17884   2.197   6.746   2.663
 5662SOL    HW117885   2.098   6.743   2.657
 5662SOL    HW217886   2.237   6.680   2.599
 5663SOL     OW17887   1.230   2.939   0.639
 5663SOL    HW117888   1.283   3.021   0.661
 5663SOL    HW217889   1.286   2.878   0.583
 5664SOL     OW17890   5.282   4.246   4.491
 5664SOL    HW117891   5.280   4.220   4.588
 5664SOL    HW217892   5.225   4.183   4.438
 5665SOL     OW17893   1.196   6.389   0.507
 5665SOL    HW117894   1.274   6.448   0.526
 5665SOL    HW217895   1.226   6.313   0.449
 5666SOL     OW17896   5.987   0.731   3.997
 5666SOL    HW117897   5.975   0.798   4.071
 5666SOL    HW217898   6.053   0.661   4.026
 5667SOL     OW17899   1.891   4.665   4.012
 5667SOL    HW117900   1.928   4.622   3.930
 5667SOL    HW217901   1.799   4.629   4.030
 5668SOL     OW17902   6.158   2.872   2.481
 5668SOL    HW117903   6.106   2.928   2.417
 5668SOL    HW217904   6.163   2.778   2.447
 5669SOL     OW17905   6.649   4.248   0.033
 5669SOL    HW117906   6.590   4.170   0.013
 5669SOL    HW217907   6.600   4.313   0.090
 5670SOL     OW17908   1.307   3.794   2.845
 5670SOL    HW117909   1.365   3.801   2.764
 5670SOL    HW217910   1.362   3.807   2.927
 5671SOL     OW17911   6.322   5.396   4.479
 5671SOL    HW117912   6.285   5.481   4.440
 5671SOL    HW217913   6.256   5.359   4.544
 5672SOL     OW17914   4.647   4.110   5.657
 5672SOL    HW117915   4.723   4.049   5.681
 5672SOL    HW217916   4.587   4.063   5.592
 5673SOL     OW17917   1.072   6.803   1.812
 5673SOL    HW117918   1.118   6.874   1.866
 5673SOL    HW217919   0.991   6.771   1.861
 5674SOL     OW17920   2.001   4.892   4.428
 5674SOL    HW117921   2.080   4.951   4.413
 5674SOL    HW217922   2.024   4.820   4.493
 5675SOL     OW17923   3.647   1.399   0.409
 5675SOL    HW117924   3.670   1.394   0.312
 5675SOL    HW217925   3.702   1.333   0.460
 5676SOL     OW17926   2.718   2.513   1.778
 5676SOL    HW117927   2.723   2.544   1.683
 5676SOL    HW217928   2.810   2.488   1.809
 5677SOL     OW17929   6.755   1.224   0.811
 5677SOL    HW117930   6.820   1.285   0.855
 5677SOL    HW217931   6.754   1.136   0.858
 5678SOL     OW17932   3.661   1.536   2.008
 5678SOL    HW117933   3.642   1.459   2.069
 5678SOL    HW217934   3.691   1.615   2.061
 5679SOL     OW17935   5.848   2.070   4.704
 5679SOL    HW117936   5.931   2.110   4.665
 5679SOL    HW217937   5.768   2.107   4.657
 5680SOL     OW17938   1.612   4.705   5.446
 5680SOL    HW117939   1.627   4.730   5.350
 5680SOL    HW217940   1.595   4.787   5.500
 5681SOL     OW17941   0.558   3.831   3.050
 5681SOL    HW117942   0.518   3.910   3.096
 5681SOL    HW217943   0.655   3.823   3.075
 5682SOL     OW17944   3.004   5.657   2.681
 5682SOL    HW117945   2.992   5.696   2.773
 5682SOL    HW217946   2.919   5.611   2.654
 5683SOL     OW17947   4.095   2.667   6.595
 5683SOL    HW117948   4.062   2.585   6.548
 5683SOL    HW217949   4.031   2.743   6.578
 5684SOL     OW17950   2.118   3.609   6.141
 5684SOL    HW117951   2.205   3.622   6.093
 5684SOL    HW217952   2.124   3.647   6.233
 5685SOL     OW17953   2.051   2.400   4.092
 5685SOL    HW117954   2.104   2.477   4.056
 5685SOL    HW217955   2.081   2.380   4.186
 5686SOL     OW17956   3.193   0.919   5.711
 5686SOL    HW117957   3.115   0.982   5.707
 5686SOL    HW217958   3.278   0.970   5.694
 5687SOL     OW17959   0.546   6.155   5.270
 5687SOL    HW117960   0.511   6.168   5.177
 5687SOL    HW217961   0.640   6.122   5.266
 5688SOL     OW17962   2.156   3.236   3.559
 5688SOL    HW117963   2.137   3.321   3.511
 5688SOL    HW217964   2.132   3.246   3.656
 5689SOL     OW17965   1.978   0.962   1.768
 5689SOL    HW117966   1.965   1.017   1.850
 5689SOL    HW217967   1.892   0.959   1.716
 5690SOL     OW17968   1.097   5.278   6.498
 5690SOL    HW117969   1.106   5.314   6.405
 5690SOL    HW217970   1.073   5.182   6.495
 5691SOL     OW17971   3.173   1.135   2.195
 5691SOL    HW117972   3.251   1.193   2.170
 5691SOL    HW217973   3.141   1.161   2.286
 5692SOL     OW17974   4.828   5.377   0.672
 5692SOL    HW117975   4.881   5.457   0.643
 5692SOL    HW217976   4.889   5.311   0.717
 5693SOL     OW17977   3.968   1.080   0.969
 5693SOL    HW117978   3.892   1.059   1.030
 5693SOL    HW217979   4.020   1.157   1.006
 5694SOL     OW17980   0.394   0.463   2.364
 5694SOL    HW117981   0.303   0.424   2.351
 5694SOL    HW217982   0.386   0.560   2.389
 5695SOL     OW17983   1.332   1.034   1.875
 5695SOL    HW117984   1.351   0.950   1.927
 5695SOL    HW217985   1.410   1.096   1.881
 5696SOL     OW17986   1.611   0.694   3.847
 5696SOL    HW117987   1.682   0.739   3.901
 5696SOL    HW217988   1.620   0.595   3.856
 5697SOL     OW17989   6.225   2.580   1.811
 5697SOL    HW117990   6.314   2.620   1.834
 5697SOL    HW217991   6.215   2.491   1.856
 5698SOL     OW17992   1.580   3.508   3.536
 5698SOL    HW117993   1.599   3.490   3.440
 5698SOL    HW217994   1.490   3.471   3.559
 5699SOL     OW17995   2.531   2.413   3.440
 5699SOL    HW117996   2.610   2.442   3.386
 5699SOL    HW217997   2.460   2.484   3.436
 5700SOL     OW17998   7.001   0.202   1.969
 5700SOL    HW117999   7.016   0.105   1.985
 5700SOL    HW218000   6.903   0.220   1.961
 5701SOL     OW18001   6.909   1.452   0.956
 5701SOL    HW118002   6.841   1.504   1.009
 5701SOL    HW218003   6.999   1.465   0.998
 5702SOL     OW18004   1.693   6.400   4.291
 5702SOL    HW118005   1.640   6.419   4.374
 5702SOL    HW218006   1.662   6.461   4.218
 5703SOL     OW18007   6.971   3.792   6.153
 5703SOL    HW118008   0.005   3.713   6.142
 5703SOL    HW218009   6.905   3.794   6.077
 5704SOL     OW18010   5.125   3.714   3.766
 5704SOL    HW118011   5.119   3.759   3.856
 5704SOL    HW218012   5.035   3.678   3.741
 5705SOL     OW18013   5.919   6.118   6.478
 5705SOL    HW118014   6.009   6.151   6.505
 5705SOL    HW218015   5.896   6.153   6.387
 5706SOL     OW18016   5.574   2.547   0.508
 5706SOL    HW118017   5.659   2.509   0.472
 5706SOL    HW218018   5.570   2.532   0.607
 5707SOL     OW18019   5.145   6.748   1.309
 5707SOL    HW118020   5.047   6.764   1.301
 5707SOL    HW218021   5.194   6.835   1.310
 5708SOL     OW18022   5.215   5.493   3.308
 5708SOL    HW118023   5.183   5.410   3.262
 5708SOL    HW218024   5.151   5.518   3.380
 5709SOL     OW18025   1.579   1.180   1.800
 5709SOL    HW118026   1.539   1.268   1.775
 5709SOL    HW218027   1.650   1.194   1.869
 5710SOL     OW18028   2.803   2.709   0.728
 5710SOL    HW118029   2.869   2.767   0.776
 5710SOL    HW218030   2.850   2.627   0.694
 5711SOL     OW18031   5.160   0.336   1.988
 5711SOL    HW118032   5.225   0.282   1.934
 5711SOL    HW218033   5.151   0.296   2.079
 5712SOL     OW18034   6.638   6.007   1.324
 5712SOL    HW118035   6.720   5.960   1.356
 5712SOL    HW218036   6.647   6.105   1.341
 5713SOL     OW18037   2.597   5.464   0.703
 5713SOL    HW118038   2.596   5.532   0.630
 5713SOL    HW218039   2.674   5.483   0.764
 5714SOL     OW18040   6.515   6.351   1.826
 5714SOL    HW118041   6.486   6.287   1.897
 5714SOL    HW218042   6.516   6.444   1.863
 5715SOL     OW18043   0.537   6.510   1.964
 5715SOL    HW118044   0.516   6.608   1.959
 5715SOL    HW218045   0.452   6.457   1.957
 5716SOL     OW18046   1.133   4.626   6.462
 5716SOL    HW118047   1.063   4.599   6.397
 5716SOL    HW218048   1.118   4.720   6.491
 5717SOL     OW18049   1.763   5.023   2.613
 5717SOL    HW118050   1.711   4.999   2.695
 5717SOL    HW218051   1.849   4.972   2.612
 5718SOL     OW18052   0.796   3.049   0.520
 5718SOL    HW118053   0.842   3.047   0.609
 5718SOL    HW218054   0.776   2.956   0.490
 5719SOL     OW18055   2.821   3.200   1.106
 5719SOL    HW118056   2.850   3.260   1.032
 5719SOL    HW218057   2.884   3.210   1.183
 5720SOL     OW18058   2.099   5.778   5.753
 5720SOL    HW118059   2.108   5.878   5.755
 5720SOL    HW218060   2.125   5.740   5.841
 5721SOL     OW18061   5.304   4.225   0.465
 5721SOL    HW118062   5.331   4.229   0.561
 5721SOL    HW218063   5.328   4.135   0.428
 5722SOL     OW18064   0.660   0.971   5.233
 5722SOL    HW118065   0.717   1.053   5.238
 5722SOL    HW218066   0.592   0.982   5.160
 5723SOL     OW18067   4.166   3.439   6.578
 5723SOL    HW118068   4.169   3.434   6.678
 5723SOL    HW218069   4.253   3.476   6.544
 5724SOL     OW18070   6.362   2.601   3.233
 5724SOL    HW118071   6.391   2.583   3.139
 5724SOL    HW218072   6.442   2.614   3.291
 5725SOL     OW18073   5.135   4.910   2.973
 5725SOL    HW118074   5.121   4.930   3.070
 5725SOL    HW218075   5.081   4.973   2.918
 5726SOL     OW18076   5.052   3.862   3.353
 5726SOL    HW118077   5.135   3.917   3.345
 5726SOL    HW218078   5.048   3.797   3.277
 5727SOL     OW18079   0.334   2.478   4.501
 5727SOL    HW118080   0.348   2.543   4.427
 5727SOL    HW218081   0.240   2.483   4.534
 5728SOL     OW18082   4.827   5.926   5.053
 5728SOL    HW118083   4.806   5.838   5.096
 5728SOL    HW218084   4.856   5.910   4.959
 5729SOL     OW18085   2.364   2.637   6.251
 5729SOL    HW118086   2.306   2.574   6.302
 5729SOL    HW218087   2.341   2.631   6.153
 5730SOL     OW18088   6.962   4.034   5.740
 5730SOL    HW118089   0.015   4.004   5.794
 5730SOL    HW218090   6.932   3.959   5.681
 5731SOL     OW18091   7.026   6.683   1.527
 5731SOL    HW118092   7.003   6.661   1.432
 5731SOL    HW218093   0.062   6.614   1.563
 5732SOL     OW18094   1.170   6.474   4.499
 5732SOL    HW118095   1.139   6.553   4.551
 5732SOL    HW218096   1.109   6.458   4.421
 5733SOL     OW18097   4.094   6.670   5.248
 5733SOL    HW118098   4.192   6.656   5.229
 5733SOL    HW218099   4.078   6.767   5.269
 5734SOL     OW18100   1.553   6.477   4.502
 5734SOL    HW118101   1.501   6.396   4.526
 5734SOL    HW218102   1.540   6.547   4.573
 5735SOL     OW18103   3.347   1.368   1.457
 5735SOL    HW118104   3.340   1.465   1.480
 5735SOL    HW218105   3.328   1.356   1.359
 5736SOL     OW18106   0.966   5.404   0.128
 5736SOL    HW118107   0.880   5.446   0.100
 5736SOL    HW218108   1.035   5.419   0.056
 5737SOL     OW18109   5.414   5.494   6.304
 5737SOL    HW118110   5.371   5.470   6.391
 5737SOL    HW218111   5.505   5.532   6.322
 5738SOL     OW18112   1.983   3.505   0.004
 5738SOL    HW118113   1.927   3.586   7.017
 5738SOL    HW218114   1.924   3.425   0.015
 5739SOL     OW18115   1.894   1.561   0.794
 5739SOL    HW118116   1.815   1.607   0.835
 5739SOL    HW218117   1.939   1.504   0.863
 5740SOL     OW18118   4.136   5.933   6.478
 5740SOL    HW118119   4.138   5.845   6.526
 5740SOL    HW218120   4.107   6.005   6.541
 5741SOL     OW18121   6.353   5.006   5.136
 5741SOL    HW118122   6.391   4.991   5.044
 5741SOL    HW218123   6.427   5.025   5.200
 5742SOL     OW18124   6.474   6.662   2.560
 5742SOL    HW118125   6.455   6.595   2.488
 5742SOL    HW218126   6.390   6.684   2.609
 5743SOL     OW18127   2.156   6.761   4.863
 5743SOL    HW118128   2.197   6.670   4.872
 5743SOL    HW218129   2.192   6.805   4.780
 5744SOL     OW18130   5.942   0.683   6.971
 5744SOL    HW118131   5.864   0.746   6.981
 5744SOL    HW218132   6.018   0.731   6.928
 5745SOL     OW18133   1.769   2.006   4.578
 5745SOL    HW118134   1.682   2.008   4.628
 5745SOL    HW218135   1.750   2.007   4.480
 5746SOL     OW18136   4.584   1.887   0.328
 5746SOL    HW118137   4.494   1.867   0.368
 5746SOL    HW218138   4.638   1.941   0.392
 5747SOL     OW18139   0.597   5.346   3.244
 5747SOL    HW118140   0.597   5.252   3.277
 5747SOL    HW218141   0.630   5.349   3.150
 5748SOL     OW18142   2.190   5.303   1.873
 5748SOL    HW118143   2.143   5.371   1.816
 5748SOL    HW218144   2.288   5.323   1.873
 5749SOL     OW18145   2.266   2.141   3.156
 5749SOL    HW118146   2.264   2.044   3.131
 5749SOL    HW218147   2.176   2.169   3.188
 5750SOL     OW18148   6.130   5.610   3.524
 5750SOL    HW118149   6.122   5.637   3.428
 5750SOL    HW218150   6.043   5.571   3.554
 5751SOL     OW18151   2.307   3.184   5.585
 5751SOL    HW118152   2.219   3.223   5.609
 5751SOL    HW218153   2.329   3.207   5.490
 5752SOL     OW18154   6.521   6.617   6.363
 5752SOL    HW118155   6.496   6.626   6.267
 5752SOL    HW218156   6.557   6.525   6.380
 5753SOL     OW18157   3.484   2.765   0.090
 5753SOL    HW118158   3.486   2.727   0.183
 5753SOL    HW218159   3.390   2.783   0.063
 5754SOL     OW18160   5.504   5.329   1.721
 5754SOL    HW118161   5.512   5.393   1.644
 5754SOL    HW218162   5.412   5.333   1.759
 5755SOL     OW18163   3.560   4.069   6.739
 5755SOL    HW118164   3.528   3.985   6.694
 5755SOL    HW218165   3.591   4.134   6.670
 5756SOL     OW18166   6.637   4.931   3.703
 5756SOL    HW118167   6.586   4.970   3.780
 5756SOL    HW218168   6.731   4.913   3.732
 5757SOL     OW18169   6.757   5.139   0.804
 5757SOL    HW118170   6.842   5.173   0.844
 5757SOL    HW218171   6.681   5.197   0.833
 5758SOL     OW18172   1.913   2.466   4.895
 5758SOL    HW118173   2.007   2.497   4.881
 5758SOL    HW218174   1.881   2.496   4.985
 5759SOL     OW18175   4.900   1.579   6.604
 5759SOL    HW118176   4.931   1.668   6.569
 5759SOL    HW218177   4.934   1.506   6.544
 5760SOL     OW18178   1.666   5.571   1.985
 5760SOL    HW118179   1.648   5.513   2.064
 5760SOL    HW218180   1.734   5.640   2.010
 5761SOL     OW18181   4.818   6.436   5.068
 5761SOL    HW118182   4.743   6.369   5.070
 5761SOL    HW218183   4.884   6.411   4.998
 5762SOL     OW18184   5.800   6.411   1.562
 5762SOL    HW118185   5.772   6.503   1.589
 5762SOL    HW218186   5.764   6.344   1.627
 5763SOL     OW18187   1.404   0.818   0.974
 5763SOL    HW118188   1.490   0.770   0.992
 5763SOL    HW218189   1.424   0.914   0.955
 5764SOL     OW18190   5.365   4.074   5.326
 5764SOL    HW118191   5.381   4.169   5.301
 5764SOL    HW218192   5.410   4.054   5.413
 5765SOL     OW18193   5.922   4.524   6.791
 5765SOL    HW118194   5.873   4.564   6.868
 5765SOL    HW218195   6.017   4.555   6.793
 5766SOL     OW18196   2.955   1.865   2.282
 5766SOL    HW118197   2.948   1.785   2.341
 5766SOL    HW218198   3.024   1.927   2.318
 5767SOL     OW18199   0.605   6.684   1.553
 5767SOL    HW118200   0.672   6.720   1.488
 5767SOL    HW218201   0.653   6.643   1.630
 5768SOL     OW18202   6.934   1.419   3.038
 5768SOL    HW118203   6.923   1.483   3.114
 5768SOL    HW218204   7.025   1.432   2.998
 5769SOL     OW18205   2.596   5.976   4.527
 5769SOL    HW118206   2.585   6.052   4.592
 5769SOL    HW218207   2.635   6.010   4.442
 5770SOL     OW18208   6.660   0.292   1.614
 5770SOL    HW118209   6.630   0.300   1.519
 5770SOL    HW218210   6.753   0.254   1.617
 5771SOL     OW18211   1.734   0.958   1.146
 5771SOL    HW118212   1.698   0.938   1.055
 5771SOL    HW218213   1.767   0.873   1.188
 5772SOL     OW18214   5.564   3.306   0.607
 5772SOL    HW118215   5.599   3.212   0.609
 5772SOL    HW218216   5.607   3.360   0.680
 5773SOL     OW18217   5.487   6.244   4.305
 5773SOL    HW118218   5.424   6.174   4.338
 5773SOL    HW218219   5.471   6.260   4.208
 5774SOL     OW18220   1.959   5.733   3.688
 5774SOL    HW118221   1.859   5.725   3.695
 5774SOL    HW218222   1.982   5.779   3.603
 5775SOL     OW18223   0.158   0.043   6.192
 5775SOL    HW118224   0.177   0.137   6.219
 5775SOL    HW218225   0.168   7.008   6.271
 5776SOL     OW18226   4.490   0.002   5.576
 5776SOL    HW118227   4.403   6.985   5.604
 5776SOL    HW218228   4.470   0.078   5.514
 5777SOL     OW18229   0.392   1.128   4.526
 5777SOL    HW118230   0.384   1.039   4.479
 5777SOL    HW218231   0.327   1.131   4.602
 5778SOL     OW18232   1.407   6.845   3.135
 5778SOL    HW118233   1.430   6.932   3.092
 5778SOL    HW218234   1.492   6.798   3.161
 5779SOL     OW18235   3.965   1.247   2.102
 5779SOL    HW118236   3.903   1.246   2.024
 5779SOL    HW218237   3.978   1.153   2.135
 5780SOL     OW18238   6.675   3.964   1.575
 5780SOL    HW118239   6.578   3.986   1.591
 5780SOL    HW218240   6.729   4.047   1.588
 5781SOL     OW18241   1.964   5.104   4.952
 5781SOL    HW118242   2.014   5.080   4.869
 5781SOL    HW218243   2.007   5.061   5.031
 5782SOL     OW18244   2.677   1.477   2.373
 5782SOL    HW118245   2.622   1.403   2.333
 5782SOL    HW218246   2.703   1.453   2.466
 5783SOL     OW18247   1.214   0.360   1.168
 5783SOL    HW118248   1.279   0.389   1.239
 5783SOL    HW218249   1.236   0.407   1.082
 5784SOL     OW18250   0.508   6.240   0.331
 5784SOL    HW118251   0.466   6.316   0.281
 5784SOL    HW218252   0.509   6.260   0.429
 5785SOL     OW18253   1.765   2.115   0.262
 5785SOL    HW118254   1.857   2.081   0.245
 5785SOL    HW218255   1.732   2.165   0.182
 5786SOL     OW18256   1.698   3.320   1.429
 5786SOL    HW118257   1.737   3.402   1.472
 5786SOL    HW218258   1.681   3.251   1.499
 5787SOL     OW18259   5.742   2.684   4.883
 5787SOL    HW118260   5.682   2.652   4.957
 5787SOL    HW218261   5.687   2.703   4.802
 5788SOL     OW18262   3.008   1.088   1.973
 5788SOL    HW118263   2.933   1.132   2.023
 5788SOL    HW218264   3.089   1.083   2.032
 5789SOL     OW18265   4.456   4.153   6.739
 5789SOL    HW118266   4.417   4.180   6.827
 5789SOL    HW218267   4.472   4.235   6.683
 5790SOL     OW18268   5.470   5.752   4.483
 5790SOL    HW118269   5.540   5.788   4.420
 5790SOL    HW218270   5.436   5.665   4.448
 5791SOL     OW18271   3.930   1.266   2.790
 5791SOL    HW118272   3.937   1.357   2.830
 5791SOL    HW218273   3.979   1.264   2.702
 5792SOL     OW18274   5.192   3.370   2.942
 5792SOL    HW118275   5.178   3.273   2.960
 5792SOL    HW218276   5.275   3.382   2.887
 5793SOL     OW18277   5.035   2.100   5.747
 5793SOL    HW118278   4.983   2.017   5.727
 5793SOL    HW218279   4.992   2.150   5.822
 5794SOL     OW18280   3.581   0.464   6.660
 5794SOL    HW118281   3.631   0.537   6.614
 5794SOL    HW218282   3.584   0.478   6.759
 5795SOL     OW18283   1.475   5.639   1.417
 5795SOL    HW118284   1.450   5.572   1.487
 5795SOL    HW218285   1.460   5.600   1.326
 5796SOL     OW18286   4.375   2.614   6.628
 5796SOL    HW118287   4.276   2.613   6.639
 5796SOL    HW218288   4.401   2.684   6.562
 5797SOL     OW18289   5.011   2.466   0.453
 5797SOL    HW118290   5.070   2.387   0.471
 5797SOL    HW218291   4.989   2.469   0.355
 5798SOL     OW18292   1.446   3.735   5.690
 5798SOL    HW118293   1.380   3.680   5.640
 5798SOL    HW218294   1.506   3.783   5.625
 5799SOL     OW18295   2.021   6.490   3.238
 5799SOL    HW118296   2.013   6.434   3.321
 5799SOL    HW218297   2.085   6.446   3.175
 5800SOL     OW18298   0.560   6.523   1.110
 5800SOL    HW118299   0.651   6.485   1.093
 5800SOL    HW218300   0.565   6.622   1.113
 5801SOL     OW18301   1.398   1.816   2.592
 5801SOL    HW118302   1.456   1.858   2.661
 5801SOL    HW218303   1.454   1.759   2.532
 5802SOL     OW18304   0.207   1.576   1.986
 5802SOL    HW118305   0.140   1.626   1.931
 5802SOL    HW218306   0.269   1.641   2.029
 5803SOL     OW18307   0.589   5.024   3.863
 5803SOL    HW118308   0.554   4.983   3.778
 5803SOL    HW218309   0.680   5.064   3.845
 5804SOL     OW18310   6.498   1.014   3.719
 5804SOL    HW118311   6.547   0.973   3.796
 5804SOL    HW218312   6.467   1.105   3.745
 5805SOL     OW18313   2.118   2.646   1.367
 5805SOL    HW118314   2.088   2.668   1.460
 5805SOL    HW218315   2.124   2.730   1.313
 5806SOL     OW18316   0.530   3.659   2.738
 5806SOL    HW118317   0.563   3.754   2.741
 5806SOL    HW218318   0.470   3.642   2.816
 5807SOL     OW18319   0.794   0.318   0.953
 5807SOL    HW118320   0.800   0.274   0.863
 5807SOL    HW218321   0.706   0.296   0.995
 5808SOL     OW18322   6.266   0.327   5.243
 5808SOL    HW118323   6.179   0.292   5.207
 5808SOL    HW218324   6.248   0.404   5.304
 5809SOL     OW18325   0.416   2.182   5.402
 5809SOL    HW118326   0.441   2.234   5.483
 5809SOL    HW218327   0.411   2.242   5.323
 5810SOL     OW18328   3.968   0.115   5.185
 5810SOL    HW118329   3.933   0.043   5.127
 5810SOL    HW218330   3.940   0.204   5.149
 5811SOL     OW18331   3.055   3.497   6.084
 5811SOL    HW118332   3.033   3.401   6.100
 5811SOL    HW218333   2.998   3.533   6.011
 5812SOL     OW18334   5.593   2.810   0.436
 5812SOL    HW118335   5.597   2.804   0.336
 5812SOL    HW218336   5.582   2.718   0.474
 5813SOL     OW18337   4.984   6.660   1.549
 5813SOL    HW118338   4.900   6.698   1.588
 5813SOL    HW218339   5.058   6.727   1.558
 5814SOL     OW18340   5.234   1.756   1.825
 5814SOL    HW118341   5.193   1.779   1.736
 5814SOL    HW218342   5.285   1.835   1.858
 5815SOL     OW18343   6.090   1.631   4.332
 5815SOL    HW118344   6.054   1.541   4.357
 5815SOL    HW218345   6.162   1.657   4.396
 5816SOL     OW18346   6.922   4.063   2.900
 5816SOL    HW118347   6.993   4.133   2.911
 5816SOL    HW218348   6.921   4.031   2.805
 5817SOL     OW18349   5.812   3.788   3.634
 5817SOL    HW118350   5.805   3.887   3.645
 5817SOL    HW218351   5.724   3.750   3.607
 5818SOL     OW18352   2.149   0.245   5.371
 5818SOL    HW118353   2.234   0.228   5.422
 5818SOL    HW218354   2.118   0.338   5.387
 5819SOL     OW18355   4.193   5.047   0.351
 5819SOL    HW118356   4.190   5.064   0.450
 5819SOL    HW218357   4.173   5.132   0.302
 5820SOL     OW18358   6.307   5.434   2.406
 5820SOL    HW118359   6.227   5.489   2.432
 5820SOL    HW218360   6.279   5.367   2.338
 5821SOL     OW18361   6.834   0.612   1.261
 5821SOL    HW118362   6.861   0.534   1.204
 5821SOL    HW218363   6.744   0.595   1.300
 5822SOL     OW18364   1.710   2.981   2.436
 5822SOL    HW118365   1.729   3.041   2.359
 5822SOL    HW218366   1.678   2.893   2.402
 5823SOL     OW18367   1.881   6.290   4.003
 5823SOL    HW118368   1.801   6.308   4.060
 5823SOL    HW218369   1.875   6.199   3.964
 5824SOL     OW18370   0.719   6.989   1.947
 5824SOL    HW118371   0.648   0.025   1.911
 5824SOL    HW218372   0.809   7.025   1.924
 5825SOL     OW18373   5.931   0.302   4.455
 5825SOL    HW118374   5.898   0.247   4.379
 5825SOL    HW218375   6.017   0.264   4.489
 5826SOL     OW18376   0.625   6.950   4.795
 5826SOL    HW118377   0.624   7.020   4.866
 5826SOL    HW218378   0.588   6.988   4.710
 5827SOL     OW18379   2.067   4.763   5.019
 5827SOL    HW118380   2.121   4.816   4.954
 5827SOL    HW218381   1.999   4.708   4.969
 5828SOL     OW18382   4.537   6.494   4.219
 5828SOL    HW118383   4.577   6.544   4.142
 5828SOL    HW218384   4.464   6.434   4.185
 5829SOL     OW18385   2.536   1.118   3.786
 5829SOL    HW118386   2.559   1.215   3.787
 5829SOL    HW218387   2.593   1.068   3.851
 5830SOL     OW18388   3.586   5.463   4.527
 5830SOL    HW118389   3.555   5.390   4.467
 5830SOL    HW218390   3.557   5.443   4.621
 5831SOL     OW18391   1.395   2.254   4.878
 5831SOL    HW118392   1.447   2.306   4.810
 5831SOL    HW218393   1.456   2.225   4.952
 5832SOL     OW18394   3.091   5.184   0.856
 5832SOL    HW118395   3.096   5.227   0.766
 5832SOL    HW218396   2.998   5.150   0.872
 5833SOL     OW18397   4.031   4.023   6.277
 5833SOL    HW118398   3.962   4.007   6.348
 5833SOL    HW218399   4.113   4.061   6.319
 5834SOL     OW18400   5.599   3.095   6.484
 5834SOL    HW118401   5.505   3.119   6.508
 5834SOL    HW218402   5.610   2.996   6.488
 5835SOL     OW18403   5.322   0.694   1.837
 5835SOL    HW118404   5.347   0.598   1.852
 5835SOL    HW218405   5.227   0.698   1.805
 5836SOL     OW18406   4.373   0.138   2.556
 5836SOL    HW118407   4.457   0.108   2.602
 5836SOL    HW218408   4.294   0.116   2.614
 5837SOL     OW18409   3.273   4.604   0.070
 5837SOL    HW118410   3.275   4.516   0.022
 5837SOL    HW218411   3.178   4.630   0.088
 5838SOL     OW18412   3.270   2.054   0.670
 5838SOL    HW118413   3.322   2.074   0.587
 5838SOL    HW218414   3.332   2.023   0.742
 5839SOL     OW18415   1.981   2.063   0.592
 5839SOL    HW118416   1.980   1.963   0.592
 5839SOL    HW218417   2.075   2.096   0.592
 5840SOL     OW18418   1.365   3.108   3.034
 5840SOL    HW118419   1.340   3.134   3.127
 5840SOL    HW218420   1.310   3.029   3.005
 5841SOL     OW18421   4.933   2.694   0.586
 5841SOL    HW118422   4.950   2.610   0.534
 5841SOL    HW218423   4.884   2.672   0.670
 5842SOL     OW18424   2.683   1.345   0.597
 5842SOL    HW118425   2.707   1.439   0.576
 5842SOL    HW218426   2.638   1.303   0.517
 5843SOL     OW18427   2.048   3.449   1.251
 5843SOL    HW118428   2.109   3.398   1.190
 5843SOL    HW218429   2.050   3.406   1.342
 5844SOL     OW18430   0.851   0.327   4.922
 5844SOL    HW118431   0.865   0.310   5.019
 5844SOL    HW218432   0.855   0.239   4.873
 5845SOL     OW18433   1.368   6.760   1.489
 5845SOL    HW118434   1.276   6.723   1.505
 5845SOL    HW218435   1.408   6.717   1.409
 5846SOL     OW18436   6.571   4.110   5.551
 5846SOL    HW118437   6.522   4.118   5.464
 5846SOL    HW218438   6.563   4.016   5.584
 5847SOL     OW18439   2.412   3.438   0.877
 5847SOL    HW118440   2.454   3.361   0.924
 5847SOL    HW218441   2.461   3.522   0.901
 5848SOL     OW18442   2.000   4.863   2.651
 5848SOL    HW118443   2.018   4.803   2.728
 5848SOL    HW218444   2.062   4.941   2.653
 5849SOL     OW18445   3.317   5.624   5.549
 5849SOL    HW118446   3.407   5.582   5.537
 5849SOL    HW218447   3.308   5.659   5.642
 5850SOL     OW18448   1.317   1.550   2.002
 5850SOL    HW118449   1.314   1.602   1.917
 5850SOL    HW218450   1.311   1.613   2.080
 5851SOL     OW18451   6.285   3.799   4.789
 5851SOL    HW118452   6.263   3.716   4.738
 5851SOL    HW218453   6.314   3.871   4.726
 5852SOL     OW18454   4.836   4.560   2.973
 5852SOL    HW118455   4.773   4.557   2.896
 5852SOL    HW218456   4.790   4.599   3.053
 5853SOL     OW18457   3.461   4.506   5.312
 5853SOL    HW118458   3.503   4.558   5.386
 5853SOL    HW218459   3.527   4.439   5.277
 5854SOL     OW18460   3.053   4.909   5.723
 5854SOL    HW118461   2.979   4.913   5.656
 5854SOL    HW218462   3.033   4.972   5.798
 5855SOL     OW18463   2.010   3.298   3.811
 5855SOL    HW118464   2.047   3.232   3.877
 5855SOL    HW218465   1.913   3.281   3.797
 5856SOL     OW18466   1.568   6.780   3.529
 5856SOL    HW118467   1.529   6.706   3.585
 5856SOL    HW218468   1.499   6.814   3.466
 5857SOL     OW18469   6.666   4.299   6.086
 5857SOL    HW118470   6.710   4.253   6.009
 5857SOL    HW218471   6.725   4.290   6.167
 5858SOL     OW18472   2.021   0.654   3.610
 5858SOL    HW118473   1.922   0.645   3.600
 5858SOL    HW218474   2.052   0.603   3.691
 5859SOL     OW18475   6.100   0.247   2.458
 5859SOL    HW118476   6.019   0.216   2.507
 5859SOL    HW218477   6.080   0.332   2.409
 5860SOL     OW18478   7.002   2.840   3.602
 5860SOL    HW118479   6.927   2.782   3.633
 5860SOL    HW218480   0.054   2.782   3.575
 5861SOL     OW18481   4.713   0.731   5.146
 5861SOL    HW118482   4.804   0.689   5.141
 5861SOL    HW218483   4.691   0.773   5.059
 5862SOL     OW18484   6.832   5.280   3.192
 5862SOL    HW118485   6.861   5.192   3.154
 5862SOL    HW218486   6.760   5.319   3.135
 5863SOL     OW18487   4.144   0.440   5.618
 5863SOL    HW118488   4.084   0.364   5.594
 5863SOL    HW218489   4.170   0.490   5.536
 5864SOL     OW18490   3.050   3.951   2.589
 5864SOL    HW118491   2.958   3.987   2.568
 5864SOL    HW218492   3.107   3.955   2.507
 5865SOL     OW18493   6.139   0.630   5.719
 5865SOL    HW118494   6.196   0.633   5.801
 5865SOL    HW218495   6.044   0.648   5.744
 5866SOL     OW18496   3.297   2.986   2.572
 5866SOL    HW118497   3.312   2.924   2.496
 5866SOL    HW218498   3.200   2.992   2.593
 5867SOL     OW18499   3.176   1.625   1.817
 5867SOL    HW118500   3.078   1.639   1.830
 5867SOL    HW218501   3.201   1.534   1.851
 5868SOL     OW18502   1.306   1.033   6.877
 5868SOL    HW118503   1.321   1.131   6.894
 5868SOL    HW218504   1.393   0.985   6.880
 5869SOL     OW18505   1.277   5.612   4.296
 5869SOL    HW118506   1.366   5.641   4.262
 5869SOL    HW218507   1.284   5.520   4.335
 5870SOL     OW18508   4.501   4.647   4.624
 5870SOL    HW118509   4.442   4.694   4.690
 5870SOL    HW218510   4.557   4.579   4.671
 5871SOL     OW18511   3.295   3.476   3.965
 5871SOL    HW118512   3.316   3.568   3.932
 5871SOL    HW218513   3.275   3.416   3.887
 5872SOL     OW18514   4.129   5.897   2.209
 5872SOL    HW118515   4.157   5.802   2.195
 5872SOL    HW218516   4.193   5.942   2.271
 5873SOL     OW18517   3.829   5.143   2.176
 5873SOL    HW118518   3.766   5.084   2.125
 5873SOL    HW218519   3.904   5.089   2.212
 5874SOL     OW18520   2.871   4.536   5.609
 5874SOL    HW118521   2.864   4.577   5.518
 5874SOL    HW218522   2.922   4.451   5.604
 5875SOL     OW18523   2.734   1.184   0.802
 5875SOL    HW118524   2.808   1.116   0.797
 5875SOL    HW218525   2.729   1.234   0.715
 5876SOL     OW18526   3.837   3.569   1.852
 5876SOL    HW118527   3.750   3.548   1.807
 5876SOL    HW218528   3.826   3.650   1.910
 5877SOL     OW18529   5.557   4.694   0.461
 5877SOL    HW118530   5.656   4.696   0.447
 5877SOL    HW218531   5.537   4.687   0.559
 5878SOL     OW18532   2.889   4.840   2.371
 5878SOL    HW118533   2.825   4.776   2.329
 5878SOL    HW218534   2.864   4.854   2.467
 5879SOL     OW18535   6.941   4.287   6.229
 5879SOL    HW118536   6.974   4.194   6.242
 5879SOL    HW218537   6.976   4.324   6.143
 5880SOL     OW18538   2.251   5.956   1.079
 5880SOL    HW118539   2.232   6.054   1.076
 5880SOL    HW218540   2.169   5.906   1.106
 5881SOL     OW18541   0.380   5.428   4.127
 5881SOL    HW118542   0.369   5.361   4.201
 5881SOL    HW218543   0.431   5.506   4.162
 5882SOL     OW18544   4.972   0.462   1.348
 5882SOL    HW118545   4.920   0.377   1.354
 5882SOL    HW218546   4.910   0.538   1.328
 5883SOL     OW18547   6.832   3.110   6.275
 5883SOL    HW118548   6.756   3.115   6.211
 5883SOL    HW218549   6.916   3.138   6.229
 5884SOL     OW18550   0.747   1.281   3.097
 5884SOL    HW118551   0.846   1.284   3.087
 5884SOL    HW218552   0.706   1.358   3.048
 5885SOL     OW18553   6.805   6.133   1.092
 5885SOL    HW118554   6.839   6.047   1.055
 5885SOL    HW218555   6.705   6.133   1.088
 5886SOL     OW18556   1.045   1.825   5.497
 5886SOL    HW118557   1.084   1.739   5.462
 5886SOL    HW218558   1.109   1.865   5.563
 5887SOL     OW18559   3.373   0.629   4.481
 5887SOL    HW118560   3.304   0.579   4.428
 5887SOL    HW218561   3.448   0.654   4.421
 5888SOL     OW18562   2.157   0.060   3.343
 5888SOL    HW118563   2.113   0.122   3.279
 5888SOL    HW218564   2.088   0.023   3.406
 5889SOL     OW18565   2.819   0.265   1.026
 5889SOL    HW118566   2.853   0.265   1.119
 5889SOL    HW218567   2.728   0.222   1.024
 5890SOL     OW18568   2.612   5.164   5.572
 5890SOL    HW118569   2.611   5.110   5.487
 5890SOL    HW218570   2.529   5.219   5.578
 5891SOL     OW18571   3.696   3.229   0.405
 5891SOL    HW118572   3.756   3.275   0.470
 5891SOL    HW218573   3.610   3.279   0.397
 5892SOL     OW18574   0.386   6.292   1.862
 5892SOL    HW118575   0.438   6.350   1.799
 5892SOL    HW218576   0.393   6.197   1.833
 5893SOL     OW18577   1.093   1.461   4.191
 5893SOL    HW118578   1.058   1.373   4.159
 5893SOL    HW218579   1.041   1.490   4.271
 5894SOL     OW18580   1.500   3.351   2.948
 5894SOL    HW118581   1.435   3.276   2.959
 5894SOL    HW218582   1.584   3.316   2.906
 5895SOL     OW18583   5.604   3.635   3.939
 5895SOL    HW118584   5.618   3.600   3.846
 5895SOL    HW218585   5.521   3.595   3.977
 5896SOL     OW18586   3.799   2.083   0.204
 5896SOL    HW118587   3.866   2.089   0.130
 5896SOL    HW218588   3.763   1.990   0.208
 5897SOL     OW18589   3.791   6.795   1.029
 5897SOL    HW118590   3.727   6.838   0.966
 5897SOL    HW218591   3.780   6.836   1.120
 5898SOL     OW18592   1.679   0.388   2.376
 5898SOL    HW118593   1.768   0.372   2.419
 5898SOL    HW218594   1.686   0.375   2.277
 5899SOL     OW18595   5.987   6.677   4.792
 5899SOL    HW118596   6.043   6.596   4.773
 5899SOL    HW218597   5.918   6.654   4.861
 5900SOL     OW18598   4.701   4.866   2.953
 5900SOL    HW118599   4.783   4.874   2.897
 5900SOL    HW218600   4.720   4.810   3.033
 5901SOL     OW18601   2.624   6.733   6.250
 5901SOL    HW118602   2.677   6.720   6.167
 5901SOL    HW218603   2.565   6.654   6.265
 5902SOL     OW18604   6.598   2.487   0.106
 5902SOL    HW118605   6.537   2.457   0.033
 5902SOL    HW218606   6.546   2.542   0.172
 5903SOL     OW18607   6.134   3.506   6.851
 5903SOL    HW118608   6.169   3.441   6.918
 5903SOL    HW218609   6.119   3.594   6.896
 5904SOL     OW18610   0.249   3.578   2.281
 5904SOL    HW118611   0.287   3.625   2.360
 5904SOL    HW218612   0.149   3.577   2.288
 5905SOL     OW18613   0.103   6.290   2.311
 5905SOL    HW118614   0.070   6.284   2.406
 5905SOL    HW218615   0.025   6.306   2.250
 5906SOL     OW18616   5.318   1.262   3.883
 5906SOL    HW118617   5.253   1.247   3.957
 5906SOL    HW218618   5.382   1.334   3.907
 5907SOL     OW18619   0.699   5.978   1.988
 5907SOL    HW118620   0.709   6.048   2.059
 5907SOL    HW218621   0.749   5.896   2.015
 5908SOL     OW18622   0.331   3.203   5.448
 5908SOL    HW118623   0.265   3.213   5.374
 5908SOL    HW218624   0.383   3.288   5.459
 5909SOL     OW18625   0.404   5.999   0.807
 5909SOL    HW118626   0.375   5.939   0.733
 5909SOL    HW218627   0.449   5.945   0.878
 5910SOL     OW18628   2.090   2.716   3.578
 5910SOL    HW118629   2.180   2.687   3.546
 5910SOL    HW218630   2.038   2.636   3.608
 5911SOL     OW18631   6.795   5.596   6.579
 5911SOL    HW118632   6.767   5.682   6.621
 5911SOL    HW218633   6.718   5.532   6.579
 5912SOL     OW18634   6.298   1.412   4.578
 5912SOL    HW118635   6.330   1.439   4.669
 5912SOL    HW218636   6.325   1.482   4.511
 5913SOL     OW18637   5.741   2.211   0.220
 5913SOL    HW118638   5.679   2.149   0.172
 5913SOL    HW218639   5.836   2.188   0.196
 5914SOL     OW18640   0.618   6.141   6.483
 5914SOL    HW118641   0.552   6.152   6.409
 5914SOL    HW218642   0.663   6.229   6.501
 5915SOL     OW18643   3.869   0.528   6.356
 5915SOL    HW118644   3.902   0.435   6.341
 5915SOL    HW218645   3.819   0.559   6.275
 5916SOL     OW18646   1.628   6.697   2.681
 5916SOL    HW118647   1.593   6.607   2.708
 5916SOL    HW218648   1.609   6.712   2.584
 5917SOL     OW18649   2.989   4.150   6.694
 5917SOL    HW118650   3.078   4.145   6.740
 5917SOL    HW218651   2.923   4.094   6.744
 5918SOL     OW18652   3.131   6.831   6.195
 5918SOL    HW118653   3.208   6.872   6.145
 5918SOL    HW218654   3.047   6.882   6.175
 5919SOL     OW18655   3.417   2.908   3.020
 5919SOL    HW118656   3.459   2.826   3.060
 5919SOL    HW218657   3.448   2.919   2.926
 5920SOL     OW18658   6.630   0.089   5.539
 5920SOL    HW118659   6.684   0.025   5.485
 5920SOL    HW218660   6.691   0.144   5.596
 5921SOL     OW18661   3.570   4.579   6.733
 5921SOL    HW118662   3.569   4.486   6.770
 5921SOL    HW218663   3.609   4.642   6.800
 5922SOL     OW18664   5.887   3.440   2.888
 5922SOL    HW118665   5.836   3.354   2.888
 5922SOL    HW218666   5.965   3.432   2.826
 5923SOL     OW18667   6.816   1.190   1.286
 5923SOL    HW118668   6.745   1.158   1.349
 5923SOL    HW218669   6.777   1.258   1.224
 5924SOL     OW18670   6.269   0.216   3.106
 5924SOL    HW118671   6.242   0.121   3.116
 5924SOL    HW218672   6.363   0.221   3.071
 5925SOL     OW18673   4.856   5.552   1.104
 5925SOL    HW118674   4.923   5.541   1.031
 5925SOL    HW218675   4.903   5.564   1.192
 5926SOL     OW18676   4.107   4.852   2.691
 5926SOL    HW118677   4.168   4.780   2.658
 5926SOL    HW218678   4.057   4.818   2.771
 5927SOL     OW18679   0.791   3.793   1.953
 5927SOL    HW118680   0.828   3.738   1.878
 5927SOL    HW218681   0.724   3.858   1.917
 5928SOL     OW18682   3.578   0.521   0.700
 5928SOL    HW118683   3.539   0.605   0.739
 5928SOL    HW218684   3.674   0.514   0.728
 5929SOL     OW18685   6.997   1.437   5.548
 5929SOL    HW118686   0.059   1.484   5.557
 5929SOL    HW218687   6.969   1.400   5.637
 5930SOL     OW18688   1.451   3.664   2.201
 5930SOL    HW118689   1.405   3.617   2.126
 5930SOL    HW218690   1.443   3.763   2.189
 5931SOL     OW18691   5.514   6.066   2.869
 5931SOL    HW118692   5.443   5.997   2.885
 5931SOL    HW218693   5.578   6.067   2.945
 5932SOL     OW18694   2.959   0.769   6.133
 5932SOL    HW118695   3.034   0.705   6.114
 5932SOL    HW218696   2.897   0.728   6.200
 5933SOL     OW18697   6.653   5.612   3.904
 5933SOL    HW118698   6.652   5.512   3.893
 5933SOL    HW218699   6.685   5.635   3.996
 5934SOL     OW18700   3.306   3.750   5.560
 5934SOL    HW118701   3.321   3.687   5.636
 5934SOL    HW218702   3.209   3.773   5.555
 5935SOL     OW18703   0.069   6.462   4.849
 5935SOL    HW118704   0.124   6.470   4.765
 5935SOL    HW218705   7.001   6.439   4.825
 5936SOL     OW18706   3.003   3.312   2.844
 5936SOL    HW118707   2.954   3.301   2.758
 5936SOL    HW218708   3.020   3.222   2.884
 5937SOL     OW18709   6.891   2.820   1.508
 5937SOL    HW118710   6.849   2.732   1.485
 5937SOL    HW218711   6.875   2.840   1.605
 5938SOL     OW18712   6.520   4.811   5.276
 5938SOL    HW118713   6.452   4.744   5.308
 5938SOL    HW218714   6.605   4.764   5.254
 5939SOL     OW18715   3.877   0.073   4.230
 5939SOL    HW118716   3.811   0.108   4.163
 5939SOL    HW218717   3.844   0.093   4.322
 5940SOL     OW18718   4.811   5.646   2.492
 5940SOL    HW118719   4.832   5.555   2.457
 5940SOL    HW218720   4.897   5.692   2.518
 5941SOL     OW18721   6.910   1.985   1.903
 5941SOL    HW118722   6.926   2.083   1.916
 5941SOL    HW218723   6.850   1.952   1.975
 5942SOL     OW18724   6.145   3.633   6.188
 5942SOL    HW118725   6.116   3.715   6.139
 5942SOL    HW218726   6.180   3.658   6.278
 5943SOL     OW18727   3.782   3.802   0.308
 5943SOL    HW118728   3.869   3.816   0.356
 5943SOL    HW218729   3.800   3.778   0.213
 5944SOL     OW18730   0.551   3.676   6.850
 5944SOL    HW118731   0.615   3.601   6.862
 5944SOL    HW218732   0.457   3.640   6.853
 5945SOL     OW18733   0.202   5.888   5.506
 5945SOL    HW118734   0.163   5.941   5.432
 5945SOL    HW218735   0.220   5.795   5.475
 5946SOL     OW18736   3.947   4.579   0.060
 5946SOL    HW118737   4.040   4.598   0.028
 5946SOL    HW218738   3.922   4.646   0.130
 5947SOL     OW18739   3.509   2.916   4.663
 5947SOL    HW118740   3.579   2.940   4.729
 5947SOL    HW218741   3.487   2.818   4.672
 5948SOL     OW18742   5.045   3.872   2.150
 5948SOL    HW118743   5.141   3.867   2.179
 5948SOL    HW218744   5.000   3.786   2.171
 5949SOL     OW18745   6.393   5.557   1.675
 5949SOL    HW118746   6.411   5.558   1.576
 5949SOL    HW218747   6.299   5.587   1.692
 5950SOL     OW18748   5.070   1.619   6.067
 5950SOL    HW118749   5.109   1.604   5.976
 5950SOL    HW218750   4.993   1.682   6.060
 5951SOL     OW18751   1.149   4.579   6.019
 5951SOL    HW118752   1.138   4.605   5.923
 5951SOL    HW218753   1.146   4.661   6.076
 5952SOL     OW18754   4.194   5.183   1.689
 5952SOL    HW118755   4.216   5.086   1.687
 5952SOL    HW218756   4.136   5.206   1.611
 5953SOL     OW18757   6.203   2.470   5.416
 5953SOL    HW118758   6.148   2.386   5.420
 5953SOL    HW218759   6.156   2.538   5.360
 5954SOL     OW18760   0.729   6.163   4.394
 5954SOL    HW118761   0.793   6.191   4.322
 5954SOL    HW218762   0.672   6.089   4.360
 5955SOL     OW18763   5.662   4.015   0.939
 5955SOL    HW118764   5.710   4.101   0.921
 5955SOL    HW218765   5.727   3.939   0.935
 5956SOL     OW18766   5.075   2.744   4.932
 5956SOL    HW118767   5.016   2.800   4.873
 5956SOL    HW218768   5.025   2.662   4.960
 5957SOL     OW18769   1.411   1.009   2.488
 5957SOL    HW118770   1.447   0.999   2.581
 5957SOL    HW218771   1.337   1.076   2.488
 5958SOL     OW18772   3.763   6.752   2.692
 5958SOL    HW118773   3.672   6.782   2.722
 5958SOL    HW218774   3.822   6.832   2.679
 5959SOL     OW18775   4.805   2.124   5.092
 5959SOL    HW118776   4.714   2.093   5.121
 5959SOL    HW218777   4.862   2.140   5.172
 5960SOL     OW18778   3.339   0.103   6.652
 5960SOL    HW118779   3.411   0.034   6.653
 5960SOL    HW218780   3.254   0.064   6.685
 5961SOL     OW18781   3.155   1.729   2.862
 5961SOL    HW118782   3.167   1.817   2.907
 5961SOL    HW218783   3.136   1.744   2.765
 5962SOL     OW18784   5.384   6.111   0.089
 5962SOL    HW118785   5.410   6.157   0.004
 5962SOL    HW218786   5.423   6.159   0.167
 5963SOL     OW18787   3.619   4.904   0.193
 5963SOL    HW118788   3.576   4.814   0.180
 5963SOL    HW218789   3.559   4.975   0.158
 5964SOL     OW18790   1.917   6.558   2.452
 5964SOL    HW118791   1.894   6.614   2.532
 5964SOL    HW218792   1.974   6.481   2.480
 5965SOL     OW18793   1.991   6.350   6.746
 5965SOL    HW118794   1.956   6.429   6.695
 5965SOL    HW218795   1.944   6.343   6.834
 5966SOL     OW18796   2.382   0.778   5.219
 5966SOL    HW118797   2.353   0.852   5.158
 5966SOL    HW218798   2.322   0.775   5.299
 5967SOL     OW18799   2.345   1.785   4.916
 5967SOL    HW118800   2.384   1.759   4.828
 5967SOL    HW218801   2.248   1.808   4.904
 5968SOL     OW18802   5.587   2.213   0.443
 5968SOL    HW118803   5.538   2.284   0.493
 5968SOL    HW218804   5.626   2.252   0.359
 5969SOL     OW18805   5.388   0.709   6.500
 5969SOL    HW118806   5.410   0.790   6.446
 5969SOL    HW218807   5.462   0.642   6.493
 5970SOL     OW18808   0.545   2.720   0.627
 5970SOL    HW118809   0.450   2.709   0.657
 5970SOL    HW218810   0.587   2.629   0.618
 5971SOL     OW18811   6.834   0.085   3.789
 5971SOL    HW118812   6.777   0.165   3.771
 5971SOL    HW218813   6.821   0.017   3.717
 5972SOL     OW18814   5.062   5.041   0.442
 5972SOL    HW118815   5.109   5.110   0.387
 5972SOL    HW218816   4.972   5.023   0.402
 5973SOL     OW18817   1.752   3.284   2.714
 5973SOL    HW118818   1.774   3.292   2.811
 5973SOL    HW218819   1.810   3.214   2.672
 5974SOL     OW18820   4.175   0.882   6.527
 5974SOL    HW118821   4.180   0.789   6.492
 5974SOL    HW218822   4.114   0.936   6.469
 5975SOL     OW18823   5.689   4.415   0.056
 5975SOL    HW118824   5.625   4.339   0.046
 5975SOL    HW218825   5.686   4.449   0.150
 5976SOL     OW18826   3.513   3.682   5.924
 5976SOL    HW118827   3.588   3.730   5.970
 5976SOL    HW218828   3.443   3.658   5.992
 5977SOL     OW18829   0.081   5.372   0.391
 5977SOL    HW118830   0.104   5.469   0.391
 5977SOL    HW218831   0.086   5.337   0.297
 5978SOL     OW18832   3.560   5.751   6.967
 5978SOL    HW118833   3.462   5.764   6.956
 5978SOL    HW218834   3.605   5.760   6.878
 5979SOL     OW18835   6.537   0.264   1.865
 5979SOL    HW118836   6.568   0.279   1.771
 5979SOL    HW218837   6.438   0.250   1.865
 5980SOL     OW18838   3.563   3.224   1.505
 5980SOL    HW118839   3.649   3.274   1.498
 5980SOL    HW218840   3.566   3.164   1.586
 5981SOL     OW18841   4.287   2.548   0.359
 5981SOL    HW118842   4.191   2.573   0.351
 5981SOL    HW218843   4.295   2.449   0.368
 5982SOL     OW18844   6.104   1.952   2.207
 5982SOL    HW118845   6.170   1.892   2.252
 5982SOL    HW218846   6.048   1.998   2.277
 5983SOL     OW18847   6.932   0.709   4.923
 5983SOL    HW118848   6.993   0.766   4.978
 5983SOL    HW218849   6.882   0.767   4.859
 5984SOL     OW18850   6.430   6.526   2.847
 5984SOL    HW118851   6.463   6.615   2.877
 5984SOL    HW218852   6.368   6.538   2.769
 5985SOL     OW18853   6.196   2.273   2.751
 5985SOL    HW118854   6.218   2.262   2.654
 5985SOL    HW218855   6.256   2.216   2.806
 5986SOL     OW18856   4.341   3.829   5.367
 5986SOL    HW118857   4.344   3.915   5.419
 5986SOL    HW218858   4.264   3.831   5.303
 5987SOL     OW18859   6.214   1.062   5.282
 5987SOL    HW118860   6.152   1.114   5.223
 5987SOL    HW218861   6.251   1.123   5.352
 5988SOL     OW18862   2.615   1.978   0.117
 5988SOL    HW118863   2.607   1.909   0.045
 5988SOL    HW218864   2.616   2.069   0.076
 5989SOL     OW18865   0.615   6.098   6.744
 5989SOL    HW118866   0.606   6.118   6.646
 5989SOL    HW218867   0.568   6.168   6.797
 5990SOL     OW18868   3.656   4.369   1.732
 5990SOL    HW118869   3.569   4.340   1.694
 5990SOL    HW218870   3.643   4.452   1.787
 5991SOL     OW18871   5.467   5.910   0.753
 5991SOL    HW118872   5.479   6.002   0.790
 5991SOL    HW218873   5.446   5.846   0.827
 5992SOL     OW18874   3.194   0.019   2.010
 5992SOL    HW118875   3.128   6.982   2.051
 5992SOL    HW218876   3.146   0.091   1.960
 5993SOL     OW18877   6.199   2.640   0.616
 5993SOL    HW118878   6.138   2.637   0.696
 5993SOL    HW218879   6.179   2.563   0.556
 5994SOL     OW18880   6.999   2.926   0.784
 5994SOL    HW118881   6.906   2.946   0.754
 5994SOL    HW218882   0.029   3.009   0.775
 5995SOL     OW18883   4.998   3.487   1.571
 5995SOL    HW118884   4.924   3.469   1.506
 5995SOL    HW218885   5.082   3.504   1.521
 5996SOL     OW18886   2.855   5.996   1.375
 5996SOL    HW118887   2.882   5.904   1.404
 5996SOL    HW218888   2.788   5.990   1.301
 5997SOL     OW18889   6.664   6.884   3.289
 5997SOL    HW118890   6.571   6.918   3.305
 5997SOL    HW218891   6.719   6.899   3.371
 5998SOL     OW18892   6.912   0.825   1.866
 5998SOL    HW118893   6.970   0.815   1.785
 5998SOL    HW218894   6.846   0.750   1.869
 5999SOL     OW18895   3.559   3.944   0.650
 5999SOL    HW118896   3.479   3.919   0.705
 5999SOL    HW218897   3.600   4.028   0.686
 6000SOL     OW18898   6.799   5.183   0.115
 6000SOL    HW118899   6.821   5.141   0.203
 6000SOL    HW218900   6.866   5.155   0.047
 6001SOL     OW18901   5.174   6.180   5.167
 6001SOL    HW118902   5.237   6.218   5.099
 6001SOL    HW218903   5.082   6.174   5.128
 6002SOL     OW18904   6.468   6.600   4.843
 6002SOL    HW118905   6.432   6.525   4.899
 6002SOL    HW218906   6.557   6.629   4.879
 6003SOL     OW18907   6.541   2.989   4.398
 6003SOL    HW118908   6.488   2.914   4.436
 6003SOL    HW218909   6.555   2.975   4.300
 6004SOL     OW18910   4.960   2.317   3.489
 6004SOL    HW118911   4.994   2.244   3.547
 6004SOL    HW218912   4.999   2.405   3.519
 6005SOL     OW18913   4.379   4.263   5.639
 6005SOL    HW118914   4.393   4.334   5.569
 6005SOL    HW218915   4.446   4.274   5.712
 6006SOL     OW18916   3.678   6.735   5.840
 6006SOL    HW118917   3.585   6.712   5.868
 6006SOL    HW218918   3.695   6.832   5.858
 6007SOL     OW18919   1.050   4.663   5.760
 6007SOL    HW118920   1.057   4.742   5.699
 6007SOL    HW218921   1.090   4.583   5.715
 6008SOL     OW18922   2.014   4.746   5.484
 6008SOL    HW118923   2.102   4.794   5.480
 6008SOL    HW218924   1.998   4.698   5.398
 6009SOL     OW18925   4.054   5.386   2.876
 6009SOL    HW118926   4.064   5.303   2.932
 6009SOL    HW218927   3.976   5.376   2.815
 6010SOL     OW18928   6.569   4.032   4.656
 6010SOL    HW118929   6.507   4.096   4.702
 6010SOL    HW218930   6.568   4.050   4.558
 6011SOL     OW18931   5.709   1.430   2.539
 6011SOL    HW118932   5.736   1.513   2.491
 6011SOL    HW218933   5.637   1.383   2.488
 6012SOL     OW18934   6.393   0.689   6.393
 6012SOL    HW118935   6.390   0.776   6.343
 6012SOL    HW218936   6.481   0.682   6.441
 6013SOL     OW18937   5.348   1.280   2.855
 6013SOL    HW118938   5.372   1.220   2.779
 6013SOL    HW218939   5.424   1.284   2.920
 6014SOL     OW18940   3.425   2.989   4.351
 6014SOL    HW118941   3.398   3.085   4.343
 6014SOL    HW218942   3.449   2.968   4.446
 6015SOL     OW18943   6.383   2.183   4.791
 6015SOL    HW118944   6.316   2.112   4.767
 6015SOL    HW218945   6.470   2.164   4.744
 6016SOL     OW18946   5.095   1.806   4.903
 6016SOL    HW118947   5.079   1.729   4.841
 6016SOL    HW218948   5.158   1.870   4.860
 6017SOL     OW18949   6.639   3.262   5.079
 6017SOL    HW118950   6.721   3.258   5.135
 6017SOL    HW218951   6.656   3.215   4.992
 6018SOL     OW18952   3.432   1.602   5.639
 6018SOL    HW118953   3.374   1.661   5.695
 6018SOL    HW218954   3.403   1.507   5.650
 6019SOL     OW18955   0.729   3.835   6.454
 6019SOL    HW118956   0.680   3.865   6.535
 6019SOL    HW218957   0.774   3.747   6.473
 6020SOL     OW18958   1.151   5.147   0.298
 6020SOL    HW118959   1.173   5.194   0.212
 6020SOL    HW218960   1.056   5.115   0.295
 6021SOL     OW18961   3.950   0.723   2.923
 6021SOL    HW118962   3.934   0.801   2.863
 6021SOL    HW218963   3.863   0.681   2.948
 6022SOL     OW18964   6.743   1.506   2.855
 6022SOL    HW118965   6.693   1.433   2.808
 6022SOL    HW218966   6.818   1.466   2.908
 6023SOL     OW18967   4.745   0.835   1.091
 6023SOL    HW118968   4.692   0.785   1.023
 6023SOL    HW218969   4.815   0.890   1.045
 6024SOL     OW18970   0.654   4.630   0.652
 6024SOL    HW118971   0.580   4.676   0.602
 6024SOL    HW218972   0.654   4.660   0.747
 6025SOL     OW18973   2.333   1.193   4.187
 6025SOL    HW118974   2.391   1.131   4.238
 6025SOL    HW218975   2.254   1.219   4.243
 6026SOL     OW18976   6.303   4.335   4.012
 6026SOL    HW118977   6.295   4.266   3.939
 6026SOL    HW218978   6.395   4.376   4.008
 6027SOL     OW18979   5.891   3.669   5.921
 6027SOL    HW118980   5.861   3.681   6.015
 6027SOL    HW218981   5.814   3.682   5.858
 6028SOL     OW18982   5.410   4.983   6.802
 6028SOL    HW118983   5.509   4.988   6.818
 6028SOL    HW218984   5.363   5.041   6.869
 6029SOL     OW18985   2.651   0.752   3.336
 6029SOL    HW118986   2.685   0.843   3.360
 6029SOL    HW218987   2.647   0.744   3.236
 6030SOL     OW18988   4.916   3.684   4.750
 6030SOL    HW118989   4.890   3.769   4.704
 6030SOL    HW218990   4.887   3.688   4.845
 6031SOL     OW18991   0.514   5.979   4.374
 6031SOL    HW118992   0.448   5.932   4.316
 6031SOL    HW218993   0.562   5.911   4.431
 6032SOL     OW18994   2.999   6.651   3.766
 6032SOL    HW118995   3.019   6.556   3.789
 6032SOL    HW218996   3.082   6.695   3.732
 6033SOL     OW18997   1.613   2.358   2.632
 6033SOL    HW118998   1.526   2.356   2.584
 6033SOL    HW218999   1.688   2.358   2.566
 6034SOL     OW19000   1.469   0.314   0.229
 6034SOL    HW119001   1.380   0.355   0.252
 6034SOL    HW219002   1.485   0.323   0.131
 6035SOL     OW19003   1.063   1.208   2.773
 6035SOL    HW119004   1.040   1.140   2.703
 6035SOL    HW219005   1.074   1.162   2.862
 6036SOL     OW19006   5.854   3.827   0.899
 6036SOL    HW119007   5.944   3.860   0.925
 6036SOL    HW219008   5.861   3.735   0.862
 6037SOL     OW19009   4.446   1.830   1.087
 6037SOL    HW119010   4.414   1.815   1.180
 6037SOL    HW219011   4.395   1.905   1.045
 6038SOL     OW19012   1.031   2.253   6.202
 6038SOL    HW119013   1.099   2.325   6.214
 6038SOL    HW219014   1.063   2.189   6.131
 6039SOL     OW19015   3.540   4.081   3.724
 6039SOL    HW119016   3.561   4.157   3.661
 6039SOL    HW219017   3.442   4.063   3.722
 6040SOL     OW19018   1.449   1.901   0.019
 6040SOL    HW119019   1.399   1.821   7.012
 6040SOL    HW219020   1.444   1.904   0.119
 6041SOL     OW19021   3.266   2.343   5.721
 6041SOL    HW119022   3.212   2.424   5.699
 6041SOL    HW219023   3.357   2.351   5.678
 6042SOL     OW19024   3.280   6.102   3.960
 6042SOL    HW119025   3.265   6.197   3.986
 6042SOL    HW219026   3.365   6.069   4.000
 6043SOL     OW19027   1.787   0.831   4.050
 6043SOL    HW119028   1.877   0.816   4.091
 6043SOL    HW219029   1.791   0.911   3.990
 6044SOL     OW19030   2.052   2.145   1.393
 6044SOL    HW119031   2.052   2.235   1.349
 6044SOL    HW219032   2.087   2.076   1.329
 6045SOL     OW19033   5.306   2.919   3.331
 6045SOL    HW119034   5.370   2.843   3.330
 6045SOL    HW219035   5.219   2.891   3.290
 6046SOL     OW19036   3.722   2.647   1.724
 6046SOL    HW119037   3.820   2.645   1.705
 6046SOL    HW219038   3.699   2.573   1.788
 6047SOL     OW19039   5.970   1.542   0.427
 6047SOL    HW119040   6.055   1.551   0.479
 6047SOL    HW219041   5.976   1.598   0.344
 6048SOL     OW19042   5.571   5.483   4.914
 6048SOL    HW119043   5.483   5.522   4.888
 6048SOL    HW219044   5.617   5.544   4.979
 6049SOL     OW19045   5.253   4.791   5.395
 6049SOL    HW119046   5.260   4.826   5.489
 6049SOL    HW219047   5.160   4.759   5.379
 6050SOL     OW19048   3.296   5.981   0.958
 6050SOL    HW119049   3.231   5.949   0.889
 6050SOL    HW219050   3.255   5.973   1.049
 6051SOL     OW19051   0.433   1.895   2.725
 6051SOL    HW119052   0.524   1.907   2.764
 6051SOL    HW219053   0.414   1.797   2.713
 6052SOL     OW19054   5.941   6.684   0.843
 6052SOL    HW119055   5.846   6.659   0.821
 6052SOL    HW219056   5.952   6.783   0.833
 6053SOL     OW19057   4.677   1.524   5.996
 6053SOL    HW119058   4.579   1.526   6.018
 6053SOL    HW219059   4.694   1.453   5.928
 6054SOL     OW19060   3.888   4.995   0.933
 6054SOL    HW119061   3.829   5.075   0.931
 6054SOL    HW219062   3.914   4.975   1.027
 6055SOL     OW19063   3.410   5.467   6.990
 6055SOL    HW119064   3.444   5.381   6.954
 6055SOL    HW219065   3.472   5.501   0.035
 6056SOL     OW19066   6.033   4.031   4.896
 6056SOL    HW119067   5.993   4.047   4.986
 6056SOL    HW219068   6.120   4.079   4.889
 6057SOL     OW19069   5.150   0.511   2.908
 6057SOL    HW119070   5.181   0.596   2.951
 6057SOL    HW219071   5.228   0.448   2.898
 6058SOL     OW19072   5.839   2.943   0.326
 6058SOL    HW119073   5.839   3.017   0.259
 6058SOL    HW219074   5.751   2.940   0.373
 6059SOL     OW19075   5.190   4.631   5.764
 6059SOL    HW119076   5.184   4.626   5.864
 6059SOL    HW219077   5.176   4.726   5.735
 6060SOL     OW19078   2.586   3.548   6.942
 6060SOL    HW119079   2.619   3.507   6.857
 6060SOL    HW219080   2.513   3.491   6.980
 6061SOL     OW19081   4.535   4.804   0.784
 6061SOL    HW119082   4.466   4.801   0.856
 6061SOL    HW219083   4.615   4.853   0.817
 6062SOL     OW19084   3.017   2.246   0.341
 6062SOL    HW119085   3.055   2.336   0.324
 6062SOL    HW219086   2.941   2.229   0.278
 6063SOL     OW19087   3.906   4.389   5.751
 6063SOL    HW119088   3.901   4.471   5.808
 6063SOL    HW219089   3.871   4.410   5.659
 6064SOL     OW19090   0.208   0.583   0.777
 6064SOL    HW119091   0.273   0.527   0.726
 6064SOL    HW219092   0.122   0.589   0.726
 6065SOL     OW19093   1.056   4.876   2.212
 6065SOL    HW119094   0.998   4.803   2.249
 6065SOL    HW219095   1.118   4.837   2.144
 6066SOL     OW19096   4.775   0.785   3.685
 6066SOL    HW119097   4.859   0.786   3.631
 6066SOL    HW219098   4.797   0.803   3.781
 6067SOL     OW19099   5.426   6.822   5.534
 6067SOL    HW119100   5.506   6.768   5.506
 6067SOL    HW219101   5.349   6.761   5.550
 6068SOL     OW19102   5.151   1.324   5.071
 6068SOL    HW119103   5.059   1.297   5.045
 6068SOL    HW219104   5.209   1.329   4.990
 6069SOL     OW19105   0.193   2.696   5.582
 6069SOL    HW119106   0.111   2.710   5.638
 6069SOL    HW219107   0.213   2.598   5.578
 6070SOL     OW19108   3.469   2.053   1.617
 6070SOL    HW119109   3.531   2.019   1.688
 6070SOL    HW219110   3.487   2.150   1.601
 6071SOL     OW19111   6.524   6.060   4.848
 6071SOL    HW119112   6.585   5.994   4.803
 6071SOL    HW219113   6.538   6.055   4.947
 6072SOL     OW19114   0.924   2.301   0.889
 6072SOL    HW119115   0.937   2.296   0.988
 6072SOL    HW219116   0.957   2.216   0.848
 6073SOL     OW19117   4.777   3.075   0.538
 6073SOL    HW119118   4.707   3.014   0.575
 6073SOL    HW219119   4.744   3.169   0.541
 6074SOL     OW19120   1.318   6.640   2.835
 6074SOL    HW119121   1.389   6.574   2.863
 6074SOL    HW219122   1.319   6.718   2.897
 6075SOL     OW19123   4.399   6.752   6.496
 6075SOL    HW119124   4.306   6.787   6.492
 6075SOL    HW219125   4.437   6.769   6.587
 6076SOL     OW19126   2.720   4.691   3.723
 6076SOL    HW119127   2.658   4.759   3.685
 6076SOL    HW219128   2.808   4.696   3.676
 6077SOL     OW19129   6.309   6.780   1.159
 6077SOL    HW119130   6.240   6.718   1.122
 6077SOL    HW219131   6.265   6.851   1.214
 6078SOL     OW19132   4.583   3.713   0.255
 6078SOL    HW119133   4.611   3.806   0.231
 6078SOL    HW219134   4.603   3.697   0.352
 6079SOL     OW19135   4.861   4.396   6.450
 6079SOL    HW119136   4.898   4.437   6.533
 6079SOL    HW219137   4.868   4.296   6.455
 6080SOL     OW19138   1.446   4.484   1.201
 6080SOL    HW119139   1.393   4.502   1.118
 6080SOL    HW219140   1.388   4.436   1.268
 6081SOL     OW19141   0.208   3.830   5.194
 6081SOL    HW119142   0.299   3.788   5.195
 6081SOL    HW219143   0.154   3.794   5.270
 6082SOL     OW19144   4.366   0.458   1.484
 6082SOL    HW119145   4.377   0.383   1.419
 6082SOL    HW219146   4.395   0.428   1.575
 6083SOL     OW19147   4.979   6.356   0.013
 6083SOL    HW119148   5.022   6.352   6.949
 6083SOL    HW219149   5.019   6.286   0.072
 6084SOL     OW19150   0.579   6.602   2.464
 6084SOL    HW119151   0.637   6.526   2.496
 6084SOL    HW219152   0.618   6.640   2.380
 6085SOL     OW19153   6.698   6.562   0.030
 6085SOL    HW119154   6.648   6.648   0.042
 6085SOL    HW219155   6.697   6.537   6.959
 6086SOL     OW19156   3.746   3.555   6.590
 6086SOL    HW119157   3.666   3.505   6.622
 6086SOL    HW219158   3.825   3.533   6.647
 6087SOL     OW19159   4.721   6.705   0.457
 6087SOL    HW119160   4.676   6.639   0.397
 6087SOL    HW219161   4.778   6.656   0.523
 6088SOL     OW19162   5.158   6.292   4.404
 6088SOL    HW119163   5.200   6.210   4.365
 6088SOL    HW219164   5.150   6.362   4.333
 6089SOL     OW19165   6.115   2.350   1.964
 6089SOL    HW119166   6.133   2.370   2.060
 6089SOL    HW219167   6.130   2.252   1.947
 6090SOL     OW19168   3.277   5.226   4.261
 6090SOL    HW119169   3.254   5.171   4.180
 6090SOL    HW219170   3.201   5.288   4.281
 6091SOL     OW19171   2.589   0.632   1.037
 6091SOL    HW119172   2.557   0.648   1.130
 6091SOL    HW219173   2.666   0.569   1.039
 6092SOL     OW19174   4.172   0.032   1.986
 6092SOL    HW119175   4.120   0.013   2.069
 6092SOL    HW219176   4.268   0.007   2.000
 6093SOL     OW19177   2.021   1.628   2.176
 6093SOL    HW119178   1.925   1.647   2.156
 6093SOL    HW219179   2.058   1.568   2.106
 6094SOL     OW19180   0.409   6.725   4.138
 6094SOL    HW119181   0.485   6.747   4.076
 6094SOL    HW219182   0.437   6.744   4.232
 6095SOL     OW19183   4.126   6.106   0.112
 6095SOL    HW119184   4.178   6.020   0.109
 6095SOL    HW219185   4.185   6.180   0.142
 6096SOL     OW19186   5.952   6.420   2.274
 6096SOL    HW119187   5.935   6.347   2.207
 6096SOL    HW219188   5.895   6.405   2.354
 6097SOL     OW19189   1.721   6.107   2.236
 6097SOL    HW119190   1.649   6.166   2.274
 6097SOL    HW219191   1.741   6.137   2.143
 6098SOL     OW19192   6.650   0.888   5.059
 6098SOL    HW119193   6.607   0.948   4.992
 6098SOL    HW219194   6.634   0.792   5.034
 6099SOL     OW19195   5.682   5.951   5.675
 6099SOL    HW119196   5.729   5.946   5.763
 6099SOL    HW219197   5.749   5.947   5.601
 6100SOL     OW19198   0.270   5.682   2.971
 6100SOL    HW119199   0.217   5.757   3.010
 6100SOL    HW219200   0.232   5.595   3.003
 6101SOL     OW19201   6.254   2.604   1.343
 6101SOL    HW119202   6.349   2.615   1.372
 6101SOL    HW219203   6.194   2.620   1.421
 6102SOL     OW19204   4.456   6.463   2.479
 6102SOL    HW119205   4.405   6.377   2.473
 6102SOL    HW219206   4.430   6.522   2.403
 6103SOL     OW19207   6.726   1.518   1.338
 6103SOL    HW119208   6.789   1.556   1.405
 6103SOL    HW219209   6.650   1.473   1.384
 6104SOL     OW19210   6.156   1.173   4.833
 6104SOL    HW119211   6.202   1.119   4.903
 6104SOL    HW219212   6.212   1.252   4.808
 6105SOL     OW19213   2.889   5.538   6.148
 6105SOL    HW119214   2.880   5.439   6.136
 6105SOL    HW219215   2.972   5.558   6.199
 6106SOL     OW19216   0.858   3.735   0.046
 6106SOL    HW119217   0.800   3.659   0.014
 6106SOL    HW219218   0.829   3.763   0.137
 6107SOL     OW19219   4.605   4.975   4.695
 6107SOL    HW119220   4.523   4.960   4.639
 6107SOL    HW219221   4.580   5.027   4.777
 6108SOL     OW19222   1.723   1.232   2.042
 6108SOL    HW119223   1.669   1.314   2.024
 6108SOL    HW219224   1.666   1.162   2.085
 6109SOL     OW19225   5.414   0.382   3.333
 6109SOL    HW119226   5.505   0.423   3.345
 6109SOL    HW219227   5.424   0.290   3.295
 6110SOL     OW19228   0.926   1.832   5.805
 6110SOL    HW119229   0.837   1.832   5.760
 6110SOL    HW219230   0.981   1.756   5.771
 6111SOL     OW19231   1.462   3.580   1.599
 6111SOL    HW119232   1.365   3.554   1.610
 6111SOL    HW219233   1.517   3.497   1.592
 6112SOL     OW19234   3.415   0.567   2.505
 6112SOL    HW119235   3.428   0.537   2.410
 6112SOL    HW219236   3.492   0.624   2.533
 6113SOL     OW19237   2.007   4.894   6.885
 6113SOL    HW119238   2.086   4.934   6.838
 6113SOL    HW219239   1.946   4.967   6.916
 6114SOL     OW19240   5.073   1.518   1.168
 6114SOL    HW119241   5.054   1.533   1.071
 6114SOL    HW219242   5.104   1.424   1.182
 6115SOL     OW19243   1.193   1.342   5.169
 6115SOL    HW119244   1.278   1.307   5.208
 6115SOL    HW219245   1.183   1.308   5.075
 6116SOL     OW19246   3.826   2.159   5.062
 6116SOL    HW119247   3.763   2.210   5.002
 6116SOL    HW219248   3.774   2.110   5.131
 6117SOL     OW19249   1.100   1.818   2.875
 6117SOL    HW119250   1.058   1.844   2.788
 6117SOL    HW219251   1.050   1.861   2.950
 6118SOL     OW19252   6.336   1.132   0.785
 6118SOL    HW119253   6.283   1.188   0.720
 6118SOL    HW219254   6.387   1.062   0.736
 6119SOL     OW19255   0.044   2.349   0.250
 6119SOL    HW119256   6.981   2.375   0.213
 6119SOL    HW219257   0.114   2.413   0.218
 6120SOL     OW19258   2.643   6.728   5.534
 6120SOL    HW119259   2.581   6.785   5.480
 6120SOL    HW219260   2.737   6.758   5.520
 6121SOL     OW19261   0.613   3.796   5.559
 6121SOL    HW119262   0.641   3.769   5.651
 6121SOL    HW219263   0.689   3.784   5.496
 6122SOL     OW19264   4.912   5.801   5.511
 6122SOL    HW119265   4.929   5.882   5.568
 6122SOL    HW219266   4.845   5.742   5.557
 6123SOL     OW19267   5.604   1.477   5.699
 6123SOL    HW119268   5.506   1.487   5.713
 6123SOL    HW219269   5.635   1.391   5.739
 6124SOL     OW19270   2.104   0.070   4.777
 6124SOL    HW119271   2.126   0.164   4.802
 6124SOL    HW219272   2.010   0.049   4.804
 6125SOL     OW19273   2.524   4.169   0.132
 6125SOL    HW119274   2.533   4.119   0.218
 6125SOL    HW219275   2.598   4.236   0.126
 6126SOL     OW19276   0.601   2.449   5.192
 6126SOL    HW119277   0.618   2.527   5.252
 6126SOL    HW219278   0.689   2.409   5.163
 6127SOL     OW19279   4.761   1.430   1.915
 6127SOL    HW119280   4.725   1.337   1.918
 6127SOL    HW219281   4.770   1.459   1.820
 6128SOL     OW19282   5.801   5.837   0.840
 6128SOL    HW119283   5.771   5.916   0.894
 6128SOL    HW219284   5.869   5.786   0.893
 6129SOL     OW19285   1.844   4.669   3.126
 6129SOL    HW119286   1.870   4.616   3.046
 6129SOL    HW219287   1.913   4.658   3.197
 6130SOL     OW19288   5.116   2.807   1.482
 6130SOL    HW119289   5.100   2.830   1.386
 6130SOL    HW219290   5.102   2.888   1.539
 6131SOL     OW19291   7.001   2.379   2.354
 6131SOL    HW119292   0.026   2.456   2.392
 6131SOL    HW219293   7.013   2.299   2.412
 6132SOL     OW19294   3.752   1.610   6.759
 6132SOL    HW119295   3.746   1.622   6.660
 6132SOL    HW219296   3.830   1.662   6.794
 6133SOL     OW19297   1.508   2.647   3.631
 6133SOL    HW119298   1.435   2.646   3.699
 6133SOL    HW219299   1.588   2.598   3.665
 6134SOL     OW19300   5.408   5.914   5.788
 6134SOL    HW119301   5.330   5.875   5.739
 6134SOL    HW219302   5.482   5.931   5.723
 6135SOL     OW19303   6.283   0.364   6.949
 6135SOL    HW119304   6.294   0.456   6.911
 6135SOL    HW219305   6.236   0.371   0.012
 6136SOL     OW19306   1.745   3.090   1.266
 6136SOL    HW119307   1.676   3.126   1.202
 6136SOL    HW219308   1.772   3.163   1.329
 6137SOL     OW19309   0.611   4.488   3.436
 6137SOL    HW119310   0.596   4.389   3.438
 6137SOL    HW219311   0.709   4.508   3.437
 6138SOL     OW19312   3.886   0.562   2.108
 6138SOL    HW119313   3.832   0.480   2.126
 6138SOL    HW219314   3.980   0.548   2.139
 6139SOL     OW19315   0.650   6.935   5.814
 6139SOL    HW119316   0.695   7.024   5.803
 6139SOL    HW219317   0.569   6.931   5.754
 6140SOL     OW19318   1.498   0.372   3.378
 6140SOL    HW119319   1.593   0.398   3.396
 6140SOL    HW219320   1.450   0.360   3.465
 6141SOL     OW19321   0.387   0.242   6.069
 6141SOL    HW119322   0.289   0.234   6.090
 6141SOL    HW219323   0.441   0.214   6.148
 6142SOL     OW19324   0.779   1.177   0.739
 6142SOL    HW119325   0.783   1.169   0.640
 6142SOL    HW219326   0.747   1.090   0.778
 6143SOL     OW19327   6.711   3.921   6.769
 6143SOL    HW119328   6.758   3.987   6.711
 6143SOL    HW219329   6.722   3.947   6.865
 6144SOL     OW19330   4.628   4.306   2.754
 6144SOL    HW119331   4.532   4.335   2.754
 6144SOL    HW219332   4.644   4.245   2.831
 6145SOL     OW19333   5.450   4.178   3.846
 6145SOL    HW119334   5.501   4.092   3.856
 6145SOL    HW219335   5.483   4.245   3.912
 6146SOL     OW19336   3.452   0.400   4.221
 6146SOL    HW119337   3.392   0.350   4.283
 6146SOL    HW219338   3.546   0.394   4.253
 6147SOL     OW19339   1.838   3.226   4.455
 6147SOL    HW119340   1.864   3.252   4.548
 6147SOL    HW219341   1.742   3.252   4.439
 6148SOL     OW19342   4.141   4.876   6.889
 6148SOL    HW119343   4.232   4.900   6.855
 6148SOL    HW219344   4.088   4.959   6.903
 6149SOL     OW19345   2.362   0.196   2.302
 6149SOL    HW119346   2.286   0.217   2.241
 6149SOL    HW219347   2.378   0.273   2.363
 6150SOL     OW19348   6.355   4.231   6.782
 6150SOL    HW119349   6.421   4.297   6.747
 6150SOL    HW219350   6.340   4.247   6.880
 6151SOL     OW19351   5.341   4.890   4.307
 6151SOL    HW119352   5.363   4.872   4.211
 6151SOL    HW219353   5.383   4.819   4.364
 6152SOL     OW19354   1.163   5.592   4.048
 6152SOL    HW119355   1.189   5.603   4.144
 6152SOL    HW219356   1.218   5.654   3.992
 6153SOL     OW19357   4.500   5.338   0.946
 6153SOL    HW119358   4.544   5.423   0.975
 6153SOL    HW219359   4.418   5.359   0.893
 6154SOL     OW19360   4.908   3.478   2.388
 6154SOL    HW119361   4.988   3.422   2.368
 6154SOL    HW219362   4.846   3.427   2.447
 6155SOL     OW19363   2.697   1.071   3.088
 6155SOL    HW119364   2.791   1.105   3.094
 6155SOL    HW219365   2.640   1.119   3.156
 6156SOL     OW19366   5.551   4.001   1.570
 6156SOL    HW119367   5.481   3.950   1.619
 6156SOL    HW219368   5.520   4.096   1.557
 6157SOL     OW19369   0.400   2.264   3.552
 6157SOL    HW119370   0.411   2.197   3.625
 6157SOL    HW219371   0.329   2.232   3.489
 6158SOL     OW19372   3.298   2.429   5.979
 6158SOL    HW119373   3.270   2.414   5.884
 6158SOL    HW219374   3.349   2.515   5.985
 6159SOL     OW19375   5.402   2.361   6.827
 6159SOL    HW119376   5.412   2.334   6.923
 6159SOL    HW219377   5.307   2.385   6.809
 6160SOL     OW19378   6.903   0.031   6.636
 6160SOL    HW119379   6.929   7.014   6.550
 6160SOL    HW219380   6.968   0.103   6.659
 6161SOL     OW19381   4.882   2.538   6.563
 6161SOL    HW119382   4.978   2.512   6.554
 6161SOL    HW219383   4.848   2.575   6.476
 6162SOL     OW19384   5.704   6.690   2.997
 6162SOL    HW119385   5.762   6.751   3.052
 6162SOL    HW219386   5.676   6.612   3.052
 6163SOL     OW19387   4.999   6.264   2.993
 6163SOL    HW119388   5.017   6.167   3.008
 6163SOL    HW219389   4.919   6.292   3.045
 6164SOL     OW19390   3.764   4.119   4.250
 6164SOL    HW119391   3.709   4.196   4.283
 6164SOL    HW219392   3.820   4.083   4.324
 6165SOL     OW19393   3.930   2.431   0.036
 6165SOL    HW119394   3.982   2.466   0.114
 6165SOL    HW219395   3.852   2.490   0.018
 6166SOL     OW19396   0.255   2.232   6.900
 6166SOL    HW119397   0.173   2.283   6.928
 6166SOL    HW219398   0.230   2.138   6.878
 6167SOL     OW19399   1.713   4.904   3.092
 6167SOL    HW119400   1.765   4.947   3.018
 6167SOL    HW219401   1.744   4.810   3.104
 6168SOL     OW19402   6.207   2.501   3.769
 6168SOL    HW119403   6.194   2.440   3.691
 6168SOL    HW219404   6.156   2.465   3.848
 6169SOL     OW19405   1.229   0.380   6.580
 6169SOL    HW119406   1.289   0.366   6.659
 6169SOL    HW219407   1.182   0.294   6.558
 6170SOL     OW19408   3.862   4.358   6.943
 6170SOL    HW119409   3.884   4.443   6.992
 6170SOL    HW219410   3.872   4.373   6.845
 6171SOL     OW19411   0.660   4.164   2.456
 6171SOL    HW119412   0.604   4.159   2.373
 6171SOL    HW219413   0.693   4.072   2.478
 6172SOL     OW19414   0.607   0.652   2.576
 6172SOL    HW119415   0.604   0.552   2.581
 6172SOL    HW219416   0.534   0.685   2.516
 6173SOL     OW19417   0.710   4.840   2.435
 6173SOL    HW119418   0.629   4.859   2.379
 6173SOL    HW219419   0.757   4.759   2.401
 6174SOL     OW19420   6.040   5.030   3.023
 6174SOL    HW119421   6.023   5.000   2.929
 6174SOL    HW219422   6.085   4.957   3.074
 6175SOL     OW19423   5.598   6.143   2.605
 6175SOL    HW119424   5.571   6.131   2.701
 6175SOL    HW219425   5.642   6.232   2.594
 6176SOL     OW19426   6.071   3.546   6.565
 6176SOL    HW119427   6.090   3.523   6.660
 6176SOL    HW219428   5.974   3.530   6.546
 6177SOL     OW19429   4.827   1.066   1.574
 6177SOL    HW119430   4.881   1.138   1.617
 6177SOL    HW219431   4.849   0.978   1.617
 6178SOL     OW19432   4.753   4.564   1.359
 6178SOL    HW119433   4.825   4.619   1.317
 6178SOL    HW219434   4.786   4.527   1.446
 6179SOL     OW19435   6.995   3.350   4.760
 6179SOL    HW119436   0.019   3.427   4.798
 6179SOL    HW219437   6.987   3.278   4.829
 6180SOL     OW19438   3.343   6.817   0.984
 6180SOL    HW119439   3.346   6.916   1.003
 6180SOL    HW219440   3.392   6.768   1.056
 6181SOL     OW19441   4.620   6.471   0.316
 6181SOL    HW119442   4.539   6.414   0.307
 6181SOL    HW219443   4.668   6.476   0.228
 6182SOL     OW19444   5.237   5.324   5.062
 6182SOL    HW119445   5.228   5.242   5.119
 6182SOL    HW219446   5.312   5.381   5.097
 6183SOL     OW19447   2.068   0.590   2.798
 6183SOL    HW119448   2.056   0.650   2.719
 6183SOL    HW219449   2.153   0.537   2.788
 6184SOL     OW19450   1.726   6.839   0.175
 6184SOL    HW119451   1.824   6.819   0.164
 6184SOL    HW219452   1.679   6.820   0.089
 6185SOL     OW19453   0.662   3.924   6.872
 6185SOL    HW119454   0.704   3.940   6.961
 6185SOL    HW219455   0.646   3.826   6.859
 6186SOL     OW19456   5.626   0.111   4.304
 6186SOL    HW119457   5.650   0.149   4.393
 6186SOL    HW219458   5.579   0.023   4.316
 6187SOL     OW19459   5.193   4.824   3.546
 6187SOL    HW119460   5.145   4.739   3.524
 6187SOL    HW219461   5.136   4.879   3.607
 6188SOL     OW19462   2.348   6.345   1.267
 6188SOL    HW119463   2.354   6.442   1.288
 6188SOL    HW219464   2.440   6.306   1.261
 6189SOL     OW19465   4.723   4.727   3.192
 6189SOL    HW119466   4.769   4.653   3.241
 6189SOL    HW219467   4.711   4.805   3.252
 6190SOL     OW19468   5.440   3.532   6.218
 6190SOL    HW119469   5.431   3.485   6.130
 6190SOL    HW219470   5.501   3.610   6.208
 6191SOL     OW19471   5.491   2.125   0.767
 6191SOL    HW119472   5.515   2.028   0.767
 6191SOL    HW219473   5.485   2.157   0.672
 6192SOL     OW19474   2.900   3.951   0.095
 6192SOL    HW119475   2.880   3.854   0.084
 6192SOL    HW219476   2.889   3.977   0.191
 6193SOL     OW19477   4.626   0.372   2.277
 6193SOL    HW119478   4.630   0.459   2.228
 6193SOL    HW219479   4.700   0.313   2.246
 6194SOL     OW19480   2.068   0.231   0.994
 6194SOL    HW119481   2.125   0.313   0.986
 6194SOL    HW219482   2.007   0.241   1.073
 6195SOL     OW19483   4.451   5.373   5.856
 6195SOL    HW119484   4.528   5.312   5.873
 6195SOL    HW219485   4.405   5.346   5.772
 6196SOL     OW19486   0.772   2.798   5.920
 6196SOL    HW119487   0.747   2.733   5.849
 6196SOL    HW219488   0.800   2.749   6.003
 6197SOL     OW19489   2.903   4.018   1.030
 6197SOL    HW119490   2.813   4.062   1.022
 6197SOL    HW219491   2.962   4.075   1.087
 6198SOL     OW19492   3.228   6.022   2.935
 6198SOL    HW119493   3.199   5.928   2.955
 6198SOL    HW219494   3.180   6.085   2.995
 6199SOL     OW19495   0.376   0.058   1.282
 6199SOL    HW119496   0.387   0.030   1.186
 6199SOL    HW219497   0.464   0.084   1.320
 6200SOL     OW19498   2.602   1.308   6.549
 6200SOL    HW119499   2.541   1.334   6.474
 6200SOL    HW219500   2.582   1.214   6.577
 6201SOL     OW19501   2.461   4.637   5.837
 6201SOL    HW119502   2.386   4.590   5.882
 6201SOL    HW219503   2.524   4.673   5.906
 6202SOL     OW19504   4.144   1.852   1.716
 6202SOL    HW119505   4.119   1.773   1.659
 6202SOL    HW219506   4.198   1.821   1.794
 6203SOL     OW19507   5.293   0.315   3.751
 6203SOL    HW119508   5.246   0.383   3.695
 6203SOL    HW219509   5.298   0.348   3.846
 6204SOL     OW19510   0.625   4.930   5.398
 6204SOL    HW119511   0.699   4.875   5.358
 6204SOL    HW219512   0.538   4.883   5.384
 6205SOL     OW19513   4.966   5.579   6.875
 6205SOL    HW119514   5.018   5.514   6.930
 6205SOL    HW219515   4.950   5.541   6.785
 6206SOL     OW19516   0.154   0.344   2.365
 6206SOL    HW119517   0.058   0.330   2.339
 6206SOL    HW219518   0.177   0.283   2.440
 6207SOL     OW19519   1.329   4.183   4.918
 6207SOL    HW119520   1.239   4.178   4.962
 6207SOL    HW219521   1.381   4.101   4.942
 6208SOL     OW19522   6.245   0.160   5.875
 6208SOL    HW119523   6.190   0.124   5.950
 6208SOL    HW219524   6.263   0.087   5.809
 6209SOL     OW19525   3.891   6.124   0.241
 6209SOL    HW119526   3.985   6.120   0.207
 6209SOL    HW219527   3.850   6.033   0.236
 6210SOL     OW19528   5.441   3.995   3.003
 6210SOL    HW119529   5.355   3.950   3.026
 6210SOL    HW219530   5.436   4.031   2.910
 6211SOL     OW19531   2.624   0.046   6.033
 6211SOL    HW119532   2.615   0.117   6.103
 6211SOL    HW219533   2.539   7.020   6.027
 6212SOL     OW19534   0.191   5.948   3.461
 6212SOL    HW119535   0.255   5.904   3.397
 6212SOL    HW219536   0.203   6.047   3.457
 6213SOL     OW19537   6.052   0.522   6.476
 6213SOL    HW119538   6.086   0.595   6.535
 6213SOL    HW219539   6.085   0.537   6.382
 6214SOL     OW19540   6.005   5.421   2.809
 6214SOL    HW119541   5.963   5.504   2.847
 6214SOL    HW219542   6.104   5.424   2.822
 6215SOL     OW19543   3.695   1.843   0.040
 6215SOL    HW119544   3.752   1.916   0.002
 6215SOL    HW219545   3.749   1.759   0.047
 6216SOL     OW19546   6.700   2.270   1.268
 6216SOL    HW119547   6.686   2.200   1.199
 6216SOL    HW219548   6.788   2.255   1.313
 6217SOL     OW19549   4.855   2.655   1.569
 6217SOL    HW119550   4.939   2.699   1.538
 6217SOL    HW219551   4.801   2.628   1.489
 6218SOL     OW19552   3.529   5.254   4.331
 6218SOL    HW119553   3.586   5.235   4.251
 6218SOL    HW219554   3.433   5.242   4.307
 6219SOL     OW19555   1.769   2.007   4.941
 6219SOL    HW119556   1.764   1.907   4.938
 6219SOL    HW219557   1.840   2.039   4.878
 6220SOL     OW19558   1.612   4.258   5.408
 6220SOL    HW119559   1.675   4.335   5.398
 6220SOL    HW219560   1.660   4.182   5.452
 6221SOL     OW19561   4.949   5.113   5.103
 6221SOL    HW119562   5.040   5.110   5.143
 6221SOL    HW219563   4.920   5.021   5.077
 6222SOL     OW19564   1.129   6.685   1.585
 6222SOL    HW119565   1.127   6.586   1.598
 6222SOL    HW219566   1.096   6.731   1.668
 6223SOL     OW19567   5.922   3.809   4.123
 6223SOL    HW119568   5.985   3.743   4.163
 6223SOL    HW219569   5.972   3.890   4.094
 6224SOL     OW19570   1.988   1.648   6.457
 6224SOL    HW119571   1.949   1.563   6.492
 6224SOL    HW219572   2.005   1.710   6.533
 6225SOL     OW19573   3.273   3.533   1.449
 6225SOL    HW119574   3.200   3.585   1.493
 6225SOL    HW219575   3.325   3.484   1.519
 6226SOL     OW19576   5.758   1.294   3.559
 6226SOL    HW119577   5.808   1.226   3.613
 6226SOL    HW219578   5.746   1.378   3.613
 6227SOL     OW19579   2.903   4.407   6.027
 6227SOL    HW119580   2.810   4.409   6.065
 6227SOL    HW219581   2.908   4.464   5.945
 6228SOL     OW19582   6.761   1.816   3.186
 6228SOL    HW119583   6.728   1.724   3.207
 6228SOL    HW219584   6.849   1.809   3.138
 6229SOL     OW19585   1.890   1.724   3.212
 6229SOL    HW119586   1.836   1.644   3.188
 6229SOL    HW219587   1.855   1.804   3.163
 6230SOL     OW19588   1.931   1.122   4.997
 6230SOL    HW119589   1.839   1.121   5.037
 6230SOL    HW219590   1.993   1.173   5.057
 6231SOL     OW19591   6.658   4.961   1.327
 6231SOL    HW119592   6.603   4.889   1.369
 6231SOL    HW219593   6.599   5.036   1.298
 6232SOL     OW19594   0.203   0.908   0.248
 6232SOL    HW119595   0.163   0.887   0.159
 6232SOL    HW219596   0.162   0.850   0.318
 6233SOL     OW19597   5.567   1.744   6.839
 6233SOL    HW119598   5.552   1.655   6.795
 6233SOL    HW219599   5.481   1.795   6.840
 6234SOL     OW19600   0.859   1.315   5.095
 6234SOL    HW119601   0.851   1.266   5.182
 6234SOL    HW219602   0.769   1.323   5.053
 6235SOL     OW19603   1.946   6.759   3.234
 6235SOL    HW119604   1.948   6.781   3.332
 6235SOL    HW219605   1.966   6.662   3.222
 6236SOL     OW19606   0.214   4.835   1.361
 6236SOL    HW119607   0.229   4.873   1.452
 6236SOL    HW219608   0.117   4.840   1.338
 6237SOL     OW19609   4.233   5.895   0.587
 6237SOL    HW119610   4.174   5.828   0.541
 6237SOL    HW219611   4.292   5.848   0.653
 6238SOL     OW19612   4.739   5.290   2.674
 6238SOL    HW119613   4.666   5.344   2.633
 6238SOL    HW219614   4.810   5.273   2.605
 6239SOL     OW19615   2.680   6.446   2.068
 6239SOL    HW119616   2.583   6.423   2.059
 6239SOL    HW219617   2.713   6.486   1.982
 6240SOL     OW19618   2.987   2.142   0.876
 6240SOL    HW119619   2.898   2.172   0.910
 6240SOL    HW219620   2.981   2.123   0.778
 6241SOL     OW19621   2.726   1.091   2.431
 6241SOL    HW119622   2.786   1.127   2.501
 6241SOL    HW219623   2.651   1.155   2.413
 6242SOL     OW19624   5.478   1.646   3.646
 6242SOL    HW119625   5.542   1.569   3.654
 6242SOL    HW219626   5.410   1.626   3.576
 6243SOL     OW19627   5.921   6.734   3.752
 6243SOL    HW119628   5.903   6.786   3.669
 6243SOL    HW219629   5.924   6.796   3.831
 6244SOL     OW19630   2.499   2.516   2.023
 6244SOL    HW119631   2.420   2.460   1.998
 6244SOL    HW219632   2.582   2.475   1.984
 6245SOL     OW19633   3.102   4.438   1.647
 6245SOL    HW119634   3.114   4.342   1.621
 6245SOL    HW219635   3.017   4.448   1.699
 6246SOL     OW19636   2.767   2.846   6.742
 6246SOL    HW119637   2.830   2.910   6.786
 6246SOL    HW219638   2.694   2.822   6.807
 6247SOL     OW19639   0.319   6.627   3.507
 6247SOL    HW119640   0.329   6.640   3.408
 6247SOL    HW219641   0.223   6.625   3.531
 6248SOL     OW19642   0.785   3.999   1.232
 6248SOL    HW119643   0.738   4.086   1.223
 6248SOL    HW219644   0.883   4.011   1.213
 6249SOL     OW19645   0.288   4.506   7.003
 6249SOL    HW119646   0.318   4.566   0.051
 6249SOL    HW219647   0.293   4.555   6.916
 6250SOL     OW19648   6.779   6.341   0.675
 6250SOL    HW119649   6.861   6.374   0.629
 6250SOL    HW219650   6.775   6.241   0.669
 6251SOL     OW19651   4.235   6.883   1.245
 6251SOL    HW119652   4.271   6.861   1.336
 6251SOL    HW219653   4.140   6.913   1.252
 6252SOL     OW19654   2.286   6.048   5.136
 6252SOL    HW119655   2.338   6.100   5.204
 6252SOL    HW219656   2.330   6.057   5.047
 6253SOL     OW19657   2.169   4.067   2.422
 6253SOL    HW119658   2.081   4.114   2.432
 6253SOL    HW219659   2.239   4.132   2.393
 6254SOL     OW19660   5.690   0.495   6.973
 6254SOL    HW119661   5.760   0.563   6.993
 6254SOL    HW219662   5.603   0.523   7.013
 6255SOL     OW19663   1.368   1.116   1.537
 6255SOL    HW119664   1.300   1.044   1.550
 6255SOL    HW219665   1.431   1.117   1.614
 6256SOL     OW19666   4.075   5.017   2.466
 6256SOL    HW119667   4.072   4.975   2.557
 6256SOL    HW219668   4.040   4.952   2.398
 6257SOL     OW19669   5.093   2.502   0.951
 6257SOL    HW119670   5.025   2.565   0.913
 6257SOL    HW219671   5.182   2.546   0.952
 6258SOL     OW19672   4.961   0.857   3.128
 6258SOL    HW119673   4.936   0.918   3.053
 6258SOL    HW219674   5.018   0.906   3.194
 6259SOL     OW19675   2.839   1.949   1.386
 6259SOL    HW119676   2.808   2.036   1.427
 6259SOL    HW219677   2.910   1.909   1.443
 6260SOL     OW19678   3.236   4.316   0.312
 6260SOL    HW119679   3.268   4.229   0.274
 6260SOL    HW219680   3.312   4.382   0.311
 6261SOL     OW19681   3.822   0.005   6.701
 6261SOL    HW119682   3.807   0.066   6.780
 6261SOL    HW219683   3.919   7.009   6.694
 6262SOL     OW19684   1.912   4.210   0.739
 6262SOL    HW119685   1.822   4.179   0.769
 6262SOL    HW219686   1.954   4.139   0.682
 6263SOL     OW19687   0.356   5.840   6.733
 6263SOL    HW119688   0.419   5.763   6.741
 6263SOL    HW219689   0.376   5.908   6.804
 6264SOL     OW19690   2.378   0.883   0.991
 6264SOL    HW119691   2.441   0.961   0.994
 6264SOL    HW219692   2.393   0.832   0.906
 6265SOL     OW19693   3.310   4.322   1.164
 6265SOL    HW119694   3.304   4.368   1.075
 6265SOL    HW219695   3.238   4.354   1.224
 6266SOL     OW19696   3.661   0.678   4.333
 6266SOL    HW119697   3.655   0.582   4.306
 6266SOL    HW219698   3.697   0.732   4.257
 6267SOL     OW19699   3.416   0.155   0.042
 6267SOL    HW119700   3.435   0.188   0.134
 6267SOL    HW219701   3.497   0.166   7.011
 6268SOL     OW19702   2.510   5.717   2.783
 6268SOL    HW119703   2.576   5.779   2.825
 6268SOL    HW219704   2.440   5.770   2.736
 6269SOL     OW19705   6.102   5.794   2.305
 6269SOL    HW119706   6.054   5.880   2.285
 6269SOL    HW219707   6.181   5.812   2.363
 6270SOL     OW19708   2.236   6.748   6.078
 6270SOL    HW119709   2.288   6.802   6.012
 6270SOL    HW219710   2.265   6.771   6.171
 6271SOL     OW19711   6.838   2.791   5.596
 6271SOL    HW119712   6.789   2.869   5.635
 6271SOL    HW219713   6.908   2.760   5.660
 6272SOL     OW19714   0.723   3.161   4.500
 6272SOL    HW119715   0.631   3.131   4.526
 6272SOL    HW219716   0.781   3.166   4.582
 6273SOL     OW19717   1.605   0.605   1.802
 6273SOL    HW119718   1.671   0.532   1.782
 6273SOL    HW219719   1.584   0.605   1.899
 6274SOL     OW19720   2.680   5.402   5.843
 6274SOL    HW119721   2.741   5.432   5.770
 6274SOL    HW219722   2.716   5.318   5.883
 6275SOL     OW19723   2.964   6.366   5.973
 6275SOL    HW119724   2.998   6.460   5.968
 6275SOL    HW219725   3.041   6.303   5.977
 6276SOL     OW19726   1.497   4.936   3.457
 6276SOL    HW119727   1.519   5.009   3.522
 6276SOL    HW219728   1.577   4.877   3.446
 6277SOL     OW19729   4.733   2.651   2.605
 6277SOL    HW119730   4.693   2.609   2.524
 6277SOL    HW219731   4.755   2.579   2.672
 6278SOL     OW19732   4.486   0.220   4.445
 6278SOL    HW119733   4.519   0.221   4.351
 6278SOL    HW219734   4.525   0.143   4.494
 6279SOL     OW19735   3.736   1.692   0.766
 6279SOL    HW119736   3.798   1.623   0.727
 6279SOL    HW219737   3.651   1.693   0.714
 6280SOL     OW19738   0.311   2.914   5.882
 6280SOL    HW119739   0.233   2.934   5.940
 6280SOL    HW219740   0.299   2.959   5.793
 6281SOL     OW19741   2.875   6.177   6.174
 6281SOL    HW119742   2.796   6.203   6.230
 6281SOL    HW219743   2.901   6.254   6.115
 6282SOL     OW19744   1.113   6.998   4.715
 6282SOL    HW119745   1.166   6.964   4.793
 6282SOL    HW219746   1.175   7.016   4.638
 6283SOL     OW19747   6.124   2.735   4.830
 6283SOL    HW119748   6.220   2.720   4.806
 6283SOL    HW219749   6.094   2.824   4.798
 6284SOL     OW19750   1.673   5.427   4.872
 6284SOL    HW119751   1.688   5.424   4.773
 6284SOL    HW219752   1.750   5.384   4.919
 6285SOL     OW19753   1.528   2.904   4.196
 6285SOL    HW119754   1.544   2.826   4.137
 6285SOL    HW219755   1.432   2.904   4.227
 6286SOL     OW19756   6.436   1.290   3.725
 6286SOL    HW119757   6.520   1.344   3.714
 6286SOL    HW219758   6.391   1.317   3.810
 6287SOL     OW19759   4.567   4.562   2.081
 6287SOL    HW119760   4.584   4.464   2.078
 6287SOL    HW219761   4.652   4.610   2.103
 6288SOL     OW19762   5.305   4.247   1.550
 6288SOL    HW119763   5.209   4.248   1.525
 6288SOL    HW219764   5.316   4.204   1.639
 6289SOL     OW19765   1.585   2.830   3.434
 6289SOL    HW119766   1.513   2.830   3.364
 6289SOL    HW219767   1.560   2.766   3.507
 6290SOL     OW19768   5.343   3.971   4.352
 6290SOL    HW119769   5.319   4.039   4.283
 6290SOL    HW219770   5.345   3.880   4.310
 6291SOL     OW19771   4.127   3.513   3.712
 6291SOL    HW119772   4.071   3.431   3.727
 6291SOL    HW219773   4.222   3.486   3.695
 6292SOL     OW19774   0.751   2.843   3.429
 6292SOL    HW119775   0.784   2.823   3.337
 6292SOL    HW219776   0.828   2.862   3.489
 6293SOL     OW19777   4.820   0.056   0.147
 6293SOL    HW119778   4.824   7.014   0.220
 6293SOL    HW219779   4.909   0.062   0.101
 6294SOL     OW19780   3.706   5.381   3.119
 6294SOL    HW119781   3.802   5.401   3.137
 6294SOL    HW219782   3.691   5.282   3.122
 6295SOL     OW19783   4.994   5.730   5.251
 6295SOL    HW119784   5.062   5.788   5.207
 6295SOL    HW219785   4.947   5.782   5.323
 6296SOL     OW19786   6.648   0.522   3.874
 6296SOL    HW119787   6.565   0.569   3.846
 6296SOL    HW219788   6.719   0.589   3.895
 6297SOL     OW19789   5.203   6.749   5.833
 6297SOL    HW119790   5.223   6.669   5.890
 6297SOL    HW219791   5.194   6.830   5.891
 6298SOL     OW19792   1.233   3.703   6.213
 6298SOL    HW119793   1.251   3.610   6.246
 6298SOL    HW219794   1.203   3.760   6.289
 6299SOL     OW19795   6.342   2.196   6.265
 6299SOL    HW119796   6.310   2.118   6.212
 6299SOL    HW219797   6.406   2.165   6.336
 6300SOL     OW19798   5.197   0.546   4.731
 6300SOL    HW119799   5.243   0.458   4.744
 6300SOL    HW219800   5.100   0.537   4.749
 6301SOL     OW19801   2.739   6.625   1.308
 6301SOL    HW119802   2.796   6.683   1.250
 6301SOL    HW219803   2.733   6.664   1.399
 6302SOL     OW19804   1.144   1.205   3.759
 6302SOL    HW119805   1.055   1.193   3.714
 6302SOL    HW219806   1.191   1.117   3.765
 6303SOL     OW19807   2.206   0.855   4.987
 6303SOL    HW119808   2.156   0.865   5.073
 6303SOL    HW219809   2.142   0.861   4.910
 6304SOL     OW19810   3.164   0.717   1.095
 6304SOL    HW119811   3.167   0.809   1.055
 6304SOL    HW219812   3.184   0.723   1.192
 6305SOL     OW19813   6.528   6.787   1.364
 6305SOL    HW119814   6.445   6.782   1.308
 6305SOL    HW219815   6.605   6.748   1.314
 6306SOL     OW19816   6.941   3.198   4.263
 6306SOL    HW119817   6.939   3.258   4.183
 6306SOL    HW219818   6.931   3.253   4.346
 6307SOL     OW19819   3.190   4.778   5.424
 6307SOL    HW119820   3.205   4.681   5.440
 6307SOL    HW219821   3.195   4.827   5.511
 6308SOL     OW19822   1.960   1.484   5.261
 6308SOL    HW119823   1.943   1.578   5.232
 6308SOL    HW219824   2.002   1.484   5.352
 6309SOL     OW19825   4.929   3.179   3.963
 6309SOL    HW119826   4.884   3.261   3.998
 6309SOL    HW219827   5.028   3.190   3.967
 6310SOL     OW19828   2.129   4.583   4.167
 6310SOL    HW119829   2.188   4.528   4.107
 6310SOL    HW219830   2.038   4.589   4.127
 6311SOL     OW19831   6.601   0.317   5.261
 6311SOL    HW119832   6.509   0.285   5.281
 6311SOL    HW219833   6.641   0.262   5.188
 6312SOL     OW19834   4.328   5.097   6.202
 6312SOL    HW119835   4.236   5.119   6.171
 6312SOL    HW219836   4.378   5.053   6.127
 6313SOL     OW19837   1.871   6.095   2.966
 6313SOL    HW119838   1.838   6.107   3.060
 6313SOL    HW219839   1.798   6.116   2.902
 6314SOL     OW19840   3.550   6.162   2.064
 6314SOL    HW119841   3.582   6.072   2.091
 6314SOL    HW219842   3.450   6.160   2.053
 6315SOL     OW19843   4.373   2.864   6.982
 6315SOL    HW119844   4.404   2.812   0.036
 6315SOL    HW219845   4.448   2.922   6.949
 6316SOL     OW19846   4.539   2.115   6.234
 6316SOL    HW119847   4.633   2.103   6.266
 6316SOL    HW219848   4.490   2.176   6.296
 6317SOL     OW19849   5.269   6.553   3.214
 6317SOL    HW119850   5.265   6.585   3.309
 6317SOL    HW219851   5.240   6.458   3.209
 6318SOL     OW19852   2.694   2.023   5.657
 6318SOL    HW119853   2.611   2.022   5.602
 6318SOL    HW219854   2.766   2.073   5.609
 6319SOL     OW19855   0.194   3.088   3.731
 6319SOL    HW119856   0.163   3.074   3.637
 6319SOL    HW219857   0.243   3.176   3.737
 6320SOL     OW19858   5.999   4.304   3.319
 6320SOL    HW119859   6.029   4.378   3.379
 6320SOL    HW219860   6.078   4.260   3.277
 6321SOL     OW19861   2.815   5.797   0.828
 6321SOL    HW119862   2.914   5.780   0.820
 6321SOL    HW219863   2.800   5.878   0.885
 6322SOL     OW19864   1.657   1.919   6.284
 6322SOL    HW119865   1.626   1.892   6.192
 6322SOL    HW219866   1.751   1.887   6.298
 6323SOL     OW19867   3.584   2.308   1.622
 6323SOL    HW119868   3.612   2.319   1.718
 6323SOL    HW219869   3.652   2.350   1.562
 6324SOL     OW19870   4.476   0.892   5.679
 6324SOL    HW119871   4.459   0.985   5.712
 6324SOL    HW219872   4.573   0.882   5.656
 6325SOL     OW19873   1.345   2.969   2.045
 6325SOL    HW119874   1.372   2.873   2.047
 6325SOL    HW219875   1.372   3.013   2.131
 6326SOL     OW19876   5.318   5.956   0.531
 6326SOL    HW119877   5.372   5.928   0.611
 6326SOL    HW219878   5.321   5.883   0.462
 6327SOL     OW19879   6.639   6.314   5.237
 6327SOL    HW119880   6.706   6.258   5.287
 6327SOL    HW219881   6.623   6.399   5.287
 6328SOL     OW19882   2.113   4.261   6.934
 6328SOL    HW119883   2.046   4.188   6.926
 6328SOL    HW219884   2.170   4.246   7.015
 6329SOL     OW19885   0.901   1.466   3.593
 6329SOL    HW119886   0.832   1.400   3.622
 6329SOL    HW219887   0.956   1.427   3.520
 6330SOL     OW19888   4.640   0.633   0.936
 6330SOL    HW119889   4.582   0.646   0.855
 6330SOL    HW219890   4.734   0.619   0.907
 6331SOL     OW19891   6.675   2.542   0.833
 6331SOL    HW119892   6.620   2.571   0.911
 6331SOL    HW219893   6.661   2.444   0.817
 6332SOL     OW19894   5.917   5.180   1.364
 6332SOL    HW119895   5.943   5.122   1.441
 6332SOL    HW219896   5.886   5.269   1.397
 6333SOL     OW19897   3.754   5.488   3.439
 6333SOL    HW119898   3.663   5.466   3.475
 6333SOL    HW219899   3.782   5.416   3.375
 6334SOL     OW19900   2.301   0.261   2.724
 6334SOL    HW119901   2.375   0.236   2.787
 6334SOL    HW219902   2.236   0.186   2.718
 6335SOL     OW19903   5.557   1.598   0.216
 6335SOL    HW119904   5.530   1.694   0.219
 6335SOL    HW219905   5.604   1.573   0.301
 6336SOL     OW19906   0.070   2.344   4.814
 6336SOL    HW119907   0.147   2.402   4.840
 6336SOL    HW219908   7.015   2.400   4.800
 6337SOL     OW19909   5.060   3.321   6.172
 6337SOL    HW119910   4.975   3.293   6.216
 6337SOL    HW219911   5.135   3.317   6.239
 6338SOL     OW19912   2.570   2.329   2.316
 6338SOL    HW119913   2.479   2.291   2.299
 6338SOL    HW219914   2.626   2.321   2.233
 6339SOL     OW19915   0.147   2.453   3.458
 6339SOL    HW119916   0.192   2.459   3.548
 6339SOL    HW219917   0.192   2.383   3.403
 6340SOL     OW19918   2.605   5.423   3.068
 6340SOL    HW119919   2.599   5.444   3.165
 6340SOL    HW219920   2.568   5.332   3.051
 6341SOL     OW19921   7.025   4.997   3.653
 6341SOL    HW119922   6.996   4.950   3.737
 6341SOL    HW219923   0.089   5.039   3.668
 6342SOL     OW19924   2.450   2.644   2.592
 6342SOL    HW119925   2.510   2.573   2.628
 6342SOL    HW219926   2.429   2.625   2.497
 6343SOL     OW19927   4.753   2.892   0.137
 6343SOL    HW119928   4.843   2.936   0.142
 6343SOL    HW219929   4.764   2.794   0.153
 6344SOL     OW19930   6.529   3.210   5.407
 6344SOL    HW119931   6.461   3.282   5.397
 6344SOL    HW219932   6.587   3.230   5.486
 6345SOL     OW19933   4.249   1.565   2.675
 6345SOL    HW119934   4.241   1.521   2.586
 6345SOL    HW219935   4.277   1.660   2.663
 6346SOL     OW19936   6.545   3.331   3.307
 6346SOL    HW119937   6.541   3.428   3.329
 6346SOL    HW219938   6.466   3.307   3.249
 6347SOL     OW19939   3.251   0.276   1.279
 6347SOL    HW119940   3.338   0.296   1.325
 6347SOL    HW219941   3.235   0.344   1.208
 6348SOL     OW19942   0.633   3.747   5.019
 6348SOL    HW119943   0.544   3.736   4.975
 6348SOL    HW219944   0.698   3.681   4.980
 6349SOL     OW19945   3.066   0.893   1.799
 6349SOL    HW119946   3.026   0.970   1.849
 6349SOL    HW219947   3.003   0.865   1.726
 6350SOL     OW19948   1.499   5.351   3.409
 6350SOL    HW119949   1.561   5.394   3.344
 6350SOL    HW219950   1.543   5.272   3.450
 6351SOL     OW19951   6.470   2.721   2.578
 6351SOL    HW119952   6.433   2.809   2.607
 6351SOL    HW219953   6.396   2.663   2.544
 6352SOL     OW19954   1.230   5.556   3.214
 6352SOL    HW119955   1.232   5.483   3.282
 6352SOL    HW219956   1.306   5.543   3.149
 6353SOL     OW19957   6.654   0.668   6.519
 6353SOL    HW119958   6.676   0.597   6.585
 6353SOL    HW219959   6.694   0.645   6.430
 6354SOL     OW19960   1.206   6.453   2.620
 6354SOL    HW119961   1.226   6.356   2.636
 6354SOL    HW219962   1.270   6.510   2.672
 6355SOL     OW19963   0.375   3.786   4.909
 6355SOL    HW119964   0.312   3.784   4.986
 6355SOL    HW219965   0.323   3.797   4.824
 6356SOL     OW19966   5.006   4.698   1.966
 6356SOL    HW119967   4.919   4.702   2.014
 6356SOL    HW219968   4.992   4.655   1.876
 6357SOL     OW19969   4.159   2.818   0.695
 6357SOL    HW119970   4.212   2.786   0.616
 6357SOL    HW219971   4.158   2.918   0.695
 6358SOL     OW19972   6.721   2.313   4.415
 6358SOL    HW119973   6.745   2.270   4.502
 6358SOL    HW219974   6.804   2.334   4.365
 6359SOL     OW19975   6.941   0.341   5.276
 6359SOL    HW119976   6.880   0.378   5.346
 6359SOL    HW219977   6.892   0.334   5.189
 6360SOL     OW19978   2.531   4.531   3.862
 6360SOL    HW119979   2.611   4.547   3.805
 6360SOL    HW219980   2.535   4.589   3.943
 6361SOL     OW19981   4.942   6.050   6.632
 6361SOL    HW119982   4.951   5.974   6.569
 6361SOL    HW219983   5.009   6.040   6.706
 6362SOL     OW19984   6.302   4.856   6.864
 6362SOL    HW119985   6.278   4.905   6.781
 6362SOL    HW219986   6.219   4.821   6.907
 6363SOL     OW19987   2.476   6.017   4.169
 6363SOL    HW119988   2.485   6.089   4.237
 6363SOL    HW219989   2.548   6.026   4.100
 6364SOL     OW19990   2.814   2.328   5.714
 6364SOL    HW119991   2.751   2.356   5.642
 6364SOL    HW219992   2.882   2.265   5.676
 6365SOL     OW19993   4.597   0.342   4.212
 6365SOL    HW119994   4.664   0.330   4.138
 6365SOL    HW219995   4.540   0.422   4.193
 6366SOL     OW19996   0.882   5.419   5.109
 6366SOL    HW119997   0.950   5.353   5.141
 6366SOL    HW219998   0.800   5.413   5.165
 6367SOL     OW19999   5.056   0.440   3.649
 6367SOL    HW120000   4.967   0.406   3.620
 6367SOL    HW220001   5.105   0.479   3.571
 6368SOL     OW20002   3.295   0.212   4.052
 6368SOL    HW120003   3.357   0.273   4.002
 6368SOL    HW220004   3.279   0.248   4.144
 6369SOL     OW20005   2.835   5.127   4.175
 6369SOL    HW120006   2.867   5.181   4.253
 6369SOL    HW220007   2.849   5.030   4.194
 6370SOL     OW20008   0.925   2.299   2.066
 6370SOL    HW120009   0.966   2.362   2.000
 6370SOL    HW220010   0.857   2.348   2.120
 6371SOL     OW20011   4.788   2.924   3.083
 6371SOL    HW120012   4.712   2.882   3.133
 6371SOL    HW220013   4.775   2.909   2.985
 6372SOL     OW20014   3.302   6.259   1.411
 6372SOL    HW120015   3.209   6.227   1.394
 6372SOL    HW220016   3.298   6.348   1.458
 6373SOL     OW20017   6.025   4.382   4.945
 6373SOL    HW120018   5.928   4.406   4.955
 6373SOL    HW220019   6.073   4.399   5.031
 6374SOL     OW20020   3.407   3.410   3.407
 6374SOL    HW120021   3.430   3.380   3.314
 6374SOL    HW220022   3.433   3.505   3.418
 6375SOL     OW20023   0.802   0.944   3.056
 6375SOL    HW120024   0.810   1.037   3.021
 6375SOL    HW220025   0.787   0.881   2.980
 6376SOL     OW20026   0.387   1.508   5.379
 6376SOL    HW120027   0.355   1.414   5.365
 6376SOL    HW220028   0.355   1.566   5.303
 6377SOL     OW20029   6.769   0.859   5.802
 6377SOL    HW120030   6.714   0.776   5.806
 6377SOL    HW220031   6.740   0.914   5.723
 6378SOL     OW20032   4.848   4.522   3.313
 6378SOL    HW120033   4.781   4.489   3.380
 6378SOL    HW220034   4.893   4.443   3.271
 6379SOL     OW20035   1.685   5.054   4.503
 6379SOL    HW120036   1.773   5.100   4.497
 6379SOL    HW220037   1.682   4.999   4.587
 6380SOL     OW20038   1.182   1.244   5.475
 6380SOL    HW120039   1.132   1.228   5.560
 6380SOL    HW220040   1.175   1.340   5.450
 6381SOL     OW20041   3.015   3.710   2.318
 6381SOL    HW120042   2.973   3.624   2.289
 6381SOL    HW220043   3.020   3.773   2.241
 6382SOL     OW20044   1.485   2.672   6.191
 6382SOL    HW120045   1.475   2.598   6.123
 6382SOL    HW220046   1.398   2.721   6.198
 6383SOL     OW20047   2.068   2.166   3.927
 6383SOL    HW120048   2.075   2.182   3.829
 6383SOL    HW220049   2.061   2.254   3.975
 6384SOL     OW20050   6.213   4.779   1.864
 6384SOL    HW120051   6.247   4.790   1.958
 6384SOL    HW220052   6.230   4.863   1.813
 6385SOL     OW20053   6.260   4.912   3.961
 6385SOL    HW120054   6.326   4.888   4.032
 6385SOL    HW220055   6.223   4.829   3.920
 6386SOL     OW20056   2.705   5.273   1.103
 6386SOL    HW120057   2.676   5.209   1.174
 6386SOL    HW220058   2.649   5.260   1.021
 6387SOL     OW20059   0.701   1.949   6.134
 6387SOL    HW120060   0.800   1.956   6.131
 6387SOL    HW220061   0.661   2.004   6.060
 6388SOL     OW20062   3.577   4.596   1.170
 6388SOL    HW120063   3.588   4.497   1.178
 6388SOL    HW220064   3.570   4.637   1.261
 6389SOL     OW20065   0.772   5.975   2.614
 6389SOL    HW120066   0.687   5.942   2.654
 6389SOL    HW220067   0.849   5.921   2.650
 6390SOL     OW20068   0.022   2.480   3.037
 6390SOL    HW120069   0.102   2.490   2.979
 6390SOL    HW220070   0.034   2.535   3.120
 6391SOL     OW20071   3.447   1.163   0.232
 6391SOL    HW120072   3.376   1.224   0.266
 6391SOL    HW220073   3.425   1.135   0.138
 6392SOL     OW20074   2.148   6.438   4.136
 6392SOL    HW120075   2.142   6.387   4.050
 6392SOL    HW220076   2.076   6.408   4.198
 6393SOL     OW20077   5.738   6.627   1.733
 6393SOL    HW120078   5.729   6.591   1.825
 6393SOL    HW220079   5.648   6.650   1.696
 6394SOL     OW20080   2.572   5.117   1.290
 6394SOL    HW120081   2.528   5.027   1.281
 6394SOL    HW220082   2.587   5.136   1.387
 6395SOL     OW20083   6.229   1.548   1.304
 6395SOL    HW120084   6.176   1.618   1.256
 6395SOL    HW220085   6.168   1.474   1.332
 6396SOL     OW20086   5.415   2.862   6.091
 6396SOL    HW120087   5.442   2.952   6.125
 6396SOL    HW220088   5.320   2.843   6.115
 6397SOL     OW20089   6.860   1.966   6.967
 6397SOL    HW120090   6.812   2.053   6.979
 6397SOL    HW220091   6.959   1.982   6.968
 6398SOL     OW20092   3.324   0.905   1.730
 6398SOL    HW120093   3.227   0.920   1.751
 6398SOL    HW220094   3.379   0.972   1.779
 6399SOL     OW20095   1.582   5.606   6.772
 6399SOL    HW120096   1.495   5.581   6.729
 6399SOL    HW220097   1.643   5.526   6.770
 6400SOL     OW20098   2.347   5.843   3.247
 6400SOL    HW120099   2.395   5.875   3.165
 6400SOL    HW220100   2.414   5.818   3.316
 6401SOL     OW20101   0.178   4.631   3.721
 6401SOL    HW120102   0.091   4.635   3.672
 6401SOL    HW220103   0.180   4.703   3.791
 6402SOL     OW20104   2.506   0.696   2.720
 6402SOL    HW120105   2.550   0.785   2.735
 6402SOL    HW220106   2.550   0.649   2.644
 6403SOL     OW20107   0.826   5.501   6.825
 6403SOL    HW120108   0.794   5.500   6.920
 6403SOL    HW220109   0.925   5.512   6.824
 6404SOL     OW20110   4.149   1.662   3.298
 6404SOL    HW120111   4.111   1.682   3.388
 6404SOL    HW220112   4.079   1.619   3.241
 6405SOL     OW20113   1.756   2.090   2.834
 6405SOL    HW120114   1.758   2.185   2.865
 6405SOL    HW220115   1.820   2.079   2.757
 6406SOL     OW20116   1.424   1.417   3.218
 6406SOL    HW120117   1.479   1.430   3.301
 6406SOL    HW220118   1.473   1.357   3.155
 6407SOL     OW20119   3.095   6.964   4.350
 6407SOL    HW120120   3.151   6.932   4.274
 6407SOL    HW220121   3.152   7.013   4.416
 6408SOL     OW20122   6.037   2.488   6.883
 6408SOL    HW120123   6.045   2.424   6.806
 6408SOL    HW220124   6.090   2.454   6.960
 6409SOL     OW20125   6.324   4.074   2.847
 6409SOL    HW120126   6.335   4.164   2.804
 6409SOL    HW220127   6.228   4.061   2.872
 6410SOL     OW20128   2.401   1.722   0.896
 6410SOL    HW120129   2.434   1.628   0.904
 6410SOL    HW220130   2.302   1.723   0.910
 6411SOL     OW20131   1.077   2.292   3.523
 6411SOL    HW120132   1.056   2.201   3.485
 6411SOL    HW220133   1.066   2.290   3.622
 6412SOL     OW20134   6.858   3.305   5.635
 6412SOL    HW120135   6.809   3.344   5.712
 6412SOL    HW220136   6.840   3.359   5.552
 6413SOL     OW20137   5.789   4.888   1.984
 6413SOL    HW120138   5.844   4.838   1.917
 6413SOL    HW220139   5.722   4.827   2.025
 6414SOL     OW20140   5.799   1.088   2.035
 6414SOL    HW120141   5.865   1.163   2.042
 6414SOL    HW220142   5.841   1.012   1.986
 6415SOL     OW20143   2.750   2.347   2.821
 6415SOL    HW120144   2.692   2.370   2.743
 6415SOL    HW220145   2.779   2.252   2.814
 6416SOL     OW20146   0.874   0.400   6.536
 6416SOL    HW120147   0.813   0.323   6.517
 6416SOL    HW220148   0.952   0.368   6.589
 6417SOL     OW20149   0.739   6.111   3.206
 6417SOL    HW120150   0.709   6.152   3.120
 6417SOL    HW220151   0.778   6.182   3.265
 6418SOL     OW20152   6.510   5.083   2.445
 6418SOL    HW120153   6.423   5.110   2.402
 6418SOL    HW220154   6.560   5.022   2.383
 6419SOL     OW20155   3.085   5.472   1.829
 6419SOL    HW120156   3.134   5.433   1.907
 6419SOL    HW220157   3.044   5.398   1.775
 6420SOL     OW20158   3.075   3.219   6.175
 6420SOL    HW120159   3.134   3.159   6.229
 6420SOL    HW220160   3.012   3.164   6.121
 6421SOL     OW20161   6.369   1.319   1.222
 6421SOL    HW120162   6.351   1.250   1.292
 6421SOL    HW220163   6.313   1.400   1.240
 6422SOL     OW20164   6.959   0.423   3.698
 6422SOL    HW120165   6.959   0.498   3.631
 6422SOL    HW220166   6.865   0.404   3.726
 6423SOL     OW20167   5.068   3.836   1.223
 6423SOL    HW120168   5.093   3.879   1.136
 6423SOL    HW220169   5.110   3.885   1.299
 6424SOL     OW20170   6.807   4.215   5.875
 6424SOL    HW120171   6.736   4.247   5.813
 6424SOL    HW220172   6.850   4.133   5.838
 6425SOL     OW20173   6.879   4.452   3.233
 6425SOL    HW120174   6.959   4.483   3.284
 6425SOL    HW220175   6.856   4.519   3.163
 6426SOL     OW20176   1.260   2.930   4.244
 6426SOL    HW120177   1.233   2.975   4.329
 6426SOL    HW220178   1.201   2.851   4.228
 6427SOL     OW20179   1.591   3.848   6.807
 6427SOL    HW120180   1.600   3.842   6.707
 6427SOL    HW220181   1.535   3.928   6.830
 6428SOL     OW20182   6.566   3.534   1.794
 6428SOL    HW120183   6.550   3.583   1.880
 6428SOL    HW220184   6.659   3.551   1.762
 6429SOL     OW20185   1.740   0.581   4.807
 6429SOL    HW120186   1.777   0.504   4.754
 6429SOL    HW220187   1.641   0.573   4.813
 6430SOL     OW20188   4.689   0.826   1.995
 6430SOL    HW120189   4.789   0.823   1.992
 6430SOL    HW220190   4.652   0.802   1.905
 6431SOL     OW20191   5.683   6.918   3.355
 6431SOL    HW120192   5.696   6.977   3.276
 6431SOL    HW220193   5.630   6.837   3.328
 6432SOL     OW20194   4.352   4.185   6.998
 6432SOL    HW120195   4.288   4.261   6.994
 6432SOL    HW220196   4.315   4.113   0.031
 6433SOL     OW20197   3.094   4.794   1.214
 6433SOL    HW120198   3.035   4.849   1.155
 6433SOL    HW220199   3.157   4.740   1.158
 6434SOL     OW20200   1.329   3.783   1.058
 6434SOL    HW120201   1.346   3.832   0.972
 6434SOL    HW220202   1.402   3.805   1.123
 6435SOL     OW20203   3.404   5.215   0.287
 6435SOL    HW120204   3.462   5.259   0.355
 6435SOL    HW220205   3.312   5.203   0.323
 6436SOL     OW20206   1.754   2.987   3.617
 6436SOL    HW120207   1.851   2.963   3.614
 6436SOL    HW220208   1.699   2.907   3.594
 6437SOL     OW20209   1.778   1.430   0.201
 6437SOL    HW120210   1.724   1.449   0.283
 6437SOL    HW220211   1.765   1.335   0.173
 6438SOL     OW20212   0.496   4.125   5.162
 6438SOL    HW120213   0.551   4.119   5.245
 6438SOL    HW220214   0.399   4.129   5.186
 6439SOL     OW20215   0.873   6.739   0.719
 6439SOL    HW120216   0.881   6.731   0.620
 6439SOL    HW220217   0.784   6.704   0.748
 6440SOL     OW20218   2.368   2.145   1.823
 6440SOL    HW120219   2.322   2.203   1.755
 6440SOL    HW220220   2.302   2.085   1.867
 6441SOL     OW20221   1.477   0.456   2.560
 6441SOL    HW120222   1.557   0.444   2.501
 6441SOL    HW220223   1.414   0.380   2.545
 6442SOL     OW20224   2.465   1.422   4.305
 6442SOL    HW120225   2.399   1.369   4.252
 6442SOL    HW220226   2.417   1.490   4.360
 6443SOL     OW20227   3.081   2.896   0.397
 6443SOL    HW120228   3.021   2.895   0.477
 6443SOL    HW220229   3.161   2.952   0.415
 6444SOL     OW20230   0.268   2.240   3.302
 6444SOL    HW120231   0.359   2.250   3.263
 6444SOL    HW220232   0.203   2.217   3.230
 6445SOL     OW20233   4.210   2.501   5.466
 6445SOL    HW120234   4.185   2.502   5.369
 6445SOL    HW220235   4.153   2.435   5.514
 6446SOL     OW20236   0.248   1.179   6.053
 6446SOL    HW120237   0.219   1.140   6.141
 6446SOL    HW220238   0.193   1.260   6.033
 6447SOL     OW20239   0.988   5.854   2.248
 6447SOL    HW120240   0.965   5.929   2.186
 6447SOL    HW220241   1.087   5.843   2.253
 6448SOL     OW20242   6.118   3.987   2.435
 6448SOL    HW120243   6.059   4.062   2.404
 6448SOL    HW220244   6.213   4.017   2.437
 6449SOL     OW20245   3.804   3.970   1.755
 6449SOL    HW120246   3.892   4.016   1.746
 6449SOL    HW220247   3.759   3.968   1.666
 6450SOL     OW20248   6.381   2.980   1.740
 6450SOL    HW120249   6.405   3.042   1.815
 6450SOL    HW220250   6.421   2.890   1.758
 6451SOL     OW20251   3.542   6.242   5.413
 6451SOL    HW120252   3.623   6.189   5.441
 6451SOL    HW220253   3.478   6.247   5.490
 6452SOL     OW20254   3.493   0.105   4.846
 6452SOL    HW120255   3.523   0.015   4.878
 6452SOL    HW220256   3.545   0.176   4.893
 6453SOL     OW20257   1.027   6.640   0.108
 6453SOL    HW120258   1.015   6.606   0.201
 6453SOL    HW220259   1.121   6.623   0.078
 6454SOL     OW20260   2.650   1.268   4.125
 6454SOL    HW120261   2.577   1.335   4.144
 6454SOL    HW220262   2.628   1.181   4.169
 6455SOL     OW20263   0.854   2.741   4.684
 6455SOL    HW120264   0.901   2.653   4.680
 6455SOL    HW220265   0.849   2.780   4.592
 6456SOL     OW20266   1.602   0.136   3.220
 6456SOL    HW120267   1.552   0.211   3.264
 6456SOL    HW220268   1.661   0.091   3.287
 6457SOL     OW20269   5.761   1.779   1.582
 6457SOL    HW120270   5.856   1.752   1.593
 6457SOL    HW220271   5.730   1.754   1.490
 6458SOL     OW20272   1.192   6.171   2.725
 6458SOL    HW120273   1.173   6.077   2.694
 6458SOL    HW220274   1.270   6.170   2.787
 6459SOL     OW20275   5.640   5.739   0.437
 6459SOL    HW120276   5.686   5.812   0.488
 6459SOL    HW220277   5.601   5.673   0.501
 6460SOL     OW20278   4.550   4.850   0.104
 6460SOL    HW120279   4.467   4.831   0.157
 6460SOL    HW220280   4.630   4.816   0.155
 6461SOL     OW20281   2.985   5.849   5.530
 6461SOL    HW120282   2.972   5.778   5.461
 6461SOL    HW220283   2.897   5.876   5.568
 6462SOL     OW20284   2.272   3.404   5.223
 6462SOL    HW120285   2.240   3.411   5.129
 6462SOL    HW220286   2.283   3.496   5.261
 6463SOL     OW20287   2.894   4.786   6.406
 6463SOL    HW120288   2.848   4.806   6.320
 6463SOL    HW220289   2.865   4.853   6.475
 6464SOL     OW20290   0.755   4.673   3.742
 6464SOL    HW120291   0.707   4.695   3.657
 6464SOL    HW220292   0.772   4.575   3.745
 6465SOL     OW20293   6.105   2.180   3.823
 6465SOL    HW120294   6.080   2.238   3.901
 6465SOL    HW220295   6.203   2.160   3.827
 6466SOL     OW20296   6.537   2.425   4.893
 6466SOL    HW120297   6.480   2.379   4.825
 6466SOL    HW220298   6.542   2.370   4.976
 6467SOL     OW20299   2.417   1.310   6.343
 6467SOL    HW120300   2.452   1.383   6.284
 6467SOL    HW220301   2.325   1.334   6.375
 6468SOL     OW20302   4.037   6.156   1.670
 6468SOL    HW120303   4.073   6.063   1.669
 6468SOL    HW220304   4.109   6.221   1.646
 6469SOL     OW20305   6.224   1.232   5.492
 6469SOL    HW120306   6.149   1.227   5.558
 6469SOL    HW220307   6.311   1.229   5.541
 6470SOL     OW20308   6.884   5.695   6.331
 6470SOL    HW120309   6.900   5.625   6.262
 6470SOL    HW220310   6.860   5.651   6.418
 6471SOL     OW20311   6.906   5.165   6.439
 6471SOL    HW120312   6.966   5.225   6.491
 6471SOL    HW220313   6.811   5.193   6.450
 6472SOL     OW20314   0.787   5.878   1.387
 6472SOL    HW120315   0.777   5.975   1.364
 6472SOL    HW220316   0.836   5.831   1.314
 6473SOL     OW20317   2.120   1.141   5.976
 6473SOL    HW120318   2.169   1.060   6.007
 6473SOL    HW220319   2.066   1.119   5.895
 6474SOL     OW20320   1.542   3.897   6.002
 6474SOL    HW120321   1.502   3.883   6.092
 6474SOL    HW220322   1.472   3.934   5.940
 6475SOL     OW20323   6.054   5.979   4.109
 6475SOL    HW120324   6.107   5.936   4.037
 6475SOL    HW220325   6.029   6.072   4.082
 6476SOL     OW20326   4.857   4.494   2.293
 6476SOL    HW120327   4.811   4.409   2.265
 6476SOL    HW220328   4.913   4.477   2.373
 6477SOL     OW20329   6.583   5.237   6.727
 6477SOL    HW120330   6.558   5.172   6.799
 6477SOL    HW220331   6.633   5.314   6.767
 6478SOL     OW20332   3.599   5.891   2.069
 6478SOL    HW120333   3.536   5.860   1.998
 6478SOL    HW220334   3.562   5.868   2.159
 6479SOL     OW20335   4.230   4.890   1.988
 6479SOL    HW120336   4.318   4.930   2.014
 6479SOL    HW220337   4.214   4.808   2.042
 6480SOL     OW20338   3.910   3.063   6.057
 6480SOL    HW120339   3.916   2.968   6.087
 6480SOL    HW220340   3.840   3.111   6.110
 6481SOL     OW20341   3.587   2.100   1.294
 6481SOL    HW120342   3.609   2.175   1.232
 6481SOL    HW220343   3.563   2.136   1.384
 6482SOL     OW20344   6.795   0.871   0.273
 6482SOL    HW120345   6.882   0.821   0.278
 6482SOL    HW220346   6.771   0.885   0.177
 6483SOL     OW20347   2.434   6.352   2.104
 6483SOL    HW120348   2.343   6.310   2.107
 6483SOL    HW220349   2.469   6.364   2.197
 6484SOL     OW20350   4.431   0.395   2.461
 6484SOL    HW120351   4.387   0.305   2.460
 6484SOL    HW220352   4.494   0.402   2.384
 6485SOL     OW20353   1.346   3.101   3.433
 6485SOL    HW120354   1.308   3.011   3.415
 6485SOL    HW220355   1.342   3.120   3.531
 6486SOL     OW20356   1.118   4.228   4.051
 6486SOL    HW120357   1.059   4.306   4.032
 6486SOL    HW220358   1.068   4.161   4.107
 6487SOL     OW20359   6.525   5.516   4.247
 6487SOL    HW120360   6.505   5.614   4.247
 6487SOL    HW220361   6.440   5.464   4.243
 6488SOL     OW20362   3.297   6.224   5.616
 6488SOL    HW120363   3.289   6.212   5.715
 6488SOL    HW220364   3.206   6.217   5.575
 6489SOL     OW20365   1.804   2.870   6.787
 6489SOL    HW120366   1.852   2.945   6.833
 6489SOL    HW220367   1.708   2.872   6.813
 6490SOL     OW20368   4.027   2.542   0.398
 6490SOL    HW120369   3.949   2.587   0.443
 6490SOL    HW220370   4.034   2.448   0.431
 6491SOL     OW20371   4.373   1.158   6.705
 6491SOL    HW120372   4.277   1.135   6.719
 6491SOL    HW220373   4.421   1.152   6.793
 6492SOL     OW20374   5.987   6.798   0.113
 6492SOL    HW120375   5.938   6.878   0.146
 6492SOL    HW220376   6.079   6.825   0.083
 6493SOL     OW20377   1.973   6.512   5.449
 6493SOL    HW120378   1.874   6.502   5.448
 6493SOL    HW220379   2.010   6.476   5.534
 6494SOL     OW20380   0.599   0.306   3.480
 6494SOL    HW120381   0.614   0.339   3.574
 6494SOL    HW220382   0.614   0.208   3.476
 6495SOL     OW20383   5.139   5.715   3.631
 6495SOL    HW120384   5.152   5.716   3.730
 6495SOL    HW220385   5.214   5.762   3.586
 6496SOL     OW20386   6.613   6.368   2.134
 6496SOL    HW120387   6.648   6.453   2.096
 6496SOL    HW220388   6.677   6.294   2.115
 6497SOL     OW20389   2.411   3.668   1.158
 6497SOL    HW120390   2.433   3.570   1.155
 6497SOL    HW220391   2.320   3.680   1.197
 6498SOL     OW20392   2.275   4.857   3.882
 6498SOL    HW120393   2.302   4.833   3.975
 6498SOL    HW220394   2.353   4.897   3.834
 6499SOL     OW20395   5.195   0.718   5.244
 6499SOL    HW120396   5.201   0.690   5.149
 6499SOL    HW220397   5.250   0.656   5.301
 6500SOL     OW20398   6.502   4.029   3.317
 6500SOL    HW120399   6.410   3.991   3.318
 6500SOL    HW220400   6.537   4.033   3.410
 6501SOL     OW20401   6.636   3.506   1.227
 6501SOL    HW120402   6.720   3.475   1.272
 6501SOL    HW220403   6.631   3.606   1.230
 6502SOL     OW20404   0.336   4.180   3.685
 6502SOL    HW120405   0.317   4.162   3.782
 6502SOL    HW220406   0.258   4.225   3.643
 6503SOL     OW20407   5.725   6.576   3.717
 6503SOL    HW120408   5.665   6.642   3.672
 6503SOL    HW220409   5.802   6.624   3.759
 6504SOL     OW20410   4.080   6.944   6.660
 6504SOL    HW120411   4.153   6.937   6.729
 6504SOL    HW220412   4.114   6.909   6.573
 6505SOL     OW20413   6.328   4.561   1.026
 6505SOL    HW120414   6.408   4.621   1.025
 6505SOL    HW220415   6.314   4.523   0.934
 6506SOL     OW20416   0.923   3.194   0.936
 6506SOL    HW120417   0.981   3.230   0.863
 6506SOL    HW220418   0.899   3.099   0.916
 6507SOL     OW20419   1.392   5.745   0.916
 6507SOL    HW120420   1.302   5.764   0.956
 6507SOL    HW220421   1.421   5.653   0.943
 6508SOL     OW20422   2.044   1.880   4.009
 6508SOL    HW120423   2.014   1.825   3.930
 6508SOL    HW220424   2.055   1.975   3.981
 6509SOL     OW20425   1.248   2.390   5.107
 6509SOL    HW120426   1.277   2.326   5.036
 6509SOL    HW220427   1.273   2.483   5.081
 6510SOL     OW20428   0.201   5.236   6.319
 6510SOL    HW120429   0.161   5.280   6.399
 6510SOL    HW220430   0.143   5.159   6.291
 6511SOL     OW20431   6.162   0.505   5.424
 6511SOL    HW120432   6.201   0.597   5.420
 6511SOL    HW220433   6.170   0.470   5.517
 6512SOL     OW20434   4.517   6.864   2.847
 6512SOL    HW120435   4.454   6.859   2.924
 6512SOL    HW220436   4.492   6.794   2.779
 6513SOL     OW20437   3.616   6.628   4.376
 6513SOL    HW120438   3.672   6.583   4.306
 6513SOL    HW220439   3.564   6.702   4.334
 6514SOL     OW20440   4.926   0.045   4.025
 6514SOL    HW120441   4.945   0.135   4.063
 6514SOL    HW220442   4.876   0.056   3.939
 6515SOL     OW20443   6.613   5.340   3.802
 6515SOL    HW120444   6.663   5.362   3.718
 6515SOL    HW220445   6.654   5.260   3.846
 6516SOL     OW20446   0.546   1.596   6.834
 6516SOL    HW120447   0.524   1.618   6.739
 6516SOL    HW220448   0.617   1.658   6.867
 6517SOL     OW20449   0.071   1.594   0.640
 6517SOL    HW120450   0.010   1.650   0.695
 6517SOL    HW220451   0.109   1.649   0.565
 6518SOL     OW20452   0.821   6.332   0.265
 6518SOL    HW120453   0.782   6.359   0.353
 6518SOL    HW220454   0.748   6.299   0.204
 6519SOL     OW20455   2.567   1.631   4.138
 6519SOL    HW120456   2.550   1.570   4.216
 6519SOL    HW220457   2.481   1.673   4.109
 6520SOL     OW20458   6.450   5.695   2.756
 6520SOL    HW120459   6.404   5.781   2.737
 6520SOL    HW220460   6.528   5.685   2.695
 6521SOL     OW20461   1.195   1.116   4.297
 6521SOL    HW120462   1.234   1.080   4.212
 6521SOL    HW220463   1.266   1.118   4.367
 6522SOL     OW20464   2.374   5.229   6.890
 6522SOL    HW120465   2.468   5.202   6.910
 6522SOL    HW220466   2.368   5.260   6.795
 6523SOL     OW20467   2.769   1.403   6.062
 6523SOL    HW120468   2.743   1.391   6.158
 6523SOL    HW220469   2.823   1.487   6.053
 6524SOL     OW20470   3.528   3.673   3.401
 6524SOL    HW120471   3.556   3.741   3.333
 6524SOL    HW220472   3.591   3.676   3.479
 6525SOL     OW20473   1.255   2.633   2.705
 6525SOL    HW120474   1.342   2.593   2.735
 6525SOL    HW220475   1.184   2.563   2.704
 6526SOL     OW20476   0.937   6.439   4.800
 6526SOL    HW120477   0.975   6.375   4.866
 6526SOL    HW220478   0.999   6.517   4.789
 6527SOL     OW20479   1.313   0.881   5.168
 6527SOL    HW120480   1.339   0.824   5.246
 6527SOL    HW220481   1.264   0.824   5.101
 6528SOL     OW20482   0.111   0.703   4.211
 6528SOL    HW120483   0.178   0.742   4.274
 6528SOL    HW220484   0.021   0.746   4.227
 6529SOL     OW20485   5.683   2.019   2.851
 6529SOL    HW120486   5.750   1.985   2.917
 6529SOL    HW220487   5.665   2.116   2.867
 6530SOL     OW20488   6.454   2.780   0.700
 6530SOL    HW120489   6.371   2.731   0.673
 6530SOL    HW220490   6.502   2.728   0.770
 6531SOL     OW20491   5.637   2.381   3.812
 6531SOL    HW120492   5.664   2.420   3.899
 6531SOL    HW220493   5.587   2.450   3.759
 6532SOL     OW20494   6.571   2.078   0.089
 6532SOL    HW120495   6.488   2.133   0.083
 6532SOL    HW220496   6.650   2.138   0.106
 6533SOL     OW20497   6.116   6.362   1.040
 6533SOL    HW120498   6.130   6.304   0.960
 6533SOL    HW220499   6.071   6.310   1.112
 6534SOL     OW20500   2.497   3.903   1.280
 6534SOL    HW120501   2.434   3.920   1.356
 6534SOL    HW220502   2.473   3.817   1.236
 6535SOL     OW20503   0.110   3.011   5.265
 6535SOL    HW120504   0.165   2.971   5.192
 6535SOL    HW220505   0.104   3.110   5.252
 6536SOL     OW20506   6.128   2.326   6.676
 6536SOL    HW120507   6.058   2.302   6.609
 6536SOL    HW220508   6.180   2.405   6.644
 6537SOL     OW20509   6.603   6.547   6.748
 6537SOL    HW120510   6.617   6.476   6.678
 6537SOL    HW220511   6.663   6.624   6.729
 6538SOL     OW20512   3.524   3.634   0.188
 6538SOL    HW120513   3.613   3.660   0.150
 6538SOL    HW220514   3.538   3.594   0.279
 6539SOL     OW20515   2.385   2.059   6.669
 6539SOL    HW120516   2.455   1.989   6.683
 6539SOL    HW220517   2.356   2.060   6.574
 6540SOL     OW20518   3.718   1.870   4.395
 6540SOL    HW120519   3.710   1.968   4.413
 6540SOL    HW220520   3.775   1.856   4.314
 6541SOL     OW20521   3.032   2.290   5.328
 6541SOL    HW120522   2.949   2.303   5.275
 6541SOL    HW220523   3.112   2.303   5.269
 6542SOL     OW20524   6.156   5.062   3.321
 6542SOL    HW120525   6.177   4.967   3.342
 6542SOL    HW220526   6.188   5.121   3.396
 6543SOL     OW20527   6.359   5.532   0.045
 6543SOL    HW120528   6.308   5.581   0.115
 6543SOL    HW220529   6.452   5.570   0.039
 6544SOL     OW20530   6.801   6.126   4.323
 6544SOL    HW120531   6.888   6.165   4.293
 6544SOL    HW220532   6.756   6.190   4.386
 6545SOL     OW20533   5.371   1.058   6.110
 6545SOL    HW120534   5.296   1.061   6.176
 6545SOL    HW220535   5.342   1.004   6.030
 6546SOL     OW20536   4.305   4.475   5.948
 6546SOL    HW120537   4.227   4.536   5.934
 6546SOL    HW220538   4.293   4.424   6.033
 6547SOL     OW20539   4.502   1.863   6.143
 6547SOL    HW120540   4.485   1.942   6.202
 6547SOL    HW220541   4.435   1.862   6.068
 6548SOL     OW20542   0.267   4.467   5.873
 6548SOL    HW120543   0.289   4.499   5.781
 6548SOL    HW220544   0.172   4.489   5.894
 6549SOL     OW20545   4.050   2.015   1.288
 6549SOL    HW120546   4.041   1.918   1.264
 6549SOL    HW220547   4.134   2.027   1.342
 6550SOL     OW20548   0.632   5.589   3.355
 6550SOL    HW120549   0.615   5.497   3.320
 6550SOL    HW220550   0.544   5.635   3.371
 6551SOL     OW20551   2.370   4.478   1.589
 6551SOL    HW120552   2.417   4.498   1.503
 6551SOL    HW220553   2.406   4.393   1.628
 6552SOL     OW20554   2.407   5.450   5.427
 6552SOL    HW120555   2.353   5.534   5.427
 6552SOL    HW220556   2.398   5.404   5.339
 6553SOL     OW20557   0.507   2.982   1.592
 6553SOL    HW120558   0.547   3.014   1.506
 6553SOL    HW220559   0.550   2.897   1.620
 6554SOL     OW20560   5.983   1.594   6.044
 6554SOL    HW120561   5.931   1.635   6.119
 6554SOL    HW220562   5.940   1.508   6.017
 6555SOL     OW20563   1.885   0.642   2.111
 6555SOL    HW120564   1.937   0.578   2.169
 6555SOL    HW220565   1.803   0.671   2.160
 6556SOL     OW20566   4.563   4.862   5.118
 6556SOL    HW120567   4.495   4.934   5.128
 6556SOL    HW220568   4.645   4.900   5.075
 6557SOL     OW20569   5.984   5.704   0.613
 6557SOL    HW120570   5.945   5.721   0.523
 6557SOL    HW220571   6.061   5.766   0.629
 6558SOL     OW20572   6.578   5.936   0.842
 6558SOL    HW120573   6.533   5.930   0.754
 6558SOL    HW220574   6.574   5.847   0.888
 6559SOL     OW20575   4.908   3.622   0.793
 6559SOL    HW120576   4.879   3.611   0.698
 6559SOL    HW220577   4.834   3.662   0.847
 6560SOL     OW20578   3.670   3.211   1.168
 6560SOL    HW120579   3.678   3.111   1.163
 6560SOL    HW220580   3.678   3.240   1.263
 6561SOL     OW20581   4.126   3.689   2.291
 6561SOL    HW120582   4.225   3.688   2.301
 6561SOL    HW220583   4.095   3.783   2.275
 6562SOL     OW20584   6.884   4.659   6.047
 6562SOL    HW120585   6.938   4.663   6.131
 6562SOL    HW220586   6.789   4.642   6.069
 6563SOL     OW20587   0.215   5.853   0.118
 6563SOL    HW120588   0.285   5.858   0.047
 6563SOL    HW220589   0.185   5.759   0.129
 6564SOL     OW20590   0.972   3.514   2.277
 6564SOL    HW120591   0.996   3.594   2.223
 6564SOL    HW220592   0.906   3.458   2.226
 6565SOL     OW20593   5.136   2.156   5.029
 6565SOL    HW120594   5.112   2.177   5.124
 6565SOL    HW220595   5.114   2.234   4.971
 6566SOL     OW20596   3.738   0.260   1.234
 6566SOL    HW120597   3.670   0.236   1.164
 6566SOL    HW220598   3.792   0.337   1.201
 6567SOL     OW20599   4.730   2.858   1.253
 6567SOL    HW120600   4.758   2.762   1.266
 6567SOL    HW220601   4.716   2.901   1.342
 6568SOL     OW20602   4.776   4.417   1.696
 6568SOL    HW120603   4.779   4.356   1.775
 6568SOL    HW220604   4.691   4.402   1.645
 6569SOL     OW20605   2.819   5.525   0.841
 6569SOL    HW120606   2.818   5.625   0.839
 6569SOL    HW220607   2.852   5.493   0.930
 6570SOL     OW20608   5.130   0.196   2.242
 6570SOL    HW120609   5.149   0.106   2.202
 6570SOL    HW220610   5.113   0.186   2.340
 6571SOL     OW20611   2.580   6.078   3.129
 6571SOL    HW120612   2.591   6.037   3.219
 6571SOL    HW220613   2.487   6.112   3.118
 6572SOL     OW20614   5.853   3.835   5.454
 6572SOL    HW120615   5.837   3.787   5.367
 6572SOL    HW220616   5.925   3.903   5.442
 6573SOL     OW20617   3.542   1.153   2.401
 6573SOL    HW120618   3.625   1.160   2.457
 6573SOL    HW220619   3.463   1.135   2.461
 6574SOL     OW20620   2.192   6.215   2.163
 6574SOL    HW120621   2.120   6.276   2.132
 6574SOL    HW220622   2.177   6.190   2.259
 6575SOL     OW20623   0.894   1.524   1.727
 6575SOL    HW120624   0.933   1.434   1.744
 6575SOL    HW220625   0.803   1.514   1.687
 6576SOL     OW20626   1.333   5.859   6.586
 6576SOL    HW120627   1.282   5.944   6.602
 6576SOL    HW220628   1.278   5.781   6.616
 6577SOL     OW20629   0.569   1.453   3.832
 6577SOL    HW120630   0.614   1.368   3.803
 6577SOL    HW220631   0.635   1.510   3.881
 6578SOL     OW20632   6.163   5.408   3.725
 6578SOL    HW120633   6.216   5.416   3.810
 6578SOL    HW220634   6.203   5.467   3.655
 6579SOL     OW20635   6.958   3.697   3.763
 6579SOL    HW120636   6.869   3.661   3.788
 6579SOL    HW220637   6.947   3.773   3.698
 6580SOL     OW20638   6.010   0.643   1.192
 6580SOL    HW120639   6.066   0.720   1.162
 6580SOL    HW220640   5.982   0.657   1.287
 6581SOL     OW20641   3.887   1.568   5.953
 6581SOL    HW120642   3.929   1.655   5.928
 6581SOL    HW220643   3.834   1.579   6.037
 6582SOL     OW20644   0.733   7.024   2.783
 6582SOL    HW120645   0.646   0.006   2.735
 6582SOL    HW220646   0.802   6.986   2.720
 6583SOL     OW20647   5.319   1.564   6.824
 6583SOL    HW120648   5.311   1.556   6.924
 6583SOL    HW220649   5.412   1.540   6.796
 6584SOL     OW20650   5.573   1.932   6.569
 6584SOL    HW120651   5.531   1.998   6.632
 6584SOL    HW220652   5.514   1.851   6.562
 6585SOL     OW20653   0.275   1.579   6.975
 6585SOL    HW120654   0.242   1.673   6.982
 6585SOL    HW220655   0.365   1.579   6.931
 6586SOL     OW20656   6.180   2.103   5.967
 6586SOL    HW120657   6.148   2.012   5.939
 6586SOL    HW220658   6.190   2.161   5.886
 6587SOL     OW20659   2.026   5.788   4.079
 6587SOL    HW120660   2.052   5.778   3.983
 6587SOL    HW220661   2.001   5.698   4.115
 6588SOL     OW20662   1.433   3.895   0.843
 6588SOL    HW120663   1.486   3.826   0.794
 6588SOL    HW220664   1.487   3.979   0.851
 6589SOL     OW20665   4.776   0.304   6.621
 6589SOL    HW120666   4.780   0.402   6.640
 6589SOL    HW220667   4.680   0.275   6.616
 6590SOL     OW20668   0.394   1.601   4.750
 6590SOL    HW120669   0.489   1.598   4.719
 6590SOL    HW220670   0.367   1.695   4.767
 6591SOL     OW20671   5.711   6.866   2.613
 6591SOL    HW120672   5.698   6.961   2.641
 6591SOL    HW220673   5.665   6.805   2.677
 6592SOL     OW20674   4.025   0.653   4.470
 6592SOL    HW120675   4.085   0.686   4.543
 6592SOL    HW220676   3.940   0.705   4.470
 6593SOL     OW20677   2.594   2.258   3.856
 6593SOL    HW120678   2.539   2.178   3.880
 6593SOL    HW220679   2.591   2.324   3.931
 6594SOL     OW20680   4.856   0.780   6.987
 6594SOL    HW120681   4.834   0.734   6.901
 6594SOL    HW220682   4.900   0.715   0.024
 6595SOL     OW20683   1.577   3.806   1.440
 6595SOL    HW120684   1.550   3.732   1.502
 6595SOL    HW220685   1.607   3.884   1.494
 6596SOL     OW20686   4.308   0.721   5.898
 6596SOL    HW120687   4.225   0.756   5.855
 6596SOL    HW220688   4.385   0.733   5.835
 6597SOL     OW20689   0.545   6.368   4.544
 6597SOL    HW120690   0.581   6.294   4.487
 6597SOL    HW220691   0.594   6.369   4.631
 6598SOL     OW20692   1.381   5.364   4.799
 6598SOL    HW120693   1.397   5.307   4.718
 6598SOL    HW220694   1.469   5.391   4.838
 6599SOL     OW20695   4.222   4.936   5.885
 6599SOL    HW120696   4.159   4.860   5.900
 6599SOL    HW220697   4.171   5.021   5.876
 6600SOL     OW20698   4.837   4.856   5.072
 6600SOL    HW120699   4.858   4.800   5.151
 6600SOL    HW220700   4.812   4.797   4.995
 6601SOL     OW20701   0.821   0.552   0.529
 6601SOL    HW120702   0.899   0.594   0.575
 6601SOL    HW220703   0.792   0.609   0.453
 6602SOL     OW20704   0.706   2.695   1.271
 6602SOL    HW120705   0.786   2.746   1.302
 6602SOL    HW220706   0.683   2.722   1.178
 6603SOL     OW20707   1.967   3.582   3.823
 6603SOL    HW120708   1.975   3.483   3.817
 6603SOL    HW220709   2.029   3.625   3.757
 6604SOL     OW20710   2.503   5.861   1.819
 6604SOL    HW120711   2.460   5.772   1.837
 6604SOL    HW220712   2.517   5.909   1.906
 6605SOL     OW20713   5.253   5.786   0.317
 6605SOL    HW120714   5.313   5.811   0.241
 6605SOL    HW220715   5.162   5.826   0.302
 6606SOL     OW20716   4.775   0.599   2.515
 6606SOL    HW120717   4.686   0.641   2.502
 6606SOL    HW220718   4.785   0.571   2.611
 6607SOL     OW20719   2.270   1.205   1.962
 6607SOL    HW120720   2.226   1.199   1.873
 6607SOL    HW220721   2.201   1.195   2.034
 6608SOL     OW20722   5.532   3.189   2.861
 6608SOL    HW120723   5.443   3.218   2.828
 6608SOL    HW220724   5.538   3.205   2.960
 6609SOL     OW20725   5.446   0.599   0.065
 6609SOL    HW120726   5.358   0.560   0.039
 6609SOL    HW220727   5.445   0.697   0.046
 6610SOL     OW20728   1.903   0.523   0.145
 6610SOL    HW120729   1.937   0.430   0.155
 6610SOL    HW220730   1.936   0.562   0.059
 6611SOL     OW20731   6.728   2.643   2.965
 6611SOL    HW120732   6.771   2.615   3.051
 6611SOL    HW220733   6.648   2.586   2.949
 6612SOL     OW20734   1.296   5.384   6.287
 6612SOL    HW120735   1.386   5.394   6.244
 6612SOL    HW220736   1.286   5.292   6.323
 6613SOL     OW20737   5.050   5.262   2.952
 6613SOL    HW120738   5.041   5.359   2.973
 6613SOL    HW220739   5.050   5.249   2.853
 6614SOL     OW20740   5.070   6.019   5.989
 6614SOL    HW120741   4.975   6.031   5.959
 6614SOL    HW220742   5.074   6.022   6.088
 6615SOL     OW20743   0.159   3.524   5.076
 6615SOL    HW120744   0.148   3.551   4.981
 6615SOL    HW220745   0.097   3.577   5.133
 6616SOL     OW20746   4.480   1.431   5.688
 6616SOL    HW120747   4.414   1.475   5.628
 6616SOL    HW220748   4.568   1.424   5.641
 6617SOL     OW20749   3.270   6.771   3.747
 6617SOL    HW120750   3.311   6.862   3.754
 6617SOL    HW220751   3.329   6.703   3.790
 6618SOL     OW20752   0.749   3.381   2.116
 6618SOL    HW120753   0.662   3.427   2.134
 6618SOL    HW220754   0.767   3.314   2.188
 6619SOL     OW20755   4.253   0.016   3.783
 6619SOL    HW120756   4.200   0.096   3.811
 6619SOL    HW220757   4.351   0.038   3.787
 6620SOL     OW20758   1.647   3.045   5.992
 6620SOL    HW120759   1.731   3.076   5.947
 6620SOL    HW220760   1.667   2.960   6.042
 6621SOL     OW20761   2.559   4.093   0.385
 6621SOL    HW120762   2.480   4.087   0.445
 6621SOL    HW220763   2.643   4.080   0.438
 6622SOL     OW20764   6.523   6.097   1.037
 6622SOL    HW120765   6.552   6.037   0.962
 6622SOL    HW220766   6.462   6.046   1.099
 6623SOL     OW20767   3.514   3.104   2.099
 6623SOL    HW120768   3.530   3.134   2.005
 6623SOL    HW220769   3.447   3.030   2.099
 6624SOL     OW20770   2.901   5.669   5.044
 6624SOL    HW120771   2.902   5.572   5.021
 6624SOL    HW220772   2.824   5.713   4.997
 6625SOL     OW20773   5.994   1.073   6.642
 6625SOL    HW120774   6.010   1.059   6.740
 6625SOL    HW220775   6.046   1.152   6.610
 6626SOL     OW20776   3.225   5.770   3.024
 6626SOL    HW120777   3.289   5.783   3.099
 6626SOL    HW220778   3.234   5.677   2.989
 6627SOL     OW20779   1.846   0.503   6.196
 6627SOL    HW120780   1.899   0.441   6.253
 6627SOL    HW220781   1.775   0.451   6.148
 6628SOL     OW20782   4.939   4.893   2.438
 6628SOL    HW120783   4.849   4.885   2.396
 6628SOL    HW220784   4.968   4.804   2.471
 6629SOL     OW20785   3.139   5.964   1.186
 6629SOL    HW120786   3.159   5.874   1.225
 6629SOL    HW220787   3.143   6.033   1.259
 6630SOL     OW20788   3.733   1.370   0.127
 6630SOL    HW120789   3.688   1.315   0.056
 6630SOL    HW220790   3.800   1.431   0.085
 6631SOL     OW20791   4.495   0.441   1.913
 6631SOL    HW120792   4.429   0.505   1.954
 6631SOL    HW220793   4.588   0.476   1.926
 6632SOL     OW20794   0.165   1.876   0.828
 6632SOL    HW120795   0.144   1.969   0.798
 6632SOL    HW220796   0.081   1.831   0.857
 6633SOL     OW20797   1.069   5.481   6.694
 6633SOL    HW120798   1.043   5.427   6.614
 6633SOL    HW220799   1.055   5.578   6.675
 6634SOL     OW20800   6.257   3.088   6.143
 6634SOL    HW120801   6.221   3.179   6.125
 6634SOL    HW220802   6.192   3.037   6.200
 6635SOL     OW20803   4.183   5.352   3.301
 6635SOL    HW120804   4.230   5.269   3.272
 6635SOL    HW220805   4.088   5.350   3.271
 6636SOL     OW20806   1.380   3.203   5.682
 6636SOL    HW120807   1.327   3.270   5.630
 6636SOL    HW220808   1.374   3.224   5.779
 6637SOL     OW20809   1.206   0.676   0.278
 6637SOL    HW120810   1.108   0.689   0.291
 6637SOL    HW220811   1.250   0.665   0.367
 6638SOL     OW20812   2.713   5.163   4.633
 6638SOL    HW120813   2.632   5.203   4.676
 6638SOL    HW220814   2.749   5.090   4.691
 6639SOL     OW20815   5.481   5.253   6.170
 6639SOL    HW120816   5.509   5.225   6.262
 6639SOL    HW220817   5.434   5.340   6.174
 6640SOL     OW20818   6.997   1.672   4.293
 6640SOL    HW120819   7.011   1.754   4.238
 6640SOL    HW220820   0.053   1.614   4.288
 6641SOL     OW20821   3.431   3.867   6.565
 6641SOL    HW120822   3.361   3.806   6.603
 6641SOL    HW220823   3.392   3.920   6.490
 6642SOL     OW20824   1.881   5.153   6.862
 6642SOL    HW120825   1.920   5.158   6.770
 6642SOL    HW220826   1.789   5.194   6.861
 6643SOL     OW20827   6.256   4.470   6.262
 6643SOL    HW120828   6.257   4.488   6.360
 6643SOL    HW220829   6.304   4.383   6.244
 6644SOL     OW20830   2.978   4.783   1.802
 6644SOL    HW120831   2.920   4.723   1.858
 6644SOL    HW220832   3.059   4.732   1.773
 6645SOL     OW20833   0.017   5.039   0.088
 6645SOL    HW120834   0.069   4.991   0.018
 6645SOL    HW220835   0.006   4.979   0.168
 6646SOL     OW20836   3.944   5.435   4.264
 6646SOL    HW120837   3.959   5.413   4.361
 6646SOL    HW220838   3.978   5.527   4.246
 6647SOL     OW20839   3.156   0.538   2.569
 6647SOL    HW120840   3.251   0.569   2.572
 6647SOL    HW220841   3.103   0.601   2.512
 6648SOL     OW20842   3.928   5.731   3.012
 6648SOL    HW120843   4.005   5.772   3.062
 6648SOL    HW220844   3.945   5.739   2.914
 6649SOL     OW20845   5.100   1.975   6.362
 6649SOL    HW120846   5.197   1.997   6.351
 6649SOL    HW220847   5.056   1.969   6.273
 6650SOL     OW20848   4.019   0.906   3.230
 6650SOL    HW120849   3.946   0.839   3.220
 6650SOL    HW220850   4.040   0.946   3.140
 6651SOL     OW20851   1.590   2.155   0.513
 6651SOL    HW120852   1.653   2.143   0.436
 6651SOL    HW220853   1.497   2.133   0.484
 6652SOL     OW20854   6.712   4.371   1.103
 6652SOL    HW120855   6.782   4.437   1.076
 6652SOL    HW220856   6.729   4.284   1.057
 6653SOL     OW20857   3.660   4.109   3.034
 6653SOL    HW120858   3.695   4.200   3.055
 6653SOL    HW220859   3.560   4.110   3.041
 6654SOL     OW20860   1.731   2.658   1.239
 6654SOL    HW120861   1.666   2.685   1.168
 6654SOL    HW220862   1.784   2.580   1.206
 6655SOL     OW20863   2.786   6.857   1.932
 6655SOL    HW120864   2.719   6.919   1.892
 6655SOL    HW220865   2.745   6.768   1.949
 6656SOL     OW20866   6.786   0.687   2.629
 6656SOL    HW120867   6.847   0.721   2.700
 6656SOL    HW220868   6.838   0.670   2.545
 6657SOL     OW20869   4.296   0.007   6.101
 6657SOL    HW120870   4.352   0.047   6.028
 6657SOL    HW220871   4.333   6.943   6.125
 6658SOL     OW20872   5.932   0.774   5.105
 6658SOL    HW120873   6.013   0.786   5.047
 6658SOL    HW220874   5.851   0.772   5.047
 6659SOL     OW20875   2.798   2.734   0.023
 6659SOL    HW120876   2.789   2.757   0.119
 6659SOL    HW220877   2.727   2.780   6.996
 6660SOL     OW20878   0.016   6.580   1.913
 6660SOL    HW120879   6.969   6.568   1.980
 6660SOL    HW220880   7.015   6.650   1.847
 6661SOL     OW20881   6.456   5.105   3.893
 6661SOL    HW120882   6.384   5.037   3.880
 6661SOL    HW220883   6.432   5.189   3.843
 6662SOL     OW20884   2.076   1.408   0.476
 6662SOL    HW120885   2.076   1.308   0.482
 6662SOL    HW220886   2.152   1.445   0.529
 6663SOL     OW20887   6.769   5.480   3.373
 6663SOL    HW120888   6.669   5.479   3.375
 6663SOL    HW220889   6.801   5.414   3.306
 6664SOL     OW20890   1.476   0.138   1.559
 6664SOL    HW120891   1.478   0.232   1.595
 6664SOL    HW220892   1.457   0.074   1.633
 6665SOL     OW20893   0.915   6.779   3.148
 6665SOL    HW120894   0.987   6.712   3.133
 6665SOL    HW220895   0.826   6.734   3.144
 6666SOL     OW20896   6.360   1.424   4.831
 6666SOL    HW120897   6.359   1.460   4.924
 6666SOL    HW220898   6.452   1.393   4.808
 6667SOL     OW20899   5.993   5.301   5.141
 6667SOL    HW120900   6.060   5.272   5.073
 6667SOL    HW220901   6.036   5.304   5.231
 6668SOL     OW20902   0.095   5.372   2.154
 6668SOL    HW120903   0.145   5.451   2.191
 6668SOL    HW220904   0.159   5.295   2.144
 6669SOL     OW20905   2.049   4.898   3.134
 6669SOL    HW120906   1.975   4.833   3.150
 6669SOL    HW220907   2.031   4.948   3.049
 6670SOL     OW20908   3.386   4.868   6.750
 6670SOL    HW120909   3.333   4.810   6.687
 6670SOL    HW220910   3.467   4.818   6.781
 6671SOL     OW20911   6.072   4.716   6.970
 6671SOL    HW120912   6.053   4.804   7.013
 6671SOL    HW220913   6.024   4.643   7.019
 6672SOL     OW20914   1.548   0.573   6.017
 6672SOL    HW120915   1.450   0.563   6.036
 6672SOL    HW220916   1.569   0.669   5.998
 6673SOL     OW20917   4.926   5.414   2.380
 6673SOL    HW120918   4.906   5.320   2.409
 6673SOL    HW220919   5.018   5.439   2.410
 6674SOL     OW20920   0.774   5.764   5.646
 6674SOL    HW120921   0.782   5.672   5.684
 6674SOL    HW220922   0.719   5.821   5.708
 6675SOL     OW20923   5.397   3.957   0.451
 6675SOL    HW120924   5.299   3.942   0.438
 6675SOL    HW220925   5.415   3.975   0.548
 6676SOL     OW20926   0.873   3.315   5.100
 6676SOL    HW120927   0.840   3.230   5.059
 6676SOL    HW220928   0.932   3.294   5.178
 6677SOL     OW20929   0.071   3.332   0.103
 6677SOL    HW120930   0.124   3.305   0.183
 6677SOL    HW220931   0.047   3.429   0.110
 6678SOL     OW20932   1.196   3.058   6.674
 6678SOL    HW120933   1.180   2.986   6.606
 6678SOL    HW220934   1.295   3.067   6.690
 6679SOL     OW20935   1.554   2.133   5.049
 6679SOL    HW120936   1.626   2.081   5.003
 6679SOL    HW220937   1.538   2.094   5.140
 6680SOL     OW20938   3.597   5.609   6.158
 6680SOL    HW120939   3.687   5.581   6.124
 6680SOL    HW220940   3.601   5.702   6.194
 6681SOL     OW20941   5.463   5.599   6.658
 6681SOL    HW120942   5.525   5.531   6.620
 6681SOL    HW220943   5.494   5.625   6.750
 6682SOL     OW20944   0.170   4.715   2.480
 6682SOL    HW120945   0.148   4.811   2.463
 6682SOL    HW220946   0.086   4.662   2.482
 6683SOL     OW20947   4.762   2.311   5.481
 6683SOL    HW120948   4.797   2.217   5.482
 6683SOL    HW220949   4.701   2.324   5.403
 6684SOL     OW20950   1.882   0.004   2.305
 6684SOL    HW120951   1.890   0.061   2.223
 6684SOL    HW220952   1.897   6.934   2.280
 6685SOL     OW20953   5.710   2.311   6.744
 6685SOL    HW120954   5.622   2.328   6.789
 6685SOL    HW220955   5.765   2.251   6.802
 6686SOL     OW20956   6.106   4.182   4.461
 6686SOL    HW120957   6.139   4.088   4.461
 6686SOL    HW220958   6.123   4.224   4.372
 6687SOL     OW20959   1.467   1.496   0.942
 6687SOL    HW120960   1.422   1.516   1.029
 6687SOL    HW220961   1.398   1.489   0.870
 6688SOL     OW20962   0.153   4.644   2.749
 6688SOL    HW120963   0.186   4.705   2.821
 6688SOL    HW220964   0.196   4.668   2.662
 6689SOL     OW20965   4.610   3.389   1.103
 6689SOL    HW120966   4.702   3.425   1.117
 6689SOL    HW220967   4.586   3.330   1.180
 6690SOL     OW20968   2.462   2.448   1.495
 6690SOL    HW120969   2.545   2.471   1.545
 6690SOL    HW220970   2.387   2.506   1.525
 6691SOL     OW20971   2.447   5.392   1.348
 6691SOL    HW120972   2.439   5.391   1.248
 6691SOL    HW220973   2.357   5.378   1.389
 6692SOL     OW20974   3.056   4.210   5.257
 6692SOL    HW120975   3.141   4.228   5.307
 6692SOL    HW220976   3.019   4.296   5.223
 6693SOL     OW20977   4.360   3.898   5.925
 6693SOL    HW120978   4.371   3.850   6.012
 6693SOL    HW220979   4.263   3.908   5.905
 6694SOL     OW20980   4.449   6.278   0.819
 6694SOL    HW120981   4.535   6.277   0.767
 6694SOL    HW220982   4.373   6.299   0.758
 6695SOL     OW20983   0.809   1.206   6.726
 6695SOL    HW120984   0.842   1.115   6.751
 6695SOL    HW220985   0.752   1.243   6.799
 6696SOL     OW20986   2.045   2.735   1.621
 6696SOL    HW120987   2.060   2.825   1.579
 6696SOL    HW220988   1.956   2.733   1.665
 6697SOL     OW20989   4.919   1.279   2.754
 6697SOL    HW120990   4.874   1.329   2.679
 6697SOL    HW220991   5.019   1.286   2.743
 6698SOL     OW20992   4.003   3.039   0.404
 6698SOL    HW120993   4.053   2.985   0.336
 6698SOL    HW220994   4.025   3.136   0.391
 6699SOL     OW20995   3.738   4.714   6.916
 6699SOL    HW120996   3.768   4.807   6.893
 6699SOL    HW220997   3.808   4.668   6.969
 6700SOL     OW20998   0.531   5.704   1.372
 6700SOL    HW120999   0.502   5.694   1.468
 6700SOL    HW221000   0.566   5.796   1.357
 6701SOL     OW21001   6.542   1.937   0.905
 6701SOL    HW121002   6.605   1.896   0.840
 6701SOL    HW221003   6.463   1.975   0.856
 6702SOL     OW21004   2.928   1.771   0.718
 6702SOL    HW121005   2.950   1.811   0.807
 6702SOL    HW221006   2.968   1.680   0.712
 6703SOL     OW21007   6.527   1.842   6.943
 6703SOL    HW121008   6.618   1.807   6.920
 6703SOL    HW221009   6.537   1.919   7.005
 6704SOL     OW21010   4.393   2.421   2.510
 6704SOL    HW121011   4.482   2.461   2.486
 6704SOL    HW221012   4.333   2.423   2.430
 6705SOL     OW21013   6.637   2.437   1.734
 6705SOL    HW121014   6.733   2.415   1.755
 6705SOL    HW221015   6.577   2.398   1.804
 6706SOL     OW21016   0.876   3.512   0.581
 6706SOL    HW121017   0.871   3.493   0.483
 6706SOL    HW221018   0.944   3.583   0.597
 6707SOL     OW21019   6.252   5.810   4.603
 6707SOL    HW121020   6.206   5.784   4.687
 6707SOL    HW221021   6.215   5.757   4.527
 6708SOL     OW21022   1.266   5.297   2.004
 6708SOL    HW121023   1.340   5.308   2.070
 6708SOL    HW221024   1.245   5.200   1.992
 6709SOL     OW21025   3.773   6.679   1.948
 6709SOL    HW121026   3.870   6.687   1.925
 6709SOL    HW221027   3.719   6.725   1.878
 6710SOL     OW21028   2.984   2.509   6.376
 6710SOL    HW121029   2.943   2.475   6.292
 6710SOL    HW221030   3.078   2.538   6.359
 6711SOL     OW21031   5.242   3.940   6.469
 6711SOL    HW121032   5.242   4.039   6.482
 6711SOL    HW221033   5.196   3.918   6.383
 6712SOL     OW21034   4.065   5.288   0.286
 6712SOL    HW121035   4.155   5.322   0.314
 6712SOL    HW221036   4.011   5.267   0.367
 6713SOL     OW21037   2.744   2.170   1.479
 6713SOL    HW121038   2.704   2.196   1.567
 6713SOL    HW221039   2.699   2.221   1.405
 6714SOL     OW21040   5.346   0.293   4.858
 6714SOL    HW121041   5.300   0.271   4.944
 6714SOL    HW221042   5.435   0.336   4.877
 6715SOL     OW21043   0.922   2.039   0.469
 6715SOL    HW121044   0.971   1.970   0.523
 6715SOL    HW221045   0.972   2.125   0.470
 6716SOL     OW21046   1.965   6.219   0.942
 6716SOL    HW121047   2.051   6.251   0.980
 6716SOL    HW221048   1.982   6.140   0.883
 6717SOL     OW21049   3.208   3.992   0.434
 6717SOL    HW121050   3.148   4.048   0.376
 6717SOL    HW221051   3.297   3.981   0.389
 6718SOL     OW21052   3.544   6.317   6.493
 6718SOL    HW121053   3.486   6.336   6.572
 6718SOL    HW221054   3.489   6.274   6.421
 6719SOL     OW21055   0.298   6.994   5.894
 6719SOL    HW121056   0.278   6.897   5.909
 6719SOL    HW221057   0.217   0.023   5.916
 6720SOL     OW21058   1.979   6.026   1.766
 6720SOL    HW121059   1.970   6.034   1.666
 6720SOL    HW221060   2.055   5.966   1.788
 6721SOL     OW21061   5.369   6.348   4.547
 6721SOL    HW121062   5.437   6.391   4.488
 6721SOL    HW221063   5.279   6.356   4.506
 6722SOL     OW21064   4.637   3.150   0.183
 6722SOL    HW121065   4.659   3.052   0.182
 6722SOL    HW221066   4.712   3.201   0.141
 6723SOL     OW21067   2.310   6.515   3.006
 6723SOL    HW121068   2.359   6.545   3.088
 6723SOL    HW221069   2.238   6.582   2.983
 6724SOL     OW21070   2.930   4.650   5.387
 6724SOL    HW121071   3.027   4.669   5.401
 6724SOL    HW221072   2.920   4.586   5.310
 6725SOL     OW21073   0.924   4.667   2.352
 6725SOL    HW121074   0.968   4.626   2.432
 6725SOL    HW221075   0.901   4.594   2.287
 6726SOL     OW21076   2.133   3.308   4.692
 6726SOL    HW121077   2.160   3.404   4.693
 6726SOL    HW221078   2.035   3.301   4.712
 6727SOL     OW21079   5.055   3.595   6.514
 6727SOL    HW121080   5.061   3.616   6.611
 6727SOL    HW221081   5.042   3.679   6.462
 6728SOL     OW21082   3.658   2.137   4.427
 6728SOL    HW121083   3.748   2.158   4.388
 6728SOL    HW221084   3.591   2.129   4.353
 6729SOL     OW21085   7.001   0.393   2.699
 6729SOL    HW121086   6.948   0.369   2.618
 6729SOL    HW221087   0.041   0.465   2.676
 6730SOL     OW21088   2.797   0.354   0.414
 6730SOL    HW121089   2.829   0.307   0.331
 6730SOL    HW221090   2.876   0.382   0.468
 6731SOL     OW21091   2.743   4.394   1.329
 6731SOL    HW121092   2.746   4.295   1.314
 6731SOL    HW221093   2.830   4.435   1.302
 6732SOL     OW21094   2.345   6.682   0.509
 6732SOL    HW121095   2.326   6.776   0.479
 6732SOL    HW221096   2.330   6.676   0.608
 6733SOL     OW21097   4.276   5.807   5.805
 6733SOL    HW121098   4.296   5.716   5.842
 6733SOL    HW221099   4.181   5.831   5.824
 6734SOL     OW21100   1.033   3.509   5.802
 6734SOL    HW121101   1.132   3.504   5.811
 6734SOL    HW221102   0.992   3.423   5.833
 6735SOL     OW21103   0.071   4.747   5.900
 6735SOL    HW121104   0.135   4.775   5.973
 6735SOL    HW221105   7.003   4.750   5.935
 6736SOL     OW21106   2.672   3.131   1.598
 6736SOL    HW121107   2.669   3.216   1.545
 6736SOL    HW221108   2.579   3.106   1.625
 6737SOL     OW21109   2.056   1.600   2.463
 6737SOL    HW121110   2.050   1.604   2.363
 6737SOL    HW221111   2.083   1.509   2.492
 6738SOL     OW21112   2.217   1.851   2.582
 6738SOL    HW121113   2.310   1.856   2.619
 6738SOL    HW221114   2.151   1.847   2.657
 6739SOL     OW21115   4.119   6.036   4.901
 6739SOL    HW121116   4.092   6.066   4.992
 6739SOL    HW221117   4.175   6.106   4.857
 6740SOL     OW21118   1.461   1.153   4.419
 6740SOL    HW121119   1.558   1.179   4.424
 6740SOL    HW221120   1.411   1.222   4.366
 6741SOL     OW21121   6.105   0.911   6.039
 6741SOL    HW121122   6.106   0.960   5.952
 6741SOL    HW221123   6.063   0.968   6.109
 6742SOL     OW21124   6.360   5.612   5.341
 6742SOL    HW121125   6.345   5.670   5.421
 6742SOL    HW221126   6.283   5.622   5.278
 6743SOL     OW21127   3.902   3.583   1.228
 6743SOL    HW121128   3.970   3.656   1.233
 6743SOL    HW221129   3.936   3.509   1.170
 6744SOL     OW21130   4.573   4.531   5.543
 6744SOL    HW121131   4.592   4.610   5.484
 6744SOL    HW221132   4.658   4.483   5.564
 6745SOL     OW21133   0.781   4.849   2.863
 6745SOL    HW121134   0.784   4.914   2.938
 6745SOL    HW221135   0.870   4.848   2.816
 6746SOL     OW21136   0.735   1.953   1.421
 6746SOL    HW121137   0.717   2.013   1.499
 6746SOL    HW221138   0.789   1.874   1.451
 6747SOL     OW21139   5.353   5.635   4.846
 6747SOL    HW121140   5.309   5.571   4.784
 6747SOL    HW221141   5.292   5.712   4.864
 6748SOL     OW21142   1.037   0.690   2.506
 6748SOL    HW121143   0.971   0.744   2.454
 6748SOL    HW221144   1.120   0.744   2.522
 6749SOL     OW21145   4.153   0.709   6.864
 6749SOL    HW121146   4.182   0.645   6.793
 6749SOL    HW221147   4.154   0.802   6.828
 6750SOL     OW21148   2.734   2.399   4.885
 6750SOL    HW121149   2.663   2.440   4.828
 6750SOL    HW221150   2.798   2.348   4.827
 6751SOL     OW21151   2.540   2.557   4.764
 6751SOL    HW121152   2.475   2.580   4.691
 6751SOL    HW221153   2.534   2.625   4.837
 6752SOL     OW21154   5.505   2.868   0.845
 6752SOL    HW121155   5.408   2.866   0.820
 6752SOL    HW221156   5.529   2.783   0.891
 6753SOL     OW21157   4.179   1.838   6.520
 6753SOL    HW121158   4.127   1.800   6.443
 6753SOL    HW221159   4.277   1.824   6.505
 6754SOL     OW21160   5.965   1.705   6.466
 6754SOL    HW121161   5.989   1.654   6.383
 6754SOL    HW221162   5.928   1.642   6.535
 6755SOL     OW21163   5.324   1.926   3.459
 6755SOL    HW121164   5.236   1.942   3.415
 6755SOL    HW221165   5.354   2.010   3.506
 6756SOL     OW21166   5.012   5.254   4.188
 6756SOL    HW121167   5.038   5.157   4.183
 6756SOL    HW221168   4.913   5.261   4.189
 6757SOL     OW21169   5.699   6.297   2.105
 6757SOL    HW121170   5.608   6.256   2.106
 6757SOL    HW221171   5.749   6.266   2.025
 6758SOL     OW21172   5.073   3.346   2.199
 6758SOL    HW121173   5.133   3.379   2.271
 6758SOL    HW221174   5.124   3.340   2.113
 6759SOL     OW21175   1.462   4.843   2.819
 6759SOL    HW121176   1.479   4.940   2.803
 6759SOL    HW221177   1.381   4.833   2.877
 6760SOL     OW21178   6.739   4.226   3.981
 6760SOL    HW121179   6.828   4.256   3.946
 6760SOL    HW221180   6.727   4.129   3.962
 6761SOL     OW21181   5.087   3.024   5.533
 6761SOL    HW121182   5.024   2.958   5.575
 6761SOL    HW221183   5.045   3.115   5.533
 6762SOL     OW21184   6.734   4.273   3.417
 6762SOL    HW121185   6.783   4.187   3.401
 6762SOL    HW221186   6.737   4.329   3.334
 6763SOL     OW21187   6.179   6.913   5.410
 6763SOL    HW121188   6.096   6.964   5.433
 6763SOL    HW221189   6.256   6.975   5.400
 6764SOL     OW21190   3.129   3.850   6.645
 6764SOL    HW121191   3.045   3.855   6.699
 6764SOL    HW221192   3.106   3.838   6.549
 6765SOL     OW21193   6.258   3.774   2.110
 6765SOL    HW121194   6.321   3.746   2.183
 6765SOL    HW221195   6.171   3.801   2.150
 6766SOL     OW21196   2.350   0.510   5.184
 6766SOL    HW121197   2.366   0.608   5.174
 6766SOL    HW221198   2.367   0.483   5.279
 6767SOL     OW21199   0.862   2.635   6.171
 6767SOL    HW121200   0.827   2.663   6.261
 6767SOL    HW221201   0.957   2.607   6.179
 6768SOL     OW21202   0.517   0.043   4.249
 6768SOL    HW121203   0.433   0.058   4.301
 6768SOL    HW221204   0.499   0.058   4.152
 6769SOL     OW21205   1.998   2.754   5.362
 6769SOL    HW121206   1.902   2.765   5.335
 6769SOL    HW221207   2.040   2.844   5.373
 6770SOL     OW21208   0.518   1.456   3.244
 6770SOL    HW121209   0.486   1.414   3.329
 6770SOL    HW221210   0.613   1.485   3.254
 6771SOL     OW21211   3.818   2.006   3.390
 6771SOL    HW121212   3.728   1.969   3.365
 6771SOL    HW221213   3.872   1.934   3.435
 6772SOL     OW21214   6.983   1.963   2.434
 6772SOL    HW121215   6.901   1.911   2.408
 6772SOL    HW221216   0.036   1.902   2.434
 6773SOL     OW21217   0.424   5.977   1.882
 6773SOL    HW121218   0.489   6.042   1.920
 6773SOL    HW221219   0.451   5.884   1.907
 6774SOL     OW21220   2.268   2.573   5.706
 6774SOL    HW121221   2.296   2.619   5.621
 6774SOL    HW221222   2.307   2.481   5.708
 6775SOL     OW21223   0.779   2.379   4.947
 6775SOL    HW121224   0.827   2.344   5.027
 6775SOL    HW221225   0.715   2.310   4.914
 6776SOL     OW21226   3.658   4.125   2.638
 6776SOL    HW121227   3.707   4.101   2.554
 6776SOL    HW221228   3.704   4.081   2.716
 6777SOL     OW21229   5.920   5.318   0.402
 6777SOL    HW121230   5.833   5.363   0.382
 6777SOL    HW221231   5.903   5.228   0.442
 6778SOL     OW21232   6.762   4.757   2.531
 6778SOL    HW121233   6.803   4.846   2.512
 6778SOL    HW221234   6.689   4.739   2.465
 6779SOL     OW21235   5.678   4.303   5.872
 6779SOL    HW121236   5.649   4.239   5.943
 6779SOL    HW221237   5.694   4.393   5.913
 6780SOL     OW21238   2.851   2.060   2.883
 6780SOL    HW121239   2.862   2.022   2.791
 6780SOL    HW221240   2.942   2.072   2.925
 6781SOL     OW21241   6.911   1.364   4.363
 6781SOL    HW121242   6.991   1.318   4.322
 6781SOL    HW221243   6.919   1.463   4.349
 6782SOL     OW21244   6.973   1.594   3.227
 6782SOL    HW121245   6.972   1.609   3.326
 6782SOL    HW221246   0.028   1.639   3.187
 6783SOL     OW21247   1.706   5.004   5.028
 6783SOL    HW121248   1.796   5.043   5.007
 6783SOL    HW221249   1.665   4.970   4.944
 6784SOL     OW21250   2.328   3.911   1.499
 6784SOL    HW121251   2.342   3.826   1.550
 6784SOL    HW221252   2.280   3.977   1.556
 6785SOL     OW21253   5.108   5.377   4.405
 6785SOL    HW121254   5.089   5.334   4.317
 6785SOL    HW221255   5.023   5.389   4.455
 6786SOL     OW21256   6.437   2.407   6.916
 6786SOL    HW121257   6.480   2.465   6.846
 6786SOL    HW221258   6.409   2.320   6.875
 6787SOL     OW21259   3.884   1.976   6.526
 6787SOL    HW121260   3.794   1.956   6.565
 6787SOL    HW221261   3.950   1.990   6.599
 6788SOL     OW21262   6.088   4.023   2.973
 6788SOL    HW121263   6.012   4.089   2.965
 6788SOL    HW221264   6.051   3.931   2.981
 6789SOL     OW21265   6.343   4.016   3.962
 6789SOL    HW121266   6.375   3.931   3.920
 6789SOL    HW221267   6.303   3.996   4.051
 6790SOL     OW21268   0.933   5.319   5.786
 6790SOL    HW121269   0.922   5.232   5.834
 6790SOL    HW221270   1.005   5.311   5.718
 6791SOL     OW21271   3.502   0.521   3.154
 6791SOL    HW121272   3.427   0.474   3.201
 6791SOL    HW221273   3.499   0.619   3.177
 6792SOL     OW21274   3.767   6.984   5.388
 6792SOL    HW121275   3.847   0.017   5.378
 6792SOL    HW221276   3.685   0.015   5.398
 6793SOL     OW21277   1.796   3.814   0.198
 6793SOL    HW121278   1.863   3.877   0.158
 6793SOL    HW221279   1.841   3.757   0.268
 6794SOL     OW21280   4.972   1.806   5.395
 6794SOL    HW121281   5.040   1.759   5.451
 6794SOL    HW221282   4.993   1.792   5.298
 6795SOL     OW21283   1.157   1.182   1.041
 6795SOL    HW121284   1.196   1.173   0.949
 6795SOL    HW221285   1.192   1.266   1.083
 6796SOL     OW21286   6.562   1.028   2.978
 6796SOL    HW121287   6.594   1.043   2.884
 6796SOL    HW221288   6.545   1.116   3.022
 6797SOL     OW21289   1.137   2.683   0.960
 6797SOL    HW121290   1.126   2.769   1.009
 6797SOL    HW221291   1.052   2.658   0.914
 6798SOL     OW21292   5.360   0.432   1.497
 6798SOL    HW121293   5.457   0.430   1.523
 6798SOL    HW221294   5.332   0.527   1.480
 6799SOL     OW21295   6.138   0.785   3.448
 6799SOL    HW121296   6.184   0.723   3.384
 6799SOL    HW221297   6.079   0.733   3.509
 6800SOL     OW21298   0.166   2.023   1.623
 6800SOL    HW121299   0.084   2.062   1.665
 6800SOL    HW221300   0.211   2.092   1.566
 6801SOL     OW21301   0.796   5.971   5.292
 6801SOL    HW121302   0.879   5.992   5.241
 6801SOL    HW221303   0.812   5.894   5.353
 6802SOL     OW21304   2.971   4.861   2.106
 6802SOL    HW121305   2.927   4.795   2.045
 6802SOL    HW221306   2.968   4.827   2.200
 6803SOL     OW21307   5.033   4.938   5.861
 6803SOL    HW121308   5.118   4.980   5.893
 6803SOL    HW221309   4.985   4.896   5.938
 6804SOL     OW21310   3.202   4.871   3.179
 6804SOL    HW121311   3.233   4.964   3.201
 6804SOL    HW221312   3.281   4.811   3.167
 6805SOL     OW21313   0.033   4.052   5.320
 6805SOL    HW121314   6.979   3.999   5.294
 6805SOL    HW221315   0.007   4.124   5.385
 6806SOL     OW21316   0.098   2.177   2.509
 6806SOL    HW121317   0.063   2.095   2.462
 6806SOL    HW221318   0.191   2.160   2.541
 6807SOL     OW21319   3.041   4.070   1.860
 6807SOL    HW121320   3.125   4.074   1.914
 6807SOL    HW221321   3.022   3.976   1.834
 6808SOL     OW21322   3.437   1.134   4.520
 6808SOL    HW121323   3.340   1.154   4.514
 6808SOL    HW221324   3.450   1.046   4.566
 6809SOL     OW21325   5.614   3.063   0.974
 6809SOL    HW121326   5.545   3.133   0.993
 6809SOL    HW221327   5.571   2.984   0.929
 6810SOL     OW21328   2.523   0.373   4.408
 6810SOL    HW121329   2.477   0.288   4.382
 6810SOL    HW221330   2.600   0.389   4.346
 6811SOL     OW21331   6.623   1.332   1.136
 6811SOL    HW121332   6.656   1.425   1.155
 6811SOL    HW221333   6.528   1.323   1.165
 6812SOL     OW21334   3.657   3.935   5.026
 6812SOL    HW121335   3.609   4.020   5.043
 6812SOL    HW221336   3.662   3.882   5.111
 6813SOL     OW21337   5.937   4.062   1.806
 6813SOL    HW121338   5.967   4.146   1.761
 6813SOL    HW221339   5.882   4.008   1.743
 6814SOL     OW21340   5.387   1.118   6.911
 6814SOL    HW121341   5.311   1.063   6.875
 6814SOL    HW221342   5.362   1.156   7.000
 6815SOL     OW21343   1.802   4.756   5.662
 6815SOL    HW121344   1.883   4.743   5.605
 6815SOL    HW221345   1.731   4.802   5.609
 6816SOL     OW21346   0.602   1.110   2.863
 6816SOL    HW121347   0.540   1.032   2.871
 6816SOL    HW221348   0.593   1.168   2.944
 6817SOL     OW21349   3.501   2.094   2.209
 6817SOL    HW121350   3.570   2.165   2.193
 6817SOL    HW221351   3.474   2.053   2.122
 6818SOL     OW21352   1.532   6.911   5.273
 6818SOL    HW121353   1.505   6.850   5.347
 6818SOL    HW221354   1.576   6.857   5.201
 6819SOL     OW21355   5.036   4.225   1.693
 6819SOL    HW121356   5.084   4.225   1.781
 6819SOL    HW221357   4.976   4.305   1.688
 6820SOL     OW21358   2.955   5.945   1.877
 6820SOL    HW121359   2.900   5.879   1.825
 6820SOL    HW221360   3.049   5.911   1.885
 6821SOL     OW21361   3.963   2.676   5.331
 6821SOL    HW121362   4.020   2.630   5.263
 6821SOL    HW221363   3.935   2.610   5.401
 6822SOL     OW21364   6.695   2.625   6.385
 6822SOL    HW121365   6.790   2.596   6.376
 6822SOL    HW221366   6.680   2.710   6.334
 6823SOL     OW21367   6.130   3.362   6.153
 6823SOL    HW121368   6.045   3.313   6.172
 6823SOL    HW221369   6.116   3.460   6.167
 6824SOL     OW21370   0.814   0.526   5.740
 6824SOL    HW121371   0.805   0.614   5.693
 6824SOL    HW221372   0.723   0.487   5.756
 6825SOL     OW21373   5.887   4.659   1.018
 6825SOL    HW121374   5.924   4.629   0.930
 6825SOL    HW221375   5.856   4.579   1.069
 6826SOL     OW21376   6.616   3.994   3.564
 6826SOL    HW121377   6.587   4.060   3.633
 6826SOL    HW221378   6.711   4.013   3.537
 6827SOL     OW21379   4.231   5.527   4.759
 6827SOL    HW121380   4.319   5.530   4.711
 6827SOL    HW221381   4.226   5.602   4.825
 6828SOL     OW21382   2.856   2.020   2.600
 6828SOL    HW121383   2.790   1.945   2.597
 6828SOL    HW221384   2.843   2.078   2.520
 6829SOL     OW21385   4.264   6.982   4.173
 6829SOL    HW121386   4.242   0.038   4.226
 6829SOL    HW221387   4.191   6.915   4.182
 6830SOL     OW21388   5.092   0.227   3.242
 6830SOL    HW121389   5.033   0.220   3.162
 6830SOL    HW221390   5.170   0.166   3.231
 6831SOL     OW21391   1.429   1.571   6.018
 6831SOL    HW121392   1.484   1.648   5.986
 6831SOL    HW221393   1.476   1.527   6.095
 6832SOL     OW21394   3.156   2.504   0.290
 6832SOL    HW121395   3.216   2.454   0.228
 6832SOL    HW221396   3.209   2.571   0.343
 6833SOL     OW21397   3.354   4.644   5.949
 6833SOL    HW121398   3.445   4.617   5.919
 6833SOL    HW221399   3.296   4.563   5.957
 6834SOL     OW21400   5.712   0.013   1.043
 6834SOL    HW121401   5.708   0.111   1.058
 6834SOL    HW221402   5.800   7.004   1.076
 6835SOL     OW21403   2.481   1.753   4.661
 6835SOL    HW121404   2.577   1.725   4.656
 6835SOL    HW221405   2.471   1.844   4.621
 6836SOL     OW21406   2.162   4.161   5.828
 6836SOL    HW121407   2.122   4.091   5.887
 6836SOL    HW221408   2.261   4.152   5.828
 6837SOL     OW21409   0.773   0.171   1.712
 6837SOL    HW121410   0.854   0.131   1.668
 6837SOL    HW221411   0.695   0.167   1.650
 6838SOL     OW21412   2.776   3.800   5.341
 6838SOL    HW121413   2.817   3.728   5.396
 6838SOL    HW221414   2.837   3.824   5.265
 6839SOL     OW21415   5.950   2.776   4.448
 6839SOL    HW121416   6.015   2.835   4.400
 6839SOL    HW221417   5.876   2.751   4.386
 6840SOL     OW21418   2.615   6.808   5.789
 6840SOL    HW121419   2.626   6.757   5.703
 6840SOL    HW221420   2.689   6.784   5.851
 6841SOL     OW21421   4.185   5.881   1.390
 6841SOL    HW121422   4.192   5.981   1.394
 6841SOL    HW221423   4.168   5.845   1.482
 6842SOL     OW21424   0.310   3.884   6.100
 6842SOL    HW121425   0.405   3.908   6.122
 6842SOL    HW221426   0.284   3.801   6.150
 6843SOL     OW21427   3.247   2.090   2.308
 6843SOL    HW121428   3.343   2.102   2.282
 6843SOL    HW221429   3.189   2.105   2.228
 6844SOL     OW21430   4.590   5.053   3.934
 6844SOL    HW121431   4.649   5.041   4.014
 6844SOL    HW221432   4.626   5.000   3.857
 6845SOL     OW21433   4.786   4.730   2.154
 6845SOL    HW121434   4.717   4.798   2.177
 6845SOL    HW221435   4.809   4.677   2.236
 6846SOL     OW21436   3.090   3.017   2.231
 6846SOL    HW121437   3.088   2.958   2.150
 6846SOL    HW221438   3.135   2.969   2.306
 6847SOL     OW21439   6.298   3.431   1.331
 6847SOL    HW121440   6.351   3.415   1.248
 6847SOL    HW221441   6.320   3.522   1.367
 6848SOL     OW21442   0.936   6.480   3.613
 6848SOL    HW121443   0.920   6.578   3.629
 6848SOL    HW221444   0.921   6.430   3.698
 6849SOL     OW21445   3.636   6.441   3.882
 6849SOL    HW121446   3.712   6.500   3.854
 6849SOL    HW221447   3.653   6.348   3.849
 6850SOL     OW21448   5.454   3.019   2.607
 6850SOL    HW121449   5.475   3.087   2.677
 6850SOL    HW221450   5.356   3.016   2.591
 6851SOL     OW21451   1.502   5.176   5.587
 6851SOL    HW121452   1.568   5.205   5.518
 6851SOL    HW221453   1.495   5.245   5.658
 6852SOL     OW21454   0.577   3.919   1.825
 6852SOL    HW121455   0.492   3.935   1.874
 6852SOL    HW221456   0.618   4.006   1.799
 6853SOL     OW21457   0.799   4.000   5.055
 6853SOL    HW121458   0.737   3.922   5.062
 6853SOL    HW221459   0.794   4.055   5.138
 6854SOL     OW21460   6.493   2.571   6.625
 6854SOL    HW121461   6.395   2.590   6.618
 6854SOL    HW221462   6.540   2.611   6.547
 6855SOL     OW21463   2.664   7.000   1.760
 6855SOL    HW121464   2.715   0.058   1.779
 6855SOL    HW221465   2.593   7.019   1.692
 6856SOL     OW21466   5.799   3.897   5.123
 6856SOL    HW121467   5.703   3.871   5.133
 6856SOL    HW221468   5.856   3.815   5.123
 6857SOL     OW21469   4.065   1.655   5.690
 6857SOL    HW121470   3.967   1.666   5.709
 6857SOL    HW221471   4.090   1.558   5.698
 6858SOL     OW21472   3.894   3.104   5.010
 6858SOL    HW121473   3.890   3.007   5.035
 6858SOL    HW221474   3.981   3.143   5.042
 6859SOL     OW21475   3.542   0.759   0.879
 6859SOL    HW121476   3.634   0.792   0.858
 6859SOL    HW221477   3.489   0.832   0.921
 6860SOL     OW21478   5.132   3.694   0.178
 6860SOL    HW121479   5.163   3.638   0.255
 6860SOL    HW221480   5.203   3.697   0.108
 6861SOL     OW21481   6.475   5.076   6.906
 6861SOL    HW121482   6.424   4.991   6.896
 6861SOL    HW221483   6.459   5.114   6.997
 6862SOL     OW21484   3.343   5.651   3.979
 6862SOL    HW121485   3.424   5.705   3.956
 6862SOL    HW221486   3.326   5.657   4.077
 6863SOL     OW21487   5.385   2.743   4.305
 6863SOL    HW121488   5.364   2.753   4.402
 6863SOL    HW221489   5.443   2.819   4.275
 6864SOL     OW21490   3.145   6.212   4.742
 6864SOL    HW121491   3.091   6.205   4.826
 6864SOL    HW221492   3.113   6.144   4.676
 6865SOL     OW21493   6.657   4.507   3.781
 6865SOL    HW121494   6.598   4.485   3.859
 6865SOL    HW221495   6.606   4.564   3.716
 6866SOL     OW21496   0.017   3.453   2.395
 6866SOL    HW121497   6.950   3.414   2.399
 6866SOL    HW221498   0.079   3.394   2.448
 6867SOL     OW21499   2.172   4.093   2.126
 6867SOL    HW121500   2.079   4.073   2.160
 6867SOL    HW221501   2.226   4.132   2.200
 6868SOL     OW21502   2.103   5.540   4.550
 6868SOL    HW121503   2.058   5.591   4.478
 6868SOL    HW221504   2.151   5.461   4.511
 6869SOL     OW21505   5.631   2.623   5.557
 6869SOL    HW121506   5.678   2.558   5.498
 6869SOL    HW221507   5.547   2.580   5.593
 6870SOL     OW21508   5.730   3.654   3.048
 6870SOL    HW121509   5.771   3.564   3.058
 6870SOL    HW221510   5.643   3.646   3.000
 6871SOL     OW21511   5.187   5.712   0.967
 6871SOL    HW121512   5.143   5.635   0.922
 6871SOL    HW221513   5.143   5.797   0.939
 6872SOL     OW21514   2.088   3.846   6.767
 6872SOL    HW121515   2.131   3.756   6.765
 6872SOL    HW221516   2.069   3.877   6.674
 6873SOL     OW21517   6.186   3.759   6.420
 6873SOL    HW121518   6.174   3.844   6.471
 6873SOL    HW221519   6.169   3.681   6.480
 6874SOL     OW21520   0.157   2.690   4.624
 6874SOL    HW121521   0.200   2.639   4.699
 6874SOL    HW221522   0.167   2.789   4.640
 6875SOL     OW21523   2.821   1.306   3.398
 6875SOL    HW121524   2.904   1.360   3.410
 6875SOL    HW221525   2.746   1.366   3.371
 6876SOL     OW21526   4.116   6.133   6.865
 6876SOL    HW121527   4.115   6.148   6.963
 6876SOL    HW221528   4.208   6.147   6.830
 6877SOL     OW21529   1.969   4.018   0.146
 6877SOL    HW121530   2.061   4.050   0.171
 6877SOL    HW221531   1.953   4.034   0.049
 6878SOL     OW21532   1.858   1.376   5.584
 6878SOL    HW121533   1.852   1.287   5.629
 6878SOL    HW221534   1.949   1.414   5.598
 6879SOL     OW21535   1.295   1.997   6.319
 6879SOL    HW121536   1.231   1.985   6.395
 6879SOL    HW221537   1.380   2.037   6.353
 6880SOL     OW21538   2.242   4.115   4.656
 6880SOL    HW121539   2.218   4.029   4.612
 6880SOL    HW221540   2.302   4.097   4.735
 6881SOL     OW21541   0.213   3.810   2.107
 6881SOL    HW121542   0.264   3.733   2.144
 6881SOL    HW221543   0.172   3.784   2.019
 6882SOL     OW21544   2.046   0.423   5.114
 6882SOL    HW121545   2.027   0.355   5.185
 6882SOL    HW221546   2.114   0.488   5.148
 6883SOL     OW21547   4.327   0.039   1.489
 6883SOL    HW121548   4.274   0.097   1.426
 6883SOL    HW221549   4.278   0.031   1.575
 6884SOL     OW21550   1.739   5.433   3.891
 6884SOL    HW121551   1.833   5.402   3.903
 6884SOL    HW221552   1.738   5.519   3.840
 6885SOL     OW21553   2.533   5.463   4.147
 6885SOL    HW121554   2.557   5.390   4.210
 6885SOL    HW221555   2.611   5.525   4.136
 6886SOL     OW21556   5.919   1.197   2.326
 6886SOL    HW121557   5.829   1.238   2.312
 6886SOL    HW221558   5.951   1.218   2.419
 6887SOL     OW21559   5.668   0.907   4.590
 6887SOL    HW121560   5.675   0.855   4.505
 6887SOL    HW221561   5.577   0.897   4.628
 6888SOL     OW21562   5.761   0.008   4.727
 6888SOL    HW121563   5.818   6.959   4.693
 6888SOL    HW221564   5.723   0.059   4.649
 6889SOL     OW21565   1.434   4.328   5.750
 6889SOL    HW121566   1.434   4.381   5.665
 6889SOL    HW221567   1.363   4.258   5.745
 6890SOL     OW21568   1.901   6.749   1.539
 6890SOL    HW121569   1.808   6.758   1.575
 6890SOL    HW221570   1.933   6.838   1.506
 6891SOL     OW21571   1.178   4.097   3.837
 6891SOL    HW121572   1.178   4.153   3.921
 6891SOL    HW221573   1.266   4.105   3.791
 6892SOL     OW21574   2.995   0.267   3.967
 6892SOL    HW121575   2.919   0.204   3.954
 6892SOL    HW221576   3.059   0.229   4.034
 6893SOL     OW21577   4.528   6.078   3.189
 6893SOL    HW121578   4.484   6.146   3.130
 6893SOL    HW221579   4.572   6.009   3.132
 6894SOL     OW21580   6.316   5.033   6.616
 6894SOL    HW121581   6.390   5.009   6.553
 6894SOL    HW221582   6.341   5.116   6.666
 6895SOL     OW21583   2.790   4.692   6.760
 6895SOL    HW121584   2.797   4.628   6.684
 6895SOL    HW221585   2.728   4.656   6.829
 6896SOL     OW21586   3.534   0.242   3.123
 6896SOL    HW121587   3.481   0.247   3.038
 6896SOL    HW221588   3.543   0.333   3.163
 6897SOL     OW21589   3.546   3.612   0.458
 6897SOL    HW121590   3.615   3.682   0.476
 6897SOL    HW221591   3.457   3.656   0.445
 6898SOL     OW21592   4.205   1.956   2.241
 6898SOL    HW121593   4.167   2.048   2.246
 6898SOL    HW221594   4.130   1.889   2.237
 6899SOL     OW21595   4.602   6.307   6.921
 6899SOL    HW121596   4.663   6.360   6.862
 6899SOL    HW221597   4.519   6.359   6.938
 6900SOL     OW21598   5.232   0.480   6.400
 6900SOL    HW121599   5.249   0.391   6.359
 6900SOL    HW221600   5.301   0.499   6.470
 6901SOL     OW21601   1.704   0.145   6.714
 6901SOL    HW121602   1.738   0.146   6.620
 6901SOL    HW221603   1.730   0.230   6.761
 6902SOL     OW21604   6.971   6.418   0.491
 6902SOL    HW121605   7.018   6.338   0.529
 6902SOL    HW221606   0.003   6.499   0.503
 6903SOL     OW21607   4.388   4.727   0.496
 6903SOL    HW121608   4.351   4.717   0.403
 6903SOL    HW221609   4.349   4.810   0.537
 6904SOL     OW21610   6.230   1.513   3.918
 6904SOL    HW121611   6.282   1.598   3.917
 6904SOL    HW221612   6.188   1.501   4.008
 6905SOL     OW21613   5.831   6.478   1.100
 6905SOL    HW121614   5.899   6.544   1.071
 6905SOL    HW221615   5.817   6.410   1.028
 6906SOL     OW21616   4.045   0.485   2.942
 6906SOL    HW121617   4.050   0.585   2.948
 6906SOL    HW221618   4.071   0.445   3.031
 6907SOL     OW21619   3.298   1.605   1.546
 6907SOL    HW121620   3.243   1.595   1.629
 6907SOL    HW221621   3.309   1.702   1.525
 6908SOL     OW21622   1.550   6.546   5.262
 6908SOL    HW121623   1.544   6.582   5.169
 6908SOL    HW221624   1.582   6.451   5.260
 6909SOL     OW21625   4.576   4.208   0.330
 6909SOL    HW121626   4.578   4.296   0.378
 6909SOL    HW221627   4.597   4.223   0.233
 6910SOL     OW21628   6.653   1.635   1.829
 6910SOL    HW121629   6.571   1.672   1.873
 6910SOL    HW221630   6.708   1.710   1.794
 6911SOL     OW21631   4.285   1.343   5.039
 6911SOL    HW121632   4.357   1.291   5.085
 6911SOL    HW221633   4.196   1.319   5.078
 6912SOL     OW21634   5.194   4.961   0.861
 6912SOL    HW121635   5.293   4.966   0.875
 6912SOL    HW221636   5.147   4.987   0.945
 6913SOL     OW21637   5.347   5.261   4.693
 6913SOL    HW121638   5.259   5.228   4.729
 6913SOL    HW221639   5.381   5.197   4.624
 6914SOL     OW21640   6.263   5.443   0.700
 6914SOL    HW121641   6.172   5.416   0.669
 6914SOL    HW221642   6.256   5.490   0.787
 6915SOL     OW21643   0.581   4.932   2.679
 6915SOL    HW121644   0.634   4.900   2.757
 6915SOL    HW221645   0.619   4.894   2.595
 6916SOL     OW21646   6.555   3.173   0.171
 6916SOL    HW121647   6.615   3.223   0.108
 6916SOL    HW221648   6.610   3.133   0.244
 6917SOL     OW21649   5.062   6.319   5.890
 6917SOL    HW121650   5.110   6.234   5.912
 6917SOL    HW221651   4.966   6.299   5.869
 6918SOL     OW21652   6.953   3.058   3.769
 6918SOL    HW121653   6.944   2.970   3.722
 6918SOL    HW221654   0.022   3.089   3.765
 6919SOL     OW21655   2.269   5.891   2.567
 6919SOL    HW121656   2.194   5.833   2.598
 6919SOL    HW221657   2.312   5.935   2.645
 6920SOL     OW21658   5.152   6.449   4.183
 6920SOL    HW121659   5.093   6.518   4.224
 6920SOL    HW221660   5.096   6.374   4.148
 6921SOL     OW21661   0.114   0.784   3.674
 6921SOL    HW121662   0.189   0.814   3.616
 6921SOL    HW221663   0.027   0.799   3.627
 6922SOL     OW21664   2.548   6.705   0.794
 6922SOL    HW121665   2.587   6.700   0.886
 6922SOL    HW221666   2.604   6.764   0.737
 6923SOL     OW21667   4.548   0.997   3.955
 6923SOL    HW121668   4.615   1.071   3.957
 6923SOL    HW221669   4.481   1.015   3.883
 6924SOL     OW21670   0.011   5.575   1.712
 6924SOL    HW121671   6.962   5.638   1.693
 6924SOL    HW221672   0.079   5.581   1.639
 6925SOL     OW21673   4.321   6.095   2.835
 6925SOL    HW121674   4.314   6.193   2.856
 6925SOL    HW221675   4.403   6.079   2.780
 6926SOL     OW21676   2.935   3.464   4.466
 6926SOL    HW121677   2.964   3.460   4.562
 6926SOL    HW221678   2.953   3.375   4.423
 6927SOL     OW21679   4.730   3.966   6.176
 6927SOL    HW121680   4.700   3.907   6.101
 6927SOL    HW221681   4.730   4.061   6.146
 6928SOL     OW21682   4.789   0.925   6.303
 6928SOL    HW121683   4.865   0.987   6.285
 6928SOL    HW221684   4.814   0.832   6.274
 6929SOL     OW21685   4.024   5.768   0.499
 6929SOL    HW121686   3.965   5.791   0.421
 6929SOL    HW221687   3.967   5.749   0.579
 6930SOL     OW21688   0.389   0.232   2.769
 6930SOL    HW121689   0.460   0.163   2.754
 6930SOL    HW221690   0.306   0.207   2.718
 6931SOL     OW21691   1.968   1.434   1.680
 6931SOL    HW121692   2.042   1.485   1.636
 6931SOL    HW221693   2.003   1.387   1.761
 6932SOL     OW21694   3.083   1.819   0.407
 6932SOL    HW121695   3.006   1.870   0.369
 6932SOL    HW221696   3.076   1.818   0.507
 6933SOL     OW21697   4.252   5.560   5.934
 6933SOL    HW121698   4.172   5.509   5.901
 6933SOL    HW221699   4.328   5.497   5.948
 6934SOL     OW21700   4.915   3.376   6.720
 6934SOL    HW121701   4.965   3.345   6.639
 6934SOL    HW221702   4.964   3.453   6.762
 6935SOL     OW21703   4.559   6.077   3.468
 6935SOL    HW121704   4.462   6.088   3.489
 6935SOL    HW221705   4.572   6.073   3.369
 6936SOL     OW21706   1.244   3.204   1.197
 6936SOL    HW121707   1.275   3.110   1.212
 6936SOL    HW221708   1.165   3.223   1.255
 6937SOL     OW21709   4.458   0.089   5.863
 6937SOL    HW121710   4.475   0.022   5.791
 6937SOL    HW221711   4.390   0.155   5.833
 6938SOL     OW21712   5.245   2.815   5.437
 6938SOL    HW121713   5.194   2.807   5.352
 6938SOL    HW221714   5.196   2.875   5.500
 6939SOL     OW21715   6.631   4.465   2.472
 6939SOL    HW121716   6.645   4.556   2.433
 6939SOL    HW221717   6.675   4.396   2.414
 6940SOL     OW21718   4.965   0.670   5.920
 6940SOL    HW121719   4.900   0.596   5.937
 6940SOL    HW221720   4.917   0.758   5.921
 6941SOL     OW21721   4.104   3.560   3.398
 6941SOL    HW121722   4.140   3.492   3.461
 6941SOL    HW221723   4.081   3.644   3.448
 6942SOL     OW21724   6.629   2.726   0.365
 6942SOL    HW121725   6.560   2.732   0.293
 6942SOL    HW221726   6.617   2.641   0.417
 6943SOL     OW21727   5.843   5.873   5.935
 6943SOL    HW121728   5.878   5.888   6.028
 6943SOL    HW221729   5.773   5.802   5.937
 6944SOL     OW21730   1.094   5.455   6.014
 6944SOL    HW121731   1.072   5.523   6.084
 6944SOL    HW221732   1.010   5.432   5.963
 6945SOL     OW21733   6.629   2.623   6.058
 6945SOL    HW121734   6.618   2.712   6.101
 6945SOL    HW221735   6.557   2.561   6.090
 6946SOL     OW21736   5.508   4.038   2.690
 6946SOL    HW121737   5.465   4.105   2.630
 6946SOL    HW221738   5.601   4.068   2.712
 6947SOL     OW21739   3.286   6.667   2.632
 6947SOL    HW121740   3.356   6.718   2.681
 6947SOL    HW221741   3.315   6.571   2.622
 6948SOL     OW21742   4.700   0.834   6.552
 6948SOL    HW121743   4.612   0.881   6.551
 6948SOL    HW221744   4.741   0.838   6.460
 6949SOL     OW21745   5.102   6.875   3.501
 6949SOL    HW121746   5.123   6.860   3.598
 6949SOL    HW221747   5.036   6.806   3.470
 6950SOL     OW21748   2.227   1.373   3.121
 6950SOL    HW121749   2.201   1.301   3.058
 6950SOL    HW221750   2.325   1.369   3.139
 6951SOL     OW21751   6.518   5.735   6.070
 6951SOL    HW121752   6.540   5.638   6.077
 6951SOL    HW221753   6.601   5.786   6.045
 6952SOL     OW21754   0.423   5.135   4.682
 6952SOL    HW121755   0.356   5.142   4.608
 6952SOL    HW221756   0.501   5.080   4.652
 6953SOL     OW21757   4.775   1.311   5.863
 6953SOL    HW121758   4.704   1.249   5.895
 6953SOL    HW221759   4.832   1.263   5.795
 6954SOL     OW21760   6.597   2.912   4.133
 6954SOL    HW121761   6.687   2.936   4.098
 6954SOL    HW221762   6.585   2.813   4.130
 6955SOL     OW21763   0.336   6.217   2.210
 6955SOL    HW121764   0.373   6.265   2.130
 6955SOL    HW221765   0.245   6.251   2.231
 6956SOL     OW21766   4.473   5.175   1.794
 6956SOL    HW121767   4.572   5.189   1.791
 6956SOL    HW221768   4.440   5.152   1.702
 6957SOL     OW21769   6.906   4.848   1.665
 6957SOL    HW121770   6.924   4.762   1.616
 6957SOL    HW221771   6.884   4.828   1.760
 6958SOL     OW21772   2.381   2.916   6.232
 6958SOL    HW121773   2.369   2.818   6.247
 6958SOL    HW221774   2.316   2.966   6.291
 6959SOL     OW21775   3.730   1.814   4.807
 6959SOL    HW121776   3.749   1.747   4.735
 6959SOL    HW221777   3.784   1.897   4.791
 6960SOL     OW21778   0.309   4.741   6.796
 6960SOL    HW121779   0.224   4.691   6.777
 6960SOL    HW221780   0.287   4.824   6.847
 6961SOL     OW21781   1.217   1.194   3.299
 6961SOL    HW121782   1.295   1.242   3.259
 6961SOL    HW221783   1.249   1.122   3.360
 6962SOL     OW21784   4.983   4.600   1.676
 6962SOL    HW121785   4.912   4.534   1.702
 6962SOL    HW221786   5.049   4.555   1.616
 6963SOL     OW21787   0.282   4.891   1.914
 6963SOL    HW121788   0.203   4.939   1.875
 6963SOL    HW221789   0.286   4.908   2.012
 6964SOL     OW21790   4.261   5.337   4.946
 6964SOL    HW121791   4.203   5.256   4.936
 6964SOL    HW221792   4.258   5.390   4.862
 6965SOL     OW21793   7.021   2.720   5.782
 6965SOL    HW121794   0.060   2.792   5.806
 6965SOL    HW221795   6.985   2.678   5.865
 6966SOL     OW21796   4.978   2.231   2.704
 6966SOL    HW121797   4.962   2.154   2.643
 6966SOL    HW221798   5.075   2.256   2.703
 6967SOL     OW21799   1.251   1.805   5.976
 6967SOL    HW121800   1.219   1.725   5.927
 6967SOL    HW221801   1.301   1.776   6.058
 6968SOL     OW21802   4.459   5.863   1.416
 6968SOL    HW121803   4.487   5.941   1.472
 6968SOL    HW221804   4.362   5.872   1.393
 6969SOL     OW21805   3.440   1.431   0.803
 6969SOL    HW121806   3.500   1.441   0.883
 6969SOL    HW221807   3.399   1.519   0.781
 6970SOL     OW21808   4.579   4.448   0.478
 6970SOL    HW121809   4.624   4.515   0.536
 6970SOL    HW221810   4.487   4.430   0.513
 6971SOL     OW21811   5.833   2.416   1.960
 6971SOL    HW121812   5.761   2.420   1.890
 6971SOL    HW221813   5.915   2.376   1.920
 6972SOL     OW21814   5.491   4.677   4.367
 6972SOL    HW121815   5.590   4.687   4.353
 6972SOL    HW221816   5.474   4.612   4.441
 6973SOL     OW21817   2.084   5.122   4.125
 6973SOL    HW121818   2.007   5.065   4.096
 6973SOL    HW221819   2.165   5.099   4.070
 6974SOL     OW21820   3.285   4.127   3.890
 6974SOL    HW121821   3.232   4.113   3.807
 6974SOL    HW221822   3.336   4.213   3.882
 6975SOL     OW21823   4.061   0.676   5.724
 6975SOL    HW121824   4.059   0.582   5.691
 6975SOL    HW221825   4.092   0.737   5.651
 6976SOL     OW21826   2.510   4.881   6.496
 6976SOL    HW121827   2.440   4.932   6.545
 6976SOL    HW221828   2.600   4.901   6.535
 6977SOL     OW21829   3.522   1.482   2.576
 6977SOL    HW121830   3.547   1.467   2.672
 6977SOL    HW221831   3.425   1.462   2.564
 6978SOL     OW21832   0.648   0.761   2.058
 6978SOL    HW121833   0.587   0.696   2.013
 6978SOL    HW221834   0.601   0.849   2.066
 6979SOL     OW21835   0.428   4.626   2.474
 6979SOL    HW121836   0.338   4.667   2.484
 6979SOL    HW221837   0.438   4.589   2.381
 6980SOL     OW21838   2.393   0.874   4.034
 6980SOL    HW121839   2.465   0.842   4.096
 6980SOL    HW221840   2.424   0.863   3.939
 6981SOL     OW21841   2.596   5.222   0.861
 6981SOL    HW121842   2.623   5.303   0.809
 6981SOL    HW221843   2.500   5.230   0.888
 6982SOL     OW21844   1.064   6.971   4.097
 6982SOL    HW121845   0.994   6.953   4.166
 6982SOL    HW221846   1.021   7.007   4.014
 6983SOL     OW21847   6.725   0.377   4.758
 6983SOL    HW121848   6.684   0.465   4.735
 6983SOL    HW221849   6.760   0.333   4.675
 6984SOL     OW21850   2.119   2.097   5.707
 6984SOL    HW121851   2.070   2.161   5.767
 6984SOL    HW221852   2.196   2.057   5.757
 6985SOL     OW21853   4.152   5.532   2.495
 6985SOL    HW121854   4.127   5.582   2.578
 6985SOL    HW221855   4.217   5.459   2.519
 6986SOL     OW21856   1.875   6.087   5.665
 6986SOL    HW121857   1.822   6.156   5.617
 6986SOL    HW221858   1.815   6.011   5.692
 6987SOL     OW21859   0.334   2.752   6.635
 6987SOL    HW121860   0.348   2.667   6.585
 6987SOL    HW221861   0.406   2.763   6.703
 6988SOL     OW21862   4.973   1.361   3.724
 6988SOL    HW121863   4.896   1.394   3.780
 6988SOL    HW221864   4.965   1.262   3.710
 6989SOL     OW21865   1.224   1.773   3.621
 6989SOL    HW121866   1.226   1.832   3.702
 6989SOL    HW221867   1.136   1.782   3.575
 6990SOL     OW21868   4.402   3.210   6.939
 6990SOL    HW121869   4.369   3.219   6.845
 6990SOL    HW221870   4.486   3.155   6.939
 6991SOL     OW21871   2.570   4.974   5.390
 6991SOL    HW121872   2.595   4.942   5.299
 6991SOL    HW221873   2.540   4.896   5.446
 6992SOL     OW21874   6.098   6.373   4.529
 6992SOL    HW121875   6.113   6.401   4.434
 6992SOL    HW221876   6.154   6.430   4.589
 6993SOL     OW21877   0.090   0.567   3.217
 6993SOL    HW121878   0.023   0.507   3.174
 6993SOL    HW221879   0.069   0.662   3.196
 6994SOL     OW21880   1.538   2.960   6.334
 6994SOL    HW121881   1.617   3.021   6.342
 6994SOL    HW221882   1.556   2.893   6.262
 6995SOL     OW21883   5.544   5.497   3.468
 6995SOL    HW121884   5.466   5.476   3.409
 6995SOL    HW221885   5.543   5.436   3.547
 6996SOL     OW21886   2.611   0.330   5.190
 6996SOL    HW121887   2.568   0.381   5.264
 6996SOL    HW221888   2.541   0.293   5.129
 6997SOL     OW21889   4.576   6.072   4.593
 6997SOL    HW121890   4.588   6.037   4.500
 6997SOL    HW221891   4.579   5.996   4.658
 6998SOL     OW21892   1.803   3.471   2.499
 6998SOL    HW121893   1.772   3.414   2.575
 6998SOL    HW221894   1.729   3.480   2.432
 6999SOL     OW21895   3.129   1.978   6.065
 6999SOL    HW121896   3.077   1.910   6.117
 6999SOL    HW221897   3.130   2.064   6.116
 7000SOL     OW21898   0.930   6.247   2.691
 7000SOL    HW121899   0.873   6.172   2.726
 7000SOL    HW221900   1.025   6.230   2.716
 7001SOL     OW21901   2.238   3.022   5.791
 7001SOL    HW121902   2.165   3.075   5.748
 7001SOL    HW221903   2.324   3.037   5.741
 7002SOL     OW21904   0.690   5.174   3.579
 7002SOL    HW121905   0.760   5.209   3.517
 7002SOL    HW221906   0.606   5.226   3.567
 7003SOL     OW21907   3.127   6.829   0.724
 7003SOL    HW121908   3.124   6.833   0.624
 7003SOL    HW221909   3.222   6.838   0.755
 7004SOL     OW21910   1.428   4.037   1.518
 7004SOL    HW121911   1.403   4.106   1.449
 7004SOL    HW221912   1.397   3.947   1.487
 7005SOL     OW21913   5.300   6.250   6.757
 7005SOL    HW121914   5.253   6.330   6.793
 7005SOL    HW221915   5.394   6.250   6.789
 7006SOL     OW21916   4.723   4.310   4.495
 7006SOL    HW121917   4.662   4.284   4.570
 7006SOL    HW221918   4.807   4.348   4.532
 7007SOL     OW21919   4.324   6.366   2.885
 7007SOL    HW121920   4.281   6.453   2.909
 7007SOL    HW221921   4.420   6.367   2.913
 7008SOL     OW21922   2.095   5.079   4.705
 7008SOL    HW121923   2.157   5.007   4.735
 7008SOL    HW221924   2.147   5.164   4.691
 7009SOL     OW21925   6.494   5.648   2.443
 7009SOL    HW121926   6.470   5.739   2.476
 7009SOL    HW221927   6.410   5.596   2.425
 7010SOL     OW21928   3.471   4.934   6.487
 7010SOL    HW121929   3.422   4.948   6.402
 7010SOL    HW221930   3.459   4.839   6.517
 7011SOL     OW21931   2.351   6.648   5.642
 7011SOL    HW121932   2.450   6.657   5.625
 7011SOL    HW221933   2.305   6.730   5.610
 7012SOL     OW21934   1.291   0.467   1.953
 7012SOL    HW121935   1.306   0.376   1.913
 7012SOL    HW221936   1.378   0.505   1.984
 7013SOL     OW21937   0.921   0.059   1.298
 7013SOL    HW121938   0.978   0.013   1.366
 7013SOL    HW221939   0.939   0.157   1.302
 7014SOL     OW21940   2.679   4.453   1.035
 7014SOL    HW121941   2.580   4.457   1.050
 7014SOL    HW221942   2.727   4.484   1.117
 7015SOL     OW21943   4.790   2.846   2.372
 7015SOL    HW121944   4.740   2.808   2.449
 7015SOL    HW221945   4.741   2.926   2.337
 7016SOL     OW21946   4.249   4.724   1.229
 7016SOL    HW121947   4.343   4.704   1.256
 7016SOL    HW221948   4.190   4.719   1.309
 7017SOL     OW21949   3.158   1.922   3.538
 7017SOL    HW121950   3.067   1.931   3.497
 7017SOL    HW221951   3.149   1.921   3.638
 7018SOL     OW21952   0.191   3.836   4.685
 7018SOL    HW121953   0.171   3.922   4.733
 7018SOL    HW221954   0.136   3.832   4.601
 7019SOL     OW21955   2.809   5.320   6.560
 7019SOL    HW121956   2.848   5.378   6.632
 7019SOL    HW221957   2.869   5.242   6.544
 7020SOL     OW21958   6.061   0.247   6.481
 7020SOL    HW121959   6.080   0.345   6.492
 7020SOL    HW221960   6.093   0.197   6.561
 7021SOL     OW21961   2.201   0.806   5.440
 7021SOL    HW121962   2.202   0.896   5.485
 7021SOL    HW221963   2.136   0.809   5.363
 7022SOL     OW21964   5.271   3.485   0.331
 7022SOL    HW121965   5.335   3.413   0.355
 7022SOL    HW221966   5.250   3.539   0.413
 7023SOL     OW21967   6.096   2.479   1.540
 7023SOL    HW121968   6.138   2.491   1.630
 7023SOL    HW221969   6.085   2.381   1.522
 7024SOL     OW21970   1.766   5.910   6.832
 7024SOL    HW121971   1.713   5.853   6.770
 7024SOL    HW221972   1.833   5.853   6.881
 7025SOL     OW21973   3.181   2.073   6.572
 7025SOL    HW121974   3.091   2.101   6.604
 7025SOL    HW221975   3.243   2.062   6.651
 7026SOL     OW21976   3.769   1.883   1.528
 7026SOL    HW121977   3.740   1.800   1.482
 7026SOL    HW221978   3.832   1.934   1.470
 7027SOL     OW21979   3.720   5.583   4.157
 7027SOL    HW121980   3.777   5.598   4.076
 7027SOL    HW221981   3.775   5.540   4.229
 7028SOL     OW21982   4.528   6.426   3.509
 7028SOL    HW121983   4.432   6.454   3.503
 7028SOL    HW221984   4.532   6.326   3.510
 7029SOL     OW21985   3.680   6.273   0.363
 7029SOL    HW121986   3.773   6.256   0.330
 7029SOL    HW221987   3.680   6.355   0.421
 7030SOL     OW21988   0.123   3.308   5.263
 7030SOL    HW121989   0.111   3.378   5.333
 7030SOL    HW221990   0.131   3.352   5.173
 7031SOL     OW21991   1.957   5.560   4.208
 7031SOL    HW121992   1.997   5.486   4.261
 7031SOL    HW221993   1.858   5.550   4.204
 7032SOL     OW21994   5.998   0.433   2.787
 7032SOL    HW121995   5.948   0.383   2.716
 7032SOL    HW221996   6.086   0.388   2.804
 7033SOL     OW21997   0.028   1.056   4.062
 7033SOL    HW121998   0.069   1.012   3.981
 7033SOL    HW221999   0.096   1.058   4.135
 7034SOL     OW22000   6.279   0.529   3.304
 7034SOL    HW122001   6.335   0.565   3.379
 7034SOL    HW222002   6.304   0.434   3.287
 7035SOL     OW22003   0.073   6.287   2.792
 7035SOL    HW122004   0.037   6.305   2.700
 7035SOL    HW222005   0.156   6.342   2.807
 7036SOL     OW22006   6.514   5.342   1.787
 7036SOL    HW122007   6.483   5.424   1.739
 7036SOL    HW222008   6.441   5.309   1.847
 7037SOL     OW22009   1.001   6.198   5.606
 7037SOL    HW122010   1.084   6.211   5.553
 7037SOL    HW222011   0.925   6.177   5.545
 7038SOL     OW22012   1.166   4.486   3.812
 7038SOL    HW122013   1.112   4.402   3.802
 7038SOL    HW222014   1.233   4.490   3.738
 7039SOL     OW22015   3.948   0.763   6.193
 7039SOL    HW122016   4.004   0.714   6.260
 7039SOL    HW222017   4.003   0.833   6.148
 7040SOL     OW22018   4.570   2.599   6.358
 7040SOL    HW122019   4.571   2.670   6.288
 7040SOL    HW222020   4.538   2.513   6.318
 7041SOL     OW22021   1.713   1.725   2.837
 7041SOL    HW122022   1.701   1.665   2.758
 7041SOL    HW222023   1.673   1.815   2.817
 7042SOL     OW22024   4.252   5.688   6.602
 7042SOL    HW122025   4.342   5.658   6.571
 7042SOL    HW222026   4.247   5.683   6.702
 7043SOL     OW22027   1.791   1.932   3.488
 7043SOL    HW122028   1.819   1.837   3.478
 7043SOL    HW222029   1.735   1.941   3.571
 7044SOL     OW22030   4.678   4.581   2.700
 7044SOL    HW122031   4.642   4.490   2.683
 7044SOL    HW222032   4.624   4.648   2.648
 7045SOL     OW22033   5.548   6.215   0.965
 7045SOL    HW122034   5.452   6.186   0.972
 7045SOL    HW222035   5.604   6.159   1.025
 7046SOL     OW22036   3.798   0.790   4.560
 7046SOL    HW122037   3.727   0.756   4.499
 7046SOL    HW222038   3.757   0.850   4.629
 7047SOL     OW22039   0.779   0.964   4.317
 7047SOL    HW122040   0.747   1.057   4.296
 7047SOL    HW222041   0.842   0.934   4.245
 7048SOL     OW22042   6.771   6.396   1.140
 7048SOL    HW122043   6.825   6.313   1.123
 7048SOL    HW222044   6.740   6.434   1.053
 7049SOL     OW22045   2.293   1.096   0.641
 7049SOL    HW122046   2.332   1.011   0.678
 7049SOL    HW222047   2.349   1.174   0.670
 7050SOL     OW22048   3.357   4.153   4.679
 7050SOL    HW122049   3.392   4.062   4.701
 7050SOL    HW222050   3.261   4.160   4.708
 7051SOL     OW22051   0.416   0.365   1.539
 7051SOL    HW122052   0.337   0.307   1.559
 7051SOL    HW222053   0.418   0.441   1.604
 7052SOL     OW22054   0.231   2.277   4.284
 7052SOL    HW122055   0.261   2.185   4.261
 7052SOL    HW222056   0.245   2.293   4.381
 7053SOL     OW22057   0.302   4.175   6.466
 7053SOL    HW122058   0.373   4.245   6.472
 7053SOL    HW222059   0.291   4.148   6.370
 7054SOL     OW22060   6.075   6.976   1.641
 7054SOL    HW122061   6.038   6.891   1.677
 7054SOL    HW222062   6.014   0.026   1.663
 7055SOL     OW22063   4.403   0.366   4.786
 7055SOL    HW122064   4.464   0.287   4.781
 7055SOL    HW222065   4.450   0.441   4.835
 7056SOL     OW22066   5.883   4.864   3.469
 7056SOL    HW122067   5.807   4.838   3.529
 7056SOL    HW222068   5.856   4.943   3.414
 7057SOL     OW22069   0.340   4.443   3.511
 7057SOL    HW122070   0.339   4.343   3.519
 7057SOL    HW222071   0.434   4.474   3.499
 7058SOL     OW22072   0.539   5.026   5.046
 7058SOL    HW122073   0.588   4.964   4.984
 7058SOL    HW222074   0.556   5.121   5.018
 7059SOL     OW22075   0.791   0.347   2.315
 7059SOL    HW122076   0.783   0.446   2.317
 7059SOL    HW222077   0.707   0.306   2.352
 7060SOL     OW22078   3.535   6.176   1.516
 7060SOL    HW122079   3.540   6.084   1.554
 7060SOL    HW222080   3.443   6.193   1.481
 7061SOL     OW22081   0.304   1.342   3.042
 7061SOL    HW122082   0.269   1.251   3.065
 7061SOL    HW222083   0.361   1.376   3.117
 7062SOL     OW22084   5.729   1.679   4.963
 7062SOL    HW122085   5.713   1.760   4.907
 7062SOL    HW222086   5.665   1.679   5.040
 7063SOL     OW22087   2.073   6.594   1.401
 7063SOL    HW122088   2.035   6.650   1.474
 7063SOL    HW222089   2.103   6.506   1.438
 7064SOL     OW22090   4.420   2.110   2.209
 7064SOL    HW122091   4.394   2.200   2.243
 7064SOL    HW222092   4.344   2.047   2.220
 7065SOL     OW22093   4.392   4.003   1.379
 7065SOL    HW122094   4.396   4.007   1.479
 7065SOL    HW222095   4.449   3.927   1.347
 7066SOL     OW22096   3.874   0.213   0.703
 7066SOL    HW122097   3.898   0.116   0.705
 7066SOL    HW222098   3.786   0.225   0.656
 7067SOL     OW22099   0.976   3.585   6.076
 7067SOL    HW122100   1.012   3.592   5.982
 7067SOL    HW222101   1.035   3.636   6.138
 7068SOL     OW22102   1.381   2.142   3.384
 7068SOL    HW122103   1.470   2.122   3.342
 7068SOL    HW222104   1.335   2.214   3.332
 7069SOL     OW22105   6.513   3.976   5.310
 7069SOL    HW122106   6.555   3.905   5.253
 7069SOL    HW222107   6.416   3.983   5.289
 7070SOL     OW22108   6.370   4.569   5.253
 7070SOL    HW122109   6.342   4.485   5.299
 7070SOL    HW222110   6.293   4.604   5.199
 7071SOL     OW22111   1.501   5.533   5.369
 7071SOL    HW122112   1.460   5.617   5.405
 7071SOL    HW222113   1.538   5.550   5.278
 7072SOL     OW22114   6.221   6.466   6.021
 7072SOL    HW122115   6.143   6.504   5.970
 7072SOL    HW222116   6.279   6.414   5.958
 7073SOL     OW22117   0.120   0.916   5.620
 7073SOL    HW122118   0.104   0.818   5.628
 7073SOL    HW222119   0.170   0.949   5.700
 7074SOL     OW22120   3.331   2.454   1.646
 7074SOL    HW122121   3.254   2.414   1.697
 7074SOL    HW222122   3.411   2.394   1.655
 7075SOL     OW22123   2.009   6.050   4.147
 7075SOL    HW122124   2.023   5.951   4.149
 7075SOL    HW222125   2.008   6.082   4.052
 7076SOL     OW22126   3.733   1.656   6.502
 7076SOL    HW122127   3.659   1.722   6.504
 7076SOL    HW222128   3.816   1.700   6.467
 7077SOL     OW22129   2.219   5.676   5.487
 7077SOL    HW122130   2.186   5.735   5.414
 7077SOL    HW222131   2.203   5.719   5.576
 7078SOL     OW22132   6.279   6.860   3.336
 7078SOL    HW122133   6.255   6.908   3.251
 7078SOL    HW222134   6.267   6.761   3.322
 7079SOL     OW22135   6.508   6.092   6.364
 7079SOL    HW122136   6.430   6.058   6.311
 7079SOL    HW222137   6.570   6.017   6.384
 7080SOL     OW22138   4.293   2.334   4.140
 7080SOL    HW122139   4.240   2.285   4.209
 7080SOL    HW222140   4.247   2.325   4.051
 7081SOL     OW22141   3.145   1.592   5.438
 7081SOL    HW122142   3.063   1.643   5.466
 7081SOL    HW222143   3.227   1.641   5.468
 7082SOL     OW22144   5.561   1.342   6.900
 7082SOL    HW122145   5.504   1.259   6.896
 7082SOL    HW222146   5.572   1.378   6.807
 7083SOL     OW22147   3.203   0.988   6.118
 7083SOL    HW122148   3.274   0.923   6.092
 7083SOL    HW222149   3.138   1.000   6.043
 7084SOL     OW22150   6.493   6.273   5.919
 7084SOL    HW122151   6.535   6.184   5.901
 7084SOL    HW222152   6.460   6.313   5.833
 7085SOL     OW22153   2.286   2.432   3.221
 7085SOL    HW122154   2.374   2.476   3.203
 7085SOL    HW222155   2.297   2.333   3.218
 7086SOL     OW22156   5.244   0.992   6.723
 7086SOL    HW122157   5.289   1.048   6.654
 7086SOL    HW222158   5.147   0.983   6.701
 7087SOL     OW22159   0.753   3.583   4.419
 7087SOL    HW122160   0.758   3.524   4.339
 7087SOL    HW222161   0.672   3.561   4.472
 7088SOL     OW22162   5.288   3.061   4.324
 7088SOL    HW122163   5.275   3.059   4.423
 7088SOL    HW222164   5.212   3.014   4.279
 7089SOL     OW22165   3.498   2.487   6.259
 7089SOL    HW122166   3.474   2.556   6.327
 7089SOL    HW222167   3.423   2.476   6.194
 7090SOL     OW22168   1.934   1.793   5.201
 7090SOL    HW122169   2.028   1.768   5.222
 7090SOL    HW222170   1.927   1.893   5.194
 7091SOL     OW22171   0.551   0.815   0.608
 7091SOL    HW122172   0.554   0.874   0.688
 7091SOL    HW222173   0.510   0.865   0.531
 7092SOL     OW22174   3.752   4.089   0.209
 7092SOL    HW122175   3.741   4.037   0.125
 7092SOL    HW222176   3.708   4.040   0.285
 7093SOL     OW22177   3.391   4.039   4.312
 7093SOL    HW122178   3.441   4.045   4.226
 7093SOL    HW222179   3.448   4.074   4.387
 7094SOL     OW22180   0.586   6.906   6.098
 7094SOL    HW122181   0.542   6.965   6.165
 7094SOL    HW222182   0.575   6.945   6.007
 7095SOL     OW22183   1.829   3.252   6.578
 7095SOL    HW122184   1.824   3.350   6.560
 7095SOL    HW222185   1.772   3.203   6.512
 7096SOL     OW22186   4.744   2.175   3.708
 7096SOL    HW122187   4.778   2.268   3.720
 7096SOL    HW222188   4.810   2.110   3.747
 7097SOL     OW22189   0.072   1.005   2.305
 7097SOL    HW122190   0.119   0.943   2.243
 7097SOL    HW222191   0.101   1.099   2.287
 7098SOL     OW22192   1.740   5.877   5.786
 7098SOL    HW122193   1.668   5.910   5.848
 7098SOL    HW222194   1.800   5.815   5.835
 7099SOL     OW22195   1.469   1.061   4.987
 7099SOL    HW122196   1.490   1.008   4.905
 7099SOL    HW222197   1.439   0.998   5.060
 7100SOL     OW22198   4.825   3.941   1.017
 7100SOL    HW122199   4.922   3.938   0.991
 7100SOL    HW222200   4.776   3.868   0.969
 7101SOL     OW22201   3.140   0.373   4.634
 7101SOL    HW122202   3.239   0.363   4.626
 7101SOL    HW222203   3.118   0.465   4.667
 7102SOL     OW22204   4.396   1.325   1.145
 7102SOL    HW122205   4.408   1.234   1.186
 7102SOL    HW222206   4.475   1.381   1.167
 7103SOL     OW22207   3.809   6.509   0.218
 7103SOL    HW122208   3.826   6.498   0.120
 7103SOL    HW222209   3.749   6.588   0.233
 7104SOL     OW22210   1.837   2.723   3.323
 7104SOL    HW122211   1.918   2.768   3.361
 7104SOL    HW222212   1.756   2.756   3.370
 7105SOL     OW22213   3.232   3.516   4.468
 7105SOL    HW122214   3.139   3.492   4.441
 7105SOL    HW222215   3.268   3.586   4.406
 7106SOL     OW22216   3.608   3.251   5.088
 7106SOL    HW122217   3.696   3.242   5.043
 7106SOL    HW222218   3.572   3.160   5.112
 7107SOL     OW22219   3.080   1.400   0.048
 7107SOL    HW122220   3.106   1.401   0.145
 7107SOL    HW222221   3.145   1.455   7.022
 7108SOL     OW22222   5.274   6.342   1.392
 7108SOL    HW122223   5.316   6.431   1.372
 7108SOL    HW222224   5.321   6.299   1.469
 7109SOL     OW22225   3.398   0.475   6.089
 7109SOL    HW122226   3.453   0.535   6.147
 7109SOL    HW222227   3.440   0.385   6.085
 7110SOL     OW22228   5.312   5.203   4.250
 7110SOL    HW122229   5.339   5.174   4.158
 7110SOL    HW222230   5.213   5.192   4.260
 7111SOL     OW22231   1.489   3.722   4.266
 7111SOL    HW122232   1.419   3.657   4.293
 7111SOL    HW222233   1.447   3.801   4.221
 7112SOL     OW22234   1.299   6.137   3.907
 7112SOL    HW122235   1.306   6.062   3.974
 7112SOL    HW222236   1.333   6.222   3.948
 7113SOL     OW22237   3.888   3.985   4.445
 7113SOL    HW122238   3.825   3.911   4.469
 7113SOL    HW222239   3.973   3.946   4.409
 7114SOL     OW22240   4.267   0.720   1.854
 7114SOL    HW122241   4.182   0.719   1.802
 7114SOL    HW222242   4.261   0.789   1.927
 7115SOL     OW22243   5.221   1.815   1.521
 7115SOL    HW122244   5.166   1.895   1.498
 7115SOL    HW222245   5.165   1.733   1.510
 7116SOL     OW22246   5.202   4.346   3.839
 7116SOL    HW122247   5.139   4.269   3.831
 7116SOL    HW222248   5.296   4.314   3.827
 7117SOL     OW22249   6.497   5.948   3.283
 7117SOL    HW122250   6.469   5.858   3.248
 7117SOL    HW222251   6.527   6.005   3.207
 7118SOL     OW22252   5.319   4.065   1.296
 7118SOL    HW122253   5.299   4.116   1.380
 7118SOL    HW222254   5.266   4.104   1.220
 7119SOL     OW22255   6.096   1.543   2.731
 7119SOL    HW122256   6.174   1.482   2.743
 7119SOL    HW222257   6.090   1.606   2.808
 7120SOL     OW22258   4.993   1.471   3.470
 7120SOL    HW122259   4.990   1.446   3.567
 7120SOL    HW222260   5.088   1.483   3.441
 7121SOL     OW22261   2.083   6.991   3.755
 7121SOL    HW122262   2.172   6.946   3.749
 7121SOL    HW222263   2.030   6.950   3.829
 7122SOL     OW22264   6.680   1.245   0.356
 7122SOL    HW122265   6.661   1.222   0.261
 7122SOL    HW222266   6.776   1.270   0.366
 7123SOL     OW22267   2.859   5.573   1.741
 7123SOL    HW122268   2.942   5.554   1.793
 7123SOL    HW222269   2.830   5.490   1.693
 7124SOL     OW22270   0.697   5.240   0.481
 7124SOL    HW122271   0.670   5.334   0.462
 7124SOL    HW222272   0.796   5.236   0.493
 7125SOL     OW22273   6.109   6.615   2.012
 7125SOL    HW122274   6.145   6.644   1.923
 7125SOL    HW222275   6.084   6.518   2.008
 7126SOL     OW22276   2.353   4.130   0.608
 7126SOL    HW122277   2.397   4.083   0.685
 7126SOL    HW222278   2.303   4.064   0.552
 7127SOL     OW22279   3.573   5.790   3.944
 7127SOL    HW122280   3.560   5.855   4.020
 7127SOL    HW222281   3.661   5.744   3.954
 7128SOL     OW22282   3.488   4.701   0.481
 7128SOL    HW122283   3.512   4.617   0.432
 7128SOL    HW222284   3.561   4.726   0.544
 7129SOL     OW22285   3.155   0.971   0.953
 7129SOL    HW122286   3.107   1.048   0.996
 7129SOL    HW222287   3.254   0.986   0.961
 7130SOL     OW22288   3.225   5.110   4.019
 7130SOL    HW122289   3.171   5.026   4.023
 7130SOL    HW222290   3.166   5.187   3.995
 7131SOL     OW22291   2.990   1.521   2.145
 7131SOL    HW122292   2.969   1.426   2.123
 7131SOL    HW222293   2.976   1.578   2.064
 7132SOL     OW22294   4.112   3.428   2.793
 7132SOL    HW122295   4.039   3.447   2.858
 7132SOL    HW222296   4.118   3.502   2.726
 7133SOL     OW22297   4.714   5.710   3.480
 7133SOL    HW122298   4.748   5.762   3.558
 7133SOL    HW222299   4.619   5.683   3.498
 7134SOL     OW22300   6.169   5.916   3.862
 7134SOL    HW122301   6.216   6.000   3.889
 7134SOL    HW222302   6.214   5.878   3.781
 7135SOL     OW22303   1.233   0.549   4.531
 7135SOL    HW122304   1.151   0.544   4.475
 7135SOL    HW222305   1.225   0.624   4.596
 7136SOL     OW22306   2.053   1.125   0.553
 7136SOL    HW122307   2.145   1.119   0.592
 7136SOL    HW222308   2.003   1.040   0.572
 7137SOL     OW22309   4.609   0.852   4.919
 7137SOL    HW122310   4.638   0.942   4.951
 7137SOL    HW222311   4.606   0.852   4.819
 7138SOL     OW22312   3.351   3.257   0.977
 7138SOL    HW122313   3.260   3.296   0.962
 7138SOL    HW222314   3.401   3.315   1.042
 7139SOL     OW22315   4.713   3.197   1.710
 7139SOL    HW122316   4.812   3.202   1.719
 7139SOL    HW222317   4.677   3.129   1.774
 7140SOL     OW22318   6.439   3.924   4.987
 7140SOL    HW122319   6.378   3.869   4.930
 7140SOL    HW222320   6.451   4.014   4.945
 7141SOL     OW22321   3.102   0.230   0.953
 7141SOL    HW122322   3.052   0.306   0.994
 7141SOL    HW222323   3.136   0.256   0.863
 7142SOL     OW22324   4.189   6.289   3.822
 7142SOL    HW122325   4.097   6.325   3.839
 7142SOL    HW222326   4.186   6.225   3.745
 7143SOL     OW22327   1.658   4.388   5.960
 7143SOL    HW122328   1.636   4.342   5.874
 7143SOL    HW222329   1.711   4.471   5.941
 7144SOL     OW22330   0.673   1.428   2.892
 7144SOL    HW122331   0.714   1.383   2.813
 7144SOL    HW222332   0.622   1.509   2.861
 7145SOL     OW22333   4.360   0.140   6.942
 7145SOL    HW122334   4.457   0.139   6.916
 7145SOL    HW222335   4.340   0.060   6.998
 7146SOL     OW22336   3.051   6.564   0.533
 7146SOL    HW122337   3.034   6.471   0.501
 7146SOL    HW222338   3.097   6.560   0.622
 7147SOL     OW22339   6.838   0.218   3.442
 7147SOL    HW122340   6.826   0.121   3.466
 7147SOL    HW222341   6.923   0.252   3.482
 7148SOL     OW22342   1.410   6.406   1.666
 7148SOL    HW122343   1.422   6.503   1.648
 7148SOL    HW222344   1.498   6.365   1.689
 7149SOL     OW22345   6.095   0.938   3.842
 7149SOL    HW122346   6.048   0.863   3.890
 7149SOL    HW222347   6.176   0.902   3.796
 7150SOL     OW22348   5.233   2.940   0.758
 7150SOL    HW122349   5.173   3.006   0.802
 7150SOL    HW222350   5.204   2.925   0.663
 7151SOL     OW22351   2.033   5.867   1.204
 7151SOL    HW122352   2.018   5.769   1.219
 7151SOL    HW222353   1.944   5.914   1.203
 7152SOL     OW22354   0.383   3.223   4.808
 7152SOL    HW122355   0.475   3.223   4.846
 7152SOL    HW222356   0.325   3.163   4.863
 7153SOL     OW22357   4.187   0.181   4.886
 7153SOL    HW122358   4.277   0.224   4.887
 7153SOL    HW222359   4.197   0.084   4.863
 7154SOL     OW22360   3.517   5.658   4.329
 7154SOL    HW122361   3.561   5.629   4.244
 7154SOL    HW222362   3.543   5.595   4.403
 7155SOL     OW22363   1.130   6.054   2.044
 7155SOL    HW122364   1.103   5.971   1.996
 7155SOL    HW222365   1.169   6.119   1.979
 7156SOL     OW22366   6.821   5.348   5.450
 7156SOL    HW122367   6.841   5.262   5.403
 7156SOL    HW222368   6.733   5.342   5.496
 7157SOL     OW22369   5.977   5.846   0.369
 7157SOL    HW122370   5.956   5.784   0.293
 7157SOL    HW222371   5.913   5.923   0.368
 7158SOL     OW22372   6.964   6.801   3.054
 7158SOL    HW122373   6.916   6.749   3.125
 7158SOL    HW222374   6.898   6.856   3.003
 7159SOL     OW22375   0.457   5.362   1.286
 7159SOL    HW122376   0.420   5.422   1.357
 7159SOL    HW222377   0.528   5.411   1.235
 7160SOL     OW22378   6.579   7.025   1.759
 7160SOL    HW122379   6.523   0.009   1.677
 7160SOL    HW222380   6.523   0.018   1.840
 7161SOL     OW22381   3.544   3.382   3.772
 7161SOL    HW122382   3.459   3.403   3.821
 7161SOL    HW222383   3.613   3.349   3.836
 7162SOL     OW22384   3.622   4.910   4.364
 7162SOL    HW122385   3.529   4.882   4.388
 7162SOL    HW222386   3.618   4.993   4.308
 7163SOL     OW22387   3.687   7.005   3.616
 7163SOL    HW122388   3.783   0.003   3.631
 7163SOL    HW222389   3.631   0.013   3.692
 7164SOL     OW22390   2.206   1.528   3.431
 7164SOL    HW122391   2.284   1.471   3.406
 7164SOL    HW222392   2.204   1.541   3.530
 7165SOL     OW22393   5.947   1.294   0.295
 7165SOL    HW122394   5.934   1.222   0.363
 7165SOL    HW222395   5.943   1.383   0.340
 7166SOL     OW22396   4.716   4.357   1.125
 7166SOL    HW122397   4.640   4.294   1.138
 7166SOL    HW222398   4.684   4.451   1.136
 7167SOL     OW22399   4.766   3.824   5.255
 7167SOL    HW122400   4.761   3.732   5.216
 7167SOL    HW222401   4.674   3.855   5.278
 7168SOL     OW22402   1.070   1.217   4.027
 7168SOL    HW122403   1.136   1.206   3.953
 7168SOL    HW222404   1.102   1.166   4.107
 7169SOL     OW22405   1.507   3.264   6.053
 7169SOL    HW122406   1.532   3.332   5.984
 7169SOL    HW222407   1.550   3.176   6.029
 7170SOL     OW22408   5.127   4.663   3.175
 7170SOL    HW122409   5.053   4.730   3.165
 7170SOL    HW222410   5.093   4.572   3.151
 7171SOL     OW22411   4.353   3.106   5.386
 7171SOL    HW122412   4.276   3.101   5.323
 7171SOL    HW222413   4.334   3.050   5.467
 7172SOL     OW22414   1.572   6.361   0.569
 7172SOL    HW122415   1.514   6.378   0.648
 7172SOL    HW222416   1.588   6.447   0.520
 7173SOL     OW22417   6.762   5.453   4.328
 7173SOL    HW122418   6.682   5.493   4.282
 7173SOL    HW222419   6.835   5.440   4.261
 7174SOL     OW22420   2.022   5.041   0.204
 7174SOL    HW122421   2.042   5.104   0.128
 7174SOL    HW222422   2.019   4.948   0.169
 7175SOL     OW22423   5.305   3.681   0.532
 7175SOL    HW122424   5.372   3.742   0.489
 7175SOL    HW222425   5.352   3.619   0.595
 7176SOL     OW22426   6.937   4.546   2.032
 7176SOL    HW122427   6.975   4.517   1.945
 7176SOL    HW222428   7.011   4.573   2.093
 7177SOL     OW22429   1.166   6.008   3.490
 7177SOL    HW122430   1.097   6.071   3.454
 7177SOL    HW222431   1.179   5.932   3.426
 7178SOL     OW22432   1.366   3.010   5.122
 7178SOL    HW122433   1.448   3.025   5.176
 7178SOL    HW222434   1.319   2.928   5.155
 7179SOL     OW22435   2.969   3.584   5.791
 7179SOL    HW122436   2.924   3.662   5.835
 7179SOL    HW222437   2.979   3.601   5.693
 7180SOL     OW22438   1.038   6.212   6.828
 7180SOL    HW122439   1.042   6.283   6.899
 7180SOL    HW222440   0.982   6.136   6.861
 7181SOL     OW22441   3.805   0.941   1.423
 7181SOL    HW122442   3.766   0.852   1.445
 7181SOL    HW222443   3.901   0.944   1.453
 7182SOL     OW22444   1.966   4.375   5.221
 7182SOL    HW122445   1.987   4.323   5.138
 7182SOL    HW222446   1.965   4.312   5.300
 7183SOL     OW22447   1.453   5.247   2.490
 7183SOL    HW122448   1.497   5.174   2.438
 7183SOL    HW222449   1.359   5.221   2.512
 7184SOL     OW22450   1.357   6.363   4.085
 7184SOL    HW122451   1.361   6.457   4.120
 7184SOL    HW222452   1.438   6.313   4.116
 7185SOL     OW22453   4.827   2.930   6.681
 7185SOL    HW122454   4.787   2.946   6.591
 7185SOL    HW222455   4.811   3.010   6.739
 7186SOL     OW22456   6.680   6.514   5.448
 7186SOL    HW122457   6.721   6.450   5.513
 7186SOL    HW222458   6.623   6.579   5.498
 7187SOL     OW22459   1.392   4.577   1.819
 7187SOL    HW122460   1.456   4.623   1.757
 7187SOL    HW222461   1.434   4.567   1.909
 7188SOL     OW22462   5.492   0.086   2.212
 7188SOL    HW122463   5.465   0.181   2.202
 7188SOL    HW222464   5.410   0.029   2.224
 7189SOL     OW22465   6.561   1.114   6.228
 7189SOL    HW122466   6.573   1.028   6.178
 7189SOL    HW222467   6.482   1.163   6.192
 7190SOL     OW22468   5.348   4.353   3.140
 7190SOL    HW122469   5.413   4.278   3.126
 7190SOL    HW222470   5.346   4.412   3.059
 7191SOL     OW22471   1.142   3.369   2.971
 7191SOL    HW122472   1.206   3.444   2.987
 7191SOL    HW222473   1.066   3.376   3.036
 7192SOL     OW22474   2.525   5.021   6.074
 7192SOL    HW122475   2.554   5.001   5.980
 7192SOL    HW222476   2.434   5.063   6.073
 7193SOL     OW22477   3.158   1.882   4.695
 7193SOL    HW122478   3.157   1.981   4.680
 7193SOL    HW222479   3.064   1.849   4.707
 7194SOL     OW22480   2.466   1.608   1.406
 7194SOL    HW122481   2.537   1.645   1.345
 7194SOL    HW222482   2.376   1.628   1.368
 7195SOL     OW22483   0.148   5.280   0.635
 7195SOL    HW122484   0.150   5.298   0.537
 7195SOL    HW222485   0.093   5.349   0.681
 7196SOL     OW22486   3.022   3.231   3.278
 7196SOL    HW122487   3.059   3.207   3.367
 7196SOL    HW222488   2.988   3.326   3.280
 7197SOL     OW22489   6.871   1.675   4.741
 7197SOL    HW122490   6.875   1.692   4.839
 7197SOL    HW222491   6.957   1.633   4.711
 7198SOL     OW22492   1.727   6.686   5.741
 7198SOL    HW122493   1.645   6.717   5.789
 7198SOL    HW222494   1.800   6.668   5.808
 7199SOL     OW22495   6.994   0.790   2.832
 7199SOL    HW122496   6.990   0.888   2.811
 7199SOL    HW222497   0.049   0.772   2.888
 7200SOL     OW22498   2.493   0.924   0.455
 7200SOL    HW122499   2.412   0.894   0.406
 7200SOL    HW222500   2.533   0.847   0.505
 7201SOL     OW22501   1.620   4.650   2.668
 7201SOL    HW122502   1.572   4.718   2.723
 7201SOL    HW222503   1.621   4.563   2.718
 7202SOL     OW22504   3.936   0.255   6.363
 7202SOL    HW122505   3.873   0.178   6.371
 7202SOL    HW222506   4.004   0.236   6.291
 7203SOL     OW22507   6.193   0.314   0.505
 7203SOL    HW122508   6.233   0.401   0.476
 7203SOL    HW222509   6.158   0.323   0.599
 7204SOL     OW22510   6.289   0.812   3.684
 7204SOL    HW122511   6.356   0.887   3.686
 7204SOL    HW222512   6.240   0.813   3.597
 7205SOL     OW22513   1.583   5.431   2.772
 7205SOL    HW122514   1.508   5.384   2.818
 7205SOL    HW222515   1.557   5.451   2.677
 7206SOL     OW22516   6.926   1.798   0.931
 7206SOL    HW122517   6.864   1.837   0.863
 7206SOL    HW222518   6.881   1.721   0.977
 7207SOL     OW22519   3.454   6.612   1.195
 7207SOL    HW122520   3.453   6.556   1.278
 7207SOL    HW222521   3.468   6.552   1.115
 7208SOL     OW22522   3.692   6.836   4.809
 7208SOL    HW122523   3.751   6.905   4.850
 7208SOL    HW222524   3.748   6.762   4.771
 7209SOL     OW22525   4.031   3.310   4.078
 7209SOL    HW122526   4.025   3.241   4.006
 7209SOL    HW222527   4.015   3.268   4.167
 7210SOL     OW22528   4.423   1.301   3.715
 7210SOL    HW122529   4.516   1.328   3.690
 7210SOL    HW222530   4.357   1.361   3.670
 7211SOL     OW22531   1.117   6.416   4.226
 7211SOL    HW122532   1.130   6.501   4.174
 7211SOL    HW222533   1.187   6.350   4.200
 7212SOL     OW22534   6.688   5.332   4.810
 7212SOL    HW122535   6.688   5.362   4.714
 7212SOL    HW222536   6.746   5.393   4.864
 7213SOL     OW22537   5.441   0.403   5.377
 7213SOL    HW122538   5.456   0.342   5.455
 7213SOL    HW222539   5.405   0.490   5.409
 7214SOL     OW22540   2.473   5.418   4.482
 7214SOL    HW122541   2.419   5.498   4.454
 7214SOL    HW222542   2.523   5.439   4.565
 7215SOL     OW22543   0.865   3.429   3.778
 7215SOL    HW122544   0.892   3.508   3.833
 7215SOL    HW222545   0.827   3.461   3.691
 7216SOL     OW22546   2.415   6.375   0.102
 7216SOL    HW122547   2.494   6.434   0.084
 7216SOL    HW222548   2.410   6.354   0.199
 7217SOL     OW22549   1.214   3.823   2.431
 7217SOL    HW122550   1.247   3.866   2.347
 7217SOL    HW222551   1.174   3.733   2.409
 7218SOL     OW22552   4.627   1.895   5.769
 7218SOL    HW122553   4.713   1.862   5.730
 7218SOL    HW222554   4.583   1.821   5.820
 7219SOL     OW22555   4.514   6.599   3.258
 7219SOL    HW122556   4.461   6.660   3.317
 7219SOL    HW222557   4.569   6.538   3.315
 7220SOL     OW22558   6.564   1.336   2.748
 7220SOL    HW122559   6.559   1.376   2.657
 7220SOL    HW222560   6.614   1.249   2.744
 7221SOL     OW22561   5.733   4.426   5.604
 7221SOL    HW122562   5.800   4.364   5.563
 7221SOL    HW222563   5.701   4.388   5.691
 7222SOL     OW22564   6.605   6.744   1.044
 7222SOL    HW122565   6.519   6.784   1.076
 7222SOL    HW222566   6.587   6.652   1.007
 7223SOL     OW22567   3.084   1.491   6.205
 7223SOL    HW122568   3.011   1.487   6.273
 7223SOL    HW222569   3.114   1.585   6.192
 7224SOL     OW22570   5.875   0.940   4.755
 7224SOL    HW122571   5.795   0.925   4.698
 7224SOL    HW222572   5.909   1.033   4.741
 7225SOL     OW22573   1.745   5.606   0.311
 7225SOL    HW122574   1.835   5.645   0.289
 7225SOL    HW222575   1.708   5.562   0.229
 7226SOL     OW22576   0.689   6.677   0.386
 7226SOL    HW122577   0.783   6.687   0.418
 7226SOL    HW222578   0.674   6.738   0.308
 7227SOL     OW22579   0.505   2.329   0.060
 7227SOL    HW122580   0.547   2.314   0.150
 7227SOL    HW222581   0.577   2.351   7.020
 7228SOL     OW22582   6.820   6.819   1.998
 7228SOL    HW122583   6.771   6.809   1.912
 7228SOL    HW222584   6.802   6.740   2.057
 7229SOL     OW22585   1.273   0.108   4.484
 7229SOL    HW122586   1.332   0.176   4.528
 7229SOL    HW222587   1.326   0.054   4.419
 7230SOL     OW22588   4.649   5.419   3.728
 7230SOL    HW122589   4.662   5.416   3.827
 7230SOL    HW222590   4.568   5.474   3.707
 7231SOL     OW22591   5.763   1.918   6.394
 7231SOL    HW122592   5.683   1.934   6.452
 7231SOL    HW222593   5.839   1.887   6.451
 7232SOL     OW22594   4.464   4.757   2.265
 7232SOL    HW122595   4.477   4.679   2.204
 7232SOL    HW222596   4.373   4.754   2.305
 7233SOL     OW22597   0.263   2.985   5.620
 7233SOL    HW122598   0.182   2.948   5.574
 7233SOL    HW222599   0.295   3.066   5.570
 7234SOL     OW22600   6.565   1.951   1.552
 7234SOL    HW122601   6.514   1.869   1.525
 7234SOL    HW222602   6.558   2.020   1.480
 7235SOL     OW22603   5.182   3.699   4.691
 7235SOL    HW122604   5.085   3.702   4.715
 7235SOL    HW222605   5.215   3.791   4.672
 7236SOL     OW22606   3.879   1.427   3.177
 7236SOL    HW122607   3.847   1.493   3.109
 7236SOL    HW222608   3.943   1.363   3.135
 7237SOL     OW22609   6.256   6.034   5.700
 7237SOL    HW122610   6.222   6.124   5.671
 7237SOL    HW222611   6.180   5.978   5.732
 7238SOL     OW22612   2.703   1.965   2.209
 7238SOL    HW122613   2.801   1.952   2.223
 7238SOL    HW222614   2.652   1.898   2.263
 7239SOL     OW22615   1.903   1.214   2.562
 7239SOL    HW122616   1.833   1.282   2.540
 7239SOL    HW222617   1.963   1.249   2.633
 7240SOL     OW22618   2.935   4.053   0.356
 7240SOL    HW122619   2.947   4.153   0.355
 7240SOL    HW222620   2.876   4.027   0.433
 7241SOL     OW22621   3.433   0.162   5.260
 7241SOL    HW122622   3.336   0.140   5.265
 7241SOL    HW222623   3.445   0.256   5.230
 7242SOL     OW22624   6.082   4.689   6.514
 7242SOL    HW122625   6.095   4.785   6.538
 7242SOL    HW222626   6.162   4.636   6.541
 7243SOL     OW22627   0.907   6.008   6.966
 7243SOL    HW122628   0.919   5.969   6.875
 7243SOL    HW222629   0.944   5.944   0.009
 7244SOL     OW22630   6.148   1.965   1.609
 7244SOL    HW122631   6.050   1.982   1.622
 7244SOL    HW222632   6.179   2.015   1.528
 7245SOL     OW22633   0.341   1.856   4.749
 7245SOL    HW122634   0.272   1.841   4.678
 7245SOL    HW222635   0.398   1.934   4.725
 7246SOL     OW22636   5.935   0.018   5.066
 7246SOL    HW122637   5.959   6.960   5.115
 7246SOL    HW222638   5.836   0.026   5.058
 7247SOL     OW22639   2.548   5.939   2.103
 7247SOL    HW122640   2.449   5.955   2.109
 7247SOL    HW222641   2.594   5.989   2.176
 7248SOL     OW22642   3.852   1.158   3.963
 7248SOL    HW122643   3.797   1.081   3.994
 7248SOL    HW222644   3.929   1.172   4.025
 7249SOL     OW22645   5.764   4.656   7.001
 7249SOL    HW122646   5.722   4.745   7.015
 7249SOL    HW222647   5.703   4.584   0.009
 7250SOL     OW22648   2.981   4.666   5.829
 7250SOL    HW122649   3.000   4.761   5.804
 7250SOL    HW222650   2.939   4.619   5.752
 7251SOL     OW22651   0.041   6.727   4.566
 7251SOL    HW122652   0.024   6.744   4.469
 7251SOL    HW222653   0.084   6.808   4.608
 7252SOL     OW22654   3.459   3.194   4.654
 7252SOL    HW122655   3.453   3.193   4.554
 7252SOL    HW222656   3.490   3.105   4.686
 7253SOL     OW22657   3.165   6.270   0.847
 7253SOL    HW122658   3.254   6.226   0.860
 7253SOL    HW222659   3.103   6.241   0.920
 7254SOL     OW22660   3.930   5.987   4.101
 7254SOL    HW122661   4.017   6.029   4.078
 7254SOL    HW222662   3.872   5.982   4.019
 7255SOL     OW22663   3.336   3.604   2.019
 7255SOL    HW122664   3.399   3.537   2.057
 7255SOL    HW222665   3.287   3.564   1.941
 7256SOL     OW22666   4.318   4.858   3.784
 7256SOL    HW122667   4.316   4.955   3.809
 7256SOL    HW222668   4.342   4.849   3.687
 7257SOL     OW22669   5.822   2.489   3.284
 7257SOL    HW122670   5.812   2.398   3.243
 7257SOL    HW222671   5.899   2.536   3.242
 7258SOL     OW22672   3.439   0.416   4.889
 7258SOL    HW122673   3.480   0.505   4.907
 7258SOL    HW222674   3.343   0.417   4.917
 7259SOL     OW22675   2.249   4.043   0.098
 7259SOL    HW122676   2.275   3.949   0.074
 7259SOL    HW222677   2.330   4.094   0.126
 7260SOL     OW22678   3.282   2.160   2.762
 7260SOL    HW122679   3.222   2.135   2.686
 7260SOL    HW222680   3.291   2.259   2.766
 7261SOL     OW22681   2.049   3.308   2.125
 7261SOL    HW122682   2.056   3.210   2.109
 7261SOL    HW222683   2.100   3.357   2.055
 7262SOL     OW22684   5.687   1.927   4.878
 7262SOL    HW122685   5.603   1.957   4.833
 7262SOL    HW222686   5.765   1.974   4.836
 7263SOL     OW22687   1.468   5.978   1.230
 7263SOL    HW122688   1.476   6.049   1.299
 7263SOL    HW222689   1.559   5.940   1.210
 7264SOL     OW22690   6.821   1.001   6.499
 7264SOL    HW122691   6.733   0.960   6.473
 7264SOL    HW222692   6.864   1.040   6.417
 7265SOL     OW22693   4.637   4.836   5.521
 7265SOL    HW122694   4.578   4.827   5.601
 7265SOL    HW222695   4.728   4.802   5.542
 7266SOL     OW22696   4.695   0.602   2.153
 7266SOL    HW122697   4.775   0.572   2.206
 7266SOL    HW222698   4.712   0.693   2.116
 7267SOL     OW22699   6.984   4.191   4.536
 7267SOL    HW122700   6.939   4.181   4.447
 7267SOL    HW222701   6.944   4.126   4.601
 7268SOL     OW22702   3.941   6.633   1.507
 7268SOL    HW122703   3.894   6.591   1.429
 7268SOL    HW222704   3.892   6.717   1.533
 7269SOL     OW22705   1.019   5.833   1.915
 7269SOL    HW122706   1.096   5.773   1.892
 7269SOL    HW222707   0.981   5.871   1.831
 7270SOL     OW22708   2.279   1.131   3.004
 7270SOL    HW122709   2.337   1.094   2.932
 7270SOL    HW222710   2.309   1.097   3.093
 7271SOL     OW22711   0.149   3.855   2.929
 7271SOL    HW122712   0.150   3.951   2.957
 7271SOL    HW222713   0.146   3.797   3.011
 7272SOL     OW22714   4.879   2.470   2.374
 7272SOL    HW122715   4.929   2.476   2.461
 7272SOL    HW222716   4.915   2.539   2.311
 7273SOL     OW22717   5.772   4.441   0.736
 7273SOL    HW122718   5.754   4.364   0.798
 7273SOL    HW222719   5.699   4.446   0.668
 7274SOL     OW22720   6.834   4.751   5.476
 7274SOL    HW122721   6.916   4.796   5.510
 7274SOL    HW222722   6.825   4.767   5.377
 7275SOL     OW22723   7.006   0.585   0.597
 7275SOL    HW122724   0.017   0.502   0.556
 7275SOL    HW222725   6.907   0.587   0.584
 7276SOL     OW22726   2.205   2.611   4.325
 7276SOL    HW122727   2.261   2.596   4.244
 7276SOL    HW222728   2.149   2.693   4.312
 7277SOL     OW22729   4.379   2.056   4.763
 7277SOL    HW122730   4.398   1.999   4.683
 7277SOL    HW222731   4.334   2.141   4.734
 7278SOL     OW22732   3.284   1.268   3.363
 7278SOL    HW122733   3.376   1.295   3.389
 7278SOL    HW222734   3.258   1.185   3.413
 7279SOL     OW22735   4.782   5.126   0.411
 7279SOL    HW122736   4.731   5.148   0.328
 7279SOL    HW222737   4.735   5.053   0.460
 7280SOL     OW22738   5.530   2.251   4.988
 7280SOL    HW122739   5.470   2.183   5.031
 7280SOL    HW222740   5.565   2.313   5.059
 7281SOL     OW22741   3.755   6.785   2.245
 7281SOL    HW122742   3.737   6.717   2.316
 7281SOL    HW222743   3.751   6.742   2.155
 7282SOL     OW22744   6.877   5.241   2.142
 7282SOL    HW122745   6.843   5.271   2.052
 7282SOL    HW222746   6.967   5.281   2.159
 7283SOL     OW22747   3.985   4.836   2.254
 7283SOL    HW122748   3.907   4.831   2.317
 7283SOL    HW222749   3.952   4.838   2.160
 7284SOL     OW22750   6.381   1.749   3.913
 7284SOL    HW122751   6.356   1.761   3.817
 7284SOL    HW222752   6.400   1.838   3.954
 7285SOL     OW22753   4.877   3.128   2.229
 7285SOL    HW122754   4.935   3.208   2.211
 7285SOL    HW222755   4.843   3.091   2.143
 7286SOL     OW22756   0.705   0.970   1.085
 7286SOL    HW122757   0.731   1.058   1.125
 7286SOL    HW222758   0.664   0.912   1.156
 7287SOL     OW22759   1.470   2.694   4.042
 7287SOL    HW122760   1.469   2.639   4.125
 7287SOL    HW222761   1.428   2.642   3.967
 7288SOL     OW22762   3.013   2.215   3.385
 7288SOL    HW122763   2.998   2.116   3.377
 7288SOL    HW222764   3.084   2.232   3.453
 7289SOL     OW22765   6.119   2.358   1.244
 7289SOL    HW122766   6.168   2.271   1.251
 7289SOL    HW222767   6.178   2.432   1.276
 7290SOL     OW22768   3.324   1.756   5.159
 7290SOL    HW122769   3.270   1.825   5.209
 7290SOL    HW222770   3.397   1.802   5.109
 7291SOL     OW22771   4.346   1.182   0.512
 7291SOL    HW122772   4.326   1.255   0.446
 7291SOL    HW222773   4.323   1.094   0.473
 7292SOL     OW22774   2.112   0.074   2.804
 7292SOL    HW122775   2.055   0.060   2.886
 7292SOL    HW222776   2.053   0.076   2.723
 7293SOL     OW22777   1.575   0.508   5.234
 7293SOL    HW122778   1.644   0.541   5.169
 7293SOL    HW222779   1.484   0.535   5.204
 7294SOL     OW22780   2.492   5.983   1.190
 7294SOL    HW122781   2.515   6.079   1.206
 7294SOL    HW222782   2.404   5.978   1.143
 7295SOL     OW22783   6.259   5.186   2.268
 7295SOL    HW122784   6.209   5.103   2.293
 7295SOL    HW222785   6.343   5.161   2.219
 7296SOL     OW22786   4.997   5.162   1.902
 7296SOL    HW122787   4.972   5.241   1.960
 7296SOL    HW222788   4.922   5.142   1.840
 7297SOL     OW22789   3.807   6.142   1.483
 7297SOL    HW122790   3.715   6.159   1.517
 7297SOL    HW222791   3.871   6.137   1.560
 7298SOL     OW22792   5.047   5.770   6.569
 7298SOL    HW122793   4.959   5.732   6.537
 7298SOL    HW222794   5.113   5.696   6.577
 7299SOL     OW22795   1.654   3.001   0.063
 7299SOL    HW122796   1.680   3.038   0.153
 7299SOL    HW222797   1.662   3.072   7.020
 7300SOL     OW22798   0.563   4.923   1.809
 7300SOL    HW122799   0.478   4.913   1.861
 7300SOL    HW222800   0.543   4.959   1.718
 7301SOL     OW22801   5.303   0.062   5.854
 7301SOL    HW122802   5.395   0.035   5.882
 7301SOL    HW222803   5.269   0.134   5.914
 7302SOL     OW22804   5.030   1.828   6.564
 7302SOL    HW122805   5.079   1.840   6.650
 7302SOL    HW222806   5.080   1.873   6.491
 7303SOL     OW22807   2.740   1.366   1.381
 7303SOL    HW122808   2.766   1.459   1.357
 7303SOL    HW222809   2.821   1.308   1.381
 7304SOL     OW22810   2.755   5.834   1.713
 7304SOL    HW122811   2.663   5.864   1.737
 7304SOL    HW222812   2.758   5.734   1.713
 7305SOL     OW22813   6.087   1.948   0.696
 7305SOL    HW122814   6.088   1.964   0.598
 7305SOL    HW222815   6.026   2.013   0.740
 7306SOL     OW22816   2.346   2.038   1.221
 7306SOL    HW122817   2.380   2.064   1.311
 7306SOL    HW222818   2.366   1.942   1.203
 7307SOL     OW22819   1.642   6.759   1.670
 7307SOL    HW122820   1.580   6.838   1.673
 7307SOL    HW222821   1.614   6.698   1.596
 7308SOL     OW22822   5.381   1.083   2.642
 7308SOL    HW122823   5.353   0.992   2.674
 7308SOL    HW222824   5.346   1.098   2.550
 7309SOL     OW22825   1.687   5.490   3.212
 7309SOL    HW122826   1.613   5.522   3.153
 7309SOL    HW222827   1.757   5.561   3.220
 7310SOL     OW22828   2.180   3.186   0.007
 7310SOL    HW122829   2.142   3.190   6.941
 7310SOL    HW222830   2.112   3.218   0.073
 7311SOL     OW22831   0.013   6.579   6.237
 7311SOL    HW122832   0.063   6.543   6.158
 7311SOL    HW222833   6.960   6.521   6.256
 7312SOL     OW22834   6.658   2.062   4.871
 7312SOL    HW122835   6.618   2.117   4.945
 7312SOL    HW222836   6.753   2.043   4.892
 7313SOL     OW22837   3.196   0.726   1.973
 7313SOL    HW122838   3.232   0.650   1.917
 7313SOL    HW222839   3.134   0.781   1.918
 7314SOL     OW22840   0.373   4.273   0.077
 7314SOL    HW122841   0.393   4.222   7.019
 7314SOL    HW222842   0.367   4.370   0.056
 7315SOL     OW22843   1.440   4.316   2.522
 7315SOL    HW122844   1.519   4.378   2.517
 7315SOL    HW222845   1.368   4.349   2.461
 7316SOL     OW22846   3.645   2.287   0.636
 7316SOL    HW122847   3.668   2.377   0.598
 7316SOL    HW222848   3.685   2.216   0.578
 7317SOL     OW22849   3.920   2.020   1.720
 7317SOL    HW122850   3.841   1.977   1.675
 7317SOL    HW222851   3.992   1.952   1.731
 7318SOL     OW22852   4.082   6.821   0.390
 7318SOL    HW122853   4.023   6.899   0.369
 7318SOL    HW222854   4.068   6.793   0.485
 7319SOL     OW22855   6.254   4.445   0.097
 7319SOL    HW122856   6.201   4.363   0.078
 7319SOL    HW222857   6.234   4.514   0.027
 7320SOL     OW22858   6.739   2.962   1.266
 7320SOL    HW122859   6.738   2.882   1.326
 7320SOL    HW222860   6.793   3.034   1.309
 7321SOL     OW22861   1.543   0.053   6.933
 7321SOL    HW122862   1.600   0.041   6.852
 7321SOL    HW222863   1.503   0.145   6.932
 7322SOL     OW22864   0.685   2.811   2.843
 7322SOL    HW122865   0.774   2.783   2.808
 7322SOL    HW222866   0.613   2.769   2.787
 7323SOL     OW22867   1.191   2.004   1.588
 7323SOL    HW122868   1.128   1.959   1.652
 7323SOL    HW222869   1.282   2.008   1.629
 7324SOL     OW22870   5.647   4.884   3.672
 7324SOL    HW122871   5.607   4.944   3.602
 7324SOL    HW222872   5.581   4.813   3.697
 7325SOL     OW22873   4.555   1.173   5.996
 7325SOL    HW122874   4.528   1.236   6.069
 7325SOL    HW222875   4.545   1.079   6.029
 7326SOL     OW22876   2.709   0.403   6.959
 7326SOL    HW122877   2.708   0.305   6.938
 7326SOL    HW222878   2.760   0.452   6.889
 7327SOL     OW22879   6.832   3.668   2.672
 7327SOL    HW122880   6.777   3.607   2.616
 7327SOL    HW222881   6.845   3.755   2.624
 7328SOL     OW22882   4.346   4.735   4.835
 7328SOL    HW122883   4.371   4.654   4.889
 7328SOL    HW222884   4.263   4.716   4.783
 7329SOL     OW22885   2.717   2.971   1.054
 7329SOL    HW122886   2.662   2.991   0.973
 7329SOL    HW222887   2.746   3.057   1.096
 7330SOL     OW22888   3.221   3.501   1.029
 7330SOL    HW122889   3.179   3.428   1.082
 7330SOL    HW222890   3.282   3.555   1.087
 7331SOL     OW22891   4.871   0.484   3.000
 7331SOL    HW122892   4.953   0.428   2.988
 7331SOL    HW222893   4.861   0.508   3.096
 7332SOL     OW22894   2.885   4.386   6.740
 7332SOL    HW122895   2.930   4.297   6.731
 7332SOL    HW222896   2.907   4.443   6.661
 7333SOL     OW22897   6.814   2.537   1.170
 7333SOL    HW122898   6.726   2.562   1.129
 7333SOL    HW222899   6.858   2.467   1.114
 7334SOL     OW22900   2.837   0.333   5.062
 7334SOL    HW122901   2.841   0.234   5.051
 7334SOL    HW222902   2.753   0.358   5.111
 7335SOL     OW22903   0.160   2.827   2.444
 7335SOL    HW122904   0.119   2.904   2.394
 7335SOL    HW222905   0.253   2.852   2.471
 7336SOL     OW22906   1.536   6.274   1.038
 7336SOL    HW122907   1.437   6.265   1.043
 7336SOL    HW222908   1.567   6.252   0.946
 7337SOL     OW22909   2.351   2.347   2.754
 7337SOL    HW122910   2.276   2.395   2.799
 7337SOL    HW222911   2.355   2.253   2.788
 7338SOL     OW22912   5.843   3.145   1.806
 7338SOL    HW122913   5.797   3.098   1.882
 7338SOL    HW222914   5.919   3.200   1.842
 7339SOL     OW22915   6.634   5.067   4.742
 7339SOL    HW122916   6.639   5.167   4.748
 7339SOL    HW222917   6.595   5.031   4.826
 7340SOL     OW22918   2.942   0.232   0.205
 7340SOL    HW122919   3.019   0.180   0.242
 7340SOL    HW222920   2.953   0.240   0.105
 7341SOL     OW22921   6.419   4.993   3.534
 7341SOL    HW122922   6.486   4.983   3.608
 7341SOL    HW222923   6.338   5.042   3.569
 7342SOL     OW22924   6.813   0.074   0.499
 7342SOL    HW122925   6.810   0.170   0.471
 7342SOL    HW222926   6.904   0.053   0.533
 7343SOL     OW22927   6.194   3.845   1.855
 7343SOL    HW122928   6.225   3.839   1.950
 7343SOL    HW222929   6.127   3.918   1.846
 7344SOL     OW22930   1.534   6.305   0.119
 7344SOL    HW122931   1.628   6.319   0.150
 7344SOL    HW222932   1.480   6.263   0.193
 7345SOL     OW22933   4.351   5.352   6.332
 7345SOL    HW122934   4.300   5.375   6.414
 7345SOL    HW222935   4.335   5.255   6.309
 7346SOL     OW22936   3.951   4.852   1.758
 7346SOL    HW122937   3.994   4.763   1.776
 7346SOL    HW222938   4.022   4.917   1.729
 7347SOL     OW22939   6.453   1.654   2.160
 7347SOL    HW122940   6.477   1.747   2.131
 7347SOL    HW222941   6.533   1.609   2.199
 7348SOL     OW22942   1.339   1.812   3.375
 7348SOL    HW122943   1.323   1.776   3.467
 7348SOL    HW222944   1.353   1.911   3.379
 7349SOL     OW22945   3.425   1.939   0.866
 7349SOL    HW122946   3.395   1.974   0.954
 7349SOL    HW222947   3.513   1.981   0.841
 7350SOL     OW22948   1.779   2.256   3.354
 7350SOL    HW122949   1.699   2.308   3.324
 7350SOL    HW222950   1.753   2.160   3.368
 7351SOL     OW22951   4.707   4.775   6.931
 7351SOL    HW122952   4.664   4.808   7.015
 7351SOL    HW222953   4.693   4.677   6.922
 7352SOL     OW22954   0.703   1.895   2.805
 7352SOL    HW122955   0.756   1.847   2.735
 7352SOL    HW222956   0.737   1.871   2.896
 7353SOL     OW22957   5.643   1.635   4.244
 7353SOL    HW122958   5.566   1.692   4.272
 7353SOL    HW222959   5.725   1.692   4.234
 7354SOL     OW22960   6.109   5.516   5.974
 7354SOL    HW122961   6.196   5.467   5.979
 7354SOL    HW222962   6.035   5.456   6.006
 7355SOL     OW22963   1.443   5.452   1.592
 7355SOL    HW122964   1.442   5.354   1.569
 7355SOL    HW222965   1.421   5.464   1.689
 7356SOL     OW22966   6.205   1.875   6.234
 7356SOL    HW122967   6.152   1.940   6.288
 7356SOL    HW222968   6.170   1.873   6.140
 7357SOL     OW22969   6.236   2.027   0.005
 7357SOL    HW122970   6.206   1.941   6.991
 7357SOL    HW222971   6.279   2.084   6.960
 7358SOL     OW22972   3.164   1.177   4.504
 7358SOL    HW122973   3.114   1.096   4.536
 7358SOL    HW222974   3.158   1.184   4.405
 7359SOL     OW22975   3.741   2.994   2.927
 7359SOL    HW122976   3.797   3.037   2.856
 7359SOL    HW222977   3.644   3.004   2.902
 7360SOL     OW22978   0.755   3.050   5.121
 7360SOL    HW122979   0.779   2.980   5.188
 7360SOL    HW222980   0.673   3.098   5.152
 7361SOL     OW22981   5.219   6.161   2.039
 7361SOL    HW122982   5.316   6.141   2.022
 7361SOL    HW222983   5.210   6.253   2.077
 7362SOL     OW22984   2.043   5.514   5.602
 7362SOL    HW122985   2.123   5.561   5.564
 7362SOL    HW222986   2.055   5.503   5.700
 7363SOL     OW22987   4.777   3.160   6.818
 7363SOL    HW122988   4.800   3.186   6.912
 7363SOL    HW222989   4.821   3.223   6.754
 7364SOL     OW22990   4.494   6.087   1.560
 7364SOL    HW122991   4.546   6.158   1.513
 7364SOL    HW222992   4.495   6.105   1.659
 7365SOL     OW22993   2.418   0.078   1.984
 7365SOL    HW122994   2.489   0.122   2.039
 7365SOL    HW222995   2.459   0.004   1.931
 7366SOL     OW22996   0.538   5.184   6.808
 7366SOL    HW122997   0.591   5.102   6.828
 7366SOL    HW222998   0.455   5.160   6.758
 7367SOL     OW22999   5.051   3.803   1.763
 7367SOL    HW123000   5.027   3.706   1.773
 7367SOL    HW223001   5.047   3.848   1.852
 7368SOL     OW23002   3.144   3.239   4.655
 7368SOL    HW123003   3.057   3.274   4.691
 7368SOL    HW223004   3.127   3.157   4.601
 7369SOL     OW23005   5.022   3.645   0.453
 7369SOL    HW123006   5.118   3.660   0.477
 7369SOL    HW223007   4.981   3.731   0.423
 7370SOL     OW23008   2.684   6.917   0.669
 7370SOL    HW123009   2.744   6.995   0.650
 7370SOL    HW223010   2.603   6.922   0.610
 7371SOL     OW23011   2.967   4.868   4.250
 7371SOL    HW123012   3.040   4.848   4.184
 7371SOL    HW223013   2.882   4.828   4.217
 7372SOL     OW23014   3.271   0.518   5.561
 7372SOL    HW123015   3.211   0.482   5.491
 7372SOL    HW223016   3.343   0.574   5.519
 7373SOL     OW23017   3.674   1.074   2.143
 7373SOL    HW123018   3.650   1.100   2.237
 7373SOL    HW223019   3.708   0.980   2.142
 7374SOL     OW23020   1.715   3.197   6.862
 7374SOL    HW123021   1.630   3.244   6.836
 7374SOL    HW223022   1.769   3.178   6.779
 7375SOL     OW23023   1.112   0.480   4.278
 7375SOL    HW123024   1.043   0.466   4.206
 7375SOL    HW223025   1.136   0.392   4.319
 7376SOL     OW23026   2.500   3.160   6.999
 7376SOL    HW123027   2.474   3.217   6.920
 7376SOL    HW223028   2.431   3.171   0.045
 7377SOL     OW23029   4.800   4.283   1.952
 7377SOL    HW123030   4.860   4.314   2.025
 7377SOL    HW223031   4.707   4.273   1.987
 7378SOL     OW23032   6.848   1.110   5.235
 7378SOL    HW123033   6.833   1.053   5.154
 7378SOL    HW223034   6.880   1.053   5.311
 7379SOL     OW23035   4.259   1.493   2.436
 7379SOL    HW123036   4.196   1.547   2.379
 7379SOL    HW223037   4.330   1.454   2.378
 7380SOL     OW23038   0.249   3.369   5.977
 7380SOL    HW123039   0.327   3.399   6.033
 7380SOL    HW223040   0.269   3.280   5.937
 7381SOL     OW23041   4.674   2.061   2.328
 7381SOL    HW123042   4.705   1.982   2.380
 7381SOL    HW223043   4.578   2.048   2.301
 7382SOL     OW23044   6.785   4.787   4.602
 7382SOL    HW123045   6.880   4.776   4.573
 7382SOL    HW223046   6.769   4.882   4.630
 7383SOL     OW23047   6.880   6.243   3.316
 7383SOL    HW123048   6.881   6.155   3.267
 7383SOL    HW223049   6.936   6.309   3.266
 7384SOL     OW23050   5.379   6.655   2.404
 7384SOL    HW123051   5.464   6.612   2.436
 7384SOL    HW223052   5.401   6.723   2.333
 7385SOL     OW23053   4.828   6.158   1.312
 7385SOL    HW123054   4.928   6.170   1.312
 7385SOL    HW223055   4.786   6.236   1.358
 7386SOL     OW23056   0.617   2.031   5.543
 7386SOL    HW123057   0.548   2.062   5.478
 7386SOL    HW223058   0.675   2.108   5.570
 7387SOL     OW23059   3.750   5.359   3.753
 7387SOL    HW123060   3.718   5.297   3.682
 7387SOL    HW223061   3.787   5.306   3.829
 7388SOL     OW23062   6.658   4.686   3.549
 7388SOL    HW123063   6.589   4.663   3.480
 7388SOL    HW223064   6.630   4.769   3.597
 7389SOL     OW23065   1.746   4.809   6.544
 7389SOL    HW123066   1.675   4.740   6.534
 7389SOL    HW223067   1.732   4.860   6.629
 7390SOL     OW23068   1.064   0.586   5.860
 7390SOL    HW123069   1.031   0.678   5.881
 7390SOL    HW223070   0.988   0.531   5.825
 7391SOL     OW23071   6.322   3.428   6.521
 7391SOL    HW123072   6.241   3.485   6.529
 7391SOL    HW223073   6.301   3.335   6.549
 7392SOL     OW23074   1.303   4.950   4.375
 7392SOL    HW123075   1.387   4.939   4.321
 7392SOL    HW223076   1.252   4.864   4.375
 7393SOL     OW23077   6.857   5.030   1.999
 7393SOL    HW123078   6.944   4.999   1.961
 7393SOL    HW223079   6.873   5.103   2.065
 7394SOL     OW23080   4.171   3.633   6.397
 7394SOL    HW123081   4.112   3.560   6.431
 7394SOL    HW223082   4.156   3.716   6.452
 7395SOL     OW23083   0.676   0.046   0.381
 7395SOL    HW123084   0.757   0.085   0.425
 7395SOL    HW223085   0.670   0.077   0.286
 7396SOL     OW23086   1.269   0.016   6.704
 7396SOL    HW123087   1.274   0.102   6.755
 7396SOL    HW223088   1.301   6.967   6.763
 7397SOL     OW23089   6.763   4.708   5.195
 7397SOL    HW123090   6.859   4.724   5.170
 7397SOL    HW223091   6.733   4.620   5.158
 7398SOL     OW23092   4.665   4.403   4.261
 7398SOL    HW123093   4.628   4.496   4.274
 7398SOL    HW223094   4.688   4.364   4.350
 7399SOL     OW23095   5.241   3.777   6.038
 7399SOL    HW123096   5.298   3.760   5.958
 7399SOL    HW223097   5.182   3.698   6.055
 7400SOL     OW23098   3.149   4.825   6.554
 7400SOL    HW123099   3.139   4.812   6.455
 7400SOL    HW223100   3.091   4.760   6.603
 7401SOL     OW23101   0.220   1.520   4.303
 7401SOL    HW123102   0.184   1.515   4.396
 7401SOL    HW223103   0.291   1.451   4.291
 7402SOL     OW23104   2.636   0.215   3.570
 7402SOL    HW123105   2.642   0.136   3.632
 7402SOL    HW223106   2.727   0.253   3.556
 7403SOL     OW23107   2.118   3.234   2.947
 7403SOL    HW123108   2.033   3.182   2.952
 7403SOL    HW223109   2.164   3.232   3.035
 7404SOL     OW23110   1.137   0.789   1.103
 7404SOL    HW123111   1.226   0.821   1.072
 7404SOL    HW223112   1.065   0.844   1.060
 7405SOL     OW23113   2.882   5.121   5.572
 7405SOL    HW123114   2.887   5.024   5.548
 7405SOL    HW223115   2.794   5.140   5.615
 7406SOL     OW23116   0.999   4.012   2.218
 7406SOL    HW123117   1.038   4.028   2.309
 7406SOL    HW223118   1.029   4.085   2.156
 7407SOL     OW23119   1.068   5.987   5.780
 7407SOL    HW123120   0.994   6.015   5.720
 7407SOL    HW223121   1.136   6.060   5.786
 7408SOL     OW23122   1.436   4.458   5.512
 7408SOL    HW123123   1.470   4.550   5.492
 7408SOL    HW223124   1.504   4.390   5.484
 7409SOL     OW23125   1.617   0.133   4.693
 7409SOL    HW123126   1.555   0.208   4.668
 7409SOL    HW223127   1.573   0.075   4.761
 7410SOL     OW23128   6.976   5.483   1.407
 7410SOL    HW123129   6.930   5.421   1.470
 7410SOL    HW223130   0.028   5.437   1.365
 7411SOL     OW23131   2.743   6.130   4.766
 7411SOL    HW123132   2.812   6.177   4.821
 7411SOL    HW223133   2.662   6.189   4.757
 7412SOL     OW23134   1.880   1.167   1.060
 7412SOL    HW123135   1.977   1.153   1.081
 7412SOL    HW223136   1.825   1.097   1.106
 7413SOL     OW23137   5.939   3.899   4.628
 7413SOL    HW123138   5.927   3.916   4.530
 7413SOL    HW223139   5.926   3.985   4.678
 7414SOL     OW23140   6.313   6.667   2.156
 7414SOL    HW123141   6.305   6.766   2.165
 7414SOL    HW223142   6.241   6.632   2.095
 7415SOL     OW23143   1.922   3.431   3.304
 7415SOL    HW123144   1.909   3.498   3.377
 7415SOL    HW223145   1.912   3.339   3.342
 7416SOL     OW23146   3.623   1.144   4.260
 7416SOL    HW123147   3.594   1.124   4.354
 7416SOL    HW223148   3.636   1.243   4.250
 7417SOL     OW23149   1.272   6.567   0.062
 7417SOL    HW123150   1.297   6.523   7.001
 7417SOL    HW223151   1.353   6.573   0.121
 7418SOL     OW23152   2.707   3.881   1.479
 7418SOL    HW123153   2.708   3.956   1.545
 7418SOL    HW223154   2.631   3.893   1.416
 7419SOL     OW23155   5.884   1.388   5.194
 7419SOL    HW123156   5.936   1.308   5.164
 7419SOL    HW223157   5.917   1.469   5.146
 7420SOL     OW23158   6.349   6.120   2.327
 7420SOL    HW123159   6.270   6.142   2.385
 7420SOL    HW223160   6.316   6.088   2.238
 7421SOL     OW23161   3.992   3.858   1.525
 7421SOL    HW123162   4.016   3.947   1.563
 7421SOL    HW223163   3.903   3.830   1.560
 7422SOL     OW23164   0.090   3.705   0.432
 7422SOL    HW123165   0.004   3.737   0.471
 7422SOL    HW223166   0.140   3.650   0.499
 7423SOL     OW23167   1.843   4.596   5.889
 7423SOL    HW123168   1.931   4.605   5.937
 7423SOL    HW223169   1.847   4.646   5.802
 7424SOL     OW23170   5.251   0.893   4.146
 7424SOL    HW123171   5.263   0.984   4.187
 7424SOL    HW223172   5.157   0.862   4.161
 7425SOL     OW23173   3.682   4.628   6.102
 7425SOL    HW123174   3.651   4.722   6.088
 7425SOL    HW223175   3.780   4.629   6.123
 7426SOL     OW23176   0.939   1.472   6.164
 7426SOL    HW123177   1.037   1.466   6.185
 7426SOL    HW223178   0.886   1.436   6.241
 7427SOL     OW23179   3.253   5.870   4.797
 7427SOL    HW123180   3.163   5.865   4.755
 7427SOL    HW223181   3.249   5.828   4.888
 7428SOL     OW23182   3.616   2.323   5.967
 7428SOL    HW123183   3.668   2.397   5.924
 7428SOL    HW223184   3.546   2.362   6.027
 7429SOL     OW23185   0.253   0.763   2.893
 7429SOL    HW123186   0.251   0.670   2.929
 7429SOL    HW223187   0.344   0.803   2.907
 7430SOL     OW23188   6.309   3.748   5.331
 7430SOL    HW123189   6.248   3.749   5.251
 7430SOL    HW223190   6.381   3.681   5.317
 7431SOL     OW23191   0.484   3.415   2.125
 7431SOL    HW123192   0.437   3.435   2.211
 7431SOL    HW223193   0.467   3.489   2.060
 7432SOL     OW23194   0.027   6.179   4.241
 7432SOL    HW123195   0.053   6.276   4.245
 7432SOL    HW223196   0.077   6.134   4.168
 7433SOL     OW23197   6.315   5.172   0.767
 7433SOL    HW123198   6.298   5.270   0.759
 7433SOL    HW223199   6.263   5.123   0.698
 7434SOL     OW23200   2.920   1.914   6.495
 7434SOL    HW123201   2.884   1.980   6.560
 7434SOL    HW223202   2.975   1.846   6.543
 7435SOL     OW23203   3.031   6.090   6.800
 7435SOL    HW123204   3.126   6.061   6.791
 7435SOL    HW223205   3.016   6.172   6.744
 7436SOL     OW23206   5.342   3.052   6.630
 7436SOL    HW123207   5.262   2.993   6.615
 7436SOL    HW223208   5.397   3.014   6.705
 7437SOL     OW23209   0.329   5.931   6.144
 7437SOL    HW123210   0.240   5.893   6.165
 7437SOL    HW223211   0.330   5.966   6.050
 7438SOL     OW23212   0.419   4.475   2.241
 7438SOL    HW123213   0.356   4.418   2.189
 7438SOL    HW223214   0.495   4.503   2.183
 7439SOL     OW23215   1.962   6.990   3.511
 7439SOL    HW123216   1.916   6.901   3.508
 7439SOL    HW223217   1.991   7.009   3.604
 7440SOL     OW23218   1.078   2.719   4.299
 7440SOL    HW123219   1.124   2.646   4.247
 7440SOL    HW223220   1.005   2.679   4.354
 7441SOL     OW23221   5.228   1.193   4.233
 7441SOL    HW123222   5.227   1.291   4.212
 7441SOL    HW223223   5.273   1.178   4.321
 7442SOL     OW23224   1.192   1.478   6.266
 7442SOL    HW123225   1.251   1.402   6.239
 7442SOL    HW223226   1.238   1.564   6.248
 7443SOL     OW23227   1.052   1.150   6.242
 7443SOL    HW123228   1.004   1.175   6.326
 7443SOL    HW223229   1.150   1.152   6.258
 7444SOL     OW23230   0.406   3.197   5.779
 7444SOL    HW123231   0.458   3.113   5.766
 7444SOL    HW223232   0.462   3.275   5.753
 7445SOL     OW23233   5.375   1.281   1.871
 7445SOL    HW123234   5.325   1.267   1.956
 7445SOL    HW223235   5.443   1.209   1.859
 7446SOL     OW23236   6.844   3.780   1.021
 7446SOL    HW123237   6.774   3.767   1.091
 7446SOL    HW223238   6.800   3.791   0.932
 7447SOL     OW23239   1.095   4.139   0.015
 7447SOL    HW123240   1.027   4.141   6.968
 7447SOL    HW223241   1.059   4.087   0.093
 7448SOL     OW23242   5.606   0.021   5.586
 7448SOL    HW123243   5.632   0.033   5.491
 7448SOL    HW223244   5.553   6.963   5.597
 7449SOL     OW23245   4.871   2.210   2.092
 7449SOL    HW123246   4.909   2.298   2.063
 7449SOL    HW223247   4.840   2.217   2.187
 7450SOL     OW23248   4.477   2.032   2.688
 7450SOL    HW123249   4.433   2.085   2.760
 7450SOL    HW223250   4.462   2.077   2.600
 7451SOL     OW23251   1.767   0.839   4.723
 7451SOL    HW123252   1.802   0.831   4.629
 7451SOL    HW223253   1.770   0.750   4.768
 7452SOL     OW23254   2.243   6.903   4.633
 7452SOL    HW123255   2.169   6.852   4.587
 7452SOL    HW223256   2.204   6.978   4.685
 7453SOL     OW23257   5.930   6.277   5.267
 7453SOL    HW123258   5.854   6.329   5.306
 7453SOL    HW223259   5.896   6.217   5.196
 7454SOL     OW23260   0.785   3.280   1.570
 7454SOL    HW123261   0.700   3.310   1.526
 7454SOL    HW223262   0.811   3.347   1.639
 7455SOL     OW23263   4.741   2.698   0.366
 7455SOL    HW123264   4.746   2.773   0.431
 7455SOL    HW223265   4.712   2.614   0.413
 7456SOL     OW23266   1.288   3.502   4.984
 7456SOL    HW123267   1.304   3.437   5.058
 7456SOL    HW223268   1.199   3.485   4.943
 7457SOL     OW23269   5.756   0.952   5.228
 7457SOL    HW123270   5.829   0.885   5.211
 7457SOL    HW223271   5.718   0.982   5.140
 7458SOL     OW23272   3.141   0.964   6.837
 7458SOL    HW123273   3.176   0.909   6.913
 7458SOL    HW223274   3.088   1.041   6.872
 7459SOL     OW23275   4.600   0.455   5.413
 7459SOL    HW123276   4.548   0.510   5.348
 7459SOL    HW223277   4.670   0.403   5.364
 7460SOL     OW23278   0.954   4.593   0.622
 7460SOL    HW123279   0.961   4.523   0.551
 7460SOL    HW223280   0.897   4.668   0.590
 7461SOL     OW23281   5.282   1.106   5.202
 7461SOL    HW123282   5.219   1.180   5.177
 7461SOL    HW223283   5.229   1.025   5.229
 7462SOL     OW23284   2.189   2.000   2.353
 7462SOL    HW123285   2.222   1.959   2.268
 7462SOL    HW223286   2.210   1.940   2.430
 7463SOL     OW23287   4.375   3.356   1.716
 7463SOL    HW123288   4.322   3.435   1.748
 7463SOL    HW223289   4.446   3.388   1.654
 7464SOL     OW23290   4.881   6.184   0.923
 7464SOL    HW123291   4.810   6.195   0.993
 7464SOL    HW223292   4.947   6.115   0.953
 7465SOL     OW23293   2.664   0.340   1.587
 7465SOL    HW123294   2.594   0.393   1.635
 7465SOL    HW223295   2.650   0.348   1.489
 7466SOL     OW23296   0.573   0.115   0.077
 7466SOL    HW123297   0.533   0.198   0.117
 7466SOL    HW223298   0.663   0.137   0.040
 7467SOL     OW23299   0.356   2.067   1.281
 7467SOL    HW123300   0.270   2.107   1.313
 7467SOL    HW223301   0.426   2.137   1.276
 7468SOL     OW23302   5.479   1.617   2.950
 7468SOL    HW123303   5.527   1.538   2.990
 7468SOL    HW223304   5.512   1.631   2.856
 7469SOL     OW23305   1.003   0.943   0.414
 7469SOL    HW123306   1.010   1.018   0.348
 7469SOL    HW223307   0.963   0.863   0.369
 7470SOL     OW23308   0.344   1.834   1.813
 7470SOL    HW123309   0.264   1.850   1.755
 7470SOL    HW223310   0.425   1.823   1.755
 7471SOL     OW23311   6.378   6.488   5.218
 7471SOL    HW123312   6.377   6.520   5.312
 7471SOL    HW223313   6.450   6.536   5.167
 7472SOL     OW23314   4.023   0.230   4.073
 7472SOL    HW123315   4.105   0.268   4.118
 7472SOL    HW223316   3.973   0.173   4.138
 7473SOL     OW23317   0.026   3.456   4.116
 7473SOL    HW123318   0.086   3.420   4.045
 7473SOL    HW223319   6.956   3.446   4.089
 7474SOL     OW23320   3.282   0.957   3.791
 7474SOL    HW123321   3.261   0.863   3.817
 7474SOL    HW223322   3.245   0.976   3.700
 7475SOL     OW23323   4.019   0.597   1.302
 7475SOL    HW123324   4.017   0.680   1.247
 7475SOL    HW223325   4.042   0.519   1.244
 7476SOL     OW23326   4.127   5.756   4.504
 7476SOL    HW123327   4.133   5.853   4.480
 7476SOL    HW223328   4.126   5.746   4.604
 7477SOL     OW23329   4.367   1.007   3.548
 7477SOL    HW123330   4.387   1.027   3.644
 7477SOL    HW223331   4.325   1.087   3.505
 7478SOL     OW23332   2.381   4.086   6.774
 7478SOL    HW123333   2.338   4.060   6.861
 7478SOL    HW223334   2.443   4.163   6.790
 7479SOL     OW23335   4.432   0.575   0.275
 7479SOL    HW123336   4.492   0.547   0.200
 7479SOL    HW223337   4.483   0.633   0.338
 7480SOL     OW23338   5.896   5.859   1.268
 7480SOL    HW123339   5.974   5.874   1.329
 7480SOL    HW223340   5.911   5.910   1.183
 7481SOL     OW23341   6.126   4.698   0.571
 7481SOL    HW123342   6.084   4.682   0.661
 7481SOL    HW223343   6.121   4.613   0.518
 7482SOL     OW23344   4.922   0.867   2.765
 7482SOL    HW123345   4.888   0.777   2.792
 7482SOL    HW223346   4.903   0.933   2.837
 7483SOL     OW23347   3.674   1.414   4.249
 7483SOL    HW123348   3.617   1.457   4.180
 7483SOL    HW223349   3.636   1.433   4.340
 7484SOL     OW23350   1.831   6.142   1.979
 7484SOL    HW123351   1.874   6.095   1.902
 7484SOL    HW223352   1.896   6.207   2.019
 7485SOL     OW23353   3.276   5.614   5.892
 7485SOL    HW123354   3.270   5.668   5.977
 7485SOL    HW223355   3.372   5.601   5.869
 7486SOL     OW23356   3.341   5.869   5.323
 7486SOL    HW123357   3.253   5.825   5.304
 7486SOL    HW223358   3.345   5.958   5.277
 7487SOL     OW23359   3.027   6.521   3.149
 7487SOL    HW123360   3.014   6.615   3.118
 7487SOL    HW223361   2.938   6.480   3.169
 7488SOL     OW23362   3.042   7.007   5.459
 7488SOL    HW123363   2.965   0.040   5.482
 7488SOL    HW223364   3.126   0.036   5.456
 7489SOL     OW23365   4.638   2.682   4.263
 7489SOL    HW123366   4.559   2.741   4.282
 7489SOL    HW223367   4.709   2.700   4.330
 7490SOL     OW23368   6.454   1.360   0.889
 7490SOL    HW123369   6.521   1.365   0.962
 7490SOL    HW223370   6.453   1.268   0.850
 7491SOL     OW23371   0.135   5.782   6.539
 7491SOL    HW123372   0.127   5.818   6.446
 7491SOL    HW223373   0.156   5.856   6.602
 7492SOL     OW23374   2.168   3.018   5.220
 7492SOL    HW123375   2.096   2.983   5.159
 7492SOL    HW223376   2.257   3.002   5.179
 7493SOL     OW23377   5.657   3.703   6.172
 7493SOL    HW123378   5.612   3.792   6.185
 7493SOL    HW223379   5.741   3.700   6.226
 7494SOL     OW23380   5.894   0.847   1.900
 7494SOL    HW123381   5.989   0.879   1.892
 7494SOL    HW223382   5.894   0.752   1.929
 7495SOL     OW23383   2.756   1.631   0.567
 7495SOL    HW123384   2.816   1.689   0.621
 7495SOL    HW223385   2.765   1.654   0.470
 7496SOL     OW23386   1.011   5.251   6.221
 7496SOL    HW123387   0.937   5.308   6.258
 7496SOL    HW223388   1.041   5.288   6.133
 7497SOL     OW23389   1.916   4.636   2.494
 7497SOL    HW123390   1.883   4.558   2.547
 7497SOL    HW223391   1.942   4.710   2.557
 7498SOL     OW23392   2.698   1.280   4.733
 7498SOL    HW123393   2.628   1.268   4.664
 7498SOL    HW223394   2.662   1.337   4.807
 7499SOL     OW23395   5.307   6.575   4.697
 7499SOL    HW123396   5.338   6.488   4.660
 7499SOL    HW223397   5.265   6.561   4.786
 7500SOL     OW23398   4.488   5.764   2.233
 7500SOL    HW123399   4.394   5.738   2.257
 7500SOL    HW223400   4.489   5.806   2.142
 7501SOL     OW23401   1.131   3.448   3.646
 7501SOL    HW123402   1.114   3.359   3.604
 7501SOL    HW223403   1.124   3.440   3.745
 7502SOL     OW23404   2.674   0.912   4.887
 7502SOL    HW123405   2.576   0.890   4.884
 7502SOL    HW223406   2.719   0.875   4.807
 7503SOL     OW23407   2.922   0.824   6.695
 7503SOL    HW123408   2.974   0.841   6.779
 7503SOL    HW223409   2.964   0.875   6.619
 7504SOL     OW23410   4.016   6.599   3.530
 7504SOL    HW123411   3.958   6.519   3.514
 7504SOL    HW223412   3.958   6.681   3.540
 7505SOL     OW23413   1.662   0.898   5.361
 7505SOL    HW123414   1.757   0.892   5.391
 7505SOL    HW223415   1.657   0.884   5.262
 7506SOL     OW23416   3.140   1.247   2.471
 7506SOL    HW123417   3.208   1.195   2.522
 7506SOL    HW223418   3.053   1.248   2.521
 7507SOL     OW23419   0.316   6.035   5.900
 7507SOL    HW123420   0.239   6.071   5.848
 7507SOL    HW223421   0.396   6.093   5.886
 7508SOL     OW23422   5.530   6.708   3.245
 7508SOL    HW123423   5.596   6.634   3.263
 7508SOL    HW223424   5.448   6.669   3.204
 7509SOL     OW23425   5.451   3.734   6.522
 7509SOL    HW123426   5.510   3.810   6.547
 7509SOL    HW223427   5.397   3.758   6.441
 7510SOL     OW23428   3.392   3.790   4.862
 7510SOL    HW123429   3.349   3.858   4.922
 7510SOL    HW223430   3.459   3.835   4.803
 7511SOL     OW23431   1.595   7.007   2.351
 7511SOL    HW123432   1.672   0.011   2.407
 7511SOL    HW223433   1.630   6.962   2.268
 7512SOL     OW23434   2.710   3.387   1.507
 7512SOL    HW123435   2.698   3.443   1.425
 7512SOL    HW223436   2.696   3.443   1.588
 7513SOL     OW23437   1.579   2.272   5.845
 7513SOL    HW123438   1.619   2.270   5.753
 7513SOL    HW223439   1.613   2.194   5.897
 7514SOL     OW23440   2.827   6.049   2.148
 7514SOL    HW123441   2.854   6.025   2.054
 7514SOL    HW223442   2.848   5.973   2.209
 7515SOL     OW23443   0.225   0.079   3.048
 7515SOL    HW123444   0.171   0.116   2.972
 7515SOL    HW223445   0.264   0.155   3.100
 7516SOL     OW23446   0.146   0.476   4.634
 7516SOL    HW123447   0.089   0.397   4.614
 7516SOL    HW223448   0.239   0.446   4.656
 7517SOL     OW23449   0.314   3.676   1.310
 7517SOL    HW123450   0.357   3.703   1.224
 7517SOL    HW223451   0.311   3.576   1.316
 7518SOL     OW23452   3.992   5.466   3.564
 7518SOL    HW123453   3.896   5.463   3.534
 7518SOL    HW223454   4.038   5.382   3.533
 7519SOL     OW23455   1.332   6.214   4.860
 7519SOL    HW123456   1.377   6.243   4.775
 7519SOL    HW223457   1.401   6.200   4.930
 7520SOL     OW23458   1.280   6.740   3.381
 7520SOL    HW123459   1.322   6.781   3.299
 7520SOL    HW223460   1.206   6.800   3.413
 7521SOL     OW23461   4.776   4.254   4.806
 7521SOL    HW123462   4.833   4.186   4.761
 7521SOL    HW223463   4.767   4.232   4.903
 7522SOL     OW23464   2.139   1.620   0.008
 7522SOL    HW123465   2.043   1.592   0.010
 7522SOL    HW223466   2.181   1.602   0.096
 7523SOL     OW23467   5.621   0.258   5.721
 7523SOL    HW123468   5.620   0.174   5.666
 7523SOL    HW223469   5.713   0.275   5.755
 7524SOL     OW23470   0.285   1.889   5.487
 7524SOL    HW123471   0.385   1.894   5.493
 7524SOL    HW223472   0.246   1.976   5.515
 7525SOL     OW23473   1.725   0.991   0.245
 7525SOL    HW123474   1.643   0.940   0.271
 7525SOL    HW223475   1.772   0.944   0.170
 7526SOL     OW23476   3.816   2.933   4.426
 7526SOL    HW123477   3.747   2.904   4.492
 7526SOL    HW223478   3.883   2.991   4.471
 7527SOL     OW23479   5.205   4.251   2.589
 7527SOL    HW123480   5.154   4.230   2.506
 7527SOL    HW223481   5.303   4.242   2.570
 7528SOL     OW23482   4.337   2.829   0.486
 7528SOL    HW123483   4.346   2.734   0.456
 7528SOL    HW223484   4.273   2.877   0.425
 7529SOL     OW23485   4.089   1.221   4.161
 7529SOL    HW123486   4.085   1.256   4.255
 7529SOL    HW223487   4.182   1.230   4.126
 7530SOL     OW23488   6.874   3.666   2.257
 7530SOL    HW123489   6.927   3.597   2.305
 7530SOL    HW223490   6.933   3.743   2.231
 7531SOL     OW23491   4.168   1.843   3.893
 7531SOL    HW123492   4.230   1.765   3.883
 7531SOL    HW223493   4.163   1.892   3.806
 7532SOL     OW23494   5.661   5.945   2.040
 7532SOL    HW123495   5.707   5.875   1.985
 7532SOL    HW223496   5.705   5.950   2.130
 7533SOL     OW23497   3.352   1.405   4.100
 7533SOL    HW123498   3.313   1.467   4.033
 7533SOL    HW223499   3.360   1.313   4.060
 7534SOL     OW23500   4.111   6.139   5.208
 7534SOL    HW123501   4.106   6.238   5.226
 7534SOL    HW223502   4.020   6.099   5.213
 7535SOL     OW23503   2.915   2.568   5.817
 7535SOL    HW123504   2.834   2.622   5.844
 7535SOL    HW223505   2.886   2.475   5.792
 7536SOL     OW23506   4.362   5.281   4.415
 7536SOL    HW123507   4.410   5.242   4.336
 7536SOL    HW223508   4.428   5.323   4.476
 7537SOL     OW23509   1.723   4.630   4.705
 7537SOL    HW123510   1.645   4.568   4.703
 7537SOL    HW223511   1.739   4.666   4.613
 7538SOL     OW23512   3.211   3.562   2.691
 7538SOL    HW123513   3.258   3.627   2.751
 7538SOL    HW223514   3.165   3.493   2.746
 7539SOL     OW23515   1.989   3.223   5.245
 7539SOL    HW123516   2.018   3.294   5.181
 7539SOL    HW223517   2.058   3.151   5.249
 7540SOL     OW23518   2.666   1.456   6.779
 7540SOL    HW123519   2.584   1.481   6.831
 7540SOL    HW223520   2.639   1.417   6.691
 7541SOL     OW23521   6.023   2.182   5.391
 7541SOL    HW123522   5.966   2.114   5.436
 7541SOL    HW223523   5.967   2.237   5.329
 7542SOL     OW23524   1.228   0.129   6.024
 7542SOL    HW123525   1.202   0.056   5.961
 7542SOL    HW223526   1.146   0.162   6.071
 7543SOL     OW23527   4.166   3.274   0.338
 7543SOL    HW123528   4.242   3.339   0.343
 7543SOL    HW223529   4.177   3.215   0.259
 7544SOL     OW23530   1.338   2.136   2.910
 7544SOL    HW123531   1.240   2.151   2.915
 7544SOL    HW223532   1.386   2.214   2.950
 7545SOL     OW23533   4.636   0.068   2.692
 7545SOL    HW123534   4.582   0.011   2.754
 7545SOL    HW223535   4.690   0.133   2.745
 7546SOL     OW23536   5.594   0.570   0.581
 7546SOL    HW123537   5.663   0.594   0.513
 7546SOL    HW223538   5.558   0.653   0.624
 7547SOL     OW23539   3.856   0.588   0.487
 7547SOL    HW123540   3.881   0.542   0.572
 7547SOL    HW223541   3.818   0.678   0.508
 7548SOL     OW23542   2.696   1.665   1.599
 7548SOL    HW123543   2.702   1.757   1.637
 7548SOL    HW223544   2.601   1.644   1.577
 7549SOL     OW23545   5.284   1.789   2.620
 7549SOL    HW123546   5.320   1.725   2.552
 7549SOL    HW223547   5.249   1.737   2.698
 7550SOL     OW23548   2.161   6.128   2.440
 7550SOL    HW123549   2.232   6.061   2.463
 7550SOL    HW223550   2.088   6.083   2.389
 7551SOL     OW23551   4.426   3.467   6.593
 7551SOL    HW123552   4.478   3.513   6.665
 7551SOL    HW223553   4.392   3.380   6.628
 7552SOL     OW23554   2.337   5.401   3.957
 7552SOL    HW123555   2.316   5.487   3.910
 7552SOL    HW223556   2.413   5.415   4.020
 7553SOL     OW23557   4.112   5.250   6.140
 7553SOL    HW123558   4.056   5.207   6.069
 7553SOL    HW223559   4.052   5.298   6.204
 7554SOL     OW23560   4.693   1.536   0.867
 7554SOL    HW123561   4.616   1.489   0.824
 7554SOL    HW223562   4.740   1.474   0.929
 7555SOL     OW23563   0.238   5.641   5.440
 7555SOL    HW123564   0.291   5.651   5.356
 7555SOL    HW223565   0.201   5.548   5.446
 7556SOL     OW23566   0.604   3.278   4.942
 7556SOL    HW123567   0.660   3.360   4.939
 7556SOL    HW223568   0.583   3.255   5.037
 7557SOL     OW23569   5.104   3.964   6.196
 7557SOL    HW123570   5.152   3.908   6.129
 7557SOL    HW223571   5.077   4.050   6.154
 7558SOL     OW23572   2.104   3.011   3.924
 7558SOL    HW123573   2.195   2.973   3.942
 7558SOL    HW223574   2.085   3.004   3.826
 7559SOL     OW23575   6.833   4.871   0.698
 7559SOL    HW123576   6.899   4.945   0.714
 7559SOL    HW223577   6.743   4.900   0.729
 7560SOL     OW23578   5.414   6.693   0.854
 7560SOL    HW123579   5.386   6.671   0.761
 7560SOL    HW223580   5.417   6.792   0.866
 7561SOL     OW23581   0.234   3.538   0.633
 7561SOL    HW123582   0.302   3.464   0.638
 7561SOL    HW223583   0.222   3.578   0.724
 7562SOL     OW23584   5.574   6.290   5.275
 7562SOL    HW123585   5.629   6.363   5.317
 7562SOL    HW223586   5.536   6.231   5.346
 7563SOL     OW23587   3.474   0.335   1.402
 7563SOL    HW123588   3.550   0.330   1.337
 7563SOL    HW223589   3.495   0.403   1.472
 7564SOL     OW23590   4.990   6.956   2.902
 7564SOL    HW123591   5.050   6.998   2.835
 7564SOL    HW223592   5.044   6.902   2.967
 7565SOL     OW23593   4.606   5.116   6.550
 7565SOL    HW123594   4.629   5.199   6.601
 7565SOL    HW223595   4.657   5.039   6.587
 7566SOL     OW23596   6.957   5.462   4.141
 7566SOL    HW123597   7.000   5.446   4.052
 7566SOL    HW223598   6.994   5.546   4.182
 7567SOL     OW23599   2.577   4.450   5.674
 7567SOL    HW123600   2.525   4.524   5.717
 7567SOL    HW223601   2.670   4.481   5.656
 7568SOL     OW23602   5.539   5.729   3.115
 7568SOL    HW123603   5.455   5.746   3.166
 7568SOL    HW223604   5.567   5.634   3.126
 7569SOL     OW23605   4.389   5.867   6.870
 7569SOL    HW123606   4.397   5.964   6.846
 7569SOL    HW223607   4.451   5.814   6.813
 7570SOL     OW23608   5.995   5.028   3.964
 7570SOL    HW123609   6.088   4.999   3.985
 7570SOL    HW223610   5.970   4.996   3.872
 7571SOL     OW23611   5.805   3.905   1.615
 7571SOL    HW123612   5.828   3.827   1.557
 7571SOL    HW223613   5.719   3.946   1.584
 7572SOL     OW23614   4.043   0.954   4.262
 7572SOL    HW123615   4.098   1.024   4.216
 7572SOL    HW223616   4.025   0.983   4.357
 7573SOL     OW23617   0.110   5.266   4.757
 7573SOL    HW123618   0.168   5.337   4.716
 7573SOL    HW223619   0.016   5.277   4.724
 7574SOL     OW23620   5.720   1.091   3.788
 7574SOL    HW123621   5.671   1.021   3.839
 7574SOL    HW223622   5.680   1.181   3.808
 7575SOL     OW23623   4.118   1.388   5.754
 7575SOL    HW123624   4.047   1.329   5.792
 7575SOL    HW223625   4.204   1.337   5.747
 7576SOL     OW23626   6.024   4.129   0.164
 7576SOL    HW123627   5.954   4.144   0.234
 7576SOL    HW223628   6.114   4.149   0.202
 7577SOL     OW23629   6.545   1.061   4.861
 7577SOL    HW123630   6.458   1.056   4.911
 7577SOL    HW223631   6.531   1.030   4.767
 7578SOL     OW23632   2.087   6.256   4.691
 7578SOL    HW123633   2.048   6.230   4.602
 7578SOL    HW223634   2.018   6.242   4.763
 7579SOL     OW23635   3.802   2.128   2.512
 7579SOL    HW123636   3.717   2.076   2.522
 7579SOL    HW223637   3.830   2.164   2.601
 7580SOL     OW23638   1.938   4.131   2.791
 7580SOL    HW123639   1.886   4.045   2.784
 7580SOL    HW223640   2.020   4.115   2.846
 7581SOL     OW23641   5.683   1.422   0.971
 7581SOL    HW123642   5.613   1.410   1.042
 7581SOL    HW223643   5.714   1.333   0.940
 7582SOL     OW23644   3.598   1.757   1.045
 7582SOL    HW123645   3.569   1.815   0.969
 7582SOL    HW223646   3.695   1.735   1.034
 7583SOL     OW23647   5.928   3.911   2.099
 7583SOL    HW123648   5.952   3.837   2.163
 7583SOL    HW223649   5.998   3.982   2.104
 7584SOL     OW23650   2.659   6.439   1.103
 7584SOL    HW123651   2.683   6.526   1.144
 7584SOL    HW223652   2.573   6.448   1.053
 7585SOL     OW23653   1.436   4.409   6.444
 7585SOL    HW123654   1.515   4.439   6.497
 7585SOL    HW223655   1.446   4.440   6.350
 7586SOL     OW23656   2.743   0.134   2.891
 7586SOL    HW123657   2.740   0.039   2.857
 7586SOL    HW223658   2.753   0.196   2.814
 7587SOL     OW23659   1.342   2.053   0.447
 7587SOL    HW123660   1.321   1.989   0.521
 7587SOL    HW223661   1.382   2.004   0.370
 7588SOL     OW23662   0.703   5.122   2.229
 7588SOL    HW123663   0.672   5.139   2.322
 7588SOL    HW223664   0.636   5.157   2.164
 7589SOL     OW23665   6.208   6.022   0.436
 7589SOL    HW123666   6.198   6.109   0.388
 7589SOL    HW223667   6.130   5.963   0.414
 7590SOL     OW23668   2.708   1.768   5.796
 7590SOL    HW123669   2.692   1.863   5.766
 7590SOL    HW223670   2.701   1.707   5.717
 7591SOL     OW23671   0.492   5.362   0.027
 7591SOL    HW123672   0.464   5.306   6.975
 7591SOL    HW223673   0.533   5.305   0.097
 7592SOL     OW23674   6.701   5.396   6.954
 7592SOL    HW123675   6.676   5.489   6.980
 7592SOL    HW223676   6.769   5.360   7.019
 7593SOL     OW23677   5.014   2.373   0.162
 7593SOL    HW123678   4.916   2.384   0.149
 7593SOL    HW223679   5.042   2.282   0.134
 7594SOL     OW23680   1.105   5.812   3.293
 7594SOL    HW123681   1.138   5.732   3.244
 7594SOL    HW223682   1.014   5.793   3.331
 7595SOL     OW23683   0.054   3.178   6.165
 7595SOL    HW123684   0.099   3.212   6.248
 7595SOL    HW223685   0.056   3.249   6.094
 7596SOL     OW23686   4.987   4.403   2.538
 7596SOL    HW123687   5.083   4.392   2.562
 7596SOL    HW223688   4.935   4.324   2.571
 7597SOL     OW23689   3.517   5.572   1.999
 7597SOL    HW123690   3.492   5.506   1.928
 7597SOL    HW223691   3.614   5.594   1.992
 7598SOL     OW23692   6.752   0.120   3.157
 7598SOL    HW123693   6.727   0.040   3.211
 7598SOL    HW223694   6.796   0.187   3.217
 7599SOL     OW23695   6.218   1.541   3.126
 7599SOL    HW123696   6.310   1.523   3.092
 7599SOL    HW223697   6.179   1.619   3.077
 7600SOL     OW23698   1.397   0.218   2.302
 7600SOL    HW123699   1.372   0.266   2.386
 7600SOL    HW223700   1.482   0.166   2.318
 7601SOL     OW23701   2.361   6.212   3.421
 7601SOL    HW123702   2.334   6.297   3.466
 7601SOL    HW223703   2.303   6.196   3.342
 7602SOL     OW23704   2.325   4.327   4.495
 7602SOL    HW123705   2.284   4.241   4.527
 7602SOL    HW223706   2.254   4.386   4.457
 7603SOL     OW23707   0.669   6.063   0.043
 7603SOL    HW123708   0.754   6.055   7.016
 7603SOL    HW223709   0.659   6.156   0.078
 7604SOL     OW23710   3.523   5.933   4.153
 7604SOL    HW123711   3.524   6.029   4.183
 7604SOL    HW223712   3.506   5.874   4.232
 7605SOL     OW23713   0.906   5.161   6.864
 7605SOL    HW123714   0.921   5.124   6.773
 7605SOL    HW223715   0.810   5.151   6.889
 7606SOL     OW23716   0.196   2.761   1.861
 7606SOL    HW123717   0.113   2.708   1.876
 7606SOL    HW223718   0.273   2.716   1.906
 7607SOL     OW23719   5.040   0.098   0.004
 7607SOL    HW123720   5.046   0.163   6.954
 7607SOL    HW223721   5.074   0.009   6.999
 7608SOL     OW23722   2.938   3.500   3.298
 7608SOL    HW123723   3.010   3.491   3.229
 7608SOL    HW223724   2.926   3.597   3.322
 7609SOL     OW23725   0.360   3.479   4.167
 7609SOL    HW123726   0.303   3.445   4.242
 7609SOL    HW223727   0.456   3.475   4.193
 7610SOL     OW23728   5.905   0.643   1.456
 7610SOL    HW123729   5.848   0.561   1.451
 7610SOL    HW223730   5.849   0.721   1.480
 7611SOL     OW23731   1.206   2.095   6.897
 7611SOL    HW123732   1.124   2.147   6.923
 7611SOL    HW223733   1.192   1.998   6.916
 7612SOL     OW23734   3.922   1.763   3.917
 7612SOL    HW123735   3.925   1.665   3.897
 7612SOL    HW223736   4.010   1.804   3.895
 7613SOL     OW23737   4.802   1.058   1.276
 7613SOL    HW123738   4.823   1.050   1.373
 7613SOL    HW223739   4.777   0.969   1.240
 7614SOL     OW23740   3.888   2.096   2.004
 7614SOL    HW123741   3.919   2.079   1.910
 7614SOL    HW223742   3.803   2.148   2.003
 7615SOL     OW23743   4.211   5.215   6.553
 7615SOL    HW123744   4.123   5.198   6.596
 7615SOL    HW223745   4.239   5.134   6.501
 7616SOL     OW23746   0.084   3.841   3.989
 7616SOL    HW123747   0.157   3.784   4.026
 7616SOL    HW223748   0.027   3.788   3.927
 7617SOL     OW23749   2.999   5.595   3.168
 7617SOL    HW123750   2.914   5.593   3.114
 7617SOL    HW223751   3.065   5.532   3.128
 7618SOL     OW23752   1.083   2.425   6.536
 7618SOL    HW123753   1.059   2.328   6.529
 7618SOL    HW223754   1.182   2.434   6.542
 7619SOL     OW23755   5.857   3.001   5.199
 7619SOL    HW123756   5.830   2.996   5.103
 7619SOL    HW223757   5.789   2.955   5.256
 7620SOL     OW23758   3.706   6.837   0.546
 7620SOL    HW123759   3.628   6.830   0.608
 7620SOL    HW223760   3.787   6.866   0.597
 7621SOL     OW23761   1.525   0.800   0.591
 7621SOL    HW123762   1.428   0.791   0.612
 7621SOL    HW223763   1.559   0.715   0.551
 7622SOL     OW23764   4.626   3.004   1.501
 7622SOL    HW123765   4.538   2.958   1.514
 7622SOL    HW223766   4.668   3.022   1.590
 7623SOL     OW23767   4.524   6.105   6.524
 7623SOL    HW123768   4.607   6.085   6.472
 7623SOL    HW223769   4.450   6.127   6.460
 7624SOL     OW23770   0.549   1.823   3.333
 7624SOL    HW123771   0.546   1.800   3.236
 7624SOL    HW223772   0.591   1.749   3.384
 7625SOL     OW23773   5.567   0.909   1.316
 7625SOL    HW123774   5.608   0.878   1.230
 7625SOL    HW223775   5.627   0.886   1.392
 7626SOL     OW23776   0.910   6.994   5.020
 7626SOL    HW123777   0.850   6.919   5.046
 7626SOL    HW223778   0.872   0.016   4.941
 7627SOL     OW23779   6.344   3.378   0.826
 7627SOL    HW123780   6.347   3.401   0.728
 7627SOL    HW223781   6.252   3.392   0.861
 7628SOL     OW23782   2.953   0.418   1.446
 7628SOL    HW123783   2.976   0.422   1.543
 7628SOL    HW223784   2.881   0.484   1.426
 7629SOL     OW23785   6.157   6.246   2.510
 7629SOL    HW123786   6.099   6.191   2.450
 7629SOL    HW223787   6.145   6.343   2.489
 7630SOL     OW23788   6.406   7.019   2.612
 7630SOL    HW123789   6.352   0.005   2.528
 7630SOL    HW223790   6.498   0.028   2.598
 7631SOL     OW23791   1.397   1.584   5.592
 7631SOL    HW123792   1.429   1.497   5.629
 7631SOL    HW223793   1.368   1.571   5.497
 7632SOL     OW23794   4.409   2.332   0.777
 7632SOL    HW123795   4.482   2.401   0.779
 7632SOL    HW223796   4.326   2.372   0.816
 7633SOL     OW23797   5.451   3.981   6.694
 7633SOL    HW123798   5.496   4.000   6.781
 7633SOL    HW223799   5.364   3.935   6.711
 7634SOL     OW23800   1.652   0.960   2.348
 7634SOL    HW123801   1.581   0.991   2.411
 7634SOL    HW223802   1.741   0.969   2.390
 7635SOL     OW23803   2.561   5.819   5.824
 7635SOL    HW123804   2.529   5.898   5.876
 7635SOL    HW223805   2.585   5.745   5.887
 7636SOL     OW23806   1.054   1.483   3.851
 7636SOL    HW123807   1.053   1.482   3.751
 7636SOL    HW223808   1.070   1.391   3.886
 7637SOL     OW23809   1.291   0.023   3.958
 7637SOL    HW123810   1.267   0.025   3.861
 7637SOL    HW223811   1.214   7.012   4.011
 7638SOL     OW23812   5.816   5.776   1.892
 7638SOL    HW123813   5.858   5.703   1.838
 7638SOL    HW223814   5.817   5.861   1.839
 7639SOL     OW23815   0.890   1.755   6.238
 7639SOL    HW123816   0.981   1.714   6.231
 7639SOL    HW223817   0.845   1.751   6.149
 7640SOL     OW23818   2.543   2.719   0.775
 7640SOL    HW123819   2.640   2.707   0.755
 7640SOL    HW223820   2.498   2.629   0.779
 7641SOL     OW23821   0.115   4.646   2.196
 7641SOL    HW123822   0.199   4.593   2.212
 7641SOL    HW223823   0.061   4.649   2.280
 7642SOL     OW23824   2.715   1.607   2.830
 7642SOL    HW123825   2.666   1.650   2.906
 7642SOL    HW223826   2.676   1.640   2.743
 7643SOL     OW23827   4.484   2.404   3.293
 7643SOL    HW123828   4.431   2.370   3.371
 7643SOL    HW223829   4.529   2.490   3.318
 7644SOL     OW23830   6.728   3.012   3.073
 7644SOL    HW123831   6.820   2.979   3.055
 7644SOL    HW223832   6.672   2.937   3.107
 7645SOL     OW23833   4.645   5.113   0.130
 7645SOL    HW123834   4.601   5.036   0.083
 7645SOL    HW223835   4.637   5.195   0.073
 7646SOL     OW23836   1.890   1.919   2.045
 7646SOL    HW123837   1.863   1.829   2.079
 7646SOL    HW223838   1.861   1.990   2.109
 7647SOL     OW23839   1.838   3.482   2.035
 7647SOL    HW123840   1.918   3.428   2.060
 7647SOL    HW223841   1.866   3.556   1.972
 7648SOL     OW23842   4.270   1.458   3.546
 7648SOL    HW123843   4.242   1.382   3.487
 7648SOL    HW223844   4.194   1.482   3.607
 7649SOL     OW23845   1.642   0.685   2.254
 7649SOL    HW123846   1.623   0.621   2.328
 7649SOL    HW223847   1.655   0.777   2.291
 7650SOL     OW23848   6.391   2.807   2.034
 7650SOL    HW123849   6.292   2.808   2.041
 7650SOL    HW223850   6.426   2.901   2.037
 7651SOL     OW23851   2.785   0.106   6.915
 7651SOL    HW123852   2.790   0.040   6.990
 7651SOL    HW223853   2.741   0.063   6.836
 7652SOL     OW23854   6.263   3.476   3.926
 7652SOL    HW123855   6.176   3.481   3.876
 7652SOL    HW223856   6.254   3.409   4.000
 7653SOL     OW23857   2.672   1.986   0.589
 7653SOL    HW123858   2.625   1.956   0.672
 7653SOL    HW223859   2.771   1.982   0.602
 7654SOL     OW23860   4.610   2.631   3.350
 7654SOL    HW123861   4.709   2.621   3.338
 7654SOL    HW223862   4.591   2.665   3.442
 7655SOL     OW23863   3.816   6.836   4.155
 7655SOL    HW123864   3.718   6.819   4.163
 7655SOL    HW223865   3.834   6.934   4.163
 7656SOL     OW23866   0.113   6.028   5.277
 7656SOL    HW123867   0.032   6.073   5.240
 7656SOL    HW223868   0.195   6.067   5.235
 7657SOL     OW23869   2.757   2.232   3.502
 7657SOL    HW123870   2.668   2.272   3.522
 7657SOL    HW223871   2.790   2.265   3.414
 7658SOL     OW23872   4.628   0.618   6.154
 7658SOL    HW123873   4.626   0.567   6.241
 7658SOL    HW223874   4.632   0.553   6.078
 7659SOL     OW23875   6.206   6.938   1.356
 7659SOL    HW123876   6.190   6.889   1.442
 7659SOL    HW223877   6.136   7.009   1.345
 7660SOL     OW23878   5.272   5.240   3.109
 7660SOL    HW123879   5.281   5.157   3.165
 7660SOL    HW223880   5.189   5.234   3.054
 7661SOL     OW23881   5.742   2.291   4.220
 7661SOL    HW123882   5.790   2.321   4.302
 7661SOL    HW223883   5.712   2.371   4.167
 7662SOL     OW23884   1.510   2.790   2.269
 7662SOL    HW123885   1.442   2.860   2.288
 7662SOL    HW223886   1.478   2.702   2.305
 7663SOL     OW23887   0.475   5.570   6.868
 7663SOL    HW123888   0.551   5.596   6.808
 7663SOL    HW223889   0.511   5.533   6.954
 7664SOL     OW23890   3.269   6.250   2.548
 7664SOL    HW123891   3.218   6.288   2.471
 7664SOL    HW223892   3.344   6.312   2.572
 7665SOL     OW23893   2.765   0.329   4.276
 7665SOL    HW123894   2.747   0.231   4.278
 7665SOL    HW223895   2.851   0.348   4.323
 7666SOL     OW23896   0.334   6.745   1.476
 7666SOL    HW123897   0.314   6.689   1.396
 7666SOL    HW223898   0.432   6.743   1.496
 7667SOL     OW23899   4.637   6.699   6.784
 7667SOL    HW123900   4.686   6.620   6.747
 7667SOL    HW223901   4.666   6.714   6.879
 7668SOL     OW23902   3.403   4.278   1.608
 7668SOL    HW123903   3.304   4.262   1.609
 7668SOL    HW223904   3.439   4.257   1.517
 7669SOL     OW23905   4.744   0.614   4.595
 7669SOL    HW123906   4.786   0.663   4.519
 7669SOL    HW223907   4.719   0.522   4.566
 7670SOL     OW23908   1.220   5.815   6.954
 7670SOL    HW123909   1.208   5.889   7.021
 7670SOL    HW223910   1.314   5.815   6.920
 7671SOL     OW23911   4.905   1.616   4.357
 7671SOL    HW123912   4.860   1.702   4.333
 7671SOL    HW223913   4.858   1.574   4.435
 7672SOL     OW23914   6.229   0.380   3.562
 7672SOL    HW123915   6.293   0.381   3.486
 7672SOL    HW223916   6.254   0.451   3.628
 7673SOL     OW23917   1.232   4.770   0.934
 7673SOL    HW123918   1.144   4.767   0.982
 7673SOL    HW223919   1.220   4.736   0.841
 7674SOL     OW23920   6.322   1.765   4.876
 7674SOL    HW123921   6.294   1.700   4.947
 7674SOL    HW223922   6.421   1.756   4.861
 7675SOL     OW23923   4.913   0.209   1.911
 7675SOL    HW123924   4.942   0.160   1.829
 7675SOL    HW223925   4.990   0.261   1.948
 7676SOL     OW23926   1.238   1.344   6.767
 7676SOL    HW123927   1.266   1.415   6.702
 7676SOL    HW223928   1.279   1.363   6.857
 7677SOL     OW23929   1.824   3.193   2.268
 7677SOL    HW123930   1.900   3.251   2.295
 7677SOL    HW223931   1.793   3.220   2.177
 7678SOL     OW23932   0.933   0.658   6.621
 7678SOL    HW123933   0.930   0.561   6.598
 7678SOL    HW223934   0.919   0.670   6.719
 7679SOL     OW23935   0.888   5.325   4.847
 7679SOL    HW123936   0.906   5.345   4.944
 7679SOL    HW223937   0.972   5.336   4.795
 7680SOL     OW23938   3.208   3.267   6.647
 7680SOL    HW123939   3.129   3.315   6.610
 7680SOL    HW223940   3.241   3.315   6.728
 7681SOL     OW23941   3.193   1.347   0.334
 7681SOL    HW123942   3.238   1.353   0.423
 7681SOL    HW223943   3.141   1.261   0.327
 7682SOL     OW23944   2.673   6.598   1.816
 7682SOL    HW123945   2.592   6.655   1.830
 7682SOL    HW223946   2.668   6.554   1.726
 7683SOL     OW23947   6.451   2.505   2.986
 7683SOL    HW123948   6.481   2.420   3.031
 7683SOL    HW223949   6.400   2.482   2.903
 7684SOL     OW23950   5.140   2.188   6.599
 7684SOL    HW123951   5.226   2.206   6.551
 7684SOL    HW223952   5.063   2.198   6.537
 7685SOL     OW23953   3.574   2.730   0.379
 7685SOL    HW123954   3.616   2.815   0.410
 7685SOL    HW223955   3.474   2.736   0.391
 7686SOL     OW23956   4.707   0.256   2.923
 7686SOL    HW123957   4.742   0.333   2.975
 7686SOL    HW223958   4.637   0.209   2.977
 7687SOL     OW23959   5.088   5.056   5.444
 7687SOL    HW123960   5.156   5.019   5.508
 7687SOL    HW223961   5.002   5.007   5.455
 7688SOL     OW23962   6.368   6.654   5.455
 7688SOL    HW123963   6.435   6.721   5.486
 7688SOL    HW223964   6.278   6.679   5.490
 7689SOL     OW23965   4.296   6.051   4.441
 7689SOL    HW123966   4.327   6.013   4.354
 7689SOL    HW223967   4.362   6.028   4.513
 7690SOL     OW23968   5.163   4.787   2.738
 7690SOL    HW123969   5.163   4.836   2.825
 7690SOL    HW223970   5.071   4.751   2.720
 7691SOL     OW23971   5.006   2.781   4.002
 7691SOL    HW123972   5.043   2.710   4.061
 7691SOL    HW223973   5.065   2.794   3.922
 7692SOL     OW23974   1.342   6.407   1.252
 7692SOL    HW123975   1.406   6.348   1.301
 7692SOL    HW223976   1.260   6.355   1.229
 7693SOL     OW23977   4.163   0.994   6.780
 7693SOL    HW123978   4.087   1.036   6.828
 7693SOL    HW223979   4.133   0.964   6.689
 7694SOL     OW23980   0.367   4.536   3.936
 7694SOL    HW123981   0.293   4.529   3.869
 7694SOL    HW223982   0.332   4.512   4.027
 7695SOL     OW23983   4.143   0.324   0.873
 7695SOL    HW123984   4.157   0.421   0.855
 7695SOL    HW223985   4.100   0.282   0.792
 7696SOL     OW23986   6.836   1.968   4.419
 7696SOL    HW123987   6.823   2.041   4.486
 7696SOL    HW223988   6.838   2.006   4.327
 7697SOL     OW23989   2.448   1.933   3.488
 7697SOL    HW123990   2.385   1.881   3.430
 7697SOL    HW223991   2.434   1.909   3.583
 7698SOL     OW23992   6.587   2.691   4.850
 7698SOL    HW123993   6.515   2.726   4.790
 7698SOL    HW223994   6.570   2.594   4.870
 7699SOL     OW23995   2.316   5.541   0.219
 7699SOL    HW123996   2.254   5.559   0.295
 7699SOL    HW223997   2.277   5.470   0.159
 7700SOL     OW23998   4.556   7.012   4.979
 7700SOL    HW123999   4.481   6.984   5.039
 7700SOL    HW224000   4.642   6.974   5.014
 7701SOL     OW24001   6.426   0.833   5.747
 7701SOL    HW124002   6.518   0.868   5.762
 7701SOL    HW224003   6.404   0.839   5.649
 7702SOL     OW24004   3.421   6.624   5.890
 7702SOL    HW124005   3.382   6.574   5.813
 7702SOL    HW224006   3.360   6.617   5.969
 7703SOL     OW24007   0.273   1.269   5.315
 7703SOL    HW124008   0.286   1.182   5.361
 7703SOL    HW224009   0.177   1.297   5.323
 7704SOL     OW24010   4.164   4.346   0.014
 7704SOL    HW124011   4.078   4.331   0.063
 7704SOL    HW224012   4.150   4.412   6.967
 7705SOL     OW24013   3.505   4.908   5.103
 7705SOL    HW124014   3.481   4.939   5.012
 7705SOL    HW224015   3.424   4.872   5.149
 7706SOL     OW24016   5.706   7.001   5.301
 7706SOL    HW124017   5.610   6.997   5.271
 7706SOL    HW224018   5.738   0.069   5.297
 7707SOL     OW24019   0.195   5.500   6.226
 7707SOL    HW124020   0.261   5.518   6.153
 7707SOL    HW224021   0.183   5.401   6.237
 7708SOL     OW24022   4.639   5.827   4.718
 7708SOL    HW124023   4.611   5.774   4.638
 7708SOL    HW224024   4.576   5.809   4.794
 7709SOL     OW24025   4.638   2.420   2.127
 7709SOL    HW124026   4.574   2.470   2.069
 7709SOL    HW224027   4.645   2.325   2.096
 7710SOL     OW24028   2.903   0.062   0.632
 7710SOL    HW124029   2.939   0.002   0.703
 7710SOL    HW224030   2.979   0.100   0.579
 7711SOL     OW24031   5.832   6.183   6.232
 7711SOL    HW124032   5.925   6.189   6.195
 7711SOL    HW224033   5.773   6.136   6.167
 7712SOL     OW24034   5.780   4.755   1.266
 7712SOL    HW124035   5.824   4.691   1.203
 7712SOL    HW224036   5.770   4.844   1.222
 7713SOL     OW24037   1.939   4.278   0.368
 7713SOL    HW124038   1.990   4.362   0.383
 7713SOL    HW224039   1.965   4.211   0.437
 7714SOL     OW24040   6.214   4.461   4.544
 7714SOL    HW124041   6.175   4.381   4.498
 7714SOL    HW224042   6.151   4.491   4.616
 7715SOL     OW24043   5.236   0.718   1.141
 7715SOL    HW124044   5.209   0.624   1.121
 7715SOL    HW224045   5.279   0.758   1.059
 7716SOL     OW24046   4.622   2.525   2.404
 7716SOL    HW124047   4.720   2.511   2.387
 7716SOL    HW224048   4.571   2.513   2.318
 7717SOL     OW24049   2.861   1.476   5.010
 7717SOL    HW124050   2.959   1.496   5.011
 7717SOL    HW224051   2.811   1.557   4.979
 7718SOL     OW24052   2.125   1.635   3.061
 7718SOL    HW124053   2.166   1.559   3.111
 7718SOL    HW224054   2.056   1.679   3.118
 7719SOL     OW24055   6.997   2.895   4.879
 7719SOL    HW124056   7.011   2.810   4.930
 7719SOL    HW224057   6.917   2.885   4.820
 7720SOL     OW24058   6.602   6.502   0.945
 7720SOL    HW124059   6.614   6.467   0.853
 7720SOL    HW224060   6.525   6.455   0.989
 7721SOL     OW24061   2.271   4.319   3.540
 7721SOL    HW124062   2.330   4.360   3.470
 7721SOL    HW224063   2.327   4.284   3.615
 7722SOL     OW24064   6.296   5.219   3.128
 7722SOL    HW124065   6.374   5.179   3.080
 7722SOL    HW224066   6.257   5.152   3.190
 7723SOL     OW24067   6.991   3.099   0.421
 7723SOL    HW124068   6.946   3.131   0.338
 7723SOL    HW224069   6.929   3.108   0.499
 7724SOL     OW24070   1.916   4.071   1.583
 7724SOL    HW124071   1.889   4.132   1.509
 7724SOL    HW224072   1.841   4.065   1.650
 7725SOL     OW24073   5.506   2.715   3.241
 7725SOL    HW124074   5.597   2.678   3.262
 7725SOL    HW224075   5.466   2.664   3.165
 7726SOL     OW24076   0.638   4.582   2.915
 7726SOL    HW124077   0.680   4.670   2.939
 7726SOL    HW224078   0.635   4.574   2.815
 7727SOL     OW24079   6.038   2.374   4.037
 7727SOL    HW124080   5.968   2.438   4.005
 7727SOL    HW224081   6.052   2.386   4.135
 7728SOL     OW24082   1.789   3.340   2.974
 7728SOL    HW124083   1.793   3.421   3.032
 7728SOL    HW224084   1.823   3.261   3.024
 7729SOL     OW24085   5.233   2.250   0.979
 7729SOL    HW124086   5.322   2.279   0.944
 7729SOL    HW224087   5.169   2.327   0.977
 7730SOL     OW24088   4.549   6.420   3.043
 7730SOL    HW124089   4.647   6.400   3.049
 7730SOL    HW224090   4.525   6.491   3.110
 7731SOL     OW24091   6.266   1.038   0.289
 7731SOL    HW124092   6.297   0.985   0.210
 7731SOL    HW224093   6.195   0.986   0.337
 7732SOL     OW24094   5.090   5.876   0.673
 7732SOL    HW124095   5.178   5.881   0.626
 7732SOL    HW224096   5.042   5.793   0.645
 7733SOL     OW24097   4.152   0.200   1.375
 7733SOL    HW124098   4.102   0.272   1.422
 7733SOL    HW224099   4.089   0.128   1.347
 7734SOL     OW24100   1.703   3.042   3.283
 7734SOL    HW124101   1.665   2.961   3.327
 7734SOL    HW224102   1.675   3.044   3.187
 7735SOL     OW24103   5.325   4.385   6.791
 7735SOL    HW124104   5.423   4.387   6.812
 7735SOL    HW224105   5.307   4.444   6.712
 7736SOL     OW24106   5.504   4.494   0.284
 7736SOL    HW124107   5.536   4.573   0.338
 7736SOL    HW224108   5.424   4.521   0.231
 7737SOL     OW24109   4.845   2.179   0.685
 7737SOL    HW124110   4.759   2.139   0.718
 7737SOL    HW224111   4.825   2.267   0.641
 7738SOL     OW24112   2.972   6.076   0.257
 7738SOL    HW124113   2.873   6.085   0.270
 7738SOL    HW224114   2.994   5.980   0.237
 7739SOL     OW24115   1.207   2.530   0.440
 7739SOL    HW124116   1.125   2.506   0.491
 7739SOL    HW224117   1.254   2.447   0.411
 7740SOL     OW24118   6.936   6.999   2.502
 7740SOL    HW124119   7.020   6.960   2.463
 7740SOL    HW224120   6.953   0.001   2.596
 7741SOL     OW24121   2.157   5.878   3.817
 7741SOL    HW124122   2.109   5.810   3.762
 7741SOL    HW224123   2.242   5.905   3.770
 7742SOL     OW24124   6.130   1.982   3.087
 7742SOL    HW124125   6.096   2.044   3.158
 7742SOL    HW224126   6.229   1.975   3.093
 7743SOL     OW24127   4.532   3.271   5.670
 7743SOL    HW124128   4.557   3.176   5.649
 7743SOL    HW224129   4.442   3.272   5.714
 7744SOL     OW24130   6.482   6.850   3.947
 7744SOL    HW124131   6.453   6.834   4.041
 7744SOL    HW224132   6.577   6.881   3.946
 7745SOL     OW24133   3.479   2.666   6.454
 7745SOL    HW124134   3.394   2.685   6.502
 7745SOL    HW224135   3.535   2.749   6.451
 7746SOL     OW24136   2.064   0.144   0.279
 7746SOL    HW124137   2.062   0.051   0.243
 7746SOL    HW224138   2.124   0.201   0.223
 7747SOL     OW24139   5.387   6.441   1.004
 7747SOL    HW124140   5.464   6.380   1.019
 7747SOL    HW224141   5.420   6.531   0.976
 7748SOL     OW24142   1.991   3.960   6.514
 7748SOL    HW124143   1.976   3.988   6.419
 7748SOL    HW224144   2.017   4.039   6.569
 7749SOL     OW24145   4.921   3.236   5.903
 7749SOL    HW124146   4.826   3.217   5.927
 7749SOL    HW224147   4.968   3.278   5.981
 7750SOL     OW24148   0.783   6.332   2.047
 7750SOL    HW124149   0.693   6.375   2.058
 7750SOL    HW224150   0.793   6.259   2.115
 7751SOL     OW24151   0.885   1.758   1.539
 7751SOL    HW124152   0.875   1.668   1.583
 7751SOL    HW224153   0.942   1.816   1.597
 7752SOL     OW24154   4.723   0.996   4.172
 7752SOL    HW124155   4.718   1.075   4.110
 7752SOL    HW224156   4.641   0.940   4.163
 7753SOL     OW24157   2.085   1.276   5.122
 7753SOL    HW124158   2.153   1.303   5.053
 7753SOL    HW224159   2.041   1.358   5.158
 7754SOL     OW24160   4.384   6.619   1.628
 7754SOL    HW124161   4.420   6.680   1.698
 7754SOL    HW224162   4.309   6.665   1.580
 7755SOL     OW24163   1.850   4.301   6.258
 7755SOL    HW124164   1.860   4.400   6.250
 7755SOL    HW224165   1.770   4.271   6.206
 7756SOL     OW24166   2.751   6.204   1.552
 7756SOL    HW124167   2.777   6.123   1.500
 7756SOL    HW224168   2.724   6.177   1.645
 7757SOL     OW24169   0.340   4.525   3.240
 7757SOL    HW124170   0.293   4.514   3.327
 7757SOL    HW224171   0.437   4.501   3.251
 7758SOL     OW24172   1.332   0.765   5.429
 7758SOL    HW124173   1.289   0.679   5.457
 7758SOL    HW224174   1.312   0.836   5.496
 7759SOL     OW24175   2.917   2.231   6.595
 7759SOL    HW124176   2.966   2.303   6.645
 7759SOL    HW224177   2.843   2.195   6.652
 7760SOL     OW24178   4.463   2.506   1.944
 7760SOL    HW124179   4.488   2.587   1.892
 7760SOL    HW224180   4.391   2.456   1.895
 7761SOL     OW24181   4.513   5.544   4.151
 7761SOL    HW124182   4.434   5.560   4.092
 7761SOL    HW224183   4.482   5.533   4.246
 7762SOL     OW24184   0.227   0.948   3.869
 7762SOL    HW124185   0.196   0.894   3.791
 7762SOL    HW224186   0.307   0.905   3.911
 7763SOL     OW24187   2.464   0.080   4.617
 7763SOL    HW124188   2.407   0.002   4.645
 7763SOL    HW224189   2.485   0.136   4.697
 7764SOL     OW24190   3.267   3.890   5.239
 7764SOL    HW124191   3.278   3.983   5.204
 7764SOL    HW224192   3.251   3.892   5.337
 7765SOL     OW24193   6.394   3.463   4.388
 7765SOL    HW124194   6.469   3.412   4.432
 7765SOL    HW224195   6.308   3.417   4.406
 7766SOL     OW24196   0.598   4.504   7.008
 7766SOL    HW124197   0.693   4.528   6.989
 7766SOL    HW224198   0.567   4.436   6.943
 7767SOL     OW24199   2.625   0.805   3.068
 7767SOL    HW124200   2.631   0.905   3.064
 7767SOL    HW224201   2.709   0.765   3.032
 7768SOL     OW24202   4.223   4.696   3.032
 7768SOL    HW124203   4.229   4.773   3.095
 7768SOL    HW224204   4.304   4.692   2.975
 7769SOL     OW24205   3.368   2.302   5.374
 7769SOL    HW124206   3.293   2.307   5.308
 7769SOL    HW224207   3.418   2.389   5.375
 7770SOL     OW24208   1.068   3.462   4.800
 7770SOL    HW124209   0.992   3.476   4.864
 7770SOL    HW224210   1.053   3.377   4.749
 7771SOL     OW24211   3.345   2.706   6.083
 7771SOL    HW124212   3.288   2.780   6.046
 7771SOL    HW224213   3.436   2.742   6.103
 7772SOL     OW24214   5.300   0.685   1.400
 7772SOL    HW124215   5.284   0.694   1.301
 7772SOL    HW224216   5.216   0.709   1.449
 7773SOL     OW24217   3.566   6.177   0.099
 7773SOL    HW124218   3.473   6.140   0.110
 7773SOL    HW224219   3.615   6.171   0.186
 7774SOL     OW24220   4.493   1.443   2.760
 7774SOL    HW124221   4.536   1.531   2.782
 7774SOL    HW224222   4.397   1.458   2.737
 7775SOL     OW24223   3.337   0.781   0.019
 7775SOL    HW124224   3.307   0.693   7.009
 7775SOL    HW224225   3.437   0.785   0.020
 7776SOL     OW24226   1.295   0.309   5.363
 7776SOL    HW124227   1.260   0.344   5.449
 7776SOL    HW224228   1.389   0.277   5.376
 7777SOL     OW24229   5.031   5.536   2.992
 7777SOL    HW124230   4.934   5.556   2.980
 7777SOL    HW224231   5.070   5.597   3.061
 7778SOL     OW24232   5.618   4.235   2.980
 7778SOL    HW124233   5.619   4.324   3.025
 7778SOL    HW224234   5.621   4.163   3.050
 7779SOL     OW24235   3.442   5.871   2.296
 7779SOL    HW124236   3.344   5.871   2.274
 7779SOL    HW224237   3.463   5.949   2.355
 7780SOL     OW24238   6.073   6.075   5.396
 7780SOL    HW124239   6.154   6.043   5.348
 7780SOL    HW224240   6.025   6.142   5.340
 7781SOL     OW24241   1.702   2.681   0.321
 7781SOL    HW124242   1.798   2.653   0.320
 7781SOL    HW224243   1.658   2.648   0.404
 7782SOL     OW24244   5.777   4.353   3.685
 7782SOL    HW124245   5.770   4.404   3.771
 7782SOL    HW224246   5.721   4.398   3.616
 7783SOL     OW24247   1.031   0.565   5.176
 7783SOL    HW124248   0.940   0.568   5.134
 7783SOL    HW224249   1.051   0.654   5.217
 7784SOL     OW24250   2.408   2.664   2.993
 7784SOL    HW124251   2.436   2.746   2.943
 7784SOL    HW224252   2.343   2.612   2.938
 7785SOL     OW24253   0.786   6.411   2.491
 7785SOL    HW124254   0.764   6.359   2.408
 7785SOL    HW224255   0.859   6.366   2.541
 7786SOL     OW24256   4.666   0.229   5.970
 7786SOL    HW124257   4.642   0.319   5.933
 7786SOL    HW224258   4.601   0.160   5.937
 7787SOL     OW24259   2.729   2.570   1.516
 7787SOL    HW124260   2.808   2.521   1.479
 7787SOL    HW224261   2.742   2.669   1.503
 7788SOL     OW24262   0.105   4.431   1.587
 7788SOL    HW124263   0.128   4.405   1.494
 7788SOL    HW224264   0.188   4.455   1.637
 7789SOL     OW24265   3.706   0.819   6.289
 7789SOL    HW124266   3.640   0.746   6.273
 7789SOL    HW224267   3.788   0.802   6.234
 7790SOL     OW24268   5.242   4.507   1.923
 7790SOL    HW124269   5.195   4.418   1.922
 7790SOL    HW224270   5.192   4.570   1.984
 7791SOL     OW24271   2.658   5.368   2.206
 7791SOL    HW124272   2.638   5.308   2.284
 7791SOL    HW224273   2.738   5.334   2.158
 7792SOL     OW24274   1.239   1.740   2.182
 7792SOL    HW124275   1.141   1.717   2.187
 7792SOL    HW224276   1.260   1.809   2.251
 7793SOL     OW24277   5.037   0.976   6.526
 7793SOL    HW124278   5.044   0.878   6.507
 7793SOL    HW224279   5.033   1.026   6.439
 7794SOL     OW24280   0.549   5.877   2.728
 7794SOL    HW124281   0.538   5.795   2.783
 7794SOL    HW224282   0.470   5.886   2.666
 7795SOL     OW24283   2.886   5.236   6.130
 7795SOL    HW124284   2.981   5.261   6.148
 7795SOL    HW224285   2.883   5.144   6.091
 7796SOL     OW24286   3.390   3.238   6.146
 7796SOL    HW124287   3.378   3.251   6.244
 7796SOL    HW224288   3.302   3.250   6.100
 7797SOL     OW24289   1.139   6.034   3.141
 7797SOL    HW124290   1.162   5.947   3.186
 7797SOL    HW224291   1.106   6.099   3.209
 7798SOL     OW24292   0.905   2.570   0.786
 7798SOL    HW124293   0.882   2.552   0.690
 7798SOL    HW224294   0.932   2.485   0.830
 7799SOL     OW24295   2.708   6.277   3.820
 7799SOL    HW124296   2.635   6.259   3.886
 7799SOL    HW224297   2.780   6.330   3.864
 7800SOL     OW24298   0.164   6.461   1.562
 7800SOL    HW124299   0.150   6.392   1.491
 7800SOL    HW224300   0.260   6.458   1.592
 7801SOL     OW24301   1.836   2.366   2.465
 7801SOL    HW124302   1.933   2.384   2.482
 7801SOL    HW224303   1.823   2.347   2.368
 7802SOL     OW24304   6.644   3.514   5.143
 7802SOL    HW124305   6.711   3.556   5.082
 7802SOL    HW224306   6.623   3.422   5.110
 7803SOL     OW24307   4.346   2.182   5.782
 7803SOL    HW124308   4.423   2.175   5.846
 7803SOL    HW224309   4.378   2.222   5.696
 7804SOL     OW24310   2.748   2.104   5.360
 7804SOL    HW124311   2.735   2.106   5.261
 7804SOL    HW224312   2.833   2.151   5.383
 7805SOL     OW24313   5.850   3.111   0.815
 7805SOL    HW124314   5.755   3.095   0.841
 7805SOL    HW224315   5.906   3.124   0.897
 7806SOL     OW24316   0.052   2.181   5.602
 7806SOL    HW124317   0.015   2.095   5.639
 7806SOL    HW224318   0.140   2.200   5.645
 7807SOL     OW24319   2.228   5.041   5.760
 7807SOL    HW124320   2.195   5.103   5.689
 7807SOL    HW224321   2.164   4.965   5.771
 7808SOL     OW24322   5.461   3.637   2.946
 7808SOL    HW124323   5.509   3.642   2.858
 7808SOL    HW224324   5.417   3.725   2.964
 7809SOL     OW24325   4.891   5.262   3.339
 7809SOL    HW124326   4.927   5.196   3.404
 7809SOL    HW224327   4.822   5.319   3.384
 7810SOL     OW24328   4.091   6.388   5.744
 7810SOL    HW124329   4.154   6.467   5.740
 7810SOL    HW224330   4.142   6.304   5.726
 7811SOL     OW24331   1.258   5.714   2.296
 7811SOL    HW124332   1.324   5.757   2.234
 7811SOL    HW224333   1.298   5.709   2.388
 7812SOL     OW24334   2.288   2.163   6.119
 7812SOL    HW124335   2.233   2.246   6.122
 7812SOL    HW224336   2.247   2.098   6.056
 7813SOL     OW24337   6.074   1.450   1.042
 7813SOL    HW124338   6.113   1.532   1.000
 7813SOL    HW224339   6.114   1.437   1.133
 7814SOL     OW24340   0.443   2.890   2.206
 7814SOL    HW124341   0.495   2.961   2.158
 7814SOL    HW224342   0.347   2.895   2.179
 7815SOL     OW24343   5.806   2.964   4.868
 7815SOL    HW124344   5.875   2.974   4.796
 7815SOL    HW224345   5.787   2.867   4.882
 7816SOL     OW24346   0.641   1.399   4.954
 7816SOL    HW124347   0.572   1.333   4.984
 7816SOL    HW224348   0.612   1.491   4.979
 7817SOL     OW24349   2.952   3.093   6.493
 7817SOL    HW124350   2.946   3.004   6.448
 7817SOL    HW224351   3.044   3.130   6.481
 7818SOL     OW24352   5.339   0.827   2.212
 7818SOL    HW124353   5.279   0.751   2.187
 7818SOL    HW224354   5.404   0.844   2.138
 7819SOL     OW24355   1.260   3.754   3.914
 7819SOL    HW124356   1.172   3.717   3.942
 7819SOL    HW224357   1.333   3.697   3.952
 7820SOL     OW24358   1.837   0.232   5.698
 7820SOL    HW124359   1.793   0.180   5.625
 7820SOL    HW224360   1.850   0.327   5.669
 7821SOL     OW24361   6.019   5.530   6.559
 7821SOL    HW124362   5.999   5.432   6.559
 7821SOL    HW224363   6.113   5.545   6.529
 7822SOL     OW24364   1.163   0.778   4.739
 7822SOL    HW124365   1.136   0.874   4.741
 7822SOL    HW224366   1.186   0.747   4.831
 7823SOL     OW24367   1.148   4.412   0.035
 7823SOL    HW124368   1.159   4.448   0.128
 7823SOL    HW224369   1.132   4.313   0.039
 7824SOL     OW24370   5.025   2.679   2.647
 7824SOL    HW124371   4.936   2.706   2.610
 7824SOL    HW224372   5.032   2.710   2.742
 7825SOL     OW24373   3.526   3.262   1.857
 7825SOL    HW124374   3.524   3.352   1.813
 7825SOL    HW224375   3.564   3.194   1.794
 7826SOL     OW24376   0.030   0.745   0.367
 7826SOL    HW124377   0.019   0.665   0.308
 7826SOL    HW224378   0.010   0.721   0.462
 7827SOL     OW24379   5.406   4.838   1.379
 7827SOL    HW124380   5.347   4.911   1.414
 7827SOL    HW224381   5.398   4.833   1.280
 7828SOL     OW24382   0.397   6.428   1.304
 7828SOL    HW124383   0.475   6.474   1.261
 7828SOL    HW224384   0.322   6.420   1.238
 7829SOL     OW24385   3.526   2.833   1.688
 7829SOL    HW124386   3.596   2.765   1.709
 7829SOL    HW224387   3.462   2.796   1.621
 7830SOL     OW24388   5.721   3.097   6.897
 7830SOL    HW124389   5.629   3.062   6.881
 7830SOL    HW224390   5.741   3.170   6.832
 7831SOL     OW24391   0.884   3.428   0.293
 7831SOL    HW124392   0.916   3.334   0.304
 7831SOL    HW224393   0.955   3.483   0.248
 7832SOL     OW24394   2.619   2.394   5.513
 7832SOL    HW124395   2.537   2.398   5.456
 7832SOL    HW224396   2.683   2.466   5.484
 7833SOL     OW24397   0.462   6.770   0.763
 7833SOL    HW124398   0.479   6.819   0.678
 7833SOL    HW224399   0.377   6.803   0.805
 7834SOL     OW24400   0.840   0.702   1.362
 7834SOL    HW124401   0.874   0.796   1.357
 7834SOL    HW224402   0.812   0.681   1.456
 7835SOL     OW24403   2.173   3.078   4.868
 7835SOL    HW124404   2.166   3.156   4.805
 7835SOL    HW224405   2.259   3.085   4.919
 7836SOL     OW24406   2.369   6.169   6.907
 7836SOL    HW124407   2.449   6.138   6.857
 7836SOL    HW224408   2.394   6.246   6.966
 7837SOL     OW24409   5.966   6.818   3.094
 7837SOL    HW124410   6.002   6.749   3.030
 7837SOL    HW224411   6.000   6.799   3.186
 7838SOL     OW24412   4.141   6.486   4.864
 7838SOL    HW124413   4.197   6.423   4.811
 7838SOL    HW224414   4.098   6.553   4.803
 7839SOL     OW24415   6.561   4.914   4.948
 7839SOL    HW124416   6.583   4.897   5.044
 7839SOL    HW224417   6.548   4.828   4.900
 7840SOL     OW24418   5.204   2.633   4.122
 7840SOL    HW124419   5.160   2.560   4.175
 7840SOL    HW224420   5.272   2.679   4.179
 7841SOL     OW24421   0.464   1.485   6.335
 7841SOL    HW124422   0.404   1.407   6.353
 7841SOL    HW224423   0.492   1.484   6.240
 7842SOL     OW24424   2.120   1.318   2.743
 7842SOL    HW124425   2.128   1.417   2.732
 7842SOL    HW224426   2.211   1.278   2.754
 7843SOL     OW24427   5.374   3.517   0.750
 7843SOL    HW124428   5.455   3.505   0.808
 7843SOL    HW224429   5.347   3.429   0.711
 7844SOL     OW24430   4.338   0.485   3.316
 7844SOL    HW124431   4.435   0.472   3.295
 7844SOL    HW224432   4.313   0.581   3.300
 7845SOL     OW24433   6.269   1.786   4.518
 7845SOL    HW124434   6.206   1.763   4.592
 7845SOL    HW224435   6.261   1.883   4.495
 7846SOL     OW24436   2.986   0.074   1.653
 7846SOL    HW124437   3.049   0.102   1.725
 7846SOL    HW224438   3.011   7.009   1.620
 7847SOL     OW24439   6.718   0.830   0.755
 7847SOL    HW124440   6.760   0.874   0.835
 7847SOL    HW224441   6.752   0.875   0.671
 7848SOL     OW24442   4.498   3.864   1.596
 7848SOL    HW124443   4.474   3.779   1.549
 7848SOL    HW224444   4.593   3.860   1.628
 7849SOL     OW24445   5.764   3.295   4.613
 7849SOL    HW124446   5.752   3.212   4.560
 7849SOL    HW224447   5.756   3.375   4.553
 7850SOL     OW24448   0.940   0.695   5.453
 7850SOL    HW124449   1.036   0.688   5.479
 7850SOL    HW224450   0.928   0.771   5.389
 7851SOL     OW24451   6.231   6.844   0.355
 7851SOL    HW124452   6.236   6.914   0.426
 7851SOL    HW224453   6.192   6.884   0.272
 7852SOL     OW24454   2.867   6.510   6.845
 7852SOL    HW124455   2.933   6.470   6.781
 7852SOL    HW224456   2.917   6.552   6.921
 7853SOL     OW24457   2.594   2.885   6.943
 7853SOL    HW124458   2.530   2.815   6.975
 7853SOL    HW224459   2.566   2.975   6.979
 7854SOL     OW24460   3.412   4.152   2.398
 7854SOL    HW124461   3.474   4.102   2.338
 7854SOL    HW224462   3.461   4.181   2.480
 7855SOL     OW24463   4.335   5.848   6.307
 7855SOL    HW124464   4.291   5.759   6.292
 7855SOL    HW224465   4.283   5.900   6.374
 7856SOL     OW24466   5.640   3.647   5.288
 7856SOL    HW124467   5.598   3.564   5.253
 7856SOL    HW224468   5.592   3.727   5.252
 7857SOL     OW24469   6.072   1.856   5.884
 7857SOL    HW124470   6.024   1.774   5.916
 7857SOL    HW224471   6.041   1.879   5.792
 7858SOL     OW24472   6.039   3.792   3.433
 7858SOL    HW124473   5.967   3.779   3.501
 7858SOL    HW224474   6.030   3.722   3.362
 7859SOL     OW24475   1.222   4.962   5.918
 7859SOL    HW124476   1.143   5.017   5.890
 7859SOL    HW224477   1.194   4.898   5.989
 7860SOL     OW24478   4.162   7.020   1.719
 7860SOL    HW124479   4.067   0.011   1.696
 7860SOL    HW224480   4.174   7.025   1.818
 7861SOL     OW24481   4.787   4.994   0.876
 7861SOL    HW124482   4.704   5.044   0.852
 7861SOL    HW224483   4.849   4.992   0.797
 7862SOL     OW24484   3.111   4.417   1.351
 7862SOL    HW124485   3.120   4.491   1.418
 7862SOL    HW224486   3.049   4.347   1.388
 7863SOL     OW24487   6.410   5.900   2.533
 7863SOL    HW124488   6.343   5.903   2.607
 7863SOL    HW224489   6.409   5.987   2.484
 7864SOL     OW24490   0.783   5.377   4.337
 7864SOL    HW124491   0.850   5.312   4.299
 7864SOL    HW224492   0.768   5.355   4.434
 7865SOL     OW24493   3.451   6.817   2.796
 7865SOL    HW124494   3.490   6.810   2.887
 7865SOL    HW224495   3.385   6.892   2.793
 7866SOL     OW24496   2.713   1.880   4.029
 7866SOL    HW124497   2.676   1.788   4.041
 7866SOL    HW224498   2.747   1.913   4.117
 7867SOL     OW24499   5.764   4.313   2.076
 7867SOL    HW124500   5.729   4.225   2.044
 7867SOL    HW224501   5.735   4.328   2.171
 7868SOL     OW24502   5.269   6.270   0.551
 7868SOL    HW124503   5.272   6.171   0.555
 7868SOL    HW224504   5.274   6.307   0.644
 7869SOL     OW24505   0.689   3.049   1.840
 7869SOL    HW124506   0.652   3.036   1.748
 7869SOL    HW224507   0.788   3.032   1.839
 7870SOL     OW24508   6.761   5.087   4.063
 7870SOL    HW124509   6.673   5.130   4.086
 7870SOL    HW224510   6.772   5.003   4.116
 7871SOL     OW24511   5.250   3.431   3.244
 7871SOL    HW124512   5.192   3.447   3.164
 7871SOL    HW224513   5.212   3.356   3.298
 7872SOL     OW24514   0.126   3.407   2.734
 7872SOL    HW124515   0.036   3.367   2.715
 7872SOL    HW224516   0.116   3.507   2.740
 7873SOL     OW24517   0.416   5.612   5.247
 7873SOL    HW124518   0.462   5.524   5.260
 7873SOL    HW224519   0.480   5.678   5.207
 7874SOL     OW24520   6.005   1.735   0.227
 7874SOL    HW124521   6.065   1.682   0.168
 7874SOL    HW224522   5.928   1.770   0.174
 7875SOL     OW24523   4.396   2.900   6.254
 7875SOL    HW124524   4.442   2.834   6.194
 7875SOL    HW224525   4.431   2.992   6.234
 7876SOL     OW24526   6.688   0.309   3.723
 7876SOL    HW124527   6.629   0.314   3.642
 7876SOL    HW224528   6.670   0.388   3.782
 7877SOL     OW24529   6.895   2.262   3.031
 7877SOL    HW124530   6.948   2.346   3.044
 7877SOL    HW224531   6.844   2.268   2.945
 7878SOL     OW24532   4.739   4.159   2.544
 7878SOL    HW124533   4.682   4.219   2.601
 7878SOL    HW224534   4.705   4.161   2.450
 7879SOL     OW24535   4.760   0.320   3.995
 7879SOL    HW124536   4.774   0.417   3.975
 7879SOL    HW224537   4.768   0.267   3.910
 7880SOL     OW24538   0.226   6.671   6.484
 7880SOL    HW124539   0.271   6.628   6.562
 7880SOL    HW224540   0.252   6.623   6.400
 7881SOL     OW24541   6.829   4.028   4.698
 7881SOL    HW124542   6.737   4.027   4.659
 7881SOL    HW224543   6.823   4.034   4.797
 7882SOL     OW24544   0.059   3.264   2.971
 7882SOL    HW124545   0.072   3.300   2.878
 7882SOL    HW224546   7.004   3.307   3.012
 7883SOL     OW24547   2.950   1.142   3.199
 7883SOL    HW124548   3.046   1.137   3.225
 7883SOL    HW224549   2.905   1.214   3.251
 7884SOL     OW24550   1.198   4.357   4.292
 7884SOL    HW124551   1.138   4.435   4.306
 7884SOL    HW224552   1.215   4.344   4.195
 7885SOL     OW24553   6.151   5.594   2.594
 7885SOL    HW124554   6.166   5.545   2.680
 7885SOL    HW224555   6.192   5.685   2.601
 7886SOL     OW24556   4.633   2.745   1.886
 7886SOL    HW124557   4.645   2.737   1.985
 7886SOL    HW224558   4.612   2.840   1.863
 7887SOL     OW24559   3.155   3.426   0.337
 7887SOL    HW124560   3.168   3.473   0.424
 7887SOL    HW224561   3.120   3.492   0.269
 7888SOL     OW24562   5.899   1.383   3.903
 7888SOL    HW124563   5.936   1.398   3.812
 7888SOL    HW224564   5.804   1.351   3.896
 7889SOL     OW24565   6.029   4.871   1.096
 7889SOL    HW124566   5.944   4.819   1.089
 7889SOL    HW224567   6.083   4.859   1.013
 7890SOL     OW24568   1.178   3.113   4.436
 7890SOL    HW124569   1.110   3.147   4.371
 7890SOL    HW224570   1.148   3.134   4.529
 7891SOL     OW24571   0.171   2.284   3.884
 7891SOL    HW124572   0.238   2.256   3.953
 7891SOL    HW224573   0.104   2.345   3.925
 7892SOL     OW24574   1.094   3.348   6.117
 7892SOL    HW124575   1.139   3.373   6.203
 7892SOL    HW224576   1.046   3.427   6.080
 7893SOL     OW24577   6.530   1.041   1.817
 7893SOL    HW124578   6.615   0.997   1.788
 7893SOL    HW224579   6.511   1.016   1.912
 7894SOL     OW24580   2.265   0.940   6.101
 7894SOL    HW124581   2.341   0.966   6.159
 7894SOL    HW224582   2.297   0.877   6.029
 7895SOL     OW24583   3.662   6.212   3.355
 7895SOL    HW124584   3.594   6.174   3.292
 7895SOL    HW224585   3.750   6.168   3.338
 7896SOL     OW24586   4.182   2.274   1.398
 7896SOL    HW124587   4.249   2.290   1.470
 7896SOL    HW224588   4.098   2.323   1.419
 7897SOL     OW24589   3.597   3.987   7.005
 7897SOL    HW124590   3.592   3.887   6.998
 7897SOL    HW224591   3.598   4.027   6.913
 7898SOL     OW24592   5.076   0.597   4.271
 7898SOL    HW124593   5.079   0.657   4.190
 7898SOL    HW224594   5.159   0.611   4.325
 7899SOL     OW24595   5.323   4.748   1.128
 7899SOL    HW124596   5.323   4.654   1.161
 7899SOL    HW224597   5.229   4.780   1.118
 7900SOL     OW24598   0.664   3.704   0.543
 7900SOL    HW124599   0.737   3.645   0.579
 7900SOL    HW224600   0.610   3.740   0.619
 7901SOL     OW24601   5.952   1.068   6.208
 7901SOL    HW124602   5.965   1.159   6.247
 7901SOL    HW224603   5.855   1.053   6.188
 7902SOL     OW24604   0.480   6.569   2.718
 7902SOL    HW124605   0.491   6.575   2.619
 7902SOL    HW224606   0.507   6.657   2.759
 7903SOL     OW24607   1.992   1.901   4.714
 7903SOL    HW124608   1.919   1.941   4.659
 7903SOL    HW224609   1.954   1.858   4.795
 7904SOL     OW24610   5.781   0.608   2.351
 7904SOL    HW124611   5.875   0.638   2.369
 7904SOL    HW224612   5.717   0.660   2.408
 7905SOL     OW24613   5.706   0.179   0.384
 7905SOL    HW124614   5.679   0.120   0.308
 7905SOL    HW224615   5.795   0.221   0.365
 7906SOL     OW24616   1.186   5.094   1.117
 7906SOL    HW124617   1.276   5.100   1.075
 7906SOL    HW224618   1.161   5.183   1.155
 7907SOL     OW24619   6.262   6.962   3.808
 7907SOL    HW124620   6.323   6.916   3.873
 7907SOL    HW224621   6.180   6.907   3.795
 7908SOL     OW24622   0.769   0.171   6.481
 7908SOL    HW124623   0.700   0.106   6.515
 7908SOL    HW224624   0.852   0.122   6.458
 7909SOL     OW24625   5.683   4.051   2.054
 7909SOL    HW124626   5.772   4.007   2.067
 7909SOL    HW224627   5.634   4.006   1.979
 7910SOL     OW24628   2.140   3.555   0.799
 7910SOL    HW124629   2.228   3.522   0.833
 7910SOL    HW224630   2.069   3.487   0.819
 7911SOL     OW24631   1.339   4.347   0.438
 7911SOL    HW124632   1.342   4.247   0.429
 7911SOL    HW224633   1.406   4.376   0.506
 7912SOL     OW24634   5.561   5.138   0.299
 7912SOL    HW124635   5.604   5.228   0.310
 7912SOL    HW224636   5.630   5.072   0.267
 7913SOL     OW24637   0.504   3.749   0.761
 7913SOL    HW124638   0.438   3.776   0.691
 7913SOL    HW224639   0.473   3.780   0.851
 7914SOL     OW24640   6.196   5.188   4.979
 7914SOL    HW124641   6.283   5.157   5.017
 7914SOL    HW224642   6.212   5.232   4.891
 7915SOL     OW24643   3.467   6.976   2.566
 7915SOL    HW124644   3.420   6.921   2.497
 7915SOL    HW224645   3.482   6.922   2.648
 7916SOL     OW24646   1.483   0.509   4.373
 7916SOL    HW124647   1.418   0.541   4.440
 7916SOL    HW224648   1.473   0.561   4.288
 7917SOL     OW24649   3.676   3.317   0.038
 7917SOL    HW124650   3.608   3.294   6.994
 7917SOL    HW224651   3.718   3.233   0.072
 7918SOL     OW24652   2.004   0.927   4.833
 7918SOL    HW124653   1.928   0.889   4.780
 7918SOL    HW224654   1.972   1.008   4.883
 7919SOL     OW24655   1.013   4.974   2.483
 7919SOL    HW124656   1.048   4.936   2.397
 7919SOL    HW224657   0.919   5.005   2.469
 7920SOL     OW24658   4.490   0.398   0.656
 7920SOL    HW124659   4.421   0.361   0.594
 7920SOL    HW224660   4.521   0.327   0.719
 7921SOL     OW24661   5.012   1.240   1.680
 7921SOL    HW124662   5.081   1.231   1.608
 7921SOL    HW224663   5.054   1.222   1.769
 7922SOL     OW24664   0.519   5.802   0.984
 7922SOL    HW124665   0.572   5.830   1.063
 7922SOL    HW224666   0.540   5.706   0.962
 7923SOL     OW24667   3.695   1.278   6.728
 7923SOL    HW124668   3.651   1.288   6.817
 7923SOL    HW224669   3.625   1.262   6.658
 7924SOL     OW24670   6.583   0.577   1.374
 7924SOL    HW124671   6.527   0.499   1.403
 7924SOL    HW224672   6.525   0.644   1.327
 7925SOL     OW24673   2.436   6.495   0.913
 7925SOL    HW124674   2.461   6.569   0.851
 7925SOL    HW224675   2.343   6.509   0.946
 7926SOL     OW24676   5.011   6.361   6.345
 7926SOL    HW124677   5.092   6.326   6.391
 7926SOL    HW224678   5.038   6.429   6.276
 7927SOL     OW24679   5.257   6.863   2.578
 7927SOL    HW124680   5.236   6.788   2.641
 7927SOL    HW224681   5.318   6.830   2.507
 7928SOL     OW24682   6.482   1.227   3.462
 7928SOL    HW124683   6.432   1.293   3.406
 7928SOL    HW224684   6.454   1.237   3.558
 7929SOL     OW24685   4.189   4.164   5.997
 7929SOL    HW124686   4.129   4.129   5.925
 7929SOL    HW224687   4.270   4.207   5.956
 7930SOL     OW24688   3.972   5.748   5.611
 7930SOL    HW124689   3.875   5.763   5.592
 7930SOL    HW224690   3.997   5.793   5.697
 7931SOL     OW24691   2.957   2.460   0.687
 7931SOL    HW124692   3.043   2.414   0.708
 7931SOL    HW224693   2.935   2.448   0.590
 7932SOL     OW24694   0.203   5.721   1.524
 7932SOL    HW124695   0.215   5.753   1.430
 7932SOL    HW224696   0.184   5.799   1.584
 7933SOL     OW24697   6.922   1.295   6.055
 7933SOL    HW124698   6.835   1.255   6.027
 7933SOL    HW224699   6.977   1.315   5.974
 7934SOL     OW24700   1.289   4.457   0.988
 7934SOL    HW124701   1.330   4.380   0.939
 7934SOL    HW224702   1.288   4.538   0.929
 7935SOL     OW24703   5.520   3.765   2.694
 7935SOL    HW124704   5.501   3.863   2.688
 7935SOL    HW224705   5.612   3.746   2.661
 7936SOL     OW24706   3.312   6.363   4.024
 7936SOL    HW124707   3.309   6.452   3.979
 7936SOL    HW224708   3.377   6.366   4.099
 7937SOL     OW24709   2.558   5.569   6.435
 7937SOL    HW124710   2.570   5.642   6.367
 7937SOL    HW224711   2.547   5.482   6.388
 7938SOL     OW24712   4.107   6.746   4.673
 7938SOL    HW124713   4.155   6.668   4.634
 7938SOL    HW224714   4.014   6.751   4.635
 7939SOL     OW24715   0.731   1.734   5.170
 7939SOL    HW124716   0.766   1.779   5.252
 7939SOL    HW224717   0.649   1.782   5.138
 7940SOL     OW24718   5.171   1.319   3.081
 7940SOL    HW124719   5.234   1.309   3.004
 7940SOL    HW224720   5.107   1.394   3.062
 7941SOL     OW24721   4.279   6.634   1.966
 7941SOL    HW124722   4.183   6.646   1.938
 7941SOL    HW224723   4.288   6.652   2.064
 7942SOL     OW24724   0.740   3.895   1.528
 7942SOL    HW124725   0.734   3.914   1.430
 7942SOL    HW224726   0.660   3.843   1.557
 7943SOL     OW24727   2.282   5.024   6.610
 7943SOL    HW124728   2.212   4.963   6.574
 7943SOL    HW224729   2.269   5.035   6.708
 7944SOL     OW24730   1.087   2.915   1.125
 7944SOL    HW124731   1.185   2.935   1.131
 7944SOL    HW224732   1.039   2.995   1.089
 7945SOL     OW24733   5.613   5.121   2.610
 7945SOL    HW124734   5.634   5.086   2.701
 7945SOL    HW224735   5.640   5.217   2.603
 7946SOL     OW24736   4.028   1.315   5.142
 7946SOL    HW124737   3.956   1.284   5.204
 7946SOL    HW224738   4.021   1.414   5.129
 7947SOL     OW24739   0.867   2.811   5.174
 7947SOL    HW124740   0.901   2.732   5.225
 7947SOL    HW224741   0.830   2.781   5.086
 7948SOL     OW24742   1.503   5.397   2.146
 7948SOL    HW124743   1.559   5.362   2.221
 7948SOL    HW224744   1.460   5.483   2.173
 7949SOL     OW24745   3.984   4.918   6.325
 7949SOL    HW124746   3.961   5.015   6.328
 7949SOL    HW224747   4.002   4.885   6.418
 7950SOL     OW24748   5.849   5.155   5.408
 7950SOL    HW124749   5.816   5.249   5.416
 7950SOL    HW224750   5.852   5.129   5.312
 7951SOL     OW24751   3.257   5.571   2.642
 7951SOL    HW124752   3.274   5.535   2.550
 7951SOL    HW224753   3.163   5.603   2.648
 7952SOL     OW24754   5.472   3.349   6.996
 7952SOL    HW124755   5.389   3.358   0.026
 7952SOL    HW224756   5.454   3.383   6.904
 7953SOL     OW24757   3.801   2.093   0.524
 7953SOL    HW124758   3.795   2.073   0.426
 7953SOL    HW224759   3.758   2.020   0.577
 7954SOL     OW24760   3.692   2.973   0.515
 7954SOL    HW124761   3.696   3.071   0.498
 7954SOL    HW224762   3.617   2.954   0.578
 7955SOL     OW24763   1.505   1.427   6.593
 7955SOL    HW124764   1.570   1.501   6.611
 7955SOL    HW224765   1.418   1.465   6.563
 7956SOL     OW24766   6.972   0.813   1.093
 7956SOL    HW124767   6.930   0.763   1.169
 7956SOL    HW224768   0.014   0.755   1.048
 7957SOL     OW24769   4.928   0.322   4.916
 7957SOL    HW124770   4.911   0.277   5.004
 7957SOL    HW224771   4.906   0.260   4.842
 7958SOL     OW24772   5.663   3.476   6.732
 7958SOL    HW124773   5.569   3.505   6.715
 7958SOL    HW224774   5.722   3.556   6.740
 7959SOL     OW24775   5.150   0.889   5.766
 7959SOL    HW124776   5.141   0.972   5.821
 7959SOL    HW224777   5.228   0.899   5.704
 7960SOL     OW24778   6.890   0.831   6.730
 7960SOL    HW124779   6.925   0.738   6.730
 7960SOL    HW224780   6.851   0.852   6.640
 7961SOL     OW24781   6.493   0.640   0.062
 7961SOL    HW124782   6.435   0.636   7.006
 7961SOL    HW224783   6.583   0.602   0.041
 7962SOL     OW24784   6.024   6.523   5.685
 7962SOL    HW124785   6.068   6.594   5.629
 7962SOL    HW224786   6.004   6.560   5.775
 7963SOL     OW24787   6.506   5.153   4.149
 7963SOL    HW124788   6.490   5.107   4.062
 7963SOL    HW224789   6.445   5.232   4.157
 7964SOL     OW24790   6.304   3.387   2.005
 7964SOL    HW124791   6.275   3.321   1.936
 7964SOL    HW224792   6.231   3.453   2.020
 7965SOL     OW24793   4.386   1.937   0.066
 7965SOL    HW124794   4.435   1.961   7.008
 7965SOL    HW224795   4.359   1.841   0.062
 7966SOL     OW24796   4.413   4.323   5.356
 7966SOL    HW124797   4.373   4.236   5.386
 7966SOL    HW224798   4.362   4.358   5.277
 7967SOL     OW24799   1.292   5.017   1.974
 7967SOL    HW124800   1.270   4.921   1.990
 7967SOL    HW224801   1.392   5.029   1.977
 7968SOL     OW24802   6.449   2.073   4.330
 7968SOL    HW124803   6.498   2.123   4.259
 7968SOL    HW224804   6.514   2.033   4.394
 7969SOL     OW24805   4.804   6.154   0.248
 7969SOL    HW124806   4.900   6.125   0.249
 7969SOL    HW224807   4.760   6.123   0.332
 7970SOL     OW24808   6.346   3.294   2.490
 7970SOL    HW124809   6.248   3.277   2.502
 7970SOL    HW224810   6.374   3.264   2.399
 7971SOL     OW24811   3.053   1.516   0.704
 7971SOL    HW124812   3.152   1.523   0.712
 7971SOL    HW224813   3.027   1.419   0.696
 7972SOL     OW24814   3.679   2.924   2.562
 7972SOL    HW124815   3.760   2.943   2.618
 7972SOL    HW224816   3.658   3.003   2.505
 7973SOL     OW24817   6.090   3.618   3.226
 7973SOL    HW124818   6.047   3.673   3.155
 7973SOL    HW224819   6.188   3.611   3.208
 7974SOL     OW24820   6.003   1.805   5.289
 7974SOL    HW124821   5.978   1.750   5.210
 7974SOL    HW224822   6.068   1.875   5.262
 7975SOL     OW24823   5.459   1.081   0.775
 7975SOL    HW124824   5.525   1.109   0.845
 7975SOL    HW224825   5.404   1.005   0.809
 7976SOL     OW24826   1.423   6.841   0.247
 7976SOL    HW124827   1.448   6.744   0.245
 7976SOL    HW224828   1.506   6.897   0.254
 7977SOL     OW24829   5.487   6.229   3.124
 7977SOL    HW124830   5.471   6.143   3.172
 7977SOL    HW224831   5.421   6.238   3.048
 7978SOL     OW24832   0.270   4.552   1.060
 7978SOL    HW124833   0.275   4.454   1.077
 7978SOL    HW224834   0.264   4.568   0.961
 7979SOL     OW24835   1.566   3.611   4.547
 7979SOL    HW124836   1.510   3.545   4.497
 7979SOL    HW224837   1.510   3.659   4.615
 7980SOL     OW24838   3.620   4.872   6.077
 7980SOL    HW124839   3.578   4.929   6.147
 7980SOL    HW224840   3.584   4.897   5.987
 7981SOL     OW24841   1.768   5.232   3.114
 7981SOL    HW124842   1.766   5.329   3.139
 7981SOL    HW224843   1.697   5.182   3.164
 7982SOL     OW24844   1.338   1.729   6.251
 7982SOL    HW124845   1.342   1.829   6.249
 7982SOL    HW224846   1.422   1.692   6.212
 7983SOL     OW24847   5.340   0.841   0.912
 7983SOL    HW124848   5.315   0.807   0.821
 7983SOL    HW224849   5.438   0.827   0.927
 7984SOL     OW24850   1.285   1.710   1.762
 7984SOL    HW124851   1.282   1.633   1.698
 7984SOL    HW224852   1.197   1.757   1.760
 7985SOL     OW24853   2.016   2.518   5.541
 7985SOL    HW124854   2.016   2.530   5.441
 7985SOL    HW224855   2.035   2.605   5.586
 7986SOL     OW24856   3.379   1.155   3.984
 7986SOL    HW124857   3.332   1.107   3.910
 7986SOL    HW224858   3.441   1.092   4.031
 7987SOL     OW24859   1.077   3.591   1.055
 7987SOL    HW124860   1.100   3.558   0.964
 7987SOL    HW224861   1.127   3.675   1.074
 7988SOL     OW24862   0.275   1.461   1.318
 7988SOL    HW124863   0.349   1.527   1.306
 7988SOL    HW224864   0.249   1.457   1.415
 7989SOL     OW24865   0.978   4.420   0.434
 7989SOL    HW124866   1.044   4.443   0.363
 7989SOL    HW224867   1.019   4.353   0.497
 7990SOL     OW24868   3.066   5.495   5.469
 7990SOL    HW124869   3.025   5.545   5.392
 7990SOL    HW224870   3.158   5.530   5.487
 7991SOL     OW24871   5.670   1.417   5.321
 7991SOL    HW124872   5.629   1.326   5.331
 7991SOL    HW224873   5.752   1.410   5.265
 7992SOL     OW24874   2.647   0.597   0.378
 7992SOL    HW124875   2.698   0.514   0.401
 7992SOL    HW224876   2.598   0.630   0.459
 7993SOL     OW24877   6.636   6.264   1.362
 7993SOL    HW124878   6.653   6.295   1.455
 7993SOL    HW224879   6.677   6.327   1.297
 7994SOL     OW24880   5.416   0.946   3.398
 7994SOL    HW124881   5.355   1.011   3.353
 7994SOL    HW224882   5.473   0.994   3.465
 7995SOL     OW24883   0.452   4.487   1.649
 7995SOL    HW124884   0.544   4.496   1.686
 7995SOL    HW224885   0.387   4.536   1.707
 7996SOL     OW24886   3.804   6.860   2.978
 7996SOL    HW124887   3.852   6.874   2.892
 7996SOL    HW224888   3.854   6.904   3.052
 7997SOL     OW24889   0.606   2.246   6.632
 7997SOL    HW124890   0.581   2.188   6.709
 7997SOL    HW224891   0.588   2.197   6.546
 7998SOL     OW24892   2.990   0.586   0.302
 7998SOL    HW124893   2.911   0.606   0.244
 7998SOL    HW224894   3.028   0.672   0.337
 7999SOL     OW24895   1.429   1.387   5.361
 7999SOL    HW124896   1.358   1.339   5.413
 7999SOL    HW224897   1.519   1.350   5.387
 8000SOL     OW24898   5.656   6.371   6.310
 8000SOL    HW124899   5.576   6.370   6.249
 8000SOL    HW224900   5.724   6.306   6.277
 8001SOL     OW24901   4.749   0.254   1.063
 8001SOL    HW124902   4.758   0.185   1.135
 8001SOL    HW224903   4.666   0.307   1.079
 8002SOL     OW24904   0.093   0.431   6.059
 8002SOL    HW124905   0.074   0.414   6.156
 8002SOL    HW224906   0.180   0.481   6.050
 8003SOL     OW24907   1.901   6.673   2.707
 8003SOL    HW124908   1.810   6.713   2.699
 8003SOL    HW224909   1.923   6.658   2.803
 8004SOL     OW24910   0.871   2.784   4.091
 8004SOL    HW124911   0.959   2.791   4.137
 8004SOL    HW224912   0.801   2.754   4.157
 8005SOL     OW24913   2.635   0.392   3.221
 8005SOL    HW124914   2.677   0.311   3.179
 8005SOL    HW224915   2.609   0.456   3.149
 8006SOL     OW24916   3.753   4.854   5.253
 8006SOL    HW124917   3.737   4.775   5.312
 8006SOL    HW224918   3.668   4.880   5.208
 8007SOL     OW24919   6.059   1.377   6.729
 8007SOL    HW124920   6.142   1.363   6.784
 8007SOL    HW224921   6.085   1.402   6.636
 8008SOL     OW24922   4.445   6.767   0.101
 8008SOL    HW124923   4.538   6.778   0.067
 8008SOL    HW224924   4.443   6.787   0.199
 8009SOL     OW24925   4.481   1.417   0.751
 8009SOL    HW124926   4.469   1.421   0.652
 8009SOL    HW224927   4.445   1.331   0.786
 8010SOL     OW24928   2.616   2.566   5.200
 8010SOL    HW124929   2.551   2.642   5.206
 8010SOL    HW224930   2.683   2.573   5.274
 8011SOL     OW24931   3.292   1.827   2.208
 8011SOL    HW124932   3.260   1.895   2.273
 8011SOL    HW224933   3.246   1.839   2.120
 8012SOL     OW24934   1.164   3.006   5.671
 8012SOL    HW124935   1.256   3.043   5.665
 8012SOL    HW224936   1.150   2.965   5.762
 8013SOL     OW24937   1.722   2.499   3.722
 8013SOL    HW124938   1.780   2.423   3.695
 8013SOL    HW224939   1.753   2.534   3.811
 8014SOL     OW24940   2.039   0.840   3.301
 8014SOL    HW124941   2.094   0.838   3.385
 8014SOL    HW224942   1.962   0.903   3.313
 8015SOL     OW24943   2.237   6.976   5.587
 8015SOL    HW124944   2.229   6.930   5.499
 8015SOL    HW224945   2.301   0.027   5.579
 8016SOL     OW24946   4.624   1.737   5.504
 8016SOL    HW124947   4.547   1.795   5.529
 8016SOL    HW224948   4.622   1.718   5.406
 8017SOL     OW24949   6.816   0.324   0.396
 8017SOL    HW124950   6.744   0.306   0.329
 8017SOL    HW224951   6.784   0.393   0.461
 8018SOL     OW24952   4.012   1.263   0.550
 8018SOL    HW124953   4.063   1.277   0.465
 8018SOL    HW224954   3.982   1.168   0.556
 8019SOL     OW24955   3.141   3.457   0.764
 8019SOL    HW124956   3.117   3.539   0.712
 8019SOL    HW224957   3.190   3.484   0.847
 8020SOL     OW24958   6.770   0.199   5.055
 8020SOL    HW124959   6.699   0.206   4.984
 8020SOL    HW224960   6.860   0.211   5.012
 8021SOL     OW24961   1.571   2.030   2.461
 8021SOL    HW124962   1.659   1.982   2.471
 8021SOL    HW224963   1.557   2.089   2.541
 8022SOL     OW24964   5.330   1.134   2.132
 8022SOL    HW124965   5.341   1.075   2.212
 8022SOL    HW224966   5.324   1.078   2.050
 8023SOL     OW24967   5.064   6.341   3.652
 8023SOL    HW124968   5.156   6.304   3.660
 8023SOL    HW224969   5.035   6.379   3.740
 8024SOL     OW24970   2.045   6.019   6.321
 8024SOL    HW124971   2.077   6.108   6.354
 8024SOL    HW224972   2.023   5.961   6.400
 8025SOL     OW24973   2.142   5.030   1.529
 8025SOL    HW124974   2.167   4.978   1.448
 8025SOL    HW224975   2.214   5.097   1.550
 8026SOL     OW24976   0.751   5.330   6.371
 8026SOL    HW124977   0.724   5.317   6.466
 8026SOL    HW224978   0.697   5.403   6.330
 8027SOL     OW24979   3.812   6.343   6.374
 8027SOL    HW124980   3.912   6.335   6.382
 8027SOL    HW224981   3.770   6.325   6.463
 8028SOL     OW24982   3.059   5.512   4.716
 8028SOL    HW124983   3.142   5.463   4.744
 8028SOL    HW224984   3.043   5.497   4.619
 8029SOL     OW24985   6.340   1.101   1.405
 8029SOL    HW124986   6.366   1.148   1.490
 8029SOL    HW224987   6.403   1.025   1.388
 8030SOL     OW24988   6.593   4.703   1.027
 8030SOL    HW124989   6.681   4.670   0.994
 8030SOL    HW224990   6.586   4.801   1.009
 8031SOL     OW24991   6.249   0.707   3.081
 8031SOL    HW124992   6.299   0.660   3.008
 8031SOL    HW224993   6.225   0.642   3.153
 8032SOL     OW24994   5.292   2.686   0.911
 8032SOL    HW124995   5.335   2.714   0.997
 8032SOL    HW224996   5.239   2.761   0.874
 8033SOL     OW24997   3.651   4.405   0.587
 8033SOL    HW124998   3.680   4.424   0.493
 8033SOL    HW224999   3.659   4.488   0.642
 8034SOL     OW25000   5.431   6.957   5.273
 8034SOL    HW125001   5.425   6.866   5.313
 8034SOL    HW225002   5.361   6.968   5.203
 8035SOL     OW25003   4.811   1.564   3.265
 8035SOL    HW125004   4.869   1.620   3.205
 8035SOL    HW225005   4.868   1.522   3.336
 8036SOL     OW25006   6.119   2.935   4.040
 8036SOL    HW125007   6.214   2.941   4.011
 8036SOL    HW225008   6.079   2.851   4.005
 8037SOL     OW25009   1.487   3.006   6.606
 8037SOL    HW125010   1.520   3.004   6.511
 8037SOL    HW225011   1.512   2.920   6.652
 8038SOL     OW25012   6.124   6.584   2.405
 8038SOL    HW125013   6.063   6.539   2.340
 8038SOL    HW225014   6.207   6.614   2.358
 8039SOL     OW25015   1.190   1.947   5.674
 8039SOL    HW125016   1.123   1.978   5.742
 8039SOL    HW225017   1.275   1.922   5.719
 8040SOL     OW25018   1.711   5.616   5.965
 8040SOL    HW125019   1.634   5.607   5.902
 8040SOL    HW225020   1.776   5.541   5.951
 8041SOL     OW25021   3.911   1.793   3.145
 8041SOL    HW125022   3.993   1.851   3.143
 8041SOL    HW225023   3.834   1.843   3.106
 8042SOL     OW25024   4.540   4.546   5.854
 8042SOL    HW125025   4.520   4.531   5.757
 8042SOL    HW225026   4.461   4.519   5.909
 8043SOL     OW25027   5.305   4.376   0.966
 8043SOL    HW125028   5.254   4.411   0.888
 8043SOL    HW225029   5.259   4.401   1.051
 8044SOL     OW25030   3.464   3.683   0.876
 8044SOL    HW125031   3.501   3.670   0.967
 8044SOL    HW225032   3.421   3.773   0.870
 8045SOL     OW25033   0.744   1.216   2.656
 8045SOL    HW125034   0.691   1.172   2.729
 8045SOL    HW225035   0.831   1.169   2.646
 8046SOL     OW25036   0.304   5.167   2.152
 8046SOL    HW125037   0.396   5.193   2.126
 8046SOL    HW225038   0.293   5.068   2.144
 8047SOL     OW25039   3.993   0.238   5.571
 8047SOL    HW125040   3.902   0.279   5.574
 8047SOL    HW225041   3.999   0.164   5.639
 8048SOL     OW25042   3.300   3.793   0.169
 8048SOL    HW125043   3.287   3.876   0.116
 8048SOL    HW225044   3.395   3.763   0.160
 8049SOL     OW25045   1.597   6.992   0.619
 8049SOL    HW125046   1.531   0.029   0.659
 8049SOL    HW225047   1.601   7.006   0.520
 8050SOL     OW25048   1.576   4.266   3.944
 8050SOL    HW125049   1.564   4.278   4.042
 8050SOL    HW225050   1.575   4.169   3.922
 8051SOL     OW25051   3.445   6.189   4.257
 8051SOL    HW125052   3.514   6.232   4.316
 8051SOL    HW225053   3.364   6.168   4.312
 8052SOL     OW25054   2.176   2.038   2.011
 8052SOL    HW125055   2.196   1.944   2.039
 8052SOL    HW225056   2.077   2.053   2.014
 8053SOL     OW25057   2.697   3.350   6.189
 8053SOL    HW125058   2.631   3.373   6.118
 8053SOL    HW225059   2.672   3.263   6.232
 8054SOL     OW25060   5.417   4.151   4.961
 8054SOL    HW125061   5.506   4.115   4.933
 8054SOL    HW225062   5.430   4.228   5.023
 8055SOL     OW25063   0.234   0.312   5.253
 8055SOL    HW125064   0.192   0.238   5.305
 8055SOL    HW225065   0.166   0.384   5.237
 8056SOL     OW25066   2.266   0.675   3.803
 8056SOL    HW125067   2.325   0.637   3.874
 8056SOL    HW225068   2.317   0.742   3.749
 8057SOL     OW25069   2.459   2.741   1.857
 8057SOL    HW125070   2.434   2.688   1.775
 8057SOL    HW225071   2.516   2.684   1.916
 8058SOL     OW25072   2.990   6.820   3.022
 8058SOL    HW125073   2.975   6.862   2.933
 8058SOL    HW225074   2.911   6.838   3.081
 8059SOL     OW25075   2.640   3.114   6.367
 8059SOL    HW125076   2.716   3.104   6.431
 8059SOL    HW225077   2.573   3.178   6.404
 8060SOL     OW25078   6.615   0.152   6.006
 8060SOL    HW125079   6.527   0.171   5.963
 8060SOL    HW225080   6.686   0.144   5.936
 8061SOL     OW25081   0.491   0.977   2.381
 8061SOL    HW125082   0.576   0.989   2.330
 8061SOL    HW225083   0.414   0.985   2.318
 8062SOL     OW25084   4.362   6.112   5.360
 8062SOL    HW125085   4.279   6.081   5.314
 8062SOL    HW225086   4.371   6.212   5.349
 8063SOL     OW25087   3.494   0.713   2.819
 8063SOL    HW125088   3.519   0.718   2.723
 8063SOL    HW225089   3.430   0.638   2.834
 8064SOL     OW25090   6.433   3.383   0.311
 8064SOL    HW125091   6.491   3.344   0.240
 8064SOL    HW225092   6.448   3.335   0.397
 8065SOL     OW25093   3.232   0.025   4.903
 8065SOL    HW125094   3.239   6.953   4.886
 8065SOL    HW225095   3.318   0.070   4.875
 8066SOL     OW25096   0.073   1.146   4.977
 8066SOL    HW125097   0.063   1.222   5.041
 8066SOL    HW225098   7.012   1.128   4.932
 8067SOL     OW25099   4.881   3.049   3.615
 8067SOL    HW125100   4.832   3.024   3.699
 8067SOL    HW225101   4.919   3.141   3.625
 8068SOL     OW25102   6.748   4.439   1.376
 8068SOL    HW125103   6.746   4.464   1.473
 8068SOL    HW225104   6.681   4.494   1.326
 8069SOL     OW25105   3.081   5.136   2.529
 8069SOL    HW125106   3.095   5.043   2.494
 8069SOL    HW225107   3.006   5.179   2.479
 8070SOL     OW25108   5.155   4.473   0.760
 8070SOL    HW125109   5.165   4.548   0.695
 8070SOL    HW225110   5.057   4.456   0.777
 8071SOL     OW25111   4.024   6.903   6.163
 8071SOL    HW125112   3.933   6.945   6.158
 8071SOL    HW225113   4.092   6.970   6.134
 8072SOL     OW25114   2.107   3.276   6.699
 8072SOL    HW125115   2.016   3.238   6.685
 8072SOL    HW225116   2.106   3.374   6.677
 8073SOL     OW25117   2.878   0.115   6.571
 8073SOL    HW125118   2.948   0.096   6.640
 8073SOL    HW225119   2.922   0.147   6.487
 8074SOL     OW25120   2.244   2.041   0.413
 8074SOL    HW125121   2.264   1.965   0.475
 8074SOL    HW225122   2.212   2.006   0.325
 8075SOL     OW25123   0.083   6.567   7.021
 8075SOL    HW125124   0.052   6.495   6.958
 8075SOL    HW225125   0.053   6.546   0.088
 8076SOL     OW25126   6.709   7.005   6.931
 8076SOL    HW125127   6.802   6.981   6.904
 8076SOL    HW225128   6.675   6.936   6.995
 8077SOL     OW25129   4.179   5.661   1.883
 8077SOL    HW125130   4.125   5.580   1.863
 8077SOL    HW225131   4.277   5.638   1.883
 8078SOL     OW25132   1.244   1.150   0.792
 8078SOL    HW125133   1.206   1.116   0.707
 8078SOL    HW225134   1.290   1.238   0.776
 8079SOL     OW25135   1.284   1.228   4.894
 8079SOL    HW125136   1.347   1.304   4.875
 8079SOL    HW225137   1.335   1.151   4.931
 8080SOL     OW25138   1.360   3.340   2.686
 8080SOL    HW125139   1.400   3.354   2.595
 8080SOL    HW225140   1.416   3.385   2.755
 8081SOL     OW25141   6.144   5.006   4.650
 8081SOL    HW125142   6.241   5.027   4.663
 8081SOL    HW225143   6.126   4.912   4.680
 8082SOL     OW25144   2.568   1.714   2.314
 8082SOL    HW125145   2.618   1.628   2.318
 8082SOL    HW225146   2.471   1.698   2.330
 8083SOL     OW25147   5.419   2.321   4.445
 8083SOL    HW125148   5.414   2.312   4.545
 8083SOL    HW225149   5.346   2.269   4.402
 8084SOL     OW25150   2.209   0.105   6.222
 8084SOL    HW125151   2.264   0.022   6.218
 8084SOL    HW225152   2.217   0.147   6.313
 8085SOL     OW25153   0.362   5.196   3.965
 8085SOL    HW125154   0.381   5.281   4.014
 8085SOL    HW225155   0.447   5.160   3.926
 8086SOL     OW25156   0.595   1.059   1.971
 8086SOL    HW125157   0.501   1.025   1.973
 8086SOL    HW225158   0.617   1.087   1.878
 8087SOL     OW25159   1.081   0.647   0.006
 8087SOL    HW125160   1.146   0.657   0.081
 8087SOL    HW225161   1.121   0.589   6.961
 8088SOL     OW25162   5.129   6.774   6.508
 8088SOL    HW125163   5.131   6.778   6.408
 8088SOL    HW225164   5.219   6.749   6.543
 8089SOL     OW25165   6.021   2.543   6.388
 8089SOL    HW125166   5.926   2.533   6.419
 8089SOL    HW225167   6.024   2.542   6.288
 8090SOL     OW25168   4.159   1.690   6.867
 8090SOL    HW125169   4.230   1.718   6.802
 8090SOL    HW225170   4.140   1.593   6.856
 8091SOL     OW25171   1.371   4.284   4.492
 8091SOL    HW125172   1.308   4.288   4.570
 8091SOL    HW225173   1.318   4.283   4.407
 8092SOL     OW25174   4.848   2.047   5.390
 8092SOL    HW125175   4.892   1.958   5.385
 8092SOL    HW225176   4.753   2.039   5.361
 8093SOL     OW25177   2.927   6.231   2.844
 8093SOL    HW125178   2.928   6.187   2.754
 8093SOL    HW225179   3.021   6.248   2.874
 8094SOL     OW25180   1.080   3.583   4.129
 8094SOL    HW125181   1.117   3.526   4.056
 8094SOL    HW225182   0.982   3.596   4.114
 8095SOL     OW25183   1.086   4.200   5.263
 8095SOL    HW125184   1.181   4.214   5.292
 8095SOL    HW225185   1.031   4.279   5.290
 8096SOL     OW25186   1.437   6.691   2.109
 8096SOL    HW125187   1.464   6.730   2.021
 8096SOL    HW225188   1.344   6.656   2.103
 8097SOL     OW25189   3.017   6.866   5.119
 8097SOL    HW125190   3.107   6.824   5.131
 8097SOL    HW225191   2.946   6.801   5.146
 8098SOL     OW25192   0.620   6.159   3.582
 8098SOL    HW125193   0.618   6.067   3.621
 8098SOL    HW225194   0.527   6.186   3.555
 8099SOL     OW25195   3.806   5.619   3.874
 8099SOL    HW125196   3.816   5.675   3.791
 8099SOL    HW225197   3.785   5.525   3.848
 8100SOL     OW25198   6.169   1.321   6.466
 8100SOL    HW125199   6.250   1.377   6.447
 8100SOL    HW225200   6.117   1.306   6.382
 8101SOL     OW25201   2.053   6.001   0.690
 8101SOL    HW125202   2.062   5.948   0.606
 8101SOL    HW225203   2.066   6.098   0.670
 8102SOL     OW25204   1.060   3.198   4.693
 8102SOL    HW125205   1.126   3.144   4.746
 8102SOL    HW225206   0.968   3.175   4.724
 8103SOL     OW25207   3.801   1.309   2.476
 8103SOL    HW125208   3.767   1.377   2.541
 8103SOL    HW225209   3.900   1.302   2.486
 8104SOL     OW25210   1.952   6.336   5.939
 8104SOL    HW125211   1.947   6.316   5.842
 8104SOL    HW225212   1.952   6.251   5.991
 8105SOL     OW25213   6.460   1.709   3.167
 8105SOL    HW125214   6.501   1.679   3.252
 8105SOL    HW225215   6.475   1.640   3.096
 8106SOL     OW25216   2.440   6.314   4.160
 8106SOL    HW125217   2.523   6.343   4.209
 8106SOL    HW225218   2.361   6.324   4.219
 8107SOL     OW25219   1.922   5.761   4.441
 8107SOL    HW125220   1.957   5.718   4.358
 8107SOL    HW225221   1.830   5.796   4.424
 8108SOL     OW25222   0.112   1.261   6.592
 8108SOL    HW125223   0.057   1.252   6.675
 8108SOL    HW225224   0.085   1.344   6.543
 8109SOL     OW25225   6.863   3.611   6.487
 8109SOL    HW125226   6.889   3.516   6.476
 8109SOL    HW225227   6.914   3.651   6.563
 8110SOL     OW25228   4.623   4.651   1.008
 8110SOL    HW125229   4.590   4.672   0.916
 8110SOL    HW225230   4.550   4.612   1.062
 8111SOL     OW25231   5.709   1.152   3.292
 8111SOL    HW125232   5.720   1.083   3.364
 8111SOL    HW225233   5.783   1.219   3.298
 8112SOL     OW25234   0.481   2.658   4.984
 8112SOL    HW125235   0.510   2.562   4.981
 8112SOL    HW225236   0.518   2.702   5.065
 8113SOL     OW25237   6.186   2.971   1.358
 8113SOL    HW125238   6.108   3.029   1.379
 8113SOL    HW225239   6.221   2.929   1.442
 8114SOL     OW25240   1.458   4.307   2.184
 8114SOL    HW125241   1.480   4.402   2.161
 8114SOL    HW225242   1.418   4.303   2.276
 8115SOL     OW25243   3.188   6.809   6.869
 8115SOL    HW125244   3.215   6.889   6.922
 8115SOL    HW225245   3.125   6.753   6.924
 8116SOL     OW25246   3.631   5.511   0.704
 8116SOL    HW125247   3.604   5.549   0.792
 8116SOL    HW225248   3.725   5.538   0.683
 8117SOL     OW25249   2.154   6.722   2.947
 8117SOL    HW125250   2.099   6.792   2.993
 8117SOL    HW225251   2.171   6.750   2.852
 8118SOL     OW25252   6.263   4.227   6.527
 8118SOL    HW125253   6.328   4.191   6.460
 8118SOL    HW225254   6.284   4.189   6.617
 8119SOL     OW25255   5.511   6.110   5.483
 8119SOL    HW125256   5.434   6.073   5.432
 8119SOL    HW225257   5.592   6.053   5.467
 8120SOL     OW25258   2.118   5.601   0.604
 8120SOL    HW125259   2.188   5.533   0.582
 8120SOL    HW225260   2.029   5.555   0.611
 8121SOL     OW25261   1.049   4.100   3.436
 8121SOL    HW125262   1.127   4.143   3.392
 8121SOL    HW225263   1.002   4.041   3.370
 8122SOL     OW25264   1.157   4.545   2.797
 8122SOL    HW125265   1.229   4.484   2.764
 8122SOL    HW225266   1.178   4.574   2.891
 8123SOL     OW25267   0.883   1.961   6.829
 8123SOL    HW125268   0.974   1.922   6.814
 8123SOL    HW225269   0.884   2.059   6.810
 8124SOL     OW25270   5.481   5.908   4.064
 8124SOL    HW125271   5.574   5.927   4.034
 8124SOL    HW225272   5.482   5.875   4.159
 8125SOL     OW25273   0.496   0.856   2.925
 8125SOL    HW125274   0.523   0.839   3.019
 8125SOL    HW225275   0.573   0.839   2.864
 8126SOL     OW25276   3.833   5.012   3.933
 8126SOL    HW125277   3.803   4.948   4.003
 8126SOL    HW225278   3.910   4.973   3.883
 8127SOL     OW25279   2.353   2.728   0.505
 8127SOL    HW125280   2.335   2.654   0.439
 8127SOL    HW225281   2.435   2.706   0.557
 8128SOL     OW25282   3.151   2.862   1.571
 8128SOL    HW125283   3.081   2.806   1.616
 8128SOL    HW225284   3.118   2.956   1.562
 8129SOL     OW25285   1.320   2.321   0.348
 8129SOL    HW125286   1.291   2.230   0.377
 8129SOL    HW225287   1.339   2.321   0.250
 8130SOL     OW25288   1.290   5.615   0.339
 8130SOL    HW125289   1.315   5.603   0.243
 8130SOL    HW225290   1.370   5.643   0.391
 8131SOL     OW25291   2.635   2.645   1.124
 8131SOL    HW125292   2.568   2.718   1.135
 8131SOL    HW225293   2.726   2.678   1.148
 8132SOL     OW25294   6.734   6.975   4.006
 8132SOL    HW125295   6.749   0.030   3.949
 8132SOL    HW225296   6.753   6.997   4.102
 8133SOL     OW25297   3.815   5.275   1.891
 8133SOL    HW125298   3.759   5.357   1.879
 8133SOL    HW225299   3.797   5.235   1.981
 8134SOL     OW25300   6.352   1.205   5.825
 8134SOL    HW125301   6.391   1.213   5.916
 8134SOL    HW225302   6.423   1.179   5.760
 8135SOL     OW25303   2.220   0.240   1.588
 8135SOL    HW125304   2.131   0.263   1.548
 8135SOL    HW225305   2.207   0.175   1.662
 8136SOL     OW25306   5.191   5.473   2.463
 8136SOL    HW125307   5.233   5.520   2.386
 8136SOL    HW225308   5.262   5.438   2.524
 8137SOL     OW25309   3.392   1.326   5.701
 8137SOL    HW125310   3.303   1.299   5.739
 8137SOL    HW225311   3.423   1.257   5.636
 8138SOL     OW25312   5.588   1.108   1.851
 8138SOL    HW125313   5.655   1.107   1.925
 8138SOL    HW225314   5.628   1.149   1.769
 8139SOL     OW25315   0.727   1.607   2.655
 8139SOL    HW125316   0.692   1.549   2.582
 8139SOL    HW225317   0.817   1.575   2.683
 8140SOL     OW25318   4.582   1.189   4.674
 8140SOL    HW125319   4.614   1.126   4.602
 8140SOL    HW225320   4.547   1.272   4.632
 8141SOL     OW25321   3.799   5.236   5.780
 8141SOL    HW125322   3.744   5.291   5.844
 8141SOL    HW225323   3.740   5.196   5.711
 8142SOL     OW25324   6.515   4.703   0.522
 8142SOL    HW125325   6.498   4.778   0.585
 8142SOL    HW225326   6.492   4.732   0.429
 8143SOL     OW25327   6.022   4.589   5.873
 8143SOL    HW125328   5.923   4.602   5.881
 8143SOL    HW225329   6.068   4.627   5.954
 8144SOL     OW25330   5.352   6.751   6.829
 8144SOL    HW125331   5.386   6.769   6.737
 8144SOL    HW225332   5.419   6.785   6.896
 8145SOL     OW25333   5.750   5.892   2.837
 8145SOL    HW125334   5.680   5.930   2.777
 8145SOL    HW225335   5.719   5.896   2.932
 8146SOL     OW25336   3.395   1.072   5.591
 8146SOL    HW125337   3.474   1.014   5.612
 8146SOL    HW225338   3.394   1.092   5.494
 8147SOL     OW25339   4.438   1.868   3.652
 8147SOL    HW125340   4.348   1.909   3.640
 8147SOL    HW225341   4.474   1.839   3.563
 8148SOL     OW25342   5.670   2.946   2.448
 8148SOL    HW125343   5.740   2.963   2.518
 8148SOL    HW225344   5.580   2.957   2.489
 8149SOL     OW25345   3.788   5.712   2.631
 8149SOL    HW125346   3.833   5.699   2.543
 8149SOL    HW225347   3.705   5.766   2.619
 8150SOL     OW25348   0.446   4.747   0.502
 8150SOL    HW125349   0.485   4.838   0.483
 8150SOL    HW225350   0.353   4.757   0.537
 8151SOL     OW25351   0.750   2.531   3.763
 8151SOL    HW125352   0.689   2.503   3.837
 8151SOL    HW225353   0.817   2.596   3.799
 8152SOL     OW25354   1.990   1.382   3.251
 8152SOL    HW125355   2.020   1.409   3.342
 8152SOL    HW225356   2.069   1.354   3.197
 8153SOL     OW25357   3.108   0.238   1.873
 8153SOL    HW125358   3.127   0.271   1.965
 8153SOL    HW225359   3.100   0.315   1.810
 8154SOL     OW25360   2.305   6.170   3.949
 8154SOL    HW125361   2.362   6.218   4.016
 8154SOL    HW225362   2.266   6.089   3.991
 8155SOL     OW25363   3.107   2.900   1.972
 8155SOL    HW125364   3.022   2.913   1.920
 8155SOL    HW225365   3.169   2.840   1.921
 8156SOL     OW25366   5.532   0.881   5.452
 8156SOL    HW125367   5.571   0.916   5.366
 8156SOL    HW225368   5.512   0.958   5.513
 8157SOL     OW25369   6.012   4.296   6.379
 8157SOL    HW125370   5.977   4.220   6.324
 8157SOL    HW225371   6.102   4.272   6.416
 8158SOL     OW25372   0.987   5.761   1.211
 8158SOL    HW125373   0.964   5.678   1.261
 8158SOL    HW225374   1.076   5.795   1.241
 8159SOL     OW25375   2.019   5.241   2.095
 8159SOL    HW125376   2.098   5.249   2.034
 8159SOL    HW225377   2.033   5.165   2.158
 8160SOL     OW25378   4.854   2.619   0.882
 8160SOL    HW125379   4.772   2.568   0.854
 8160SOL    HW225380   4.827   2.706   0.923
 8161SOL     OW25381   4.753   0.895   0.534
 8161SOL    HW125382   4.757   0.995   0.539
 8161SOL    HW225383   4.839   0.860   0.499
 8162SOL     OW25384   5.916   0.199   0.670
 8162SOL    HW125385   5.891   0.257   0.592
 8162SOL    HW225386   5.992   0.243   0.720
 8163SOL     OW25387   2.380   4.187   5.362
 8163SOL    HW125388   2.395   4.112   5.298
 8163SOL    HW225389   2.344   4.266   5.312
 8164SOL     OW25390   5.002   2.305   1.354
 8164SOL    HW125391   4.923   2.251   1.326
 8164SOL    HW225392   5.083   2.247   1.354
 8165SOL     OW25393   1.797   4.254   1.428
 8165SOL    HW125394   1.755   4.276   1.517
 8165SOL    HW225395   1.730   4.207   1.370
 8166SOL     OW25396   2.407   0.382   1.976
 8166SOL    HW125397   2.411   0.282   1.970
 8166SOL    HW225398   2.374   0.420   1.890
 8167SOL     OW25399   6.047   2.639   3.530
 8167SOL    HW125400   6.011   2.609   3.618
 8167SOL    HW225401   5.974   2.681   3.476
 8168SOL     OW25402   3.643   1.493   3.318
 8168SOL    HW125403   3.725   1.462   3.270
 8168SOL    HW225404   3.582   1.539   3.254
 8169SOL     OW25405   4.346   3.895   6.713
 8169SOL    HW125406   4.386   3.986   6.721
 8169SOL    HW225407   4.373   3.839   6.792
 8170SOL     OW25408   0.881   5.735   4.036
 8170SOL    HW125409   0.966   5.695   4.003
 8170SOL    HW225410   0.887   5.750   4.135
 8171SOL     OW25411   0.492   1.648   6.558
 8171SOL    HW125412   0.589   1.671   6.557
 8171SOL    HW225413   0.477   1.570   6.496
 8172SOL     OW25414   0.132   0.067   0.625
 8172SOL    HW125415   0.083   0.020   0.699
 8172SOL    HW225416   0.211   0.116   0.663
 8173SOL     OW25417   3.507   2.498   6.925
 8173SOL    HW125418   3.528   2.547   6.840
 8173SOL    HW225419   3.571   2.527   6.996
 8174SOL     OW25420   5.748   1.396   1.449
 8174SOL    HW125421   5.792   1.365   1.365
 8174SOL    HW225422   5.694   1.478   1.431
 8175SOL     OW25423   0.589   2.138   6.366
 8175SOL    HW125424   0.550   2.049   6.346
 8175SOL    HW225425   0.658   2.161   6.297
 8176SOL     OW25426   2.629   5.580   1.904
 8176SOL    HW125427   2.566   5.535   1.840
 8176SOL    HW225428   2.715   5.599   1.858
 8177SOL     OW25429   0.846   6.579   4.361
 8177SOL    HW125430   0.885   6.646   4.424
 8177SOL    HW225431   0.867   6.487   4.393
 8178SOL     OW25432   1.347   6.473   6.829
 8178SOL    HW125433   1.392   6.525   6.756
 8178SOL    HW225434   1.401   6.390   6.847
 8179SOL     OW25435   3.225   2.849   0.161
 8179SOL    HW125436   3.173   2.799   0.230
 8179SOL    HW225437   3.207   2.947   0.170
 8180SOL     OW25438   0.122   6.841   4.327
 8180SOL    HW125439   0.103   6.801   4.237
 8180SOL    HW225440   0.191   6.913   4.316
 8181SOL     OW25441   2.719   1.920   3.094
 8181SOL    HW125442   2.690   1.981   3.168
 8181SOL    HW225443   2.780   1.969   3.032
 8182SOL     OW25444   3.515   2.258   5.602
 8182SOL    HW125445   3.460   2.266   5.518
 8182SOL    HW225446   3.502   2.167   5.641
 8183SOL     OW25447   0.891   3.564   4.996
 8183SOL    HW125448   0.941   3.631   5.052
 8183SOL    HW225449   0.884   3.478   5.047
 8184SOL     OW25450   0.345   0.539   5.375
 8184SOL    HW125451   0.343   0.527   5.474
 8184SOL    HW225452   0.263   0.500   5.335
 8185SOL     OW25453   3.266   1.476   2.523
 8185SOL    HW125454   3.277   1.525   2.437
 8185SOL    HW225455   3.216   1.391   2.507
 8186SOL     OW25456   3.142   5.983   5.732
 8186SOL    HW125457   3.084   5.995   5.813
 8186SOL    HW225458   3.084   5.971   5.651
 8187SOL     OW25459   1.416   2.140   5.304
 8187SOL    HW125460   1.326   2.098   5.311
 8187SOL    HW225461   1.485   2.074   5.334
 8188SOL     OW25462   5.726   2.134   2.525
 8188SOL    HW125463   5.628   2.151   2.522
 8188SOL    HW225464   5.770   2.202   2.584
 8189SOL     OW25465   5.797   4.748   2.884
 8189SOL    HW125466   5.809   4.755   2.983
 8189SOL    HW225467   5.881   4.712   2.843
 8190SOL     OW25468   5.020   3.284   3.614
 8190SOL    HW125469   5.116   3.311   3.625
 8190SOL    HW225470   4.961   3.361   3.639
 8191SOL     OW25471   0.546   4.905   4.124
 8191SOL    HW125472   0.527   4.962   4.044
 8191SOL    HW225473   0.586   4.818   4.094
 8192SOL     OW25474   2.369   5.537   2.057
 8192SOL    HW125475   2.292   5.596   2.084
 8192SOL    HW225476   2.442   5.593   2.018
 8193SOL     OW25477   4.612   6.845   5.323
 8193SOL    HW125478   4.650   6.831   5.414
 8193SOL    HW225479   4.680   6.891   5.265
 8194SOL     OW25480   6.784   0.824   0.016
 8194SOL    HW125481   6.720   0.856   6.971
 8194SOL    HW225482   6.783   0.724   0.018
 8195SOL     OW25483   6.632   0.203   0.195
 8195SOL    HW125484   6.577   0.127   0.229
 8195SOL    HW225485   6.715   0.169   0.151
 8196SOL     OW25486   3.460   6.733   6.698
 8196SOL    HW125487   3.492   6.715   6.791
 8196SOL    HW225488   3.365   6.701   6.689
 8197SOL     OW25489   6.810   0.572   6.299
 8197SOL    HW125490   6.735   0.535   6.245
 8197SOL    HW225491   6.884   0.504   6.304
 8198SOL     OW25492   2.442   6.649   3.218
 8198SOL    HW125493   2.368   6.716   3.218
 8198SOL    HW225494   2.511   6.675   3.150
 8199SOL     OW25495   0.017   3.938   6.988
 8199SOL    HW125496   0.055   3.957   0.053
 8199SOL    HW225497   6.967   4.000   6.970
 8200SOL     OW25498   4.996   4.352   1.202
 8200SOL    HW125499   5.048   4.269   1.219
 8200SOL    HW225500   4.898   4.330   1.199
 8201SOL     OW25501   5.698   6.982   3.919
 8201SOL    HW125502   5.746   0.041   3.942
 8201SOL    HW225503   5.605   7.004   3.888
 8202SOL     OW25504   1.479   4.609   3.104
 8202SOL    HW125505   1.405   4.616   3.037
 8202SOL    HW225506   1.563   4.583   3.057
 8203SOL     OW25507   5.403   4.191   1.839
 8203SOL    HW125508   5.439   4.108   1.796
 8203SOL    HW225509   5.479   4.253   1.860
 8204SOL     OW25510   3.354   0.002   2.212
 8204SOL    HW125511   3.453   0.002   2.203
 8204SOL    HW225512   3.312   7.019   2.121
 8205SOL     OW25513   5.820   5.394   1.535
 8205SOL    HW125514   5.848   5.487   1.511
 8205SOL    HW225515   5.733   5.373   1.490
 8206SOL     OW25516   4.063   1.985   5.318
 8206SOL    HW125517   4.037   2.077   5.348
 8206SOL    HW225518   3.997   1.919   5.353
 8207SOL     OW25519   3.396   5.008   6.242
 8207SOL    HW125520   3.352   4.965   6.163
 8207SOL    HW225521   3.336   5.079   6.278
 8208SOL     OW25522   1.618   4.410   1.593
 8208SOL    HW125523   1.518   4.409   1.584
 8208SOL    HW225524   1.652   4.503   1.581
 8209SOL     OW25525   0.882   0.294   5.177
 8209SOL    HW125526   0.864   0.231   5.252
 8209SOL    HW225527   0.976   0.328   5.183
 8210SOL     OW25528   2.213   1.594   0.279
 8210SOL    HW125529   2.163   1.532   0.339
 8210SOL    HW225530   2.310   1.571   0.281
 8211SOL     OW25531   3.189   3.008   4.195
 8211SOL    HW125532   3.272   2.990   4.248
 8211SOL    HW225533   3.211   3.006   4.097
 8212SOL     OW25534   2.822   6.994   1.359
 8212SOL    HW125535   2.866   6.994   1.449
 8212SOL    HW225536   2.749   6.925   1.358
 8213SOL     OW25537   4.536   4.289   1.550
 8213SOL    HW125538   4.582   4.222   1.491
 8213SOL    HW225539   4.500   4.243   1.631
 8214SOL     OW25540   3.247   5.686   4.256
 8214SOL    HW125541   3.335   5.713   4.295
 8214SOL    HW225542   3.189   5.767   4.245
 8215SOL     OW25543   4.408   6.841   6.788
 8215SOL    HW125544   4.388   6.850   6.886
 8215SOL    HW225545   4.500   6.803   6.776
 8216SOL     OW25546   4.759   5.865   1.714
 8216SOL    HW125547   4.859   5.864   1.707
 8216SOL    HW225548   4.729   5.955   1.744
 8217SOL     OW25549   2.533   5.474   3.331
 8217SOL    HW125550   2.575   5.423   3.405
 8217SOL    HW225551   2.567   5.568   3.331
 8218SOL     OW25552   1.743   0.407   5.457
 8218SOL    HW125553   1.674   0.421   5.386
 8218SOL    HW225554   1.762   0.309   5.465
 8219SOL     OW25555   3.833   3.842   0.839
 8219SOL    HW125556   3.921   3.870   0.800
 8219SOL    HW225557   3.760   3.866   0.776
 8220SOL     OW25558   3.656   3.711   3.936
 8220SOL    HW125559   3.718   3.637   3.962
 8220SOL    HW225560   3.696   3.764   3.861
 8221SOL     OW25561   6.067   3.015   3.338
 8221SOL    HW125562   6.029   3.084   3.276
 8221SOL    HW225563   6.165   3.008   3.324
 8222SOL     OW25564   6.200   2.741   1.118
 8222SOL    HW125565   6.114   2.792   1.127
 8222SOL    HW225566   6.216   2.689   1.201
 8223SOL     OW25567   0.327   5.933   5.070
 8223SOL    HW125568   0.368   6.024   5.062
 8223SOL    HW225569   0.352   5.878   4.990
 8224SOL     OW25570   5.695   1.536   0.458
 8224SOL    HW125571   5.793   1.548   0.447
 8224SOL    HW225572   5.677   1.481   0.540
 8225SOL     OW25573   5.206   1.596   0.692
 8225SOL    HW125574   5.258   1.609   0.776
 8225SOL    HW225575   5.131   1.532   0.709
 8226SOL     OW25576   3.651   0.188   0.532
 8226SOL    HW125577   3.644   0.272   0.478
 8226SOL    HW225578   3.724   0.131   0.495
 8227SOL     OW25579   4.882   1.904   2.482
 8227SOL    HW125580   4.947   1.970   2.446
 8227SOL    HW225581   4.856   1.930   2.575
 8228SOL     OW25582   1.914   0.496   5.634
 8228SOL    HW125583   1.895   0.575   5.692
 8228SOL    HW225584   1.836   0.477   5.575
 8229SOL     OW25585   4.326   4.474   1.113
 8229SOL    HW125586   4.269   4.550   1.083
 8229SOL    HW225587   4.308   4.454   1.209
 8230SOL     OW25588   5.000   0.713   5.628
 8230SOL    HW125589   5.057   0.632   5.611
 8230SOL    HW225590   5.021   0.749   5.719
 8231SOL     OW25591   2.600   1.396   2.991
 8231SOL    HW125592   2.524   1.441   3.038
 8231SOL    HW225593   2.634   1.454   2.917
 8232SOL     OW25594   3.888   6.509   2.749
 8232SOL    HW125595   3.868   6.607   2.750
 8232SOL    HW225596   3.820   6.462   2.692
 8233SOL     OW25597   0.896   0.776   5.904
 8233SOL    HW125598   0.798   0.782   5.921
 8233SOL    HW225599   0.917   0.821   5.816
 8234SOL     OW25600   1.823   2.345   0.513
 8234SOL    HW125601   1.854   2.268   0.567
 8234SOL    HW225602   1.807   2.315   0.419
 8235SOL     OW25603   6.996   5.387   0.850
 8235SOL    HW125604   6.990   5.383   0.950
 8235SOL    HW225605   6.905   5.404   0.812
 8236SOL     OW25606   0.767   6.675   6.877
 8236SOL    HW125607   0.814   6.748   6.927
 8236SOL    HW225608   0.706   6.715   6.808
 8237SOL     OW25609   4.477   5.579   6.483
 8237SOL    HW125610   4.552   5.633   6.446
 8237SOL    HW225611   4.455   5.504   6.421
 8238SOL     OW25612   1.426   4.529   0.634
 8238SOL    HW125613   1.482   4.487   0.705
 8238SOL    HW225614   1.484   4.558   0.558
 8239SOL     OW25615   0.848   1.207   5.352
 8239SOL    HW125616   0.881   1.143   5.422
 8239SOL    HW225617   0.827   1.295   5.394
 8240SOL     OW25618   3.587   3.565   4.380
 8240SOL    HW125619   3.673   3.538   4.336
 8240SOL    HW225620   3.555   3.651   4.342
 8241SOL     OW25621   1.635   4.189   6.128
 8241SOL    HW125622   1.629   4.247   6.047
 8241SOL    HW225623   1.612   4.095   6.103
 8242SOL     OW25624   0.178   2.667   4.286
 8242SOL    HW125625   0.097   2.611   4.268
 8242SOL    HW225626   0.152   2.750   4.334
 8243SOL     OW25627   0.665   4.402   4.497
 8243SOL    HW125628   0.647   4.386   4.595
 8243SOL    HW225629   0.761   4.385   4.478
 8244SOL     OW25630   1.446   0.207   4.091
 8244SOL    HW125631   1.395   0.134   4.045
 8244SOL    HW225632   1.471   0.178   4.183
 8245SOL     OW25633   5.424   1.636   3.912
 8245SOL    HW125634   5.421   1.633   3.813
 8245SOL    HW225635   5.518   1.642   3.944
 8246SOL     OW25636   1.710   4.973   6.171
 8246SOL    HW125637   1.656   4.983   6.254
 8246SOL    HW225638   1.687   4.886   6.127
 8247SOL     OW25639   3.421   5.409   3.140
 8247SOL    HW125640   3.518   5.412   3.114
 8247SOL    HW225641   3.383   5.320   3.117
 8248SOL     OW25642   0.653   5.151   2.958
 8248SOL    HW125643   0.584   5.213   2.921
 8248SOL    HW225644   0.744   5.188   2.941
 8249SOL     OW25645   2.784   1.967   6.053
 8249SOL    HW125646   2.818   1.880   6.088
 8249SOL    HW225647   2.830   2.042   6.101
 8250SOL     OW25648   1.894   1.433   6.580
 8250SOL    HW125649   1.944   1.372   6.641
 8250SOL    HW225650   1.829   1.380   6.526
 8251SOL     OW25651   0.152   2.095   4.631
 8251SOL    HW125652   0.081   2.152   4.589
 8251SOL    HW225653   0.224   2.077   4.564
 8252SOL     OW25654   1.352   2.345   6.560
 8252SOL    HW125655   1.369   2.276   6.489
 8252SOL    HW225656   1.362   2.304   6.650
 8253SOL     OW25657   4.369   5.821   0.810
 8253SOL    HW125658   4.301   5.844   0.879
 8253SOL    HW225659   4.458   5.855   0.838
 8254SOL     OW25660   5.182   5.141   6.917
 8254SOL    HW125661   5.202   5.218   6.978
 8254SOL    HW225662   5.096   5.098   6.944
 8255SOL     OW25663   0.903   6.214   6.351
 8255SOL    HW125664   0.963   6.146   6.309
 8255SOL    HW225665   0.848   6.170   6.422
 8256SOL     OW25666   1.925   5.642   3.258
 8256SOL    HW125667   1.977   5.588   3.324
 8256SOL    HW225668   1.986   5.707   3.213
 8257SOL     OW25669   4.971   3.672   3.193
 8257SOL    HW125670   4.999   3.631   3.106
 8257SOL    HW225671   4.922   3.605   3.248
 8258SOL     OW25672   6.860   2.955   2.039
 8258SOL    HW125673   6.924   3.030   2.026
 8258SOL    HW225674   6.856   2.931   2.136
 8259SOL     OW25675   4.550   1.553   4.211
 8259SOL    HW125676   4.485   1.535   4.285
 8259SOL    HW225677   4.530   1.641   4.169
 8260SOL     OW25678   4.255   1.512   1.398
 8260SOL    HW125679   4.292   1.444   1.461
 8260SOL    HW225680   4.290   1.493   1.306
 8261SOL     OW25681   5.755   0.405   2.978
 8261SOL    HW125682   5.777   0.313   3.010
 8261SOL    HW225683   5.833   0.465   2.995
 8262SOL     OW25684   6.472   4.055   2.103
 8262SOL    HW125685   6.447   4.085   2.195
 8262SOL    HW225686   6.570   4.034   2.100
 8263SOL     OW25687   0.283   2.203   6.534
 8263SOL    HW125688   0.323   2.115   6.561
 8263SOL    HW225689   0.353   2.274   6.537
 8264SOL     OW25690   2.434   6.912   2.647
 8264SOL    HW125691   2.342   6.891   2.678
 8264SOL    HW225692   2.429   6.966   2.562
 8265SOL     OW25693   5.344   0.298   0.711
 8265SOL    HW125694   5.345   0.199   0.700
 8265SOL    HW225695   5.414   0.338   0.652
 8266SOL     OW25696   2.578   0.558   3.535
 8266SOL    HW125697   2.626   0.580   3.621
 8266SOL    HW225698   2.583   0.637   3.474
 8267SOL     OW25699   1.369   4.026   3.219
 8267SOL    HW125700   1.426   4.100   3.254
 8267SOL    HW225701   1.277   4.061   3.200
 8268SOL     OW25702   3.221   4.462   6.603
 8268SOL    HW125703   3.286   4.526   6.562
 8268SOL    HW225704   3.242   4.449   6.699
 8269SOL     OW25705   5.500   2.237   3.420
 8269SOL    HW125706   5.524   2.166   3.354
 8269SOL    HW225707   5.432   2.298   3.380
 8270SOL     OW25708   3.389   0.663   5.908
 8270SOL    HW125709   3.378   0.578   5.961
 8270SOL    HW225710   3.301   0.688   5.867
 8271SOL     OW25711   3.850   6.534   5.918
 8271SOL    HW125712   3.773   6.591   5.889
 8271SOL    HW225713   3.923   6.592   5.954
 8272SOL     OW25714   1.079   0.253   1.551
 8272SOL    HW125715   1.156   0.216   1.498
 8272SOL    HW225716   1.023   0.310   1.491
 8273SOL     OW25717   3.071   0.129   6.826
 8273SOL    HW125718   3.122   0.076   6.894
 8273SOL    HW225719   2.974   0.130   6.850
 8274SOL     OW25720   5.367   6.181   6.142
 8274SOL    HW125721   5.384   6.277   6.164
 8274SOL    HW225722   5.341   6.173   6.046
 8275SOL     OW25723   5.490   0.559   3.962
 8275SOL    HW125724   5.464   0.603   3.876
 8275SOL    HW225725   5.410   0.519   4.005
 8276SOL     OW25726   0.410   2.380   6.218
 8276SOL    HW125727   0.385   2.296   6.267
 8276SOL    HW225728   0.473   2.358   6.144
 8277SOL     OW25729   1.329   5.847   6.253
 8277SOL    HW125730   1.414   5.830   6.303
 8277SOL    HW225731   1.344   5.831   6.155
 8278SOL     OW25732   3.819   1.246   0.803
 8278SOL    HW125733   3.891   1.200   0.855
 8278SOL    HW225734   3.849   1.337   0.777
 8279SOL     OW25735   5.054   5.274   5.887
 8279SOL    HW125736   4.976   5.232   5.932
 8279SOL    HW225737   5.023   5.348   5.827
 8280SOL     OW25738   5.277   3.029   7.017
 8280SOL    HW125739   5.286   3.012   6.919
 8280SOL    HW225740   5.187   3.069   0.009
 8281SOL     OW25741   2.252   4.989   6.891
 8281SOL    HW125742   2.272   5.083   6.920
 8281SOL    HW225743   2.307   4.925   6.944
 8282SOL     OW25744   3.250   2.728   0.668
 8282SOL    HW125745   3.282   2.671   0.744
 8282SOL    HW225746   3.172   2.783   0.698
 8283SOL     OW25747   0.522   5.263   2.733
 8283SOL    HW125748   0.464   5.337   2.700
 8283SOL    HW225749   0.472   5.176   2.726
 8284SOL     OW25750   2.279   2.247   2.244
 8284SOL    HW125751   2.252   2.178   2.311
 8284SOL    HW225752   2.267   2.211   2.152
 8285SOL     OW25753   3.430   4.511   6.260
 8285SOL    HW125754   3.473   4.540   6.174
 8285SOL    HW225755   3.331   4.505   6.247
 8286SOL     OW25756   5.496   0.851   5.825
 8286SOL    HW125757   5.445   0.775   5.865
 8286SOL    HW225758   5.594   0.838   5.841
 8287SOL     OW25759   2.009   0.627   3.113
 8287SOL    HW125760   2.023   0.720   3.147
 8287SOL    HW225761   2.053   0.617   3.024
 8288SOL     OW25762   1.572   1.348   2.757
 8288SOL    HW125763   1.636   1.347   2.833
 8288SOL    HW225764   1.480   1.369   2.790
 8289SOL     OW25765   6.314   1.713   5.895
 8289SOL    HW125766   6.242   1.779   5.873
 8289SOL    HW225767   6.334   1.659   5.814
 8290SOL     OW25768   4.185   2.375   1.787
 8290SOL    HW125769   4.177   2.446   1.857
 8290SOL    HW225770   4.098   2.327   1.778
 8291SOL     OW25771   5.179   5.298   6.269
 8291SOL    HW125772   5.236   5.377   6.248
 8291SOL    HW225773   5.138   5.310   6.359
 8292SOL     OW25774   0.977   4.022   4.233
 8292SOL    HW125775   1.010   3.973   4.313
 8292SOL    HW225776   0.877   4.027   4.236
 8293SOL     OW25777   3.026   5.302   4.019
 8293SOL    HW125778   2.936   5.279   4.056
 8293SOL    HW225779   3.062   5.383   4.066
 8294SOL     OW25780   5.413   3.686   5.806
 8294SOL    HW125781   5.433   3.592   5.780
 8294SOL    HW225782   5.491   3.744   5.782
 8295SOL     OW25783   4.963   4.149   2.166
 8295SOL    HW125784   5.049   4.188   2.199
 8295SOL    HW225785   4.981   4.061   2.122
 8296SOL     OW25786   4.018   6.582   1.859
 8296SOL    HW125787   4.037   6.588   1.761
 8296SOL    HW225788   3.969   6.497   1.878
 8297SOL     OW25789   5.364   4.439   2.851
 8297SOL    HW125790   5.403   4.357   2.809
 8297SOL    HW225791   5.404   4.520   2.809
 8298SOL     OW25792   6.406   0.367   5.969
 8298SOL    HW125793   6.348   0.448   5.983
 8298SOL    HW225794   6.349   0.289   5.948
 8299SOL     OW25795   1.279   3.617   1.322
 8299SOL    HW125796   1.231   3.553   1.262
 8299SOL    HW225797   1.378   3.610   1.306
 8300SOL     OW25798   5.614   4.960   2.894
 8300SOL    HW125799   5.700   4.910   2.888
 8300SOL    HW225800   5.538   4.899   2.871
 8301SOL     OW25801   4.428   6.457   0.544
 8301SOL    HW125802   4.507   6.456   0.484
 8301SOL    HW225803   4.428   6.540   0.600
 8302SOL     OW25804   3.943   6.658   5.508
 8302SOL    HW125805   4.026   6.645   5.454
 8302SOL    HW225806   3.875   6.708   5.454
 8303SOL     OW25807   0.066   6.046   2.939
 8303SOL    HW125808   0.139   6.045   3.008
 8303SOL    HW225809   0.071   6.131   2.886
 8304SOL     OW25810   5.144   3.579   3.500
 8304SOL    HW125811   5.221   3.598   3.439
 8304SOL    HW225812   5.134   3.655   3.565
 8305SOL     OW25813   4.929   5.928   4.507
 8305SOL    HW125814   4.856   5.975   4.458
 8305SOL    HW225815   4.945   5.839   4.465
 8306SOL     OW25816   6.810   0.624   2.324
 8306SOL    HW125817   6.754   0.700   2.293
 8306SOL    HW225818   6.899   0.627   2.277
 8307SOL     OW25819   1.737   4.089   3.245
 8307SOL    HW125820   1.639   4.106   3.241
 8307SOL    HW225821   1.757   3.997   3.212
 8308SOL     OW25822   1.171   5.700   0.703
 8308SOL    HW125823   1.235   5.637   0.660
 8308SOL    HW225824   1.171   5.686   0.802
 8309SOL     OW25825   5.936   4.470   4.383
 8309SOL    HW125826   5.890   4.426   4.460
 8309SOL    HW225827   6.008   4.409   4.348
 8310SOL     OW25828   1.249   6.858   0.445
 8310SOL    HW125829   1.273   6.774   0.495
 8310SOL    HW225830   1.314   6.871   0.371
 8311SOL     OW25831   5.822   0.200   3.208
 8311SOL    HW125832   5.889   0.273   3.220
 8311SOL    HW225833   5.772   0.186   3.294
 8312SOL     OW25834   5.331   1.528   0.070
 8312SOL    HW125835   5.253   1.574   0.114
 8312SOL    HW225836   5.413   1.542   0.126
 8313SOL     OW25837   4.851   1.930   4.907
 8313SOL    HW125838   4.850   2.015   4.959
 8313SOL    HW225839   4.941   1.887   4.915
 8314SOL     OW25840   4.918   6.181   5.116
 8314SOL    HW125841   4.889   6.231   5.197
 8314SOL    HW225842   4.867   6.095   5.110
 8315SOL     OW25843   3.572   3.985   4.752
 8315SOL    HW125844   3.588   4.011   4.847
 8315SOL    HW225845   3.641   4.028   4.694
 8316SOL     OW25846   2.017   2.760   6.275
 8316SOL    HW125847   1.938   2.701   6.289
 8316SOL    HW225848   2.087   2.740   6.343
 8317SOL     OW25849   2.050   1.192   3.485
 8317SOL    HW125850   1.985   1.185   3.410
 8317SOL    HW225851   2.068   1.101   3.522
 8318SOL     OW25852   3.981   0.129   6.964
 8318SOL    HW125853   3.914   0.197   6.935
 8318SOL    HW225854   4.073   0.163   6.944
 8319SOL     OW25855   1.563   6.828   6.594
 8319SOL    HW125856   1.559   6.890   6.516
 8319SOL    HW225857   1.651   6.840   6.641
 8320SOL     OW25858   2.928   3.622   4.706
 8320SOL    HW125859   2.944   3.686   4.631
 8320SOL    HW225860   2.917   3.672   4.791
 8321SOL     OW25861   6.858   6.803   1.040
 8321SOL    HW125862   6.760   6.784   1.036
 8321SOL    HW225863   6.909   6.717   1.029
 8322SOL     OW25864   1.083   0.140   6.567
 8322SOL    HW125865   1.150   0.083   6.616
 8322SOL    HW225866   1.059   0.097   6.481
 8323SOL     OW25867   5.404   4.254   0.720
 8323SOL    HW125868   5.454   4.176   0.756
 8323SOL    HW225869   5.362   4.305   0.795
 8324SOL     OW25870   4.772   6.237   6.123
 8324SOL    HW125871   4.784   6.320   6.177
 8324SOL    HW225872   4.822   6.161   6.165
 8325SOL     OW25873   1.382   5.811   5.958
 8325SOL    HW125874   1.302   5.810   5.897
 8325SOL    HW225875   1.411   5.717   5.976
 8326SOL     OW25876   1.892   3.791   1.652
 8326SOL    HW125877   1.908   3.803   1.750
 8326SOL    HW225878   1.890   3.881   1.608
 8327SOL     OW25879   0.876   6.751   4.628
 8327SOL    HW125880   0.859   6.846   4.601
 8327SOL    HW225881   0.789   6.706   4.645
 8328SOL     OW25882   1.585   6.786   6.957
 8328SOL    HW125883   1.507   6.724   6.948
 8328SOL    HW225884   1.552   6.881   6.951
 8329SOL     OW25885   1.442   2.640   5.142
 8329SOL    HW125886   1.435   2.693   5.226
 8329SOL    HW225887   1.470   2.546   5.164
 8330SOL     OW25888   3.300   1.327   6.144
 8330SOL    HW125889   3.295   1.234   6.181
 8330SOL    HW225890   3.214   1.374   6.159
 8331SOL     OW25891   1.724   2.527   6.633
 8331SOL    HW125892   1.655   2.560   6.568
 8331SOL    HW225893   1.689   2.538   6.727
 8332SOL     OW25894   5.873   5.509   1.790
 8332SOL    HW125895   5.853   5.443   1.718
 8332SOL    HW225896   5.921   5.464   1.865
 8333SOL     OW25897   2.597   5.112   1.566
 8333SOL    HW125898   2.514   5.112   1.622
 8333SOL    HW225899   2.653   5.032   1.591
 8334SOL     OW25900   3.864   2.139   6.298
 8334SOL    HW125901   3.786   2.200   6.306
 8334SOL    HW225902   3.877   2.089   6.385
 8335SOL     OW25903   4.976   3.837   6.430
 8335SOL    HW125904   4.987   3.898   6.351
 8335SOL    HW225905   4.880   3.810   6.437
 8336SOL     OW25906   0.969   3.875   3.544
 8336SOL    HW125907   1.016   3.963   3.552
 8336SOL    HW225908   1.037   3.802   3.548
 8337SOL     OW25909   1.150   1.498   4.643
 8337SOL    HW125910   1.224   1.546   4.597
 8337SOL    HW225911   1.186   1.419   4.691
 8338SOL     OW25912   4.519   5.443   2.605
 8338SOL    HW125913   4.441   5.411   2.659
 8338SOL    HW225914   4.542   5.536   2.632
 8339SOL     OW25915   6.322   6.953   0.594
 8339SOL    HW125916   6.415   6.992   0.597
 8339SOL    HW225917   6.280   6.961   0.685
 8340SOL     OW25918   6.018   2.496   0.236
 8340SOL    HW125919   6.016   2.595   0.220
 8340SOL    HW225920   6.080   2.453   0.171
 8341SOL     OW25921   3.514   1.036   0.583
 8341SOL    HW125922   3.439   0.985   0.541
 8341SOL    HW225923   3.561   0.977   0.649
 8342SOL     OW25924   5.026   0.331   0.210
 8342SOL    HW125925   5.015   0.306   0.306
 8342SOL    HW225926   5.052   0.250   0.157
 8343SOL     OW25927   6.206   3.858   3.662
 8343SOL    HW125928   6.187   3.801   3.742
 8343SOL    HW225929   6.137   3.841   3.592
 8344SOL     OW25930   1.123   5.064   5.002
 8344SOL    HW125931   1.044   5.051   5.062
 8344SOL    HW225932   1.149   5.160   5.001
 8345SOL     OW25933   4.420   0.777   3.455
 8345SOL    HW125934   4.357   0.754   3.381
 8345SOL    HW225935   4.398   0.868   3.490
 8346SOL     OW25936   5.337   2.960   5.138
 8346SOL    HW125937   5.402   2.916   5.199
 8346SOL    HW225938   5.243   2.935   5.165
 8347SOL     OW25939   2.635   0.117   6.386
 8347SOL    HW125940   2.724   0.086   6.421
 8347SOL    HW225941   2.650   0.181   6.310
 8348SOL     OW25942   3.591   6.464   2.017
 8348SOL    HW125943   3.615   6.374   1.979
 8348SOL    HW225944   3.657   6.532   1.984
 8349SOL     OW25945   1.029   6.367   1.925
 8349SOL    HW125946   0.952   6.347   1.985
 8349SOL    HW225947   1.090   6.288   1.921
 8350SOL     OW25948   2.571   0.356   0.575
 8350SOL    HW125949   2.655   0.362   0.522
 8350SOL    HW225950   2.591   0.311   0.663
 8351SOL     OW25951   6.311   3.779   2.569
 8351SOL    HW125952   6.398   3.782   2.618
 8351SOL    HW225953   6.317   3.835   2.486
 8352SOL     OW25954   2.474   5.767   1.347
 8352SOL    HW125955   2.464   5.855   1.301
 8352SOL    HW225956   2.457   5.694   1.281
 8353SOL     OW25957   1.241   4.214   1.957
 8353SOL    HW125958   1.287   4.199   2.045
 8353SOL    HW225959   1.242   4.130   1.904
 8354SOL     OW25960   3.149   0.262   3.464
 8354SOL    HW125961   3.058   0.292   3.495
 8354SOL    HW225962   3.206   0.240   3.543
 8355SOL     OW25963   2.200   5.711   6.010
 8355SOL    HW125964   2.287   5.713   6.060
 8355SOL    HW225965   2.127   5.743   6.070
 8356SOL     OW25966   1.863   5.425   1.060
 8356SOL    HW125967   1.930   5.478   1.009
 8356SOL    HW225968   1.804   5.486   1.112
 8357SOL     OW25969   4.154   6.285   5.989
 8357SOL    HW125970   4.241   6.304   5.943
 8357SOL    HW225971   4.080   6.331   5.941
 8358SOL     OW25972   0.957   2.080   5.144
 8358SOL    HW125973   0.894   2.039   5.210
 8358SOL    HW225974   0.950   2.030   5.057
 8359SOL     OW25975   3.001   2.096   5.612
 8359SOL    HW125976   3.085   2.150   5.608
 8359SOL    HW225977   2.992   2.056   5.703
 8360SOL     OW25978   4.950   0.334   0.921
 8360SOL    HW125979   4.877   0.307   0.983
 8360SOL    HW225980   4.963   0.263   0.852
 8361SOL     OW25981   3.547   0.449   7.017
 8361SOL    HW125982   3.580   0.543   7.019
 8361SOL    HW225983   3.611   0.389   0.038
 8362SOL     OW25984   0.066   3.856   1.794
 8362SOL    HW125985   0.129   3.780   1.804
 8362SOL    HW225986   0.051   3.874   1.697
 8363SOL     OW25987   2.573   2.888   6.529
 8363SOL    HW125988   2.642   2.890   6.601
 8363SOL    HW225989   2.603   2.941   6.451
 8364SOL     OW25990   6.718   3.075   4.588
 8364SOL    HW125991   6.716   2.990   4.640
 8364SOL    HW225992   6.659   3.066   4.507
 8365SOL     OW25993   1.819   2.767   2.577
 8365SOL    HW125994   1.831   2.859   2.540
 8365SOL    HW225995   1.766   2.771   2.662
 8366SOL     OW25996   5.089   5.635   1.973
 8366SOL    HW125997   5.182   5.598   1.984
 8366SOL    HW225998   5.050   5.653   2.063
 8367SOL     OW25999   3.958   4.818   4.269
 8367SOL    HW126000   3.926   4.805   4.363
 8367SOL    HW226001   4.031   4.753   4.250
 8368SOL     OW26002   6.956   6.824   0.619
 8368SOL    HW126003   6.876   6.781   0.577
 8368SOL    HW226004   0.004   6.756   0.627
 8369SOL     OW26005   2.427   0.544   0.236
 8369SOL    HW126006   2.366   0.610   0.280
 8369SOL    HW226007   2.520   0.558   0.269
 8370SOL     OW26008   2.915   2.981   0.597
 8370SOL    HW126009   2.841   2.990   0.530
 8370SOL    HW226010   2.961   3.069   0.607
 8371SOL     OW26011   1.827   4.568   6.237
 8371SOL    HW126012   1.804   4.610   6.150
 8371SOL    HW226013   1.864   4.637   6.299
 8372SOL     OW26014   2.329   5.337   2.321
 8372SOL    HW126015   2.375   5.403   2.380
 8372SOL    HW226016   2.327   5.373   2.227
 8373SOL     OW26017   0.013   0.975   4.664
 8373SOL    HW126018   0.089   1.040   4.675
 8373SOL    HW226019   6.980   1.004   4.589
 8374SOL     OW26020   1.620   0.268   4.333
 8374SOL    HW126021   1.688   0.297   4.266
 8374SOL    HW226022   1.552   0.341   4.345
 8375SOL     OW26023   4.077   1.429   4.348
 8375SOL    HW126024   4.033   1.475   4.425
 8375SOL    HW226025   4.032   1.456   4.263
 8376SOL     OW26026   2.258   0.851   3.150
 8376SOL    HW126027   2.163   0.870   3.176
 8376SOL    HW226028   2.300   0.793   3.220
 8377SOL     OW26029   4.768   5.743   6.928
 8377SOL    HW126030   4.836   5.671   6.909
 8377SOL    HW226031   4.721   5.723   7.014
 8378SOL     OW26032   5.813   5.919   3.624
 8378SOL    HW126033   5.802   5.828   3.662
 8378SOL    HW226034   5.909   5.945   3.624
 8379SOL     OW26035   6.257   1.193   1.982
 8379SOL    HW126036   6.247   1.280   2.030
 8379SOL    HW226037   6.186   1.130   2.014
 8380SOL     OW26038   6.271   5.646   0.364
 8380SOL    HW126039   6.264   5.685   0.456
 8380SOL    HW226040   6.228   5.556   0.362
 8381SOL     OW26041   0.055   1.875   2.111
 8381SOL    HW126042   0.077   1.971   2.102
 8381SOL    HW226043   0.003   1.844   2.031
 8382SOL     OW26044   2.562   0.678   0.644
 8382SOL    HW126045   2.523   0.616   0.712
 8382SOL    HW226046   2.660   0.689   0.663
 8383SOL     OW26047   2.673   5.934   6.165
 8383SOL    HW126048   2.617   5.981   6.096
 8383SOL    HW226049   2.752   5.893   6.121
 8384SOL     OW26050   0.964   2.852   0.692
 8384SOL    HW126051   1.042   2.874   0.633
 8384SOL    HW226052   0.956   2.753   0.701
 8385SOL     OW26053   3.750   4.020   1.032
 8385SOL    HW126054   3.792   3.958   0.965
 8385SOL    HW226055   3.664   4.055   0.995
 8386SOL     OW26056   2.078   5.632   1.592
 8386SOL    HW126057   2.001   5.583   1.633
 8386SOL    HW226058   2.044   5.716   1.549
 8387SOL     OW26059   1.482   1.423   2.261
 8387SOL    HW126060   1.384   1.428   2.276
 8387SOL    HW226061   1.501   1.385   2.170
 8388SOL     OW26062   3.483   6.869   1.284
 8388SOL    HW126063   3.460   6.774   1.262
 8388SOL    HW226064   3.399   6.921   1.299
 8389SOL     OW26065   0.685   2.618   4.218
 8389SOL    HW126066   0.617   2.682   4.255
 8389SOL    HW226067   0.748   2.591   4.290
 8390SOL     OW26068   2.262   0.927   5.788
 8390SOL    HW126069   2.244   0.836   5.824
 8390SOL    HW226070   2.250   0.927   5.689
 8391SOL     OW26071   5.176   5.783   1.513
 8391SOL    HW126072   5.202   5.696   1.471
 8391SOL    HW226073   5.121   5.764   1.595
 8392SOL     OW26074   5.751   6.031   5.377
 8392SOL    HW126075   5.838   6.023   5.427
 8392SOL    HW226076   5.771   6.050   5.280
 8393SOL     OW26077   0.277   6.014   3.101
 8393SOL    HW126078   0.324   6.095   3.138
 8393SOL    HW226079   0.291   5.937   3.163
 8394SOL     OW26080   0.913   1.927   3.045
 8394SOL    HW126081   0.880   1.833   3.050
 8394SOL    HW226082   0.835   1.990   3.050
 8395SOL     OW26083   0.078   5.762   5.137
 8395SOL    HW126084   0.013   5.777   5.211
 8395SOL    HW226085   0.156   5.824   5.148
 8396SOL     OW26086   4.858   3.933   2.631
 8396SOL    HW126087   4.837   4.031   2.644
 8396SOL    HW226088   4.846   3.909   2.535
 8397SOL     OW26089   2.070   6.091   2.759
 8397SOL    HW126090   1.993   6.028   2.756
 8397SOL    HW226091   2.154   6.043   2.735
 8398SOL     OW26092   4.175   1.314   0.342
 8398SOL    HW126093   4.223   1.295   0.256
 8398SOL    HW226094   4.121   1.398   0.332
 8399SOL     OW26095   5.713   6.285   0.396
 8399SOL    HW126096   5.783   6.232   0.348
 8399SOL    HW226097   5.754   6.368   0.434
 8400SOL     OW26098   0.174   0.178   2.574
 8400SOL    HW126099   0.107   0.242   2.612
 8400SOL    HW226100   0.142   0.084   2.590
 8401SOL     OW26101   3.666   4.225   6.551
 8401SOL    HW126102   3.651   4.242   6.453
 8401SOL    HW226103   3.710   4.306   6.591
 8402SOL     OW26104   4.399   1.729   6.765
 8402SOL    HW126105   4.412   1.713   6.667
 8402SOL    HW226106   4.457   1.665   6.816
 8403SOL     OW26107   1.520   1.397   4.818
 8403SOL    HW126108   1.601   1.413   4.874
 8403SOL    HW226109   1.541   1.330   4.747
 8404SOL     OW26110   4.682   5.701   5.618
 8404SOL    HW126111   4.681   5.701   5.718
 8404SOL    HW226112   4.714   5.613   5.584
 8405SOL     OW26113   0.591   2.049   5.899
 8405SOL    HW126114   0.588   2.144   5.867
 8405SOL    HW226115   0.583   1.987   5.821
 8406SOL     OW26116   5.343   2.124   1.625
 8406SOL    HW126117   5.356   2.089   1.718
 8406SOL    HW226118   5.247   2.149   1.612
 8407SOL     OW26119   4.801   3.980   3.398
 8407SOL    HW126120   4.799   3.915   3.475
 8407SOL    HW226121   4.880   3.960   3.340
 8408SOL     OW26122   4.554   2.145   4.037
 8408SOL    HW126123   4.459   2.162   4.060
 8408SOL    HW226124   4.612   2.218   4.074
 8409SOL     OW26125   1.210   1.667   3.999
 8409SOL    HW126126   1.169   1.634   3.914
 8409SOL    HW226127   1.182   1.608   4.075
 8410SOL     OW26128   4.192   6.777   1.518
 8410SOL    HW126129   4.103   6.731   1.511
 8410SOL    HW226130   4.185   6.851   1.585
 8411SOL     OW26131   1.906   4.312   4.468
 8411SOL    HW126132   1.961   4.280   4.545
 8411SOL    HW226133   1.813   4.277   4.475
 8412SOL     OW26134   5.054   2.733   2.908
 8412SOL    HW126135   5.013   2.676   2.980
 8412SOL    HW226136   5.030   2.829   2.924
 8413SOL     OW26137   3.671   4.746   0.667
 8413SOL    HW126138   3.671   4.671   0.734
 8413SOL    HW226139   3.763   4.782   0.658
 8414SOL     OW26140   4.066   6.523   3.238
 8414SOL    HW126141   4.028   6.561   3.323
 8414SOL    HW226142   4.053   6.589   3.164
 8415SOL     OW26143   6.208   4.172   3.193
 8415SOL    HW126144   6.164   4.152   3.106
 8415SOL    HW226145   6.220   4.087   3.244
 8416SOL     OW26146   5.294   3.783   2.544
 8416SOL    HW126147   5.218   3.730   2.580
 8416SOL    HW226148   5.377   3.764   2.597
 8417SOL     OW26149   2.214   6.015   6.040
 8417SOL    HW126150   2.195   5.969   6.127
 8417SOL    HW226151   2.161   5.970   5.967
 8418SOL     OW26152   6.744   5.624   2.689
 8418SOL    HW126153   6.787   5.535   2.671
 8418SOL    HW226154   6.787   5.694   2.633
 8419SOL     OW26155   4.574   0.703   3.097
 8419SOL    HW126156   4.549   0.670   3.006
 8419SOL    HW226157   4.605   0.626   3.153
 8420SOL     OW26158   3.629   0.444   5.770
 8420SOL    HW126159   3.581   0.519   5.814
 8420SOL    HW226160   3.564   0.387   5.719
 8421SOL     OW26161   1.904   6.562   2.192
 8421SOL    HW126162   1.926   6.650   2.151
 8421SOL    HW226163   1.908   6.569   2.291
 8422SOL     OW26164   4.604   6.732   0.934
 8422SOL    HW126165   4.680   6.729   0.999
 8422SOL    HW226166   4.530   6.787   0.974
 8423SOL     OW26167   3.249   4.669   0.642
 8423SOL    HW126168   3.250   4.572   0.619
 8423SOL    HW226169   3.321   4.716   0.591
 8424SOL     OW26170   3.515   1.607   3.115
 8424SOL    HW126171   3.574   1.685   3.096
 8424SOL    HW226172   3.423   1.639   3.140
 8425SOL     OW26173   6.328   5.098   1.031
 8425SOL    HW126174   6.239   5.118   1.073
 8425SOL    HW226175   6.324   5.118   0.933
 8426SOL     OW26176   3.876   3.450   3.260
 8426SOL    HW126177   3.817   3.442   3.340
 8426SOL    HW226178   3.960   3.498   3.284
 8427SOL     OW26179   2.311   3.945   6.345
 8427SOL    HW126180   2.242   4.018   6.346
 8427SOL    HW226181   2.379   3.965   6.275
 8428SOL     OW26182   0.253   4.079   2.181
 8428SOL    HW126183   0.259   4.109   2.276
 8428SOL    HW226184   0.240   3.980   2.178
 8429SOL     OW26185   1.736   5.968   3.663
 8429SOL    HW126186   1.671   6.044   3.651
 8429SOL    HW226187   1.748   5.921   3.576
 8430SOL     OW26188   4.279   4.651   2.635
 8430SOL    HW126189   4.266   4.560   2.674
 8430SOL    HW226190   4.376   4.674   2.635
 8431SOL     OW26191   3.065   4.822   1.476
 8431SOL    HW126192   3.131   4.771   1.532
 8431SOL    HW226193   3.088   4.812   1.379
 8432SOL     OW26194   3.891   6.619   6.617
 8432SOL    HW126195   3.934   6.682   6.552
 8432SOL    HW226196   3.804   6.588   6.580
 8433SOL     OW26197   1.440   2.469   5.975
 8433SOL    HW126198   1.450   2.536   5.902
 8433SOL    HW226199   1.485   2.384   5.949
 8434SOL     OW26200   4.620   6.050   5.469
 8434SOL    HW126201   4.542   6.072   5.411
 8434SOL    HW226202   4.630   5.951   5.475
 8435SOL     OW26203   4.358   2.197   1.668
 8435SOL    HW126204   4.291   2.267   1.697
 8435SOL    HW226205   4.384   2.142   1.747
 8436SOL     OW26206   4.408   4.529   1.835
 8436SOL    HW126207   4.414   4.429   1.824
 8436SOL    HW226208   4.488   4.561   1.886
 8437SOL     OW26209   1.092   1.869   0.618
 8437SOL    HW126210   1.038   1.786   0.634
 8437SOL    HW226211   1.189   1.847   0.626
 8438SOL     OW26212   1.580   4.979   2.411
 8438SOL    HW126213   1.651   4.996   2.479
 8438SOL    HW226214   1.613   4.913   2.344
 8439SOL     OW26215   6.688   5.461   2.355
 8439SOL    HW126216   6.617   5.527   2.378
 8439SOL    HW226217   6.732   5.428   2.438
 8440SOL     OW26218   0.746   1.153   1.681
 8440SOL    HW126219   0.833   1.192   1.710
 8440SOL    HW226220   0.747   1.138   1.582
 8441SOL     OW26221   4.712   5.674   6.123
 8441SOL    HW126222   4.808   5.651   6.107
 8441SOL    HW226223   4.656   5.591   6.114
 8442SOL     OW26224   1.939   4.700   6.712
 8442SOL    HW126225   1.878   4.749   6.651
 8442SOL    HW226226   1.968   4.761   6.786
 8443SOL     OW26227   1.594   0.574   2.971
 8443SOL    HW126228   1.519   0.536   2.916
 8443SOL    HW226229   1.557   0.611   3.056
 8444SOL     OW26230   3.828   6.414   3.518
 8444SOL    HW126231   3.811   6.332   3.464
 8444SOL    HW226232   3.745   6.468   3.525
 8445SOL     OW26233   3.736   4.873   2.888
 8445SOL    HW126234   3.830   4.838   2.896
 8445SOL    HW226235   3.723   4.910   2.797
 8446SOL     OW26236   5.348   4.865   2.543
 8446SOL    HW126237   5.414   4.821   2.482
 8446SOL    HW226238   5.302   4.796   2.599
 8447SOL     OW26239   4.773   2.097   1.841
 8447SOL    HW126240   4.837   2.133   1.909
 8447SOL    HW226241   4.757   2.166   1.770
 8448SOL     OW26242   0.287   3.478   6.574
 8448SOL    HW126243   0.304   3.569   6.538
 8448SOL    HW226244   0.271   3.483   6.673
 8449SOL     OW26245   0.985   2.924   4.850
 8449SOL    HW126246   0.955   2.844   4.798
 8449SOL    HW226247   1.040   2.895   4.928
 8450SOL     OW26248   2.388   6.013   2.784
 8450SOL    HW126249   2.488   6.013   2.786
 8450SOL    HW226250   2.353   6.053   2.869
 8451SOL     OW26251   3.894   3.019   1.542
 8451SOL    HW126252   3.914   3.116   1.529
 8451SOL    HW226253   3.795   3.007   1.557
 8452SOL     OW26254   6.892   0.404   1.106
 8452SOL    HW126255   6.969   0.456   1.068
 8452SOL    HW226256   6.915   0.307   1.109
 8453SOL     OW26257   6.557   4.071   5.891
 8453SOL    HW126258   6.520   4.162   5.875
 8453SOL    HW226259   6.499   4.022   5.956
 8454SOL     OW26260   1.622   6.915   3.863
 8454SOL    HW126261   1.551   6.936   3.930
 8454SOL    HW226262   1.629   6.991   3.797
 8455SOL     OW26263   4.687   1.747   1.008
 8455SOL    HW126264   4.592   1.764   1.036
 8455SOL    HW226265   4.690   1.664   0.952
 8456SOL     OW26266   5.587   5.258   3.349
 8456SOL    HW126267   5.610   5.233   3.255
 8456SOL    HW226268   5.635   5.341   3.374
 8457SOL     OW26269   7.022   6.631   5.832
 8457SOL    HW126270   0.095   6.626   5.845
 8457SOL    HW226271   6.979   6.672   5.912
 8458SOL     OW26272   1.956   2.009   0.105
 8458SOL    HW126273   2.039   1.953   0.104
 8458SOL    HW226274   1.971   2.091   0.049
 8459SOL     OW26275   3.490   5.612   2.379
 8459SOL    HW126276   3.467   5.688   2.319
 8459SOL    HW226277   3.472   5.637   2.474
 8460SOL     OW26278   4.341   1.893   0.452
 8460SOL    HW126279   4.384   1.908   0.541
 8460SOL    HW226280   4.249   1.932   0.451
 8461SOL     OW26281   0.046   3.725   1.275
 8461SOL    HW126282   0.145   3.716   1.287
 8461SOL    HW226283   0.028   3.784   1.196
 8462SOL     OW26284   3.807   4.028   6.432
 8462SOL    HW126285   3.776   4.109   6.482
 8462SOL    HW226286   3.772   3.946   6.477
 8463SOL     OW26287   0.248   1.852   6.968
 8463SOL    HW126288   0.298   1.872   6.884
 8463SOL    HW226289   0.171   1.916   6.977
 8464SOL     OW26290   0.376   2.953   0.133
 8464SOL    HW126291   0.308   2.907   0.075
 8464SOL    HW226292   0.343   2.954   0.228
 8465SOL     OW26293   3.673   2.932   1.175
 8465SOL    HW126294   3.712   2.863   1.236
 8465SOL    HW226295   3.700   2.912   1.081
 8466SOL     OW26296   5.640   0.530   5.219
 8466SOL    HW126297   5.731   0.546   5.256
 8466SOL    HW226298   5.579   0.498   5.292
 8467SOL     OW26299   3.222   1.312   0.916
 8467SOL    HW126300   3.182   1.263   0.838
 8467SOL    HW226301   3.276   1.389   0.882
 8468SOL     OW26302   6.275   3.322   6.983
 8468SOL    HW126303   6.324   3.405   7.011
 8468SOL    HW226304   6.288   3.251   0.026
 8469SOL     OW26305   3.651   2.509   5.710
 8469SOL    HW126306   3.587   2.581   5.736
 8469SOL    HW226307   3.600   2.426   5.686
 8470SOL     OW26308   0.954   4.872   0.991
 8470SOL    HW126309   0.943   4.964   0.953
 8470SOL    HW226310   1.000   4.878   1.080
 8471SOL     OW26311   3.268   1.360   5.268
 8471SOL    HW126312   3.215   1.290   5.316
 8471SOL    HW226313   3.305   1.425   5.334
 8472SOL     OW26314   5.498   1.376   6.481
 8472SOL    HW126315   5.577   1.395   6.424
 8472SOL    HW226316   5.415   1.402   6.433
 8473SOL     OW26317   4.954   4.488   6.703
 8473SOL    HW126318   4.976   4.394   6.728
 8473SOL    HW226319   4.975   4.549   6.780
 8474SOL     OW26320   3.163   3.823   2.104
 8474SOL    HW126321   3.203   3.910   2.075
 8474SOL    HW226322   3.223   3.748   2.076
 8475SOL     OW26323   6.739   3.234   1.750
 8475SOL    HW126324   6.649   3.259   1.713
 8475SOL    HW226325   6.809   3.294   1.711
 8476SOL     OW26326   6.290   0.179   1.857
 8476SOL    HW126327   6.218   0.159   1.924
 8476SOL    HW226328   6.276   0.123   1.775
 8477SOL     OW26329   5.362   6.584   1.315
 8477SOL    HW126330   5.427   6.571   1.240
 8477SOL    HW226331   5.280   6.631   1.280
 8478SOL     OW26332   0.374   6.892   5.373
 8478SOL    HW126333   0.354   6.871   5.277
 8478SOL    HW226334   0.470   6.918   5.381
 8479SOL     OW26335   1.536   2.377   1.410
 8479SOL    HW126336   1.595   2.297   1.400
 8479SOL    HW226337   1.446   2.348   1.444
 8480SOL     OW26338   4.605   3.549   0.067
 8480SOL    HW126339   4.553   3.464   0.069
 8480SOL    HW226340   4.570   3.613   0.136
 8481SOL     OW26341   3.861   2.166   4.031
 8481SOL    HW126342   3.929   2.174   3.958
 8481SOL    HW226343   3.902   2.196   4.117
 8482SOL     OW26344   4.543   1.083   0.201
 8482SOL    HW126345   4.454   1.065   0.158
 8482SOL    HW226346   4.588   0.996   0.222
 8483SOL     OW26347   3.284   5.930   3.715
 8483SOL    HW126348   3.375   5.891   3.703
 8483SOL    HW226349   3.285   5.990   3.795
 8484SOL     OW26350   6.454   5.605   4.681
 8484SOL    HW126351   6.521   5.572   4.615
 8484SOL    HW226352   6.418   5.693   4.651
 8485SOL     OW26353   3.313   2.409   0.094
 8485SOL    HW126354   3.271   2.327   0.054
 8485SOL    HW226355   3.375   2.450   0.028
 8486SOL     OW26356   1.289   1.269   2.537
 8486SOL    HW126357   1.291   1.315   2.625
 8486SOL    HW226358   1.281   1.337   2.464
 8487SOL     OW26359   5.605   2.149   5.891
 8487SOL    HW126360   5.574   2.065   5.846
 8487SOL    HW226361   5.608   2.135   5.990
 8488SOL     OW26362   5.077   5.993   2.217
 8488SOL    HW126363   5.041   6.053   2.288
 8488SOL    HW226364   5.149   6.040   2.166
 8489SOL     OW26365   5.358   0.978   1.447
 8489SOL    HW126366   5.300   0.898   1.462
 8489SOL    HW226367   5.440   0.950   1.397
 8490SOL     OW26368   2.185   6.758   7.023
 8490SOL    HW126369   2.174   6.659   7.013
 8490SOL    HW226370   2.282   6.781   0.004
 8491SOL     OW26371   2.852   6.189   2.402
 8491SOL    HW126372   2.937   6.242   2.398
 8491SOL    HW226373   2.831   6.155   2.310
 8492SOL     OW26374   5.921   4.186   4.689
 8492SOL    HW126375   5.984   4.208   4.615
 8492SOL    HW226376   5.968   4.192   4.777
 8493SOL     OW26377   3.682   1.001   0.351
 8493SOL    HW126378   3.748   1.075   0.347
 8493SOL    HW226379   3.591   1.037   0.329
 8494SOL     OW26380   5.897   5.149   1.932
 8494SOL    HW126381   5.876   5.063   1.979
 8494SOL    HW226382   5.869   5.143   1.837
 8495SOL     OW26383   6.696   5.909   0.429
 8495SOL    HW126384   6.755   5.932   0.352
 8495SOL    HW226385   6.638   5.832   0.405
 8496SOL     OW26386   5.098   1.550   2.117
 8496SOL    HW126387   5.119   1.458   2.083
 8496SOL    HW226388   5.088   1.612   2.039
 8497SOL     OW26389   6.654   0.889   3.923
 8497SOL    HW126390   6.677   0.950   3.999
 8497SOL    HW226391   6.730   0.826   3.907
 8498SOL     OW26392   4.775   6.932   4.307
 8498SOL    HW126393   4.786   6.949   4.209
 8498SOL    HW226394   4.681   6.901   4.325
 8499SOL     OW26395   6.911   5.831   6.954
 8499SOL    HW126396   6.936   5.927   6.964
 8499SOL    HW226397   6.977   5.785   6.894
 8500SOL     OW26398   1.792   0.635   5.869
 8500SOL    HW126399   1.733   0.556   5.887
 8500SOL    HW226400   1.807   0.686   5.954
 8501SOL     OW26401   0.835   1.301   0.267
 8501SOL    HW126402   0.789   1.325   0.352
 8501SOL    HW226403   0.833   1.379   0.205
 8502SOL     OW26404   0.483   2.821   6.865
 8502SOL    HW126405   0.414   2.796   6.934
 8502SOL    HW226406   0.490   2.921   6.860
 8503SOL     OW26407   6.315   6.068   4.204
 8503SOL    HW126408   6.229   6.022   4.220
 8503SOL    HW226409   6.326   6.087   4.106
 8504SOL     OW26410   2.444   5.121   2.428
 8504SOL    HW126411   2.530   5.165   2.455
 8504SOL    HW226412   2.391   5.184   2.371
 8505SOL     OW26413   5.350   3.308   2.699
 8505SOL    HW126414   5.291   3.252   2.642
 8505SOL    HW226415   5.393   3.379   2.644
 8506SOL     OW26416   2.437   0.471   7.002
 8506SOL    HW126417   2.430   0.471   0.076
 8506SOL    HW226418   2.532   0.454   6.976
 8507SOL     OW26419   4.848   6.801   5.811
 8507SOL    HW126420   4.936   6.760   5.790
 8507SOL    HW226421   4.798   6.818   5.726
 8508SOL     OW26422   4.298   1.662   0.335
 8508SOL    HW126423   4.324   1.666   0.238
 8508SOL    HW226424   4.316   1.751   0.378
 8509SOL     OW26425   5.970   0.260   3.531
 8509SOL    HW126426   5.942   0.187   3.595
 8509SOL    HW226427   6.065   0.284   3.549
 8510SOL     OW26428   5.446   2.488   4.241
 8510SOL    HW126429   5.456   2.418   4.311
 8510SOL    HW226430   5.435   2.578   4.284
 8511SOL     OW26431   5.738   2.977   1.988
 8511SOL    HW126432   5.671   2.937   1.926
 8511SOL    HW226433   5.746   2.919   2.070
 8512SOL     OW26434   1.949   6.979   4.334
 8512SOL    HW126435   1.901   0.002   4.407
 8512SOL    HW226436   1.958   0.014   4.255
 8513SOL     OW26437   6.283   6.273   0.359
 8513SOL    HW126438   6.342   6.280   0.439
 8513SOL    HW226439   6.221   6.351   0.357
 8514SOL     OW26440   2.846   6.496   3.984
 8514SOL    HW126441   2.909   6.475   3.909
 8514SOL    HW226442   2.885   6.465   4.070
 8515SOL     OW26443   5.662   1.634   1.343
 8515SOL    HW126444   5.702   1.650   1.253
 8515SOL    HW226445   5.575   1.684   1.351
 8516SOL     OW26446   6.168   2.423   2.215
 8516SOL    HW126447   6.107   2.388   2.285
 8516SOL    HW226448   6.262   2.394   2.234
 8517SOL     OW26449   1.689   2.826   6.118
 8517SOL    HW126450   1.632   2.747   6.139
 8517SOL    HW226451   1.779   2.814   6.160
 8518SOL     OW26452   3.620   5.562   0.156
 8518SOL    HW126453   3.640   5.596   0.064
 8518SOL    HW226454   3.678   5.483   0.176
 8519SOL     OW26455   1.004   5.350   1.951
 8519SOL    HW126456   0.953   5.277   1.999
 8519SOL    HW226457   1.102   5.335   1.964
 8520SOL     OW26458   4.348   0.840   0.195
 8520SOL    HW126459   4.384   0.842   0.102
 8520SOL    HW226460   4.369   0.753   0.238
 8521SOL     OW26461   1.107   5.767   5.895
 8521SOL    HW126462   1.104   5.861   5.864
 8521SOL    HW226463   1.018   5.741   5.933
 8522SOL     OW26464   1.409   5.921   5.028
 8522SOL    HW126465   1.454   6.009   5.019
 8522SOL    HW226466   1.400   5.879   4.937
 8523SOL     OW26467   1.251   6.793   6.916
 8523SOL    HW126468   1.265   6.711   6.972
 8523SOL    HW226469   1.179   6.775   6.849
 8524SOL     OW26470   1.255   3.145   6.038
 8524SOL    HW126471   1.177   3.199   6.071
 8524SOL    HW226472   1.340   3.188   6.068
 8525SOL     OW26473   6.144   3.402   2.731
 8525SOL    HW126474   6.098   3.341   2.666
 8525SOL    HW226475   6.163   3.353   2.816
 8526SOL     OW26476   2.232   2.747   2.727
 8526SOL    HW126477   2.317   2.730   2.677
 8526SOL    HW226478   2.235   2.838   2.769
 8527SOL     OW26479   4.556   0.779   4.654
 8527SOL    HW126480   4.625   0.707   4.658
 8527SOL    HW226481   4.479   0.748   4.598
 8528SOL     OW26482   4.560   2.748   6.109
 8528SOL    HW126483   4.643   2.790   6.075
 8528SOL    HW226484   4.541   2.665   6.056
 8529SOL     OW26485   1.289   5.161   6.704
 8529SOL    HW126486   1.283   5.232   6.634
 8529SOL    HW226487   1.270   5.202   6.794
 8530SOL     OW26488   1.481   3.684   4.935
 8530SOL    HW126489   1.419   3.606   4.944
 8530SOL    HW226490   1.563   3.668   4.990
 8531SOL     OW26491   5.160   5.016   2.272
 8531SOL    HW126492   5.100   4.951   2.319
 8531SOL    HW226493   5.128   5.029   2.178
 8532SOL     OW26494   3.246   4.238   5.560
 8532SOL    HW126495   3.287   4.160   5.608
 8532SOL    HW226496   3.155   4.255   5.597
 8533SOL     OW26497   3.529   1.120   4.904
 8533SOL    HW126498   3.491   1.112   4.996
 8533SOL    HW226499   3.546   1.217   4.884
 8534SOL     OW26500   1.548   3.014   2.674
 8534SOL    HW126501   1.614   3.020   2.599
 8534SOL    HW226502   1.529   3.105   2.709
 8535SOL     OW26503   0.346   2.006   4.456
 8535SOL    HW126504   0.333   2.023   4.358
 8535SOL    HW226505   0.439   1.971   4.471
 8536SOL     OW26506   0.057   1.301   5.835
 8536SOL    HW126507   0.118   1.256   5.770
 8536SOL    HW226508   0.056   1.399   5.818
 8537SOL     OW26509   5.638   0.580   1.726
 8537SOL    HW126510   5.614   0.674   1.699
 8537SOL    HW226511   5.561   0.539   1.774
 8538SOL     OW26512   6.254   0.654   5.093
 8538SOL    HW126513   6.276   0.561   5.122
 8538SOL    HW226514   6.225   0.654   4.997
 8539SOL     OW26515   0.620   2.757   1.654
 8539SOL    HW126516   0.554   2.706   1.598
 8539SOL    HW226517   0.700   2.700   1.672
 8540SOL     OW26518   3.628   0.463   0.379
 8540SOL    HW126519   3.677   0.438   0.295
 8540SOL    HW226520   3.694   0.487   0.450
 8541SOL     OW26521   2.830   1.102   4.568
 8541SOL    HW126522   2.829   1.157   4.484
 8541SOL    HW226523   2.793   1.155   4.644
 8542SOL     OW26524   2.085   4.846   6.521
 8542SOL    HW126525   2.062   4.765   6.575
 8542SOL    HW226526   2.056   4.831   6.426
 8543SOL     OW26527   2.339   1.998   5.849
 8543SOL    HW126528   2.401   2.072   5.823
 8543SOL    HW226529   2.389   1.930   5.902
 8544SOL     OW26530   5.151   4.367   5.116
 8544SOL    HW126531   5.188   4.433   5.050
 8544SOL    HW226532   5.172   4.397   5.209
 8545SOL     OW26533   3.071   0.237   5.758
 8545SOL    HW126534   3.053   0.322   5.808
 8545SOL    HW226535   2.988   0.180   5.758
 8546SOL     OW26536   5.914   0.518   1.737
 8546SOL    HW126537   5.816   0.539   1.727
 8546SOL    HW226538   5.966   0.566   1.667
 8547SOL     OW26539   6.064   6.200   6.076
 8547SOL    HW126540   6.007   6.209   5.994
 8547SOL    HW226541   6.148   6.150   6.052
 8548SOL     OW26542   0.538   2.866   6.108
 8548SOL    HW126543   0.628   2.835   6.075
 8548SOL    HW226544   0.471   2.859   6.034
 8549SOL     OW26545   1.781   0.973   2.946
 8549SOL    HW126546   1.754   0.899   3.007
 8549SOL    HW226547   1.773   0.943   2.851
 8550SOL     OW26548   0.963   4.324   6.690
 8550SOL    HW126549   1.050   4.353   6.731
 8550SOL    HW226550   0.920   4.254   6.747
 8551SOL     OW26551   2.078   1.823   5.769
 8551SOL    HW126552   2.163   1.771   5.764
 8551SOL    HW226553   2.089   1.911   5.723
 8552SOL     OW26554   2.468   1.556   3.208
 8552SOL    HW126555   2.547   1.575   3.266
 8552SOL    HW226556   2.390   1.609   3.240
 8553SOL     OW26557   5.022   2.943   0.541
 8553SOL    HW126558   4.999   2.845   0.545
 8553SOL    HW226559   4.940   2.997   0.554
 8554SOL     OW26560   1.118   0.048   0.529
 8554SOL    HW126561   1.180   6.998   0.509
 8554SOL    HW226562   1.047   0.017   0.592
 8555SOL     OW26563   4.413   1.065   4.326
 8555SOL    HW126564   4.352   1.142   4.346
 8555SOL    HW226565   4.380   1.017   4.245
 8556SOL     OW26566   1.790   6.387   0.290
 8556SOL    HW126567   1.746   6.312   0.339
 8556SOL    HW226568   1.790   6.469   0.347
 8557SOL     OW26569   0.636   0.706   6.963
 8557SOL    HW126570   0.604   0.784   7.017
 8557SOL    HW226571   0.592   0.707   6.873
 8558SOL     OW26572   2.912   4.822   3.538
 8558SOL    HW126573   2.990   4.875   3.571
 8558SOL    HW226574   2.932   4.788   3.446
 8559SOL     OW26575   0.867   5.438   2.642
 8559SOL    HW126576   0.843   5.347   2.606
 8559SOL    HW226577   0.814   5.456   2.724
 8560SOL     OW26578   2.830   4.223   1.729
 8560SOL    HW126579   2.908   4.175   1.769
 8560SOL    HW226580   2.826   4.316   1.766
 8561SOL     OW26581   4.717   6.828   2.153
 8561SOL    HW126582   4.755   6.821   2.060
 8561SOL    HW226583   4.767   6.898   2.204
 8562SOL     OW26584   4.367   0.903   6.944
 8562SOL    HW126585   4.308   0.939   6.872
 8562SOL    HW226586   4.433   0.839   6.903
 8563SOL     OW26587   1.755   5.454   2.295
 8563SOL    HW126588   1.850   5.481   2.279
 8563SOL    HW226589   1.749   5.354   2.296
 8564SOL     OW26590   4.512   0.569   6.782
 8564SOL    HW126591   4.600   0.580   6.736
 8564SOL    HW226592   4.441   0.551   6.714
 8565SOL     OW26593   2.918   5.734   1.448
 8565SOL    HW126594   2.833   5.691   1.416
 8565SOL    HW226595   2.922   5.728   1.548
 8566SOL     OW26596   3.475   0.991   2.737
 8566SOL    HW126597   3.541   1.058   2.771
 8566SOL    HW226598   3.496   0.901   2.775
 8567SOL     OW26599   2.169   2.435   1.985
 8567SOL    HW126600   2.170   2.535   1.992
 8567SOL    HW226601   2.102   2.407   1.917
 8568SOL     OW26602   0.050   1.165   0.169
 8568SOL    HW126603   0.104   1.082   0.185
 8568SOL    HW226604   0.002   1.157   0.082
 8569SOL     OW26605   4.665   1.962   6.541
 8569SOL    HW126606   4.634   2.054   6.516
 8569SOL    HW226607   4.711   1.965   6.630
 8570SOL     OW26608   1.713   3.153   4.085
 8570SOL    HW126609   1.812   3.157   4.097
 8570SOL    HW226610   1.681   3.059   4.090
 8571SOL     OW26611   1.548   0.757   3.410
 8571SOL    HW126612   1.498   0.711   3.338
 8571SOL    HW226613   1.511   0.731   3.499
 8572SOL     OW26614   3.048   3.875   5.586
 8572SOL    HW126615   3.006   3.959   5.551
 8572SOL    HW226616   3.095   3.894   5.672
 8573SOL     OW26617   3.573   6.329   0.767
 8573SOL    HW126618   3.667   6.298   0.755
 8573SOL    HW226619   3.516   6.290   0.694
 8574SOL     OW26620   6.099   6.676   5.480
 8574SOL    HW126621   6.105   6.607   5.408
 8574SOL    HW226622   6.138   6.762   5.447
 8575SOL     OW26623   3.136   6.246   3.053
 8575SOL    HW126624   3.190   6.327   3.035
 8575SOL    HW226625   3.091   6.255   3.143
 8576SOL     OW26626   0.631   4.219   3.421
 8576SOL    HW126627   0.649   4.146   3.487
 8576SOL    HW226628   0.702   4.218   3.350
 8577SOL     OW26629   2.038   1.875   6.629
 8577SOL    HW126630   2.097   1.828   6.695
 8577SOL    HW226631   1.977   1.938   6.677
 8578SOL     OW26632   5.941   7.021   5.451
 8578SOL    HW126633   5.888   0.016   5.370
 8578SOL    HW226634   5.965   0.080   5.498
 8579SOL     OW26635   3.184   5.854   2.498
 8579SOL    HW126636   3.194   5.778   2.562
 8579SOL    HW226637   3.156   5.936   2.548
 8580SOL     OW26638   1.754   0.556   1.229
 8580SOL    HW126639   1.812   0.475   1.235
 8580SOL    HW226640   1.805   0.636   1.261
 8581SOL     OW26641   3.347   4.716   1.080
 8581SOL    HW126642   3.436   4.678   1.107
 8581SOL    HW226643   3.307   4.660   1.008
 8582SOL     OW26644   3.738   4.346   5.480
 8582SOL    HW126645   3.670   4.306   5.541
 8582SOL    HW226646   3.758   4.281   5.406
 8583SOL     OW26647   4.508   0.644   2.833
 8583SOL    HW126648   4.463   0.730   2.809
 8583SOL    HW226649   4.442   0.569   2.824
 8584SOL     OW26650   6.608   1.069   4.371
 8584SOL    HW126651   6.535   1.137   4.365
 8584SOL    HW226652   6.578   0.984   4.326
 8585SOL     OW26653   5.379   1.996   1.870
 8585SOL    HW126654   5.437   1.929   1.824
 8585SOL    HW226655   5.418   2.019   1.959
 8586SOL     OW26656   6.022   5.706   0.986
 8586SOL    HW126657   6.000   5.632   1.050
 8586SOL    HW226658   6.111   5.690   0.945
 8587SOL     OW26659   1.675   1.114   5.932
 8587SOL    HW126660   1.741   1.077   5.867
 8587SOL    HW226661   1.661   1.212   5.914
 8588SOL     OW26662   3.216   1.487   6.673
 8588SOL    HW126663   3.244   1.493   6.769
 8588SOL    HW226664   3.191   1.392   6.652
 8589SOL     OW26665   0.108   2.915   6.072
 8589SOL    HW126666   0.147   2.850   6.137
 8589SOL    HW226667   0.073   2.994   6.122
 8590SOL     OW26668   1.132   1.670   2.535
 8590SOL    HW126669   1.049   1.723   2.554
 8590SOL    HW226670   1.211   1.716   2.575
 8591SOL     OW26671   6.527   5.223   0.134
 8591SOL    HW126672   6.627   5.218   0.134
 8591SOL    HW226673   6.499   5.319   0.125
 8592SOL     OW26674   1.519   1.796   6.517
 8592SOL    HW126675   1.532   1.815   6.420
 8592SOL    HW226676   1.583   1.853   6.571
 8593SOL     OW26677   3.318   0.763   6.324
 8593SOL    HW126678   3.349   0.820   6.400
 8593SOL    HW226679   3.359   0.795   6.239
 8594SOL     OW26680   6.630   2.701   5.783
 8594SOL    HW126681   6.718   2.672   5.744
 8594SOL    HW226682   6.612   2.649   5.866
 8595SOL     OW26683   5.172   6.458   2.494
 8595SOL    HW126684   5.084   6.504   2.510
 8595SOL    HW226685   5.241   6.527   2.471
 8596SOL     OW26686   0.493   2.711   3.425
 8596SOL    HW126687   0.518   2.628   3.474
 8596SOL    HW226688   0.573   2.772   3.421
 8597SOL     OW26689   5.998   3.179   1.025
 8597SOL    HW126690   6.084   3.199   1.073
 8597SOL    HW226691   5.928   3.152   1.092
 8598SOL     OW26692   5.300   0.315   4.451
 8598SOL    HW126693   5.204   0.338   4.466
 8598SOL    HW226694   5.306   0.225   4.408
 8599SOL     OW26695   1.313   2.926   3.937
 8599SOL    HW126696   1.378   2.855   3.965
 8599SOL    HW226697   1.263   2.959   4.017
 8600SOL     OW26698   4.045   2.838   1.417
 8600SOL    HW126699   3.980   2.909   1.444
 8600SOL    HW226700   4.123   2.838   1.479
 8601SOL     OW26701   0.905   0.278   3.149
 8601SOL    HW126702   1.002   0.270   3.170
 8601SOL    HW226703   0.874   0.196   3.101
 8602SOL     OW26704   2.340   6.677   4.157
 8602SOL    HW126705   2.268   6.608   4.154
 8602SOL    HW226706   2.409   6.650   4.224
 8603SOL     OW26707   0.013   0.875   0.745
 8603SOL    HW126708   6.991   0.958   0.717
 8603SOL    HW226709   7.014   0.799   0.685
 8604SOL     OW26710   0.210   4.114   6.204
 8604SOL    HW126711   0.236   4.037   6.145
 8604SOL    HW226712   0.124   4.093   6.251
 8605SOL     OW26713   0.081   5.014   4.239
 8605SOL    HW126714   0.083   5.027   4.140
 8605SOL    HW226715   0.068   5.102   4.285
 8606SOL     OW26716   2.220   2.707   6.889
 8606SOL    HW126717   2.144   2.716   6.954
 8606SOL    HW226718   2.239   2.795   6.847
 8607SOL     OW26719   2.518   4.554   1.351
 8607SOL    HW126720   2.504   4.519   1.258
 8607SOL    HW226721   2.602   4.515   1.388
 8608SOL     OW26722   2.330   4.802   2.904
 8608SOL    HW126723   2.311   4.889   2.950
 8608SOL    HW226724   2.363   4.736   2.972
 8609SOL     OW26725   4.331   1.085   3.830
 8609SOL    HW126726   4.363   1.163   3.778
 8609SOL    HW226727   4.231   1.083   3.830
 8610SOL     OW26728   0.567   6.801   2.825
 8610SOL    HW126729   0.636   6.856   2.779
 8610SOL    HW226730   0.525   6.854   2.898
 8611SOL     OW26731   2.863   1.608   4.140
 8611SOL    HW126732   2.884   1.674   4.213
 8611SOL    HW226733   2.765   1.586   4.142
 8612SOL     OW26734   4.033   3.131   3.204
 8612SOL    HW126735   3.965   3.103   3.136
 8612SOL    HW226736   4.000   3.213   3.251
 8613SOL     OW26737   3.148   2.857   1.070
 8613SOL    HW126738   3.136   2.918   1.148
 8613SOL    HW226739   3.167   2.764   1.103
 8614SOL     OW26740   1.578   2.554   1.874
 8614SOL    HW126741   1.526   2.542   1.958
 8614SOL    HW226742   1.523   2.604   1.808
 8615SOL     OW26743   4.018   1.158   3.747
 8615SOL    HW126744   3.959   1.154   3.828
 8615SOL    HW226745   3.965   1.184   3.667
 8616SOL     OW26746   4.211   4.739   2.359
 8616SOL    HW126747   4.118   4.751   2.322
 8616SOL    HW226748   4.208   4.673   2.434
 8617SOL     OW26749   4.257   0.395   4.152
 8617SOL    HW126750   4.245   0.492   4.171
 8617SOL    HW226751   4.287   0.348   4.235
 8618SOL     OW26752   5.359   3.790   1.423
 8618SOL    HW126753   5.363   3.876   1.373
 8618SOL    HW226754   5.448   3.745   1.421
 8619SOL     OW26755   5.829   4.423   1.146
 8619SOL    HW126756   5.729   4.427   1.136
 8619SOL    HW226757   5.851   4.379   1.233
 8620SOL     OW26758   1.870   0.782   4.466
 8620SOL    HW126759   1.778   0.822   4.465
 8620SOL    HW226760   1.930   0.836   4.407
 8621SOL     OW26761   5.253   2.660   1.667
 8621SOL    HW126762   5.208   2.706   1.591
 8621SOL    HW226763   5.209   2.685   1.753
 8622SOL     OW26764   6.551   5.211   2.935
 8622SOL    HW126765   6.599   5.163   3.008
 8622SOL    HW226766   6.601   5.295   2.911
 8623SOL     OW26767   6.252   3.027   4.874
 8623SOL    HW126768   6.324   3.027   4.944
 8623SOL    HW226769   6.165   3.054   4.915
 8624SOL     OW26770   2.854   3.823   5.938
 8624SOL    HW126771   2.824   3.873   6.019
 8624SOL    HW226772   2.938   3.865   5.903
 8625SOL     OW26773   4.201   1.810   5.510
 8625SOL    HW126774   4.140   1.888   5.501
 8625SOL    HW226775   4.154   1.736   5.559
 8626SOL     OW26776   4.429   3.972   0.482
 8626SOL    HW126777   4.474   4.029   0.413
 8626SOL    HW226778   4.471   3.988   0.571
 8627SOL     OW26779   1.774   0.883   2.684
 8627SOL    HW126780   1.725   0.801   2.653
 8627SOL    HW226781   1.871   0.872   2.663
 8628SOL     OW26782   0.650   6.433   0.502
 8628SOL    HW126783   0.666   6.453   0.598
 8628SOL    HW226784   0.661   6.516   0.448
 8629SOL     OW26785   0.069   0.206   4.578
 8629SOL    HW126786   0.007   0.162   4.645
 8629SOL    HW226787   0.152   0.151   4.569
 8630SOL     OW26788   5.182   3.109   2.586
 8630SOL    HW126789   5.109   3.090   2.520
 8630SOL    HW226790   5.173   3.048   2.665
 8631SOL     OW26791   2.888   5.858   6.957
 8631SOL    HW126792   2.939   5.816   0.006
 8631SOL    HW226793   2.936   5.940   6.925
 8632SOL     OW26794   4.649   4.501   5.279
 8632SOL    HW126795   4.702   4.438   5.221
 8632SOL    HW226796   4.624   4.455   5.364
 8633SOL     OW26797   5.721   3.751   5.688
 8633SOL    HW126798   5.752   3.816   5.619
 8633SOL    HW226799   5.655   3.688   5.647
 8634SOL     OW26800   5.572   4.668   1.016
 8634SOL    HW126801   5.487   4.699   1.058
 8634SOL    HW226802   5.598   4.579   1.054
 8635SOL     OW26803   6.196   2.581   6.602
 8635SOL    HW126804   6.150   2.640   6.669
 8635SOL    HW226805   6.145   2.581   6.517
 8636SOL     OW26806   5.037   6.442   1.127
 8636SOL    HW126807   5.109   6.386   1.168
 8636SOL    HW226808   4.999   6.503   1.197
 8637SOL     OW26809   2.384   2.034   6.360
 8637SOL    HW126810   2.353   2.116   6.311
 8637SOL    HW226811   2.482   2.022   6.344
 8638SOL     OW26812   4.552   2.811   5.342
 8638SOL    HW126813   4.531   2.727   5.291
 8638SOL    HW226814   4.467   2.861   5.359
 8639SOL     OW26815   4.128   3.307   6.256
 8639SOL    HW126816   4.129   3.283   6.159
 8639SOL    HW226817   4.221   3.334   6.284
 8640SOL     OW26818   3.007   3.632   1.544
 8640SOL    HW126819   2.946   3.583   1.482
 8640SOL    HW226820   2.987   3.607   1.639
 8641SOL     OW26821   4.579   6.120   2.703
 8641SOL    HW126822   4.673   6.100   2.730
 8641SOL    HW226823   4.553   6.063   2.625
 8642SOL     OW26824   1.408   6.596   4.727
 8642SOL    HW126825   1.310   6.578   4.720
 8642SOL    HW226826   1.422   6.684   4.773
 8643SOL     OW26827   3.657   0.010   0.883
 8643SOL    HW126828   3.611   0.029   0.796
 8643SOL    HW226829   3.614   0.064   0.956
 8644SOL     OW26830   5.864   1.585   6.676
 8644SOL    HW126831   5.934   1.520   6.706
 8644SOL    HW226832   5.840   1.645   6.753
 8645SOL     OW26833   6.002   4.213   2.331
 8645SOL    HW126834   5.922   4.270   2.350
 8645SOL    HW226835   6.009   4.199   2.232
 8646SOL     OW26836   0.219   1.918   5.853
 8646SOL    HW126837   0.179   1.968   5.777
 8646SOL    HW226838   0.147   1.871   5.905
 8647SOL     OW26839   2.395   4.714   1.721
 8647SOL    HW126840   2.379   4.626   1.675
 8647SOL    HW226841   2.312   4.741   1.769
 8648SOL     OW26842   5.977   5.345   0.960
 8648SOL    HW126843   5.969   5.326   0.862
 8648SOL    HW226844   5.971   5.259   1.011
 8649SOL     OW26845   4.393   6.680   0.718
 8649SOL    HW126846   4.358   6.756   0.663
 8649SOL    HW226847   4.464   6.714   0.780
 8650SOL     OW26848   1.969   6.710   4.133
 8650SOL    HW126849   2.010   6.643   4.071
 8650SOL    HW226850   2.011   6.702   4.223
 8651SOL     OW26851   3.172   1.666   1.005
 8651SOL    HW126852   3.157   1.765   1.011
 8651SOL    HW226853   3.117   1.621   1.075
 8652SOL     OW26854   1.952   4.130   3.815
 8652SOL    HW126855   1.926   4.057   3.879
 8652SOL    HW226856   2.024   4.097   3.753
 8653SOL     OW26857   0.226   1.531   6.025
 8653SOL    HW126858   0.172   1.527   5.940
 8653SOL    HW226859   0.285   1.611   6.023
 8654SOL     OW26860   0.889   4.569   1.665
 8654SOL    HW126861   0.844   4.651   1.629
 8654SOL    HW226862   0.874   4.493   1.601
 8655SOL     OW26863   6.942   0.979   5.454
 8655SOL    HW126864   6.918   0.890   5.416
 8655SOL    HW226865   0.003   0.973   5.503
 8656SOL     OW26866   5.196   0.291   1.330
 8656SOL    HW126867   5.128   0.361   1.307
 8656SOL    HW226868   5.271   0.333   1.381
 8657SOL     OW26869   5.460   0.665   2.500
 8657SOL    HW126870   5.427   0.571   2.494
 8657SOL    HW226871   5.473   0.702   2.408
 8658SOL     OW26872   0.014   5.039   0.736
 8658SOL    HW126873   7.023   5.048   0.834
 8658SOL    HW226874   0.070   5.116   0.705
 8659SOL     OW26875   4.792   1.246   2.174
 8659SOL    HW126876   4.842   1.164   2.147
 8659SOL    HW226877   4.808   1.319   2.108
 8660SOL     OW26878   0.592   3.096   1.353
 8660SOL    HW126879   0.578   3.078   1.255
 8660SOL    HW226880   0.556   3.186   1.376
 8661SOL     OW26881   6.113   3.674   2.738
 8661SOL    HW126882   6.105   3.576   2.719
 8661SOL    HW226883   6.196   3.710   2.696
 8662SOL     OW26884   3.077   5.345   3.049
 8662SOL    HW126885   3.134   5.294   2.985
 8662SOL    HW226886   2.986   5.304   3.053
 8663SOL     OW26887   3.452   5.795   3.203
 8663SOL    HW126888   3.503   5.876   3.229
 8663SOL    HW226889   3.516   5.721   3.179
 8664SOL     OW26890   2.739   5.652   3.082
 8664SOL    HW126891   2.693   5.721   3.138
 8664SOL    HW226892   2.675   5.578   3.061
 8665SOL     OW26893   5.883   3.720   6.309
 8665SOL    HW126894   5.982   3.716   6.297
 8665SOL    HW226895   5.856   3.658   6.383
 8666SOL     OW26896   4.676   0.033   3.232
 8666SOL    HW126897   4.755   0.053   3.290
 8666SOL    HW226898   4.693   6.977   3.178
 8667SOL     OW26899   4.667   1.907   4.000
 8667SOL    HW126900   4.614   1.982   3.962
 8667SOL    HW226901   4.712   1.936   4.084
 8668SOL     OW26902   4.774   2.913   5.044
 8668SOL    HW126903   4.797   2.823   5.081
 8668SOL    HW226904   4.718   2.964   5.110
 8669SOL     OW26905   5.998   6.685   6.463
 8669SOL    HW126906   6.074   6.731   6.419
 8669SOL    HW226907   5.931   6.658   6.394
 8670SOL     OW26908   6.393   4.624   5.906
 8670SOL    HW126909   6.370   4.558   5.834
 8670SOL    HW226910   6.374   4.716   5.873
 8671SOL     OW26911   7.026   1.933   2.959
 8671SOL    HW126912   6.930   1.962   2.952
 8671SOL    HW226913   0.018   1.863   2.889
 8672SOL     OW26914   6.937   1.112   3.750
 8672SOL    HW126915   6.880   1.037   3.782
 8672SOL    HW226916   6.894   1.199   3.775
 8673SOL     OW26917   1.066   2.074   0.828
 8673SOL    HW126918   1.067   1.993   0.769
 8673SOL    HW226919   1.153   2.123   0.819
 8674SOL     OW26920   6.891   4.636   2.738
 8674SOL    HW126921   6.824   4.664   2.670
 8674SOL    HW226922   6.974   4.691   2.728
 8675SOL     OW26923   3.875   2.135   5.487
 8675SOL    HW126924   3.851   2.219   5.439
 8675SOL    HW226925   3.792   2.086   5.512
 8676SOL     OW26926   5.747   0.802   1.118
 8676SOL    HW126927   5.836   0.814   1.075
 8676SOL    HW226928   5.753   0.735   1.191
 8677SOL     OW26929   1.415   6.779   5.486
 8677SOL    HW126930   1.397   6.691   5.529
 8677SOL    HW226931   1.424   6.850   5.556
 8678SOL     OW26932   2.138   0.944   1.100
 8678SOL    HW126933   2.222   0.921   1.052
 8678SOL    HW226934   2.059   0.906   1.051
 8679SOL     OW26935   2.322   1.587   4.502
 8679SOL    HW126936   2.396   1.617   4.562
 8679SOL    HW226937   2.248   1.654   4.504
 8680SOL     OW26938   6.940   2.154   6.233
 8680SOL    HW126939   6.898   2.234   6.192
 8680SOL    HW226940   6.931   2.076   6.171
 8681SOL     OW26941   5.467   5.746   1.018
 8681SOL    HW126942   5.368   5.757   1.033
 8681SOL    HW226943   5.516   5.823   1.060
 8682SOL     OW26944   0.546   0.265   1.090
 8682SOL    HW126945   0.482   0.329   1.135
 8682SOL    HW226946   0.507   0.234   1.004
 8683SOL     OW26947   2.355   4.514   4.695
 8683SOL    HW126948   2.312   4.523   4.785
 8683SOL    HW226949   2.329   4.426   4.655
 8684SOL     OW26950   0.291   3.429   4.653
 8684SOL    HW126951   0.210   3.462   4.703
 8684SOL    HW226952   0.338   3.360   4.707
 8685SOL     OW26953   4.886   2.479   5.689
 8685SOL    HW126954   4.865   2.382   5.673
 8685SOL    HW226955   4.803   2.533   5.680
 8686SOL     OW26956   0.022   5.886   2.720
 8686SOL    HW126957   6.988   5.934   2.657
 8686SOL    HW226958   0.036   5.942   2.802
 8687SOL     OW26959   6.032   3.328   3.589
 8687SOL    HW126960   6.011   3.402   3.652
 8687SOL    HW226961   5.998   3.241   3.626
 8688SOL     OW26962   1.040   4.035   6.308
 8688SOL    HW126963   1.060   4.015   6.212
 8688SOL    HW226964   0.954   4.086   6.314
 8689SOL     OW26965   4.735   4.113   6.688
 8689SOL    HW126966   4.635   4.120   6.686
 8689SOL    HW226967   4.771   4.124   6.595
 8690SOL     OW26968   2.071   1.984   3.466
 8690SOL    HW126969   2.070   2.049   3.391
 8690SOL    HW226970   1.978   1.971   3.500
 8691SOL     OW26971   2.830   2.336   5.146
 8691SOL    HW126972   2.916   2.298   5.114
 8691SOL    HW226973   2.780   2.376   5.069
 8692SOL     OW26974   4.263   1.939   5.961
 8692SOL    HW126975   4.276   2.001   5.884
 8692SOL    HW226976   4.165   1.919   5.972
 8693SOL     OW26977   6.278   0.644   5.948
 8693SOL    HW126978   6.342   0.710   5.908
 8693SOL    HW226979   6.230   0.686   6.025
 8694SOL     OW26980   5.841   3.512   4.041
 8694SOL    HW126981   5.772   3.464   3.986
 8694SOL    HW226982   5.812   3.607   4.055
 8695SOL     OW26983   3.621   4.275   6.286
 8695SOL    HW126984   3.551   4.346   6.276
 8695SOL    HW226985   3.684   4.281   6.208
 8696SOL     OW26986   3.042   5.683   5.797
 8696SOL    HW126987   3.121   5.657   5.853
 8696SOL    HW226988   3.074   5.732   5.716
 8697SOL     OW26989   1.316   3.932   5.847
 8697SOL    HW126990   1.371   3.854   5.816
 8697SOL    HW226991   1.240   3.946   5.784
 8698SOL     OW26992   5.520   5.791   5.147
 8698SOL    HW126993   5.601   5.745   5.112
 8698SOL    HW226994   5.438   5.750   5.108
 8699SOL     OW26995   1.944   3.217   0.205
 8699SOL    HW126996   1.857   3.257   0.177
 8699SOL    HW226997   1.973   3.257   0.293
 8700SOL     OW26998   0.677   0.089   5.210
 8700SOL    HW126999   0.687   0.133   5.299
 8700SOL    HW227000   0.755   0.113   5.152
 8701SOL     OW27001   1.121   1.826   6.827
 8701SOL    HW127002   1.061   1.763   6.778
 8701SOL    HW227003   1.199   1.776   6.865
 8702SOL     OW27004   5.768   4.166   1.280
 8702SOL    HW127005   5.751   4.068   1.275
 8702SOL    HW227006   5.681   4.215   1.289
 8703SOL     OW27007   2.855   4.649   1.414
 8703SOL    HW127008   2.801   4.597   1.481
 8703SOL    HW227009   2.906   4.721   1.461
 8704SOL     OW27010   0.946   2.031   3.735
 8704SOL    HW127011   0.920   2.127   3.747
 8704SOL    HW227012   1.042   2.019   3.762
 8705SOL     OW27013   4.308   2.578   6.959
 8705SOL    HW127014   4.300   2.616   0.025
 8705SOL    HW227015   4.388   2.618   6.913
 8706SOL     OW27016   4.842   3.266   6.336
 8706SOL    HW127017   4.891   3.216   6.407
 8706SOL    HW227018   4.772   3.324   6.378
 8707SOL     OW27019   1.333   1.841   4.493
 8707SOL    HW127020   1.373   1.907   4.557
 8707SOL    HW227021   1.261   1.885   4.440
 8708SOL     OW27022   5.872   2.223   2.170
 8708SOL    HW127023   5.851   2.130   2.140
 8708SOL    HW227024   5.850   2.288   2.097
 8709SOL     OW27025   6.746   0.438   5.450
 8709SOL    HW127026   6.753   0.372   5.524
 8709SOL    HW227027   6.688   0.401   5.377
 8710SOL     OW27028   2.173   1.233   3.974
 8710SOL    HW127029   2.232   1.204   4.049
 8710SOL    HW227030   2.083   1.257   4.010
 8711SOL     OW27031   1.463   0.375   1.686
 8711SOL    HW127032   1.549   0.391   1.735
 8711SOL    HW227033   1.423   0.463   1.659
 8712SOL     OW27034   1.744   2.878   5.733
 8712SOL    HW127035   1.824   2.831   5.695
 8712SOL    HW227036   1.774   2.950   5.795
 8713SOL     OW27037   0.277   4.654   1.767
 8713SOL    HW127038   0.277   4.713   1.686
 8713SOL    HW227039   0.294   4.710   1.848
 8714SOL     OW27040   6.787   6.762   6.710
 8714SOL    HW127041   6.850   6.732   6.639
 8714SOL    HW227042   6.836   6.819   6.776
 8715SOL     OW27043   2.614   2.499   0.530
 8715SOL    HW127044   2.712   2.517   0.525
 8715SOL    HW227045   2.599   2.417   0.586
 8716SOL     OW27046   6.773   6.603   1.588
 8716SOL    HW127047   6.717   6.620   1.507
 8716SOL    HW227048   6.868   6.625   1.567
 8717SOL     OW27049   2.652   4.723   0.525
 8717SOL    HW127050   2.645   4.745   0.622
 8717SOL    HW227051   2.711   4.790   0.479
 8718SOL     OW27052   2.228   4.462   5.885
 8718SOL    HW127053   2.205   4.368   5.859
 8718SOL    HW227054   2.146   4.508   5.919
 8719SOL     OW27055   3.777   0.875   5.430
 8719SOL    HW127056   3.793   0.930   5.512
 8719SOL    HW227057   3.825   0.915   5.352
 8720SOL     OW27058   6.578   4.177   4.923
 8720SOL    HW127059   6.674   4.153   4.909
 8720SOL    HW227060   6.562   4.197   5.020
 8721SOL     OW27061   0.029   6.928   6.402
 8721SOL    HW127062   0.005   6.842   6.447
 8721SOL    HW227063   7.008   6.934   6.314
 8722SOL     OW27064   4.061   1.091   1.810
 8722SOL    HW127065   3.975   1.039   1.806
 8722SOL    HW227066   4.066   1.153   1.731
 8723SOL     OW27067   4.949   6.896   2.470
 8723SOL    HW127068   5.048   6.907   2.466
 8723SOL    HW227069   4.924   6.848   2.554
 8724SOL     OW27070   3.748   0.716   4.868
 8724SOL    HW127071   3.799   0.640   4.828
 8724SOL    HW227072   3.661   0.682   4.904
 8725SOL     OW27073   0.325   6.368   4.339
 8725SOL    HW127074   0.298   6.444   4.279
 8725SOL    HW227075   0.409   6.392   4.388
 8726SOL     OW27076   1.175   1.102   0.525
 8726SOL    HW127077   1.117   1.030   0.488
 8726SOL    HW227078   1.123   1.187   0.533
 8727SOL     OW27079   5.207   5.558   6.103
 8727SOL    HW127080   5.255   5.550   6.016
 8727SOL    HW227081   5.273   5.558   6.178
 8728SOL     OW27082   6.301   0.975   3.082
 8728SOL    HW127083   6.383   0.955   3.028
 8728SOL    HW227084   6.255   0.889   3.104
 8729SOL     OW27085   3.243   5.419   6.454
 8729SOL    HW127086   3.273   5.453   6.543
 8729SOL    HW227087   3.312   5.442   6.384
 8730SOL     OW27088   4.788   5.073   1.740
 8730SOL    HW127089   4.733   4.993   1.765
 8730SOL    HW227090   4.825   5.061   1.648
 8731SOL     OW27091   0.667   1.888   3.648
 8731SOL    HW127092   0.679   1.966   3.586
 8731SOL    HW227093   0.593   1.907   3.712
 8732SOL     OW27094   4.993   5.548   0.867
 8732SOL    HW127095   4.973   5.452   0.848
 8732SOL    HW227096   4.977   5.602   0.785
 8733SOL     OW27097   6.637   4.880   2.121
 8733SOL    HW127098   6.569   4.953   2.127
 8733SOL    HW227099   6.699   4.898   2.045
 8734SOL     OW27100   0.151   3.185   2.063
 8734SOL    HW127101   0.064   3.208   2.020
 8734SOL    HW227102   0.222   3.248   2.030
 8735SOL     OW27103   1.584   3.542   5.909
 8735SOL    HW127104   1.580   3.623   5.851
 8735SOL    HW227105   1.609   3.569   6.002
 8736SOL     OW27106   0.753   5.824   2.383
 8736SOL    HW127107   0.833   5.832   2.323
 8736SOL    HW227108   0.761   5.890   2.458
 8737SOL     OW27109   1.371   5.468   6.624
 8737SOL    HW127110   1.384   5.413   6.541
 8737SOL    HW227111   1.274   5.475   6.645
 8738SOL     OW27112   1.150   3.677   3.515
 8738SOL    HW127113   1.152   3.587   3.558
 8738SOL    HW227114   1.218   3.680   3.441
 8739SOL     OW27115   5.495   4.294   5.205
 8739SOL    HW127116   5.471   4.380   5.250
 8739SOL    HW227117   5.594   4.283   5.204
 8740SOL     OW27118   3.207   1.560   3.951
 8740SOL    HW127119   3.224   1.645   4.001
 8740SOL    HW227120   3.108   1.547   3.940
 8741SOL     OW27121   0.979   6.929   2.572
 8741SOL    HW127122   0.945   6.996   2.507
 8741SOL    HW227123   0.967   6.837   2.534
 8742SOL     OW27124   3.210   1.374   2.771
 8742SOL    HW127125   3.194   1.443   2.841
 8742SOL    HW227126   3.259   1.415   2.694
 8743SOL     OW27127   1.770   0.943   1.520
 8743SOL    HW127128   1.703   0.902   1.581
 8743SOL    HW227129   1.774   1.042   1.535
 8744SOL     OW27130   4.041   4.204   6.684
 8744SOL    HW127131   4.021   4.157   6.770
 8744SOL    HW227132   3.977   4.281   6.672
 8745SOL     OW27133   6.403   1.811   6.398
 8745SOL    HW127134   6.339   1.848   6.331
 8745SOL    HW227135   6.462   1.744   6.352
 8746SOL     OW27136   4.797   5.143   4.621
 8746SOL    HW127137   4.847   5.095   4.549
 8746SOL    HW227138   4.718   5.088   4.648
 8747SOL     OW27139   0.074   0.769   1.683
 8747SOL    HW127140   0.104   0.858   1.648
 8747SOL    HW227141   0.029   0.718   1.610
 8748SOL     OW27142   0.950   2.330   3.778
 8748SOL    HW127143   1.000   2.366   3.857
 8748SOL    HW227144   0.878   2.395   3.752
 8749SOL     OW27145   2.503   1.383   5.365
 8749SOL    HW127146   2.556   1.346   5.441
 8749SOL    HW227147   2.503   1.483   5.371
 8750SOL     OW27148   4.201   2.595   6.117
 8750SOL    HW127149   4.259   2.533   6.170
 8750SOL    HW227150   4.135   2.639   6.178
 8751SOL     OW27151   0.478   6.085   2.385
 8751SOL    HW127152   0.419   6.126   2.314
 8751SOL    HW227153   0.441   5.996   2.411
 8752SOL     OW27154   4.598   3.529   6.800
 8752SOL    HW127155   4.692   3.512   6.770
 8752SOL    HW227156   4.597   3.552   6.897
 8753SOL     OW27157   1.701   3.033   0.367
 8753SOL    HW127158   1.778   2.979   0.332
 8753SOL    HW227159   1.619   2.977   0.366
 8754SOL     OW27160   3.128   5.474   6.909
 8754SOL    HW127161   3.073   5.547   6.870
 8754SOL    HW227162   3.225   5.494   6.895
 8755SOL     OW27163   0.362   2.076   2.551
 8755SOL    HW127164   0.384   2.005   2.618
 8755SOL    HW227165   0.370   2.038   2.459
 8756SOL     OW27166   2.117   2.416   3.580
 8756SOL    HW127167   2.192   2.352   3.597
 8756SOL    HW227168   2.031   2.375   3.609
 8757SOL     OW27169   5.114   6.221   5.420
 8757SOL    HW127170   5.122   6.215   5.321
 8757SOL    HW227171   5.018   6.222   5.446
 8758SOL     OW27172   3.387   6.551   3.830
 8758SOL    HW127173   3.472   6.512   3.864
 8758SOL    HW227174   3.355   6.500   3.751
 8759SOL     OW27175   6.354   1.529   0.253
 8759SOL    HW127176   6.290   1.565   0.185
 8759SOL    HW227177   6.312   1.451   0.300
 8760SOL     OW27178   2.414   2.250   4.555
 8760SOL    HW127179   2.378   2.253   4.462
 8760SOL    HW227180   2.338   2.246   4.620
 8761SOL     OW27181   4.767   0.864   2.393
 8761SOL    HW127182   4.859   0.897   2.371
 8761SOL    HW227183   4.700   0.917   2.340
 8762SOL     OW27184   1.195   5.064   3.129
 8762SOL    HW127185   1.291   5.050   3.155
 8762SOL    HW227186   1.143   5.094   3.209
 8763SOL     OW27187   0.542   0.936   5.760
 8763SOL    HW127188   0.588   0.936   5.671
 8763SOL    HW227189   0.594   0.991   5.825
 8764SOL     OW27190   3.801   4.880   5.702
 8764SOL    HW127191   3.755   4.937   5.634
 8764SOL    HW227192   3.871   4.824   5.657
 8765SOL     OW27193   5.198   6.524   4.959
 8765SOL    HW127194   5.225   6.583   5.035
 8765SOL    HW227195   5.099   6.513   4.959
 8766SOL     OW27196   4.976   4.431   5.647
 8766SOL    HW127197   4.945   4.418   5.741
 8766SOL    HW227198   5.076   4.432   5.645
 8767SOL     OW27199   3.018   0.736   3.638
 8767SOL    HW127200   2.988   0.642   3.623
 8767SOL    HW227201   3.083   0.738   3.714
 8768SOL     OW27202   6.466   2.459   0.421
 8768SOL    HW127203   6.371   2.427   0.426
 8768SOL    HW227204   6.521   2.412   0.490
 8769SOL     OW27205   0.077   1.299   0.634
 8769SOL    HW127206   0.049   1.395   0.640
 8769SOL    HW227207   0.093   1.263   0.726
 8770SOL     OW27208   4.899   3.649   2.186
 8770SOL    HW127209   4.900   3.595   2.102
 8770SOL    HW227210   4.928   3.591   2.263
 8771SOL     OW27211   6.991   3.234   6.722
 8771SOL    HW127212   6.970   3.331   6.732
 8771SOL    HW227213   0.049   3.213   6.772
 8772SOL     OW27214   5.419   0.185   4.141
 8772SOL    HW127215   5.429   0.151   4.048
 8772SOL    HW227216   5.509   0.190   4.185
 8773SOL     OW27217   0.436   1.309   4.184
 8773SOL    HW127218   0.440   1.308   4.084
 8773SOL    HW227219   0.414   1.217   4.218
 8774SOL     OW27220   1.709   0.532   0.826
 8774SOL    HW127221   1.616   0.497   0.816
 8774SOL    HW227222   1.744   0.560   0.737
 8775SOL     OW27223   5.249   1.948   4.429
 8775SOL    HW127224   5.237   2.033   4.377
 8775SOL    HW227225   5.185   1.946   4.505
 8776SOL     OW27226   4.155   3.163   0.055
 8776SOL    HW127227   4.073   3.128   0.010
 8776SOL    HW227228   4.225   3.183   7.012
 8777SOL     OW27229   1.012   2.020   3.467
 8777SOL    HW127230   1.006   1.989   3.562
 8777SOL    HW227231   0.928   1.995   3.419
 8778SOL     OW27232   4.086   4.662   5.912
 8778SOL    HW127233   4.044   4.690   5.826
 8778SOL    HW227234   4.037   4.704   5.988
 8779SOL     OW27235   3.600   5.105   3.146
 8779SOL    HW127236   3.584   5.036   3.076
 8779SOL    HW227237   3.601   5.062   3.236
 8780SOL     OW27238   6.328   5.491   3.160
 8780SOL    HW127239   6.323   5.395   3.131
 8780SOL    HW227240   6.236   5.527   3.175
 8781SOL     OW27241   3.837   6.030   2.331
 8781SOL    HW127242   3.905   6.037   2.258
 8781SOL    HW227243   3.784   5.947   2.318
 8782SOL     OW27244   4.566   0.804   1.721
 8782SOL    HW127245   4.539   0.744   1.646
 8782SOL    HW227246   4.489   0.863   1.746
 8783SOL     OW27247   5.023   3.400   4.902
 8783SOL    HW127248   4.956   3.463   4.941
 8783SOL    HW227249   4.977   3.316   4.872
 8784SOL     OW27250   5.668   6.592   0.834
 8784SOL    HW127251   5.573   6.613   0.857
 8784SOL    HW227252   5.681   6.493   0.834
 8785SOL     OW27253   0.816   5.770   5.991
 8785SOL    HW127254   0.771   5.804   5.909
 8785SOL    HW227255   0.777   5.815   6.071
 8786SOL     OW27256   3.876   1.844   2.133
 8786SOL    HW127257   3.782   1.811   2.138
 8786SOL    HW227258   3.879   1.931   2.084
 8787SOL     OW27259   3.572   0.190   1.648
 8787SOL    HW127260   3.492   0.190   1.587
 8787SOL    HW227261   3.654   0.211   1.595
 8788SOL     OW27262   0.531   0.052   4.573
 8788SOL    HW127263   0.620   0.034   4.533
 8788SOL    HW227264   0.529   0.145   4.610
 8789SOL     OW27265   0.220   2.943   5.016
 8789SOL    HW127266   0.145   2.914   4.956
 8789SOL    HW227267   0.279   2.864   5.034
 8790SOL     OW27268   5.442   2.646   6.594
 8790SOL    HW127269   5.507   2.710   6.553
 8790SOL    HW227270   5.491   2.567   6.631
 8791SOL     OW27271   3.989   5.447   5.866
 8791SOL    HW127272   3.970   5.526   5.807
 8791SOL    HW227273   3.967   5.363   5.817
 8792SOL     OW27274   5.270   5.493   1.160
 8792SOL    HW127275   5.228   5.578   1.130
 8792SOL    HW227276   5.310   5.446   1.081
 8793SOL     OW27277   0.385   4.396   4.469
 8793SOL    HW127278   0.477   4.435   4.475
 8793SOL    HW227279   0.391   4.302   4.436
 8794SOL     OW27280   0.462   0.594   1.964
 8794SOL    HW127281   0.475   0.496   1.979
 8794SOL    HW227282   0.367   0.618   1.983
 8795SOL     OW27283   1.663   5.329   5.426
 8795SOL    HW127284   1.732   5.327   5.353
 8795SOL    HW227285   1.583   5.379   5.393
 8796SOL     OW27286   6.795   3.622   3.492
 8796SOL    HW127287   6.710   3.608   3.441
 8796SOL    HW227288   6.778   3.607   3.589
 8797SOL     OW27289   5.602   6.716   3.995
 8797SOL    HW127290   5.632   6.807   3.968
 8797SOL    HW227291   5.525   6.723   4.059
 8798SOL     OW27292   4.055   6.688   5.974
 8798SOL    HW127293   4.056   6.742   6.059
 8798SOL    HW227294   4.078   6.747   5.897
 8799SOL     OW27295   1.804   5.092   1.993
 8799SOL    HW127296   1.844   5.165   2.047
 8799SOL    HW227297   1.865   5.069   1.917
 8800SOL     OW27298   0.029   6.003   5.713
 8800SOL    HW127299   0.115   6.052   5.697
 8800SOL    HW227300   0.027   5.921   5.655
 8801SOL     OW27301   6.004   2.677   5.330
 8801SOL    HW127302   6.004   2.722   5.419
 8801SOL    HW227303   6.019   2.745   5.258
 8802SOL     OW27304   1.684   6.527   5.502
 8802SOL    HW127305   1.681   6.586   5.583
 8802SOL    HW227306   1.639   6.574   5.425
 8803SOL     OW27307   6.155   0.047   6.300
 8803SOL    HW127308   6.200   6.995   6.344
 8803SOL    HW227309   6.120   0.109   6.370
 8804SOL     OW27310   1.438   5.917   2.135
 8804SOL    HW127311   1.383   5.987   2.090
 8804SOL    HW227312   1.527   5.955   2.160
 8805SOL     OW27313   4.870   5.160   2.463
 8805SOL    HW127314   4.780   5.122   2.440
 8805SOL    HW227315   4.941   5.092   2.446
 8806SOL     OW27316   1.932   6.628   0.423
 8806SOL    HW127317   1.955   6.628   0.521
 8806SOL    HW227318   1.988   6.560   0.376
 8807SOL     OW27319   4.743   2.581   1.305
 8807SOL    HW127320   4.674   2.540   1.245
 8807SOL    HW227321   4.834   2.560   1.270
 8808SOL     OW27322   2.487   2.141   0.969
 8808SOL    HW127323   2.511   2.237   0.987
 8808SOL    HW227324   2.415   2.112   1.032
 8809SOL     OW27325   1.372   3.782   3.382
 8809SOL    HW127326   1.404   3.858   3.324
 8809SOL    HW227327   1.394   3.695   3.338
 8810SOL     OW27328   0.297   0.997   5.827
 8810SOL    HW127329   0.396   0.983   5.825
 8810SOL    HW227330   0.271   1.045   5.911
 8811SOL     OW27331   4.330   6.040   2.342
 8811SOL    HW127332   4.397   6.050   2.269
 8811SOL    HW227333   4.302   6.130   2.375
 8812SOL     OW27334   4.132   1.408   6.733
 8812SOL    HW127335   4.065   1.348   6.688
 8812SOL    HW227336   4.210   1.422   6.672
 8813SOL     OW27337   2.309   4.646   3.361
 8813SOL    HW127338   2.364   4.562   3.363
 8813SOL    HW227339   2.331   4.702   3.441
 8814SOL     OW27340   5.429   6.730   6.554
 8814SOL    HW127341   5.501   6.662   6.569
 8814SOL    HW227342   5.469   6.819   6.535
 8815SOL     OW27343   5.437   0.798   0.661
 8815SOL    HW127344   5.514   0.833   0.715
 8815SOL    HW227345   5.418   0.861   0.586
 8816SOL     OW27346   0.385   6.274   5.447
 8816SOL    HW127347   0.430   6.208   5.388
 8816SOL    HW227348   0.357   6.354   5.393
 8817SOL     OW27349   1.761   2.947   4.344
 8817SOL    HW127350   1.789   3.034   4.385
 8817SOL    HW227351   1.675   2.960   4.294
 8818SOL     OW27352   2.030   6.806   4.509
 8818SOL    HW127353   2.057   6.720   4.464
 8818SOL    HW227354   2.002   6.872   4.440
 8819SOL     OW27355   5.505   4.715   6.026
 8819SOL    HW127356   5.507   4.814   6.041
 8819SOL    HW227357   5.497   4.697   5.928
 8820SOL     OW27358   3.432   0.395   4.610
 8820SOL    HW127359   3.424   0.492   4.586
 8820SOL    HW227360   3.475   0.387   4.700
 8821SOL     OW27361   0.899   4.814   0.449
 8821SOL    HW127362   0.869   4.868   0.527
 8821SOL    HW227363   0.880   4.865   0.365
 8822SOL     OW27364   6.924   6.803   3.903
 8822SOL    HW127365   6.984   6.838   3.830
 8822SOL    HW227366   6.851   6.868   3.921
 8823SOL     OW27367   3.674   1.084   3.124
 8823SOL    HW127368   3.709   1.069   3.032
 8823SOL    HW227369   3.732   1.152   3.171
 8824SOL     OW27370   2.175   1.161   1.716
 8824SOL    HW127371   2.100   1.096   1.719
 8824SOL    HW227372   2.216   1.159   1.625
 8825SOL     OW27373   6.984   6.914   6.923
 8825SOL    HW127374   0.037   6.965   6.888
 8825SOL    HW227375   7.007   6.816   6.927
 8826SOL     OW27376   0.399   3.331   0.672
 8826SOL    HW127377   0.405   3.289   0.763
 8826SOL    HW227378   0.485   3.317   0.623
 8827SOL     OW27379   4.187   0.204   2.295
 8827SOL    HW127380   4.271   0.175   2.249
 8827SOL    HW227381   4.186   0.168   2.388
 8828SOL     OW27382   4.353   3.117   6.007
 8828SOL    HW127383   4.397   3.202   6.036
 8828SOL    HW227384   4.254   3.132   5.999
 8829SOL     OW27385   0.387   1.922   2.334
 8829SOL    HW127386   0.299   1.874   2.338
 8829SOL    HW227387   0.444   1.881   2.262
 8830SOL     OW27388   2.934   1.924   3.390
 8830SOL    HW127389   2.935   1.838   3.337
 8830SOL    HW227390   2.856   1.924   3.451
 8831SOL     OW27391   0.454   2.478   1.629
 8831SOL    HW127392   0.409   2.525   1.704
 8831SOL    HW227393   0.463   2.540   1.551
 8832SOL     OW27394   6.701   0.196   4.295
 8832SOL    HW127395   6.743   0.270   4.242
 8832SOL    HW227396   6.738   0.108   4.265
 8833SOL     OW27397   3.473   2.916   0.680
 8833SOL    HW127398   3.445   2.940   0.773
 8833SOL    HW227399   3.423   2.836   0.649
 8834SOL     OW27400   5.177   3.650   5.467
 8834SOL    HW127401   5.215   3.566   5.428
 8834SOL    HW227402   5.089   3.630   5.509
 8835SOL     OW27403   5.803   0.969   5.511
 8835SOL    HW127404   5.771   0.992   5.419
 8835SOL    HW227405   5.876   0.901   5.504
 8836SOL     OW27406   5.129   1.693   0.230
 8836SOL    HW127407   5.083   1.775   0.263
 8836SOL    HW227408   5.172   1.645   0.306
 8837SOL     OW27409   5.588   0.005   1.432
 8837SOL    HW127410   5.631   6.942   1.441
 8837SOL    HW227411   5.620   0.067   1.504
 8838SOL     OW27412   0.273   4.472   2.942
 8838SOL    HW127413   0.283   4.497   3.038
 8838SOL    HW227414   0.230   4.547   2.892
 8839SOL     OW27415   5.056   5.950   2.977
 8839SOL    HW127416   5.008   5.888   2.914
 8839SOL    HW227417   5.048   5.915   3.070
 8840SOL     OW27418   0.130   1.020   1.603
 8840SOL    HW127419   0.058   1.077   1.564
 8840SOL    HW227420   0.193   0.991   1.531
 8841SOL     OW27421   3.472   1.614   1.840
 8841SOL    HW127422   3.539   1.599   1.912
 8841SOL    HW227423   3.386   1.647   1.880
 8842SOL     OW27424   3.567   3.194   4.019
 8842SOL    HW127425   3.548   3.110   4.068
 8842SOL    HW227426   3.532   3.272   4.072
 8843SOL     OW27427   1.799   4.074   5.545
 8843SOL    HW127428   1.864   4.112   5.478
 8843SOL    HW227429   1.817   4.114   5.635
 8844SOL     OW27430   5.422   1.736   5.387
 8844SOL    HW127431   5.384   1.818   5.431
 8844SOL    HW227432   5.356   1.661   5.394
 8845SOL     OW27433   1.028   5.040   1.861
 8845SOL    HW127434   1.005   5.046   1.959
 8845SOL    HW227435   1.093   4.966   1.846
 8846SOL     OW27436   5.385   4.661   3.104
 8846SOL    HW127437   5.420   4.735   3.162
 8846SOL    HW227438   5.287   4.649   3.120
 8847SOL     OW27439   2.428   2.096   2.893
 8847SOL    HW127440   2.382   2.077   2.979
 8847SOL    HW227441   2.507   2.155   2.910
 8848SOL     OW27442   3.779   1.933   1.207
 8848SOL    HW127443   3.698   1.982   1.241
 8848SOL    HW227444   3.858   1.995   1.209
 8849SOL     OW27445   3.078   5.340   4.480
 8849SOL    HW127446   3.119   5.265   4.531
 8849SOL    HW227447   2.980   5.323   4.468
 8850SOL     OW27448   3.317   1.670   0.775
 8850SOL    HW127449   3.349   1.764   0.767
 8850SOL    HW227450   3.258   1.662   0.855
 8851SOL     OW27451   0.215   5.024   3.384
 8851SOL    HW127452   0.306   4.994   3.356
 8851SOL    HW227453   0.219   5.060   3.477
 8852SOL     OW27454   5.454   2.390   5.918
 8852SOL    HW127455   5.499   2.304   5.892
 8852SOL    HW227456   5.387   2.415   5.848
 8853SOL     OW27457   4.386   0.778   5.431
 8853SOL    HW127458   4.463   0.739   5.380
 8853SOL    HW227459   4.419   0.816   5.517
 8854SOL     OW27460   1.935   1.626   6.033
 8854SOL    HW127461   1.977   1.695   6.093
 8854SOL    HW227462   1.897   1.671   5.953
 8855SOL     OW27463   6.122   5.924   6.702
 8855SOL    HW127464   6.090   6.018   6.707
 8855SOL    HW227465   6.154   5.896   6.793
 8856SOL     OW27466   6.014   1.173   5.082
 8856SOL    HW127467   6.039   1.221   4.997
 8856SOL    HW227468   5.918   1.145   5.077
 8857SOL     OW27469   6.471   2.019   3.975
 8857SOL    HW127470   6.446   2.097   4.032
 8857SOL    HW227471   6.454   2.042   3.879
 8858SOL     OW27472   0.697   3.524   6.062
 8858SOL    HW127473   0.784   3.573   6.054
 8858SOL    HW227474   0.714   3.433   6.099
 8859SOL     OW27475   1.213   5.912   5.523
 8859SOL    HW127476   1.116   5.892   5.510
 8859SOL    HW227477   1.224   6.002   5.564
 8860SOL     OW27478   1.042   2.166   2.939
 8860SOL    HW127479   0.944   2.158   2.923
 8860SOL    HW227480   1.067   2.110   3.018
 8861SOL     OW27481   4.319   3.515   0.460
 8861SOL    HW127482   4.381   3.558   0.527
 8861SOL    HW227483   4.225   3.518   0.495
 8862SOL     OW27484   5.890   1.439   4.334
 8862SOL    HW127485   5.818   1.370   4.333
 8862SOL    HW227486   5.890   1.485   4.423
 8863SOL     OW27487   2.126   5.794   4.920
 8863SOL    HW127488   2.196   5.792   4.992
 8863SOL    HW227489   2.051   5.854   4.948
 8864SOL     OW27490   1.916   2.932   6.453
 8864SOL    HW127491   1.972   2.880   6.388
 8864SOL    HW227492   1.892   2.874   6.531
 8865SOL     OW27493   2.688   2.184   5.934
 8865SOL    HW127494   2.722   2.091   5.951
 8865SOL    HW227495   2.761   2.240   5.896
 8866SOL     OW27496   3.593   6.550   3.528
 8866SOL    HW127497   3.518   6.533   3.592
 8866SOL    HW227498   3.557   6.570   3.438
 8867SOL     OW27499   5.967   2.159   3.574
 8867SOL    HW127500   5.871   2.179   3.590
 8867SOL    HW227501   6.014   2.147   3.661
 8868SOL     OW27502   4.986   4.196   0.609
 8868SOL    HW127503   4.890   4.170   0.611
 8868SOL    HW227504   4.999   4.280   0.662
 8869SOL     OW27505   4.891   3.092   3.269
 8869SOL    HW127506   4.862   3.050   3.355
 8869SOL    HW227507   4.869   3.031   3.193
 8870SOL     OW27508   4.178   1.356   0.752
 8870SOL    HW127509   4.104   1.324   0.694
 8870SOL    HW227510   4.262   1.305   0.731
 8871SOL     OW27511   2.234   1.765   3.327
 8871SOL    HW127512   2.157   1.823   3.355
 8871SOL    HW227513   2.218   1.671   3.358
 8872SOL     OW27514   1.613   3.906   4.465
 8872SOL    HW127515   1.574   3.823   4.426
 8872SOL    HW227516   1.539   3.964   4.501
 8873SOL     OW27517   0.451   5.335   4.389
 8873SOL    HW127518   0.540   5.376   4.408
 8873SOL    HW227519   0.393   5.343   4.470
 8874SOL     OW27520   2.852   0.637   0.717
 8874SOL    HW127521   2.833   0.540   0.699
 8874SOL    HW227522   2.870   0.649   0.815
 8875SOL     OW27523   1.471   2.505   4.264
 8875SOL    HW127524   1.516   2.579   4.314
 8875SOL    HW227525   1.539   2.454   4.212
 8876SOL     OW27526   0.573   0.643   5.102
 8876SOL    HW127527   0.560   0.698   5.020
 8876SOL    HW227528   0.582   0.703   5.182
 8877SOL     OW27529   2.833   0.295   4.714
 8877SOL    HW127530   2.904   0.227   4.733
 8877SOL    HW227531   2.876   0.383   4.696
 8878SOL     OW27532   0.033   4.394   6.904
 8878SOL    HW127533   0.077   4.353   6.824
 8878SOL    HW227534   0.102   4.432   6.965
 8879SOL     OW27535   5.534   6.236   6.907
 8879SOL    HW127536   5.587   6.202   6.830
 8879SOL    HW227537   5.589   6.302   6.959
 8880SOL     OW27538   6.827   4.626   4.340
 8880SOL    HW127539   6.788   4.536   4.356
 8880SOL    HW227540   6.897   4.645   4.409
 8881SOL     OW27541   0.173   1.462   1.570
 8881SOL    HW127542   0.235   1.441   1.646
 8881SOL    HW227543   0.105   1.389   1.561
 8882SOL     OW27544   5.398   2.047   6.829
 8882SOL    HW127545   5.358   2.135   6.855
 8882SOL    HW227546   5.331   1.974   6.843
 8883SOL     OW27547   6.208   0.379   5.653
 8883SOL    HW127548   6.200   0.467   5.700
 8883SOL    HW227549   6.230   0.307   5.719
 8884SOL     OW27550   5.833   0.122   6.359
 8884SOL    HW127551   5.813   0.176   6.277
 8884SOL    HW227552   5.915   0.158   6.404
 8885SOL     OW27553   5.479   3.898   1.899
 8885SOL    HW127554   5.531   3.828   1.947
 8885SOL    HW227555   5.426   3.856   1.825
 8886SOL     OW27556   2.782   6.695   5.983
 8886SOL    HW127557   2.754   6.609   5.941
 8886SOL    HW227558   2.881   6.695   5.999
 8887SOL     OW27559   2.807   0.854   1.221
 8887SOL    HW127560   2.880   0.903   1.174
 8887SOL    HW227561   2.746   0.919   1.266
 8888SOL     OW27562   2.606   1.475   1.839
 8888SOL    HW127563   2.645   1.506   1.751
 8888SOL    HW227564   2.588   1.377   1.835
 8889SOL     OW27565   4.658   0.029   4.568
 8889SOL    HW127566   4.662   6.962   4.529
 8889SOL    HW227567   4.736   0.043   4.628
 8890SOL     OW27568   0.410   5.371   4.863
 8890SOL    HW127569   0.339   5.394   4.931
 8890SOL    HW227570   0.367   5.331   4.783
 8891SOL     OW27571   5.110   2.904   6.616
 8891SOL    HW127572   5.016   2.913   6.651
 8891SOL    HW227573   5.136   2.807   6.616
 8892SOL     OW27574   1.752   0.768   3.162
 8892SOL    HW127575   1.829   0.714   3.194
 8892SOL    HW227576   1.688   0.782   3.238
 8893SOL     OW27577   0.540   1.506   0.709
 8893SOL    HW127578   0.443   1.503   0.732
 8893SOL    HW227579   0.593   1.529   0.791
 8894SOL     OW27580   4.266   2.466   6.363
 8894SOL    HW127581   4.202   2.389   6.360
 8894SOL    HW227582   4.305   2.473   6.454
 8895SOL     OW27583   0.851   6.750   1.965
 8895SOL    HW127584   0.856   6.700   2.051
 8895SOL    HW227585   0.771   6.810   1.965
 8896SOL     OW27586   2.010   4.238   4.694
 8896SOL    HW127587   1.944   4.183   4.746
 8896SOL    HW227588   2.099   4.193   4.695
 8897SOL     OW27589   1.714   1.523   1.455
 8897SOL    HW127590   1.699   1.620   1.475
 8897SOL    HW227591   1.798   1.493   1.500
 8898SOL     OW27592   6.126   3.658   4.194
 8898SOL    HW127593   6.175   3.613   4.120
 8898SOL    HW227594   6.188   3.677   4.270
 8899SOL     OW27595   1.853   4.780   0.702
 8899SOL    HW127596   1.938   4.833   0.696
 8899SOL    HW227597   1.776   4.842   0.720
 8900SOL     OW27598   4.772   2.420   2.728
 8900SOL    HW127599   4.844   2.352   2.717
 8900SOL    HW227600   4.690   2.376   2.765
 8901SOL     OW27601   1.341   0.218   2.573
 8901SOL    HW127602   1.243   0.240   2.582
 8901SOL    HW227603   1.357   0.126   2.608
 8902SOL     OW27604   1.386   5.521   5.943
 8902SOL    HW127605   1.287   5.514   5.941
 8902SOL    HW227606   1.425   5.463   5.871
 8903SOL     OW27607   1.960   1.730   3.778
 8903SOL    HW127608   1.912   1.681   3.851
 8903SOL    HW227609   1.924   1.701   3.689
 8904SOL     OW27610   0.390   5.977   3.744
 8904SOL    HW127611   0.346   5.982   3.654
 8904SOL    HW227612   0.461   5.906   3.742
 8905SOL     OW27613   2.399   3.446   5.530
 8905SOL    HW127614   2.407   3.403   5.620
 8905SOL    HW227615   2.449   3.391   5.463
 8906SOL     OW27616   6.678   6.431   6.037
 8906SOL    HW127617   6.607   6.381   5.989
 8906SOL    HW227618   6.664   6.423   6.136
 8907SOL     OW27619   3.193   2.817   5.322
 8907SOL    HW127620   3.291   2.836   5.329
 8907SOL    HW227621   3.178   2.719   5.326
 8908SOL     OW27622   1.521   1.830   1.494
 8908SOL    HW127623   1.469   1.897   1.546
 8908SOL    HW227624   1.609   1.813   1.540
 8909SOL     OW27625   2.365   0.828   6.513
 8909SOL    HW127626   2.421   0.898   6.468
 8909SOL    HW227627   2.423   0.751   6.540
 8910SOL     OW27628   2.753   3.187   6.657
 8910SOL    HW127629   2.755   3.128   6.738
 8910SOL    HW227630   2.830   3.165   6.597
 8911SOL     OW27631   3.464   2.110   4.654
 8911SOL    HW127632   3.524   2.161   4.594
 8911SOL    HW227633   3.436   2.025   4.609
 8912SOL     OW27634   4.841   1.731   5.929
 8912SOL    HW127635   4.763   1.668   5.931
 8912SOL    HW227636   4.833   1.794   6.006
 8913SOL     OW27637   5.029   4.056   1.442
 8913SOL    HW127638   4.933   4.045   1.418
 8913SOL    HW227639   5.037   4.115   1.522
 8914SOL     OW27640   3.503   1.893   4.994
 8914SOL    HW127641   3.493   1.991   4.983
 8914SOL    HW227642   3.537   1.853   4.908
 8915SOL     OW27643   1.690   3.656   2.732
 8915SOL    HW127644   1.602   3.695   2.706
 8915SOL    HW227645   1.739   3.625   2.651
 8916SOL     OW27646   6.686   4.426   2.917
 8916SOL    HW127647   6.698   4.358   2.989
 8916SOL    HW227648   6.700   4.518   2.954
 8917SOL     OW27649   6.067   6.176   0.095
 8917SOL    HW127650   6.164   6.153   0.094
 8917SOL    HW227651   6.055   6.271   0.066
 8918SOL     OW27652   5.119   5.821   6.227
 8918SOL    HW127653   5.209   5.854   6.256
 8918SOL    HW227654   5.130   5.748   6.159
 8919SOL     OW27655   3.389   4.972   1.388
 8919SOL    HW127656   3.407   4.976   1.290
 8919SOL    HW227657   3.318   5.038   1.412
 8920SOL     OW27658   6.139   5.278   5.729
 8920SOL    HW127659   6.226   5.229   5.727
 8920SOL    HW227660   6.143   5.350   5.798
 8921SOL     OW27661   0.930   0.931   3.849
 8921SOL    HW127662   0.881   0.960   3.767
 8921SOL    HW227663   0.921   0.832   3.859
 8922SOL     OW27664   1.635   4.658   1.085
 8922SOL    HW127665   1.571   4.727   1.051
 8922SOL    HW227666   1.589   4.598   1.150
 8923SOL     OW27667   1.538   4.127   6.384
 8923SOL    HW127668   1.447   4.158   6.413
 8923SOL    HW227669   1.568   4.181   6.306
 8924SOL     OW27670   3.220   5.086   5.080
 8924SOL    HW127671   3.199   4.998   5.122
 8924SOL    HW227672   3.294   5.074   5.015
 8925SOL     OW27673   6.977   0.137   2.238
 8925SOL    HW127674   0.021   0.080   2.283
 8925SOL    HW227675   7.009   0.164   2.148
 8926SOL     OW27676   5.416   2.459   1.578
 8926SOL    HW127677   5.377   2.409   1.501
 8926SOL    HW227678   5.354   2.532   1.605
 8927SOL     OW27679   2.165   2.526   4.980
 8927SOL    HW127680   2.185   2.621   4.954
 8927SOL    HW227681   2.248   2.471   4.974
 8928SOL     OW27682   0.855   0.197   5.900
 8928SOL    HW127683   0.780   0.139   5.932
 8928SOL    HW227684   0.817   0.281   5.861
 8929SOL     OW27685   0.180   3.580   3.698
 8929SOL    HW127686   0.224   3.631   3.773
 8929SOL    HW227687   0.081   3.584   3.708
 8930SOL     OW27688   1.370   4.945   4.654
 8930SOL    HW127689   1.394   5.038   4.679
 8930SOL    HW227690   1.347   4.941   4.557
 8931SOL     OW27691   4.798   1.533   1.592
 8931SOL    HW127692   4.888   1.508   1.627
 8931SOL    HW227693   4.789   1.503   1.497
 8932SOL     OW27694   6.193   0.563   6.239
 8932SOL    HW127695   6.263   0.627   6.272
 8932SOL    HW227696   6.226   0.470   6.248
 8933SOL     OW27697   1.843   0.295   4.765
 8933SOL    HW127698   1.786   0.213   4.775
 8933SOL    HW227699   1.911   0.280   4.694
 8934SOL     OW27700   3.307   5.544   2.904
 8934SOL    HW127701   3.297   5.550   2.804
 8934SOL    HW227702   3.243   5.477   2.940
 8935SOL     OW27703   4.317   2.419   2.783
 8935SOL    HW127704   4.347   2.437   2.689
 8935SOL    HW227705   4.239   2.356   2.782
 8936SOL     OW27706   0.544   5.010   1.522
 8936SOL    HW127707   0.590   5.096   1.497
 8936SOL    HW227708   0.514   4.963   1.439
 8937SOL     OW27709   6.897   6.548   3.791
 8937SOL    HW127710   6.816   6.495   3.816
 8937SOL    HW227711   6.873   6.644   3.783
 8938SOL     OW27712   6.594   1.360   0.589
 8938SOL    HW127713   6.622   1.327   0.499
 8938SOL    HW227714   6.641   1.307   0.660
 8939SOL     OW27715   0.217   2.725   3.929
 8939SOL    HW127716   0.246   2.634   3.899
 8939SOL    HW227717   0.271   2.794   3.880
 8940SOL     OW27718   6.642   3.002   0.966
 8940SOL    HW127719   6.575   2.944   1.013
 8940SOL    HW227720   6.725   3.010   1.021
 8941SOL     OW27721   5.135   2.198   1.873
 8941SOL    HW127722   5.113   2.174   1.778
 8941SOL    HW227723   5.227   2.164   1.895
 8942SOL     OW27724   6.281   4.440   3.693
 8942SOL    HW127725   6.341   4.383   3.636
 8942SOL    HW227726   6.329   4.524   3.718
 8943SOL     OW27727   4.870   3.681   0.039
 8943SOL    HW127728   4.788   3.625   0.053
 8943SOL    HW227729   4.946   3.644   0.091
 8944SOL     OW27730   4.887   5.636   3.922
 8944SOL    HW127731   4.821   5.694   3.875
 8944SOL    HW227732   4.843   5.550   3.949
 8945SOL     OW27733   5.908   4.278   5.401
 8945SOL    HW127734   5.986   4.220   5.424
 8945SOL    HW227735   5.839   4.224   5.352
 8946SOL     OW27736   5.371   1.114   4.467
 8946SOL    HW127737   5.389   1.182   4.538
 8946SOL    HW227738   5.293   1.056   4.495
 8947SOL     OW27739   1.650   5.171   5.854
 8947SOL    HW127740   1.724   5.141   5.914
 8947SOL    HW227741   1.661   5.130   5.764
 8948SOL     OW27742   6.600   0.800   3.531
 8948SOL    HW127743   6.578   0.870   3.599
 8948SOL    HW227744   6.567   0.829   3.442
 8949SOL     OW27745   3.099   6.181   0.024
 8949SOL    HW127746   3.037   6.192   0.102
 8949SOL    HW227747   3.048   6.148   6.971
 8950SOL     OW27748   4.794   4.059   1.250
 8950SOL    HW127749   4.718   4.124   1.246
 8950SOL    HW227750   4.816   4.029   1.157
 8951SOL     OW27751   1.703   1.456   4.481
 8951SOL    HW127752   1.670   1.530   4.539
 8951SOL    HW227753   1.702   1.370   4.532
 8952SOL     OW27754   2.071   4.735   3.742
 8952SOL    HW127755   2.082   4.636   3.748
 8952SOL    HW227756   2.145   4.780   3.793
 8953SOL     OW27757   1.701   5.202   2.238
 8953SOL    HW127758   1.712   5.152   2.152
 8953SOL    HW227759   1.709   5.138   2.315
 8954SOL     OW27760   1.181   5.339   5.004
 8954SOL    HW127761   1.232   5.361   4.921
 8954SOL    HW227762   1.236   5.361   5.085
 8955SOL     OW27763   5.550   2.516   3.594
 8955SOL    HW127764   5.571   2.465   3.510
 8955SOL    HW227765   5.616   2.590   3.605
 8956SOL     OW27766   1.195   5.595   5.662
 8956SOL    HW127767   1.152   5.652   5.732
 8956SOL    HW227768   1.259   5.651   5.609
 8957SOL     OW27769   0.750   5.550   2.373
 8957SOL    HW127770   0.748   5.650   2.383
 8957SOL    HW227771   0.837   5.515   2.408
 8958SOL     OW27772   1.440   3.929   5.233
 8958SOL    HW127773   1.492   3.955   5.152
 8958SOL    HW227774   1.346   3.909   5.207
 8959SOL     OW27775   0.295   3.120   2.500
 8959SOL    HW127776   0.345   3.205   2.518
 8959SOL    HW227777   0.257   3.086   2.585
 8960SOL     OW27778   5.729   4.213   4.151
 8960SOL    HW127779   5.679   4.289   4.108
 8960SOL    HW227780   5.668   4.164   4.213
 8961SOL     OW27781   3.264   6.745   5.145
 8961SOL    HW127782   3.329   6.759   5.219
 8961SOL    HW227783   3.284   6.659   5.098
 8962SOL     OW27784   0.764   5.675   1.555
 8962SOL    HW127785   0.740   5.760   1.508
 8962SOL    HW227786   0.743   5.682   1.652
 8963SOL     OW27787   3.468   5.877   4.530
 8963SOL    HW127788   3.372   5.903   4.543
 8963SOL    HW227789   3.472   5.781   4.503
 8964SOL     OW27790   6.967   3.051   4.492
 8964SOL    HW127791   6.979   3.094   4.402
 8964SOL    HW227792   6.879   3.079   4.530
 8965SOL     OW27793   4.572   5.472   0.366
 8965SOL    HW127794   4.669   5.495   0.358
 8965SOL    HW227795   4.518   5.556   0.369
 8966SOL     OW27796   4.900   5.428   6.365
 8966SOL    HW127797   4.907   5.332   6.335
 8966SOL    HW227798   4.858   5.482   6.293
 8967SOL     OW27799   3.160   0.194   3.069
 8967SOL    HW127800   3.088   0.200   3.000
 8967SOL    HW227801   3.122   0.157   3.154
 8968SOL     OW27802   3.630   4.964   2.110
 8968SOL    HW127803   3.608   4.880   2.060
 8968SOL    HW227804   3.588   4.960   2.201
 8969SOL     OW27805   0.016   1.015   3.360
 8969SOL    HW127806   0.044   1.086   3.295
 8969SOL    HW227807   0.059   1.033   3.449
 8970SOL     OW27808   1.578   0.871   5.989
 8970SOL    HW127809   1.617   0.962   5.969
 8970SOL    HW227810   1.581   0.855   6.087
 8971SOL     OW27811   4.331   5.535   0.646
 8971SOL    HW127812   4.418   5.486   0.652
 8971SOL    HW227813   4.344   5.630   0.675
 8972SOL     OW27814   6.708   4.310   0.690
 8972SOL    HW127815   6.624   4.263   0.717
 8972SOL    HW227816   6.713   4.314   0.590
 8973SOL     OW27817   0.632   2.387   1.944
 8973SOL    HW127818   0.589   2.310   1.992
 8973SOL    HW227819   0.682   2.352   1.865
 8974SOL     OW27820   2.120   4.226   4.238
 8974SOL    HW127821   2.074   4.225   4.326
 8974SOL    HW227822   2.054   4.244   4.165
 8975SOL     OW27823   0.616   6.960   6.517
 8975SOL    HW127824   0.667   6.911   6.447
 8975SOL    HW227825   0.518   6.953   6.497
 8976SOL     OW27826   6.515   6.596   1.958
 8976SOL    HW127827   6.559   6.664   1.899
 8976SOL    HW227828   6.471   6.643   2.035
 8977SOL     OW27829   0.412   4.917   5.888
 8977SOL    HW127830   0.488   4.924   5.823
 8977SOL    HW227831   0.442   4.869   5.970
 8978SOL     OW27832   5.517   5.560   5.630
 8978SOL    HW127833   5.610   5.585   5.658
 8978SOL    HW227834   5.494   5.605   5.545
 8979SOL     OW27835   1.054   5.111   5.529
 8979SOL    HW127836   1.116   5.041   5.493
 8979SOL    HW227837   1.107   5.178   5.582
 8980SOL     OW27838   3.517   0.673   5.014
 8980SOL    HW127839   3.512   0.721   5.101
 8980SOL    HW227840   3.437   0.696   4.958
 8981SOL     OW27841   4.003   3.066   6.871
 8981SOL    HW127842   3.906   3.044   6.884
 8981SOL    HW227843   4.048   2.991   6.824
 8982SOL     OW27844   0.850   1.378   1.238
 8982SOL    HW127845   0.832   1.354   1.143
 8982SOL    HW227846   0.839   1.477   1.250
 8983SOL     OW27847   1.067   6.555   3.081
 8983SOL    HW127848   1.044   6.487   3.011
 8983SOL    HW227849   1.159   6.537   3.116
 8984SOL     OW27850   5.899   0.107   4.275
 8984SOL    HW127851   5.799   0.102   4.278
 8984SOL    HW227852   5.937   0.015   4.288
 8985SOL     OW27853   4.604   3.074   0.943
 8985SOL    HW127854   4.628   2.980   0.965
 8985SOL    HW227855   4.665   3.137   0.991
 8986SOL     OW27856   0.498   5.027   0.500
 8986SOL    HW127857   0.589   5.067   0.514
 8986SOL    HW227858   0.440   5.050   0.579
 8987SOL     OW27859   2.270   0.042   1.318
 8987SOL    HW127860   2.234   0.019   1.227
 8987SOL    HW227861   2.316   0.131   1.314
 8988SOL     OW27862   0.930   5.563   1.373
 8988SOL    HW127863   0.877   5.606   1.446
 8988SOL    HW227864   0.951   5.469   1.398
 8989SOL     OW27865   5.407   1.578   1.947
 8989SOL    HW127866   5.345   1.636   1.893
 8989SOL    HW227867   5.418   1.489   1.902
 8990SOL     OW27868   3.501   0.738   1.870
 8990SOL    HW127869   3.437   0.813   1.853
 8990SOL    HW227870   3.504   0.718   1.968
 8991SOL     OW27871   2.239   2.529   0.319
 8991SOL    HW127872   2.269   2.456   0.380
 8991SOL    HW227873   2.146   2.556   0.342
 8992SOL     OW27874   0.504   3.483   0.130
 8992SOL    HW127875   0.434   3.412   0.138
 8992SOL    HW227876   0.552   3.493   0.217
 8993SOL     OW27877   5.721   2.947   3.863
 8993SOL    HW127878   5.754   2.935   3.957
 8993SOL    HW227879   5.628   2.984   3.865
 8994SOL     OW27880   0.708   5.079   3.218
 8994SOL    HW127881   0.784   5.015   3.229
 8994SOL    HW227882   0.710   5.118   3.126
 8995SOL     OW27883   1.842   3.881   4.606
 8995SOL    HW127884   1.753   3.922   4.583
 8995SOL    HW227885   1.841   3.784   4.581
 8996SOL     OW27886   0.193   3.936   2.662
 8996SOL    HW127887   0.292   3.940   2.674
 8996SOL    HW227888   0.149   3.913   2.749
 8997SOL     OW27889   4.560   1.652   5.219
 8997SOL    HW127890   4.464   1.632   5.235
 8997SOL    HW227891   4.569   1.706   5.135
 8998SOL     OW27892   1.633   2.228   5.574
 8998SOL    HW127893   1.726   2.193   5.558
 8998SOL    HW227894   1.567   2.155   5.556
 8999SOL     OW27895   6.296   1.132   4.459
 8999SOL    HW127896   6.298   1.204   4.529
 8999SOL    HW227897   6.204   1.127   4.419
 9000SOL     OW27898   2.919   4.319   0.372
 9000SOL    HW127899   2.859   4.377   0.427
 9000SOL    HW227900   3.010   4.360   0.367
 9001SOL     OW27901   1.464   5.329   3.825
 9001SOL    HW127902   1.409   5.297   3.902
 9001SOL    HW227903   1.538   5.387   3.858
 9002SOL     OW27904   5.706   4.526   6.011
 9002SOL    HW127905   5.657   4.603   6.053
 9002SOL    HW227906   5.768   4.486   6.078
 9003SOL     OW27907   5.782   2.759   6.799
 9003SOL    HW127908   5.861   2.815   6.773
 9003SOL    HW227909   5.764   2.770   6.897
 9004SOL     OW27910   4.392   6.317   1.114
 9004SOL    HW127911   4.398   6.311   1.015
 9004SOL    HW227912   4.332   6.392   1.140
 9005SOL     OW27913   5.022   1.909   3.416
 9005SOL    HW127914   4.962   1.869   3.486
 9005SOL    HW227915   5.028   1.846   3.338
 9006SOL     OW27916   1.145   5.319   1.274
 9006SOL    HW127917   1.237   5.358   1.277
 9006SOL    HW227918   1.110   5.308   1.367
 9007SOL     OW27919   3.131   6.608   4.117
 9007SOL    HW127920   3.058   6.616   4.050
 9007SOL    HW227921   3.100   6.554   4.195
 9008SOL     OW27922   6.964   4.596   2.420
 9008SOL    HW127923   6.897   4.646   2.474
 9008SOL    HW227924   6.963   4.499   2.445
 9009SOL     OW27925   3.002   6.326   0.389
 9009SOL    HW127926   2.980   6.263   0.315
 9009SOL    HW227927   3.042   6.276   0.466
 9010SOL     OW27928   1.165   6.048   5.191
 9010SOL    HW127929   1.256   6.014   5.167
 9010SOL    HW227930   1.099   5.974   5.179
 9011SOL     OW27931   4.526   1.888   0.661
 9011SOL    HW127932   4.481   1.817   0.714
 9011SOL    HW227933   4.612   1.853   0.624
 9012SOL     OW27934   0.285   4.950   1.607
 9012SOL    HW127935   0.382   4.933   1.590
 9012SOL    HW227936   0.270   5.048   1.621
 9013SOL     OW27937   6.199   5.856   3.085
 9013SOL    HW127938   6.163   5.846   3.177
 9013SOL    HW227939   6.148   5.797   3.022
 9014SOL     OW27940   2.526   1.095   0.965
 9014SOL    HW127941   2.522   1.145   1.051
 9014SOL    HW227942   2.601   1.129   0.909
 9015SOL     OW27943   0.146   0.979   6.274
 9015SOL    HW127944   0.181   0.887   6.257
 9015SOL    HW227945   0.133   0.992   6.372
 9016SOL     OW27946   6.261   6.017   6.294
 9016SOL    HW127947   6.226   5.939   6.346
 9016SOL    HW227948   6.280   5.988   6.200
 9017SOL     OW27949   6.444   2.390   3.497
 9017SOL    HW127950   6.475   2.295   3.506
 9017SOL    HW227951   6.344   2.393   3.501
 9018SOL     OW27952   3.751   2.333   5.329
 9018SOL    HW127953   3.685   2.403   5.358
 9018SOL    HW227954   3.702   2.250   5.302
 9019SOL     OW27955   2.299   0.297   0.203
 9019SOL    HW127956   2.311   0.245   0.288
 9019SOL    HW227957   2.342   0.387   0.212
 9020SOL     OW27958   1.075   4.395   3.220
 9020SOL    HW127959   1.146   4.326   3.207
 9020SOL    HW227960   0.985   4.351   3.220
 9021SOL     OW27961   6.672   5.711   5.181
 9021SOL    HW127962   6.604   5.702   5.108
 9021SOL    HW227963   6.644   5.656   5.259
 9022SOL     OW27964   2.965   0.813   0.029
 9022SOL    HW127965   2.912   0.882   7.007
 9022SOL    HW227966   2.907   0.733   0.047
 9023SOL     OW27967   3.799   3.132   3.476
 9023SOL    HW127968   3.757   3.221   3.489
 9023SOL    HW227969   3.742   3.076   3.416
 9024SOL     OW27970   1.942   6.584   6.591
 9024SOL    HW127971   1.971   6.626   6.505
 9024SOL    HW227972   1.916   6.656   6.656
 9025SOL     OW27973   5.732   5.032   1.152
 9025SOL    HW127974   5.798   5.061   1.221
 9025SOL    HW227975   5.671   5.109   1.130
 9026SOL     OW27976   3.497   2.946   5.082
 9026SOL    HW127977   3.477   2.857   5.122
 9026SOL    HW227978   3.414   3.001   5.080
 9027SOL     OW27979   2.852   2.249   3.753
 9027SOL    HW127980   2.836   2.238   3.654
 9027SOL    HW227981   2.764   2.264   3.799
 9028SOL     OW27982   2.994   4.843   5.141
 9028SOL    HW127983   3.036   4.819   5.228
 9028SOL    HW227984   2.918   4.781   5.122
 9029SOL     OW27985   4.934   6.695   3.424
 9029SOL    HW127986   4.858   6.661   3.480
 9029SOL    HW227987   4.966   6.622   3.364
 9030SOL     OW27988   2.368   0.812   2.253
 9030SOL    HW127989   2.457   0.858   2.257
 9030SOL    HW227990   2.310   0.860   2.187
 9031SOL     OW27991   2.719   5.867   6.471
 9031SOL    HW127992   2.623   5.851   6.492
 9031SOL    HW227993   2.728   5.899   6.376
 9032SOL     OW27994   2.411   1.859   1.698
 9032SOL    HW127995   2.393   1.899   1.788
 9032SOL    HW227996   2.509   1.865   1.679
 9033SOL     OW27997   1.823   3.625   2.981
 9033SOL    HW127998   1.917   3.659   2.990
 9033SOL    HW227999   1.806   3.598   2.886
 9034SOL     OW28000   3.272   6.501   5.684
 9034SOL    HW128001   3.227   6.560   5.617
 9034SOL    HW228002   3.310   6.421   5.638
 9035SOL     OW28003   0.147   1.233   4.359
 9035SOL    HW128004   0.219   1.184   4.311
 9035SOL    HW228005   0.187   1.286   4.434
 9036SOL     OW28006   0.634   3.001   5.735
 9036SOL    HW128007   0.678   2.944   5.804
 9036SOL    HW228008   0.679   3.090   5.732
 9037SOL     OW28009   2.145   4.166   6.306
 9037SOL    HW128010   2.057   4.119   6.303
 9037SOL    HW228011   2.157   4.209   6.395
 9038SOL     OW28012   4.592   6.458   5.590
 9038SOL    HW128013   4.510   6.420   5.547
 9038SOL    HW228014   4.649   6.500   5.519
 9039SOL     OW28015   1.926   5.581   4.906
 9039SOL    HW128016   1.906   5.489   4.940
 9039SOL    HW228017   2.024   5.591   4.891
 9040SOL     OW28018   1.800   1.643   2.573
 9040SOL    HW128019   1.889   1.644   2.527
 9040SOL    HW228020   1.749   1.562   2.545
 9041SOL     OW28021   1.307   3.206   0.907
 9041SOL    HW128022   1.383   3.141   0.913
 9041SOL    HW228023   1.273   3.226   0.999
 9042SOL     OW28024   2.671   4.677   3.340
 9042SOL    HW128025   2.652   4.618   3.261
 9042SOL    HW228026   2.760   4.720   3.328
 9043SOL     OW28027   0.725   2.447   5.891
 9043SOL    HW128028   0.719   2.412   5.985
 9043SOL    HW228029   0.812   2.495   5.880
 9044SOL     OW28030   6.372   0.397   1.040
 9044SOL    HW128031   6.399   0.355   1.126
 9044SOL    HW228032   6.391   0.334   0.964
 9045SOL     OW28033   2.739   6.881   3.171
 9045SOL    HW128034   2.740   6.981   3.168
 9045SOL    HW228035   2.768   6.850   3.262
 9046SOL     OW28036   3.460   4.162   5.016
 9046SOL    HW128037   3.374   4.143   5.064
 9046SOL    HW228038   3.440   4.206   4.929
 9047SOL     OW28039   1.012   4.546   4.433
 9047SOL    HW128040   0.981   4.465   4.485
 9047SOL    HW228041   1.017   4.624   4.495
 9048SOL     OW28042   0.481   3.597   4.495
 9048SOL    HW128043   0.430   3.536   4.556
 9048SOL    HW228044   0.416   3.645   4.436
 9049SOL     OW28045   5.365   6.441   6.230
 9049SOL    HW128046   5.359   6.397   6.320
 9049SOL    HW228047   5.380   6.539   6.242
 9050SOL     OW28048   0.274   4.850   6.505
 9050SOL    HW128049   0.316   4.784   6.569
 9050SOL    HW228050   0.223   4.800   6.435
 9051SOL     OW28051   5.743   6.165   6.714
 9051SOL    HW128052   5.792   6.167   6.627
 9051SOL    HW228053   5.735   6.070   6.745
 9052SOL     OW28054   2.216   5.007   4.323
 9052SOL    HW128055   2.310   5.038   4.335
 9052SOL    HW228056   2.166   5.073   4.267
 9053SOL     OW28057   2.615   2.431   4.062
 9053SOL    HW128058   2.640   2.389   4.150
 9053SOL    HW228059   2.695   2.477   4.024
 9054SOL     OW28060   2.377   0.327   1.303
 9054SOL    HW128061   2.323   0.343   1.386
 9054SOL    HW228062   2.365   0.404   1.241
 9055SOL     OW28063   0.586   2.491   3.986
 9055SOL    HW128064   0.495   2.494   4.027
 9055SOL    HW228065   0.651   2.538   4.046
 9056SOL     OW28066   5.393   0.324   2.981
 9056SOL    HW128067   5.347   0.310   3.068
 9056SOL    HW228068   5.444   0.411   2.984
 9057SOL     OW28069   6.171   6.230   6.419
 9057SOL    HW128070   6.208   6.304   6.363
 9057SOL    HW228071   6.211   6.143   6.390
 9058SOL     OW28072   1.763   2.907   4.982
 9058SOL    HW128073   1.862   2.904   4.983
 9058SOL    HW228074   1.727   2.815   4.966
 9059SOL     OW28075   6.429   1.955   3.071
 9059SOL    HW128076   6.519   1.998   3.081
 9059SOL    HW228077   6.435   1.859   3.097
 9060SOL     OW28078   0.491   3.234   1.712
 9060SOL    HW128079   0.455   3.144   1.687
 9060SOL    HW228080   0.500   3.290   1.630
 9061SOL     OW28081   5.502   5.608   1.540
 9061SOL    HW128082   5.476   5.625   1.636
 9061SOL    HW228083   5.421   5.583   1.488
 9062SOL     OW28084   0.561   4.765   3.516
 9062SOL    HW128085   0.497   4.768   3.593
 9062SOL    HW228086   0.553   4.677   3.469
 9063SOL     OW28087   3.000   0.667   2.380
 9063SOL    HW128088   3.065   0.720   2.325
 9063SOL    HW228089   2.931   0.626   2.320
 9064SOL     OW28090   0.316   4.091   3.403
 9064SOL    HW128091   0.238   4.119   3.346
 9064SOL    HW228092   0.339   4.166   3.466
 9065SOL     OW28093   2.542   5.473   4.746
 9065SOL    HW128094   2.638   5.493   4.723
 9065SOL    HW228095   2.537   5.387   4.795
 9066SOL     OW28096   5.244   4.901   5.642
 9066SOL    HW128097   5.342   4.918   5.651
 9066SOL    HW228098   5.196   4.943   5.719
 9067SOL     OW28099   6.553   0.192   4.850
 9067SOL    HW128100   6.615   0.263   4.817
 9067SOL    HW228101   6.495   0.161   4.775
 9068SOL     OW28102   4.984   6.950   4.488
 9068SOL    HW128103   5.077   6.957   4.453
 9068SOL    HW228104   4.919   6.972   4.415
 9069SOL     OW28105   4.434   2.064   1.926
 9069SOL    HW128106   4.511   2.015   1.885
 9069SOL    HW228107   4.459   2.094   2.019
 9070SOL     OW28108   1.446   1.816   5.729
 9070SOL    HW128109   1.508   1.865   5.668
 9070SOL    HW228110   1.421   1.728   5.688
 9071SOL     OW28111   5.096   1.105   5.913
 9071SOL    HW128112   5.095   1.144   6.005
 9071SOL    HW228113   5.108   1.178   5.846
 9072SOL     OW28114   5.459   0.387   2.169
 9072SOL    HW128115   5.368   0.421   2.193
 9072SOL    HW228116   5.521   0.398   2.248
 9073SOL     OW28117   3.860   1.048   6.807
 9073SOL    HW128118   3.820   0.999   6.729
 9073SOL    HW228119   3.794   1.114   6.842
 9074SOL     OW28120   1.240   0.062   1.416
 9074SOL    HW128121   1.331   0.080   1.455
 9074SOL    HW228122   1.250   0.027   1.323
 9075SOL     OW28123   6.895   0.916   1.522
 9075SOL    HW128124   6.830   0.964   1.464
 9075SOL    HW228125   6.845   0.863   1.591
 9076SOL     OW28126   6.321   0.268   2.228
 9076SOL    HW128127   6.240   0.213   2.248
 9076SOL    HW228128   6.383   0.215   2.169
 9077SOL     OW28129   5.954   1.328   5.996
 9077SOL    HW128130   5.989   1.309   5.904
 9077SOL    HW228131   5.864   1.285   6.007
 9078SOL     OW28132   5.139   5.414   0.021
 9078SOL    HW128133   5.138   5.381   0.115
 9078SOL    HW228134   5.178   5.506   0.018
 9079SOL     OW28135   1.229   0.383   5.873
 9079SOL    HW128136   1.179   0.462   5.907
 9079SOL    HW228137   1.229   0.311   5.942
 9080SOL     OW28138   6.701   3.740   0.756
 9080SOL    HW128139   6.613   3.711   0.795
 9080SOL    HW228140   6.692   3.834   0.722
 9081SOL     OW28141   3.909   2.224   1.194
 9081SOL    HW128142   3.973   2.164   1.244
 9081SOL    HW228143   3.949   2.316   1.188
 9082SOL     OW28144   3.298   6.004   6.005
 9082SOL    HW128145   3.283   5.951   5.922
 9082SOL    HW228146   3.233   6.079   6.009
 9083SOL     OW28147   4.652   4.905   6.206
 9083SOL    HW128148   4.599   4.821   6.198
 9083SOL    HW228149   4.590   4.983   6.209
 9084SOL     OW28150   0.510   2.994   5.390
 9084SOL    HW128151   0.561   2.967   5.471
 9084SOL    HW228152   0.447   3.068   5.413
 9085SOL     OW28153   3.121   5.161   0.215
 9085SOL    HW128154   3.110   5.169   0.314
 9085SOL    HW228155   3.108   5.251   0.172
 9086SOL     OW28156   0.221   4.825   0.302
 9086SOL    HW128157   0.150   4.781   0.247
 9086SOL    HW228158   0.309   4.780   0.284
 9087SOL     OW28159   6.192   1.759   1.809
 9087SOL    HW128160   6.176   1.826   1.736
 9087SOL    HW228161   6.185   1.667   1.772
 9088SOL     OW28162   6.296   0.870   1.793
 9088SOL    HW128163   6.253   0.849   1.881
 9088SOL    HW228164   6.380   0.922   1.809
 9089SOL     OW28165   4.673   5.389   3.460
 9089SOL    HW128166   4.584   5.390   3.415
 9089SOL    HW228167   4.666   5.433   3.550
 9090SOL     OW28168   5.985   6.338   4.911
 9090SOL    HW128169   5.928   6.343   4.829
 9090SOL    HW228170   5.949   6.400   4.981
 9091SOL     OW28171   3.377   2.075   0.422
 9091SOL    HW128172   3.456   2.050   0.367
 9091SOL    HW228173   3.300   2.016   0.399
 9092SOL     OW28174   1.380   6.590   5.679
 9092SOL    HW128175   1.285   6.581   5.708
 9092SOL    HW228176   1.438   6.529   5.733
 9093SOL     OW28177   1.630   5.391   0.493
 9093SOL    HW128178   1.538   5.367   0.522
 9093SOL    HW228179   1.633   5.488   0.467
 9094SOL     OW28180   6.745   5.754   2.394
 9094SOL    HW128181   6.661   5.700   2.404
 9094SOL    HW228182   6.820   5.693   2.369
 9095SOL     OW28183   4.674   3.479   6.387
 9095SOL    HW128184   4.599   3.444   6.443
 9095SOL    HW228185   4.696   3.572   6.417
 9096SOL     OW28186   5.845   2.982   2.665
 9096SOL    HW128187   5.811   2.998   2.758
 9096SOL    HW228188   5.923   2.920   2.668
 9097SOL     OW28189   0.439   4.109   6.889
 9097SOL    HW128190   0.518   4.050   6.873
 9097SOL    HW228191   0.357   4.065   6.852
 9098SOL     OW28192   3.959   3.924   2.202
 9098SOL    HW128193   4.028   3.958   2.137
 9098SOL    HW228194   3.878   3.893   2.151
 9099SOL     OW28195   2.707   3.472   0.657
 9099SOL    HW128196   2.792   3.451   0.610
 9099SOL    HW228197   2.668   3.556   0.619
 9100SOL     OW28198   0.929   3.565   1.464
 9100SOL    HW128199   0.920   3.643   1.403
 9100SOL    HW228200   0.840   3.521   1.475
 9101SOL     OW28201   1.484   2.524   2.832
 9101SOL    HW128202   1.444   2.477   2.911
 9101SOL    HW228203   1.516   2.456   2.766
 9102SOL     OW28204   3.825   5.582   2.132
 9102SOL    HW128205   3.894   5.516   2.162
 9102SOL    HW228206   3.805   5.568   2.035
 9103SOL     OW28207   0.312   3.956   0.928
 9103SOL    HW128208   0.348   4.049   0.916
 9103SOL    HW228209   0.234   3.943   0.867
 9104SOL     OW28210   4.318   6.020   1.831
 9104SOL    HW128211   4.248   5.975   1.775
 9104SOL    HW228212   4.274   6.084   1.894
 9105SOL     OW28213   1.718   0.432   6.656
 9105SOL    HW128214   1.686   0.522   6.686
 9105SOL    HW228215   1.664   0.402   6.577
 9106SOL     OW28216   5.821   4.632   0.336
 9106SOL    HW128217   5.825   4.647   0.237
 9106SOL    HW228218   5.828   4.534   0.354
 9107SOL     OW28219   3.944   6.923   0.055
 9107SOL    HW128220   3.987   7.003   0.013
 9107SOL    HW228221   3.986   6.839   0.019
 9108SOL     OW28222   5.119   4.490   5.354
 9108SOL    HW128223   5.070   4.577   5.348
 9108SOL    HW228224   5.132   4.465   5.450
 9109SOL     OW28225   2.584   2.117   3.300
 9109SOL    HW128226   2.534   2.072   3.375
 9109SOL    HW228227   2.523   2.124   3.221
 9110SOL     OW28228   1.875   5.000   3.484
 9110SOL    HW128229   1.789   5.037   3.449
 9110SOL    HW228230   1.952   5.049   3.441
 9111SOL     OW28231   3.471   4.246   1.360
 9111SOL    HW128232   3.559   4.280   1.327
 9111SOL    HW228233   3.398   4.283   1.303
 9112SOL     OW28234   0.719   3.471   3.543
 9112SOL    HW128235   0.692   3.567   3.557
 9112SOL    HW228236   0.642   3.411   3.563
 9113SOL     OW28237   5.293   0.842   0.223
 9113SOL    HW128238   5.357   0.840   0.145
 9113SOL    HW228239   5.280   0.749   0.257
 9114SOL     OW28240   2.466   4.451   2.150
 9114SOL    HW128241   2.502   4.487   2.064
 9114SOL    HW228242   2.468   4.523   2.220
 9115SOL     OW28243   0.887   4.893   4.211
 9115SOL    HW128244   0.868   4.805   4.254
 9115SOL    HW228245   0.968   4.885   4.153
 9116SOL     OW28246   6.956   1.821   6.251
 9116SOL    HW128247   0.020   1.834   6.293
 9116SOL    HW228248   6.889   1.800   6.323
 9117SOL     OW28249   6.455   3.133   6.334
 9117SOL    HW128250   6.434   3.225   6.367
 9117SOL    HW228251   6.379   3.100   6.277
 9118SOL     OW28252   6.439   0.337   1.417
 9118SOL    HW128253   6.356   0.370   1.461
 9118SOL    HW228254   6.426   0.242   1.388
 9119SOL     OW28255   5.187   0.917   2.419
 9119SOL    HW128256   5.269   0.879   2.375
 9119SOL    HW228257   5.142   0.845   2.472
 9120SOL     OW28258   5.497   2.414   6.182
 9120SOL    HW128259   5.419   2.455   6.229
 9120SOL    HW228260   5.484   2.421   6.083
 9121SOL     OW28261   0.769   3.403   5.452
 9121SOL    HW128262   0.853   3.349   5.451
 9121SOL    HW228263   0.777   3.479   5.387
 9122SOL     OW28264   1.410   2.460   2.184
 9122SOL    HW128265   1.450   2.481   2.273
 9122SOL    HW228266   1.449   2.375   2.148
 9123SOL     OW28267   3.366   6.110   5.214
 9123SOL    HW128268   3.396   6.123   5.120
 9123SOL    HW228269   3.437   6.141   5.277
 9124SOL     OW28270   6.087   5.320   5.386
 9124SOL    HW128271   6.183   5.336   5.408
 9124SOL    HW228272   6.030   5.378   5.444
 9125SOL     OW28273   4.704   4.194   3.555
 9125SOL    HW128274   4.722   4.116   3.495
 9125SOL    HW228275   4.731   4.171   3.648
 9126SOL     OW28276   6.264   1.458   2.113
 9126SOL    HW128277   6.279   1.392   2.186
 9126SOL    HW228278   6.329   1.533   2.122
 9127SOL     OW28279   5.878   6.860   5.695
 9127SOL    HW128280   5.922   6.865   5.605
 9127SOL    HW228281   5.780   6.843   5.683
 9128SOL     OW28282   4.233   1.656   5.041
 9128SOL    HW128283   4.251   1.561   5.015
 9128SOL    HW228284   4.272   1.672   5.132
 9129SOL     OW28285   1.914   3.594   0.389
 9129SOL    HW128286   1.993   3.616   0.331
 9129SOL    HW228287   1.915   3.497   0.411
 9130SOL     OW28288   0.177   4.317   6.668
 9130SOL    HW128289   0.112   4.336   6.595
 9130SOL    HW228290   0.254   4.263   6.632
 9131SOL     OW28291   0.115   4.061   4.829
 9131SOL    HW128292   0.077   4.128   4.765
 9131SOL    HW228293   0.168   4.109   4.899
 9132SOL     OW28294   6.927   4.013   3.724
 9132SOL    HW128295   6.905   4.106   3.694
 9132SOL    HW228296   7.011   3.982   3.680
 9133SOL     OW28297   2.969   4.947   1.036
 9133SOL    HW128298   2.875   4.917   1.023
 9133SOL    HW228299   3.018   4.942   0.949
 9134SOL     OW28300   3.474   6.777   0.697
 9134SOL    HW128301   3.451   6.700   0.637
 9134SOL    HW228302   3.441   6.759   0.790
 9135SOL     OW28303   0.206   0.022   2.334
 9135SOL    HW128304   0.238   6.996   2.414
 9135SOL    HW228305   0.282   0.074   2.296
 9136SOL     OW28306   4.847   5.053   5.710
 9136SOL    HW128307   4.876   5.044   5.614
 9136SOL    HW228308   4.903   4.992   5.767
 9137SOL     OW28309   6.010   1.179   0.988
 9137SOL    HW128310   6.026   1.272   0.956
 9137SOL    HW228311   6.097   1.137   1.015
 9138SOL     OW28312   6.639   4.835   5.824
 9138SOL    HW128313   6.632   4.736   5.810
 9138SOL    HW228314   6.570   4.881   5.769
 9139SOL     OW28315   2.350   1.427   4.891
 9139SOL    HW128316   2.448   1.428   4.906
 9139SOL    HW228317   2.313   1.339   4.920
 9140SOL     OW28318   6.507   2.430   2.342
 9140SOL    HW128319   6.518   2.478   2.256
 9140SOL    HW228320   6.579   2.362   2.353
 9141SOL     OW28321   5.645   6.535   6.513
 9141SOL    HW128322   5.649   6.452   6.458
 9141SOL    HW228323   5.673   6.515   6.607
 9142SOL     OW28324   0.282   2.698   5.239
 9142SOL    HW128325   0.374   2.716   5.206
 9142SOL    HW228326   0.279   2.709   5.338
 9143SOL     OW28327   4.657   3.961   0.144
 9143SOL    HW128328   4.753   3.932   0.140
 9143SOL    HW228329   4.648   4.048   0.096
 9144SOL     OW28330   2.058   5.252   6.126
 9144SOL    HW128331   2.065   5.317   6.201
 9144SOL    HW228332   2.131   5.270   6.060
 9145SOL     OW28333   0.245   5.024   0.928
 9145SOL    HW128334   0.154   5.038   0.966
 9145SOL    HW228335   0.283   4.939   0.964
 9146SOL     OW28336   5.079   1.549   1.598
 9146SOL    HW128337   5.147   1.476   1.590
 9146SOL    HW228338   5.068   1.573   1.695
 9147SOL     OW28339   5.636   6.765   4.511
 9147SOL    HW128340   5.734   6.788   4.513
 9147SOL    HW228341   5.601   6.760   4.604
 9148SOL     OW28342   5.706   6.778   1.440
 9148SOL    HW128343   5.801   6.757   1.461
 9148SOL    HW228344   5.646   6.711   1.484
 9149SOL     OW28345   5.096   2.580   4.522
 9149SOL    HW128346   5.175   2.639   4.502
 9149SOL    HW228347   5.128   2.489   4.548
 9150SOL     OW28348   3.802   5.707   3.592
 9150SOL    HW128349   3.866   5.773   3.552
 9150SOL    HW228350   3.790   5.630   3.529
 9151SOL     OW28351   1.199   4.118   2.871
 9151SOL    HW128352   1.109   4.106   2.829
 9151SOL    HW228353   1.250   4.032   2.864
 9152SOL     OW28354   2.309   5.547   4.296
 9152SOL    HW128355   2.279   5.637   4.264
 9152SOL    HW228356   2.374   5.508   4.230
 9153SOL     OW28357   1.614   3.246   0.487
 9153SOL    HW128358   1.662   3.171   0.441
 9153SOL    HW228359   1.550   3.210   0.554
 9154SOL     OW28360   2.753   4.952   6.597
 9154SOL    HW128361   2.775   5.044   6.632
 9154SOL    HW228362   2.756   4.887   6.673
 9155SOL     OW28363   1.861   3.793   0.614
 9155SOL    HW128364   1.792   3.768   0.682
 9155SOL    HW228365   1.871   3.720   0.547
 9156SOL     OW28366   2.871   2.797   1.181
 9156SOL    HW128367   2.827   2.844   1.104
 9156SOL    HW228368   2.967   2.782   1.161
 9157SOL     OW28369   6.122   4.853   5.724
 9157SOL    HW128370   6.074   4.929   5.680
 9157SOL    HW228371   6.055   4.785   5.753
 9158SOL     OW28372   6.364   3.332   4.800
 9158SOL    HW128373   6.368   3.333   4.900
 9158SOL    HW228374   6.288   3.391   4.770
 9159SOL     OW28375   0.934   6.385   3.906
 9159SOL    HW128376   0.841   6.382   3.941
 9159SOL    HW228377   0.965   6.292   3.884
 9160SOL     OW28378   6.523   0.648   4.991
 9160SOL    HW128379   6.528   0.549   5.002
 9160SOL    HW228380   6.431   0.679   5.015
 9161SOL     OW28381   4.851   4.372   4.069
 9161SOL    HW128382   4.812   4.337   3.984
 9161SOL    HW228383   4.779   4.383   4.137
 9162SOL     OW28384   4.592   1.808   3.424
 9162SOL    HW128385   4.672   1.865   3.444
 9162SOL    HW228386   4.551   1.839   3.338
 9163SOL     OW28387   1.728   3.242   3.695
 9163SOL    HW128388   1.706   3.149   3.666
 9163SOL    HW228389   1.659   3.305   3.660
 9164SOL     OW28390   2.833   1.044   6.944
 9164SOL    HW128391   2.771   1.035   6.867
 9164SOL    HW228392   2.823   1.136   6.984
 9165SOL     OW28393   6.257   1.497   6.043
 9165SOL    HW128394   6.160   1.512   6.062
 9165SOL    HW228395   6.295   1.579   5.997
 9166SOL     OW28396   4.837   5.830   1.101
 9166SOL    HW128397   4.798   5.738   1.101
 9166SOL    HW228398   4.848   5.861   1.196
 9167SOL     OW28399   1.783   3.551   6.623
 9167SOL    HW128400   1.876   3.568   6.654
 9167SOL    HW228401   1.729   3.516   6.699
 9168SOL     OW28402   0.765   6.481   5.344
 9168SOL    HW128403   0.832   6.482   5.270
 9168SOL    HW228404   0.748   6.387   5.373
 9169SOL     OW28405   0.005   1.528   5.036
 9169SOL    HW128406   6.997   1.455   5.096
 9169SOL    HW228407   0.085   1.496   4.986
 9170SOL     OW28408   0.446   4.867   0.045
 9170SOL    HW128409   0.461   4.788   0.106
 9170SOL    HW228410   0.533   4.911   0.025
 9171SOL     OW28411   3.349   5.625   0.258
 9171SOL    HW128412   3.289   5.556   0.217
 9171SOL    HW228413   3.436   5.626   0.208
 9172SOL     OW28414   3.156   1.029   5.197
 9172SOL    HW128415   3.081   1.093   5.215
 9172SOL    HW228416   3.149   0.951   5.260
 9173SOL     OW28417   6.274   4.171   4.860
 9173SOL    HW128418   6.255   4.262   4.898
 9173SOL    HW228419   6.286   4.177   4.761
 9174SOL     OW28420   6.428   4.324   1.141
 9174SOL    HW128421   6.519   4.360   1.159
 9174SOL    HW228422   6.363   4.399   1.132
 9175SOL     OW28423   1.868   7.020   4.915
 9175SOL    HW128424   1.802   7.013   4.840
 9175SOL    HW228425   1.883   6.930   4.956
 9176SOL     OW28426   2.621   0.787   5.313
 9176SOL    HW128427   2.635   0.754   5.406
 9176SOL    HW228428   2.530   0.761   5.281
 9177SOL     OW28429   1.468   5.199   4.583
 9177SOL    HW128430   1.468   5.191   4.483
 9177SOL    HW228431   1.557   5.171   4.619
 9178SOL     OW28432   1.628   5.661   0.804
 9178SOL    HW128433   1.637   5.583   0.866
 9178SOL    HW228434   1.541   5.708   0.823
 9179SOL     OW28435   3.551   5.878   3.672
 9179SOL    HW128436   3.626   5.845   3.615
 9179SOL    HW228437   3.568   5.853   3.768
 9180SOL     OW28438   5.854   2.228   3.132
 9180SOL    HW128439   5.932   2.264   3.081
 9180SOL    HW228440   5.771   2.237   3.076
 9181SOL     OW28441   4.097   2.201   3.529
 9181SOL    HW128442   4.064   2.223   3.437
 9181SOL    HW228443   4.061   2.267   3.595
 9182SOL     OW28444   2.223   6.763   2.243
 9182SOL    HW128445   2.244   6.674   2.285
 9182SOL    HW228446   2.280   6.834   2.283
 9183SOL     OW28447   5.072   6.396   0.407
 9183SOL    HW128448   5.135   6.341   0.461
 9183SOL    HW228449   5.036   6.342   0.331
 9184SOL     OW28450   4.749   1.486   0.183
 9184SOL    HW128451   4.773   1.396   0.146
 9184SOL    HW228452   4.781   1.493   0.277
 9185SOL     OW28453   4.514   6.401   4.851
 9185SOL    HW128454   4.482   6.496   4.859
 9185SOL    HW228455   4.576   6.394   4.773
 9186SOL     OW28456   6.068   0.505   4.153
 9186SOL    HW128457   6.131   0.428   4.162
 9186SOL    HW228458   6.023   0.521   4.241
 9187SOL     OW28459   2.590   0.998   1.391
 9187SOL    HW128460   2.542   1.086   1.390
 9187SOL    HW228461   2.650   0.993   1.471
 9188SOL     OW28462   2.338   6.587   1.996
 9188SOL    HW128463   2.372   6.504   2.041
 9188SOL    HW228464   2.325   6.659   2.064
 9189SOL     OW28465   5.886   5.991   1.593
 9189SOL    HW128466   5.812   5.925   1.585
 9189SOL    HW228467   5.971   5.950   1.559
 9190SOL     OW28468   1.764   5.017   0.155
 9190SOL    HW128469   1.849   5.059   0.187
 9190SOL    HW228470   1.689   5.082   0.164
 9191SOL     OW28471   5.730   0.539   5.962
 9191SOL    HW128472   5.646   0.485   5.964
 9191SOL    HW228473   5.778   0.528   6.049
 9192SOL     OW28474   0.510   4.314   5.736
 9192SOL    HW128475   0.592   4.259   5.754
 9192SOL    HW228476   0.429   4.259   5.755
 9193SOL     OW28477   4.610   4.931   0.498
 9193SOL    HW128478   4.659   4.871   0.435
 9193SOL    HW228479   4.519   4.894   0.515
 9194SOL     OW28480   2.890   0.759   3.019
 9194SOL    HW128481   2.929   0.848   2.995
 9194SOL    HW228482   2.928   0.728   3.106
 9195SOL     OW28483   1.671   2.388   4.122
 9195SOL    HW128484   1.714   2.365   4.209
 9195SOL    HW228485   1.731   2.449   4.070
 9196SOL     OW28486   3.913   0.534   3.955
 9196SOL    HW128487   3.985   0.466   3.968
 9196SOL    HW228488   3.944   0.602   3.888
 9197SOL     OW28489   1.737   4.760   1.906
 9197SOL    HW128490   1.719   4.794   1.999
 9197SOL    HW228491   1.833   4.732   1.899
 9198SOL     OW28492   6.743   4.963   6.065
 9198SOL    HW128493   6.706   4.894   6.127
 9198SOL    HW228494   6.751   4.924   5.973
 9199SOL     OW28495   1.221   3.389   6.344
 9199SOL    HW128496   1.318   3.371   6.360
 9199SOL    HW228497   1.172   3.390   6.431
 9200SOL     OW28498   3.161   0.144   0.527
 9200SOL    HW128499   3.230   0.158   0.598
 9200SOL    HW228500   3.148   0.229   0.476
 9201SOL     OW28501   0.738   2.813   0.422
 9201SOL    HW128502   0.715   2.843   0.329
 9201SOL    HW228503   0.655   2.783   0.468
 9202SOL     OW28504   1.754   6.457   3.141
 9202SOL    HW128505   1.802   6.473   3.055
 9202SOL    HW228506   1.814   6.477   3.218
 9203SOL     OW28507   0.697   5.302   6.648
 9203SOL    HW128508   0.624   5.249   6.693
 9203SOL    HW228509   0.744   5.359   6.716
 9204SOL     OW28510   3.839   2.488   6.711
 9204SOL    HW128511   3.861   2.553   6.783
 9204SOL    HW228512   3.895   2.507   6.630
 9205SOL     OW28513   5.577   4.620   2.696
 9205SOL    HW128514   5.674   4.630   2.719
 9205SOL    HW228515   5.523   4.684   2.751
 9206SOL     OW28516   4.054   5.428   1.811
 9206SOL    HW128517   3.977   5.369   1.836
 9206SOL    HW228518   4.069   5.422   1.713
 9207SOL     OW28519   4.398   4.781   6.620
 9207SOL    HW128520   4.372   4.861   6.566
 9207SOL    HW228521   4.337   4.704   6.598
 9208SOL     OW28522   5.976   4.122   4.089
 9208SOL    HW128523   5.880   4.144   4.107
 9208SOL    HW228524   5.997   4.139   3.993
 9209SOL     OW28525   3.146   0.888   0.209
 9209SOL    HW128526   3.223   0.856   0.154
 9209SOL    HW228527   3.060   0.859   0.167
 9210SOL     OW28528   6.879   1.119   3.066
 9210SOL    HW128529   6.824   1.201   3.057
 9210SOL    HW228530   6.827   1.048   3.115
 9211SOL     OW28531   6.332   3.164   4.384
 9211SOL    HW128532   6.299   3.163   4.478
 9211SOL    HW228533   6.408   3.100   4.374
 9212SOL     OW28534   4.324   5.328   4.070
 9212SOL    HW128535   4.225   5.329   4.083
 9212SOL    HW228536   4.348   5.385   3.991
 9213SOL     OW28537   5.497   3.362   6.022
 9213SOL    HW128538   5.594   3.345   6.005
 9213SOL    HW228539   5.442   3.302   5.965
 9214SOL     OW28540   7.025   5.745   5.918
 9214SOL    HW128541   7.022   5.731   5.819
 9214SOL    HW228542   0.057   5.824   5.939
 9215SOL     OW28543   1.412   2.527   6.796
 9215SOL    HW128544   1.339   2.578   6.749
 9215SOL    HW228545   1.376   2.438   6.826
 9216SOL     OW28546   2.706   0.351   2.710
 9216SOL    HW128547   2.781   0.413   2.733
 9216SOL    HW228548   2.621   0.386   2.750
 9217SOL     OW28549   0.357   0.561   6.070
 9217SOL    HW128550   0.351   0.621   5.991
 9217SOL    HW228551   0.418   0.485   6.049
 9218SOL     OW28552   3.682   6.508   0.548
 9218SOL    HW128553   3.591   6.523   0.587
 9218SOL    HW228554   3.694   6.566   0.467
 9219SOL     OW28555   6.917   2.760   0.399
 9219SOL    HW128556   6.981   2.709   0.457
 9219SOL    HW228557   6.823   2.736   0.424
 9220SOL     OW28558   2.256   6.747   1.117
 9220SOL    HW128559   2.341   6.790   1.088
 9220SOL    HW228560   2.207   6.807   1.180
 9221SOL     OW28561   3.076   0.707   4.342
 9221SOL    HW128562   3.016   0.742   4.413
 9221SOL    HW228563   3.023   0.687   4.260
 9222SOL     OW28564   2.464   6.730   6.652
 9222SOL    HW128565   2.366   6.714   6.639
 9222SOL    HW228566   2.497   6.792   6.580
 9223SOL     OW28567   1.639   1.928   4.327
 9223SOL    HW128568   1.553   1.878   4.317
 9223SOL    HW228569   1.688   1.928   4.239
 9224SOL     OW28570   2.668   5.429   5.195
 9224SOL    HW128571   2.619   5.505   5.237
 9224SOL    HW228572   2.714   5.375   5.266
 9225SOL     OW28573   3.734   7.007   5.904
 9225SOL    HW128574   3.805   0.051   5.891
 9225SOL    HW228575   3.736   6.975   5.998
 9226SOL     OW28576   5.727   0.153   1.898
 9226SOL    HW128577   5.755   0.058   1.907
 9226SOL    HW228578   5.746   0.201   1.983
 9227SOL     OW28579   0.953   5.326   1.543
 9227SOL    HW128580   0.974   5.228   1.550
 9227SOL    HW228581   1.007   5.376   1.610
 9228SOL     OW28582   1.553   0.624   6.440
 9228SOL    HW128583   1.602   0.542   6.411
 9228SOL    HW228584   1.458   0.601   6.462
 9229SOL     OW28585   1.593   5.657   4.537
 9229SOL    HW128586   1.498   5.643   4.564
 9229SOL    HW228587   1.651   5.664   4.619
 9230SOL     OW28588   6.007   0.952   3.240
 9230SOL    HW128589   6.064   0.902   3.305
 9230SOL    HW228590   6.027   1.050   3.246
 9231SOL     OW28591   1.397   4.684   4.428
 9231SOL    HW128592   1.318   4.714   4.374
 9231SOL    HW228593   1.471   4.659   4.366
 9232SOL     OW28594   3.213   5.640   1.047
 9232SOL    HW128595   3.205   5.624   1.145
 9232SOL    HW228596   3.223   5.553   0.999
 9233SOL     OW28597   5.257   5.549   1.419
 9233SOL    HW128598   5.274   5.544   1.320
 9233SOL    HW228599   5.189   5.481   1.445
 9234SOL     OW28600   3.603   5.043   4.658
 9234SOL    HW128601   3.601   5.141   4.636
 9234SOL    HW228602   3.577   4.991   4.577
 9235SOL     OW28603   1.355   2.520   3.895
 9235SOL    HW128604   1.264   2.563   3.891
 9235SOL    HW228605   1.345   2.422   3.910
 9236SOL     OW28606   2.711   4.240   5.741
 9236SOL    HW128607   2.626   4.294   5.736
 9236SOL    HW228608   2.729   4.216   5.836
 9237SOL     OW28609   2.115   4.984   5.163
 9237SOL    HW128610   2.211   4.981   5.135
 9237SOL    HW228611   2.074   4.894   5.151
 9238SOL     OW28612   4.403   1.591   6.132
 9238SOL    HW128613   4.433   1.683   6.155
 9238SOL    HW228614   4.303   1.586   6.135
 9239SOL     OW28615   0.547   3.678   1.506
 9239SOL    HW128616   0.456   3.691   1.467
 9239SOL    HW228617   0.541   3.615   1.583
 9240SOL     OW28618   5.639   1.447   0.700
 9240SOL    HW128619   5.671   1.437   0.795
 9240SOL    HW228620   5.562   1.510   0.698
 9241SOL     OW28621   0.427   6.160   6.298
 9241SOL    HW128622   0.424   6.074   6.247
 9241SOL    HW228623   0.335   6.185   6.327
 9242SOL     OW28624   6.524   5.710   0.969
 9242SOL    HW128625   6.559   5.624   0.932
 9242SOL    HW228626   6.555   5.720   1.063
 9243SOL     OW28627   5.864   6.300   2.629
 9243SOL    HW128628   5.861   6.370   2.701
 9243SOL    HW228629   5.807   6.329   2.552
 9244SOL     OW28630   4.840   5.768   5.876
 9244SOL    HW128631   4.884   5.856   5.856
 9244SOL    HW228632   4.800   5.772   5.968
 9245SOL     OW28633   1.499   5.550   3.039
 9245SOL    HW128634   1.467   5.644   3.032
 9245SOL    HW228635   1.534   5.519   2.951
 9246SOL     OW28636   6.851   4.625   3.007
 9246SOL    HW128637   6.885   4.712   3.044
 9246SOL    HW228638   6.864   4.624   2.908
 9247SOL     OW28639   1.051   0.014   3.080
 9247SOL    HW128640   1.002   6.979   3.143
 9247SOL    HW228641   1.056   6.997   2.990
 9248SOL     OW28642   1.809   2.570   6.313
 9248SOL    HW128643   1.743   2.578   6.387
 9248SOL    HW228644   1.773   2.508   6.243
 9249SOL     OW28645   5.473   3.118   6.190
 9249SOL    HW128646   5.496   3.206   6.150
 9249SOL    HW228647   5.446   3.131   6.285
 9250SOL     OW28648   5.320   3.324   5.027
 9250SOL    HW128649   5.243   3.356   4.972
 9250SOL    HW228650   5.353   3.236   4.992
 9251SOL     OW28651   3.563   2.062   3.047
 9251SOL    HW128652   3.643   2.121   3.037
 9251SOL    HW228653   3.525   2.042   2.956
 9252SOL     OW28654   6.335   0.021   4.308
 9252SOL    HW128655   6.418   0.071   4.334
 9252SOL    HW228656   6.302   0.054   4.220
 9253SOL     OW28657   4.663   5.943   6.031
 9253SOL    HW128658   4.564   5.946   6.019
 9253SOL    HW228659   4.685   5.890   6.113
 9254SOL     OW28660   6.281   4.449   1.656
 9254SOL    HW128661   6.238   4.478   1.570
 9254SOL    HW228662   6.335   4.524   1.693
 9255SOL     OW28663   5.471   3.001   0.242
 9255SOL    HW128664   5.407   2.944   0.293
 9255SOL    HW228665   5.438   3.012   0.148
 9256SOL     OW28666   4.011   4.825   2.945
 9256SOL    HW128667   4.005   4.876   3.031
 9256SOL    HW228668   4.082   4.755   2.953
 9257SOL     OW28669   0.736   3.939   2.608
 9257SOL    HW128670   0.732   3.877   2.687
 9257SOL    HW228671   0.755   3.886   2.526
 9258SOL     OW28672   4.024   3.269   3.785
 9258SOL    HW128673   4.048   3.235   3.694
 9258SOL    HW228674   3.934   3.236   3.811
 9259SOL     OW28675   1.830   2.458   1.096
 9259SOL    HW128676   1.793   2.515   1.023
 9259SOL    HW228677   1.815   2.362   1.075
 9260SOL     OW28678   5.288   1.316   5.740
 9260SOL    HW128679   5.283   1.390   5.807
 9260SOL    HW228680   5.284   1.355   5.647
 9261SOL     OW28681   4.960   0.411   6.332
 9261SOL    HW128682   4.955   0.380   6.237
 9261SOL    HW228683   5.051   0.448   6.350
 9262SOL     OW28684   6.540   2.948   5.597
 9262SOL    HW128685   6.623   2.986   5.639
 9262SOL    HW228686   6.540   2.970   5.499
 9263SOL     OW28687   6.473   4.186   0.760
 9263SOL    HW128688   6.485   4.136   0.846
 9263SOL    HW228689   6.396   4.248   0.768
 9264SOL     OW28690   5.633   3.883   0.316
 9264SOL    HW128691   5.591   3.827   0.244
 9264SOL    HW228692   5.566   3.949   0.350
 9265SOL     OW28693   3.384   1.265   0.565
 9265SOL    HW128694   3.441   1.188   0.595
 9265SOL    HW228695   3.400   1.344   0.625
 9266SOL     OW28696   1.878   5.771   2.003
 9266SOL    HW128697   1.973   5.757   2.031
 9266SOL    HW228698   1.858   5.869   1.999
 9267SOL     OW28699   6.896   3.813   5.569
 9267SOL    HW128700   6.865   3.857   5.485
 9267SOL    HW228701   6.819   3.769   5.614
 9268SOL     OW28702   0.971   6.121   1.542
 9268SOL    HW128703   0.950   6.043   1.601
 9268SOL    HW228704   0.906   6.195   1.560
 9269SOL     OW28705   3.243   2.701   6.605
 9269SOL    HW128706   3.160   2.648   6.622
 9269SOL    HW228707   3.232   2.794   6.642
 9270SOL     OW28708   4.770   6.941   5.575
 9270SOL    HW128709   4.838   7.013   5.571
 9270SOL    HW228710   4.679   6.980   5.562
 9271SOL     OW28711   1.464   5.796   0.440
 9271SOL    HW128712   1.457   5.846   0.354
 9271SOL    HW228713   1.549   5.742   0.441
 9272SOL     OW28714   3.299   4.750   5.691
 9272SOL    HW128715   3.222   4.811   5.709
 9272SOL    HW228716   3.323   4.701   5.774
 9273SOL     OW28717   5.107   5.961   3.813
 9273SOL    HW128718   5.176   6.016   3.859
 9273SOL    HW228719   5.107   5.868   3.851
 9274SOL     OW28720   6.440   2.762   0.194
 9274SOL    HW128721   6.399   2.764   0.102
 9274SOL    HW228722   6.368   2.766   0.263
 9275SOL     OW28723   0.731   1.766   6.973
 9275SOL    HW128724   0.795   1.832   6.933
 9275SOL    HW228725   0.671   1.814   0.012
 9276SOL     OW28726   2.821   4.763   4.024
 9276SOL    HW128727   2.757   4.705   4.075
 9276SOL    HW228728   2.786   4.778   3.932
 9277SOL     OW28729   3.920   3.593   6.815
 9277SOL    HW128730   3.863   3.584   6.897
 9277SOL    HW228731   3.925   3.690   6.789
 9278SOL     OW28732   1.917   1.176   4.100
 9278SOL    HW128733   1.889   1.149   4.008
 9278SOL    HW228734   1.839   1.171   4.162
 9279SOL     OW28735   4.505   0.747   1.462
 9279SOL    HW128736   4.411   0.716   1.448
 9279SOL    HW228737   4.560   0.723   1.382
 9280SOL     OW28738   1.808   0.419   3.390
 9280SOL    HW128739   1.845   0.423   3.483
 9280SOL    HW228740   1.880   0.436   3.324
 9281SOL     OW28741   3.345   3.948   1.115
 9281SOL    HW128742   3.346   3.941   1.015
 9281SOL    HW228743   3.251   3.940   1.148
 9282SOL     OW28744   4.302   2.054   4.465
 9282SOL    HW128745   4.219   2.003   4.443
 9282SOL    HW228746   4.378   2.019   4.411
 9283SOL     OW28747   5.892   0.783   2.630
 9283SOL    HW128748   5.911   0.773   2.727
 9283SOL    HW228749   5.812   0.842   2.617
 9284SOL     OW28750   3.721   5.141   6.976
 9284SOL    HW128751   3.635   5.098   7.006
 9284SOL    HW228752   3.751   5.207   0.018
 9285SOL     OW28753   5.217   3.356   0.095
 9285SOL    HW128754   5.150   3.305   0.149
 9285SOL    HW228755   5.259   3.427   0.152
 9286SOL     OW28756   5.361   0.317   5.613
 9286SOL    HW128757   5.442   0.325   5.672
 9286SOL    HW228758   5.330   0.222   5.612
 9287SOL     OW28759   2.980   5.957   0.589
 9287SOL    HW128760   2.971   6.047   0.630
 9287SOL    HW228761   2.894   5.931   0.546
 9288SOL     OW28762   2.762   1.585   5.614
 9288SOL    HW128763   2.845   1.639   5.630
 9288SOL    HW228764   2.785   1.507   5.555
 9289SOL     OW28765   3.627   1.740   2.209
 9289SOL    HW128766   3.637   1.675   2.285
 9289SOL    HW228767   3.546   1.797   2.225
 9290SOL     OW28768   4.519   1.947   4.329
 9290SOL    HW128769   4.615   1.971   4.319
 9290SOL    HW228770   4.508   1.886   4.408
 9291SOL     OW28771   2.366   0.265   5.061
 9291SOL    HW128772   2.349   0.363   5.069
 9291SOL    HW228773   2.279   0.216   5.062
 9292SOL     OW28774   6.431   3.364   6.124
 9292SOL    HW128775   6.332   3.373   6.127
 9292SOL    HW228776   6.469   3.377   6.215
 9293SOL     OW28777   6.567   4.111   1.022
 9293SOL    HW128778   6.643   4.096   1.084
 9293SOL    HW228779   6.509   4.184   1.058
 9294SOL     OW28780   3.257   6.310   5.907
 9294SOL    HW128781   3.244   6.403   5.875
 9294SOL    HW228782   3.321   6.310   5.984
 9295SOL     OW28783   5.082   2.182   3.708
 9295SOL    HW128784   5.173   2.158   3.675
 9295SOL    HW228785   5.054   2.119   3.780
 9296SOL     OW28786   0.116   5.955   6.771
 9296SOL    HW128787   0.194   5.894   6.788
 9296SOL    HW228788   0.136   6.045   6.810
 9297SOL     OW28789   0.268   0.720   1.220
 9297SOL    HW128790   0.310   0.730   1.130
 9297SOL    HW228791   0.300   0.636   1.264
 9298SOL     OW28792   2.058   6.361   5.665
 9298SOL    HW128793   2.140   6.412   5.692
 9298SOL    HW228794   2.084   6.270   5.634
 9299SOL     OW28795   0.832   2.907   4.437
 9299SOL    HW128796   0.880   2.960   4.368
 9299SOL    HW228797   0.764   2.965   4.482
 9300SOL     OW28798   0.208   5.096   4.508
 9300SOL    HW128799   0.144   5.164   4.472
 9300SOL    HW228800   0.284   5.085   4.443
 9301SOL     OW28801   4.650   4.693   3.548
 9301SOL    HW128802   4.655   4.602   3.507
 9301SOL    HW228803   4.681   4.689   3.642
 9302SOL     OW28804   2.167   3.022   4.480
 9302SOL    HW128805   2.178   3.040   4.578
 9302SOL    HW228806   2.174   3.108   4.430
 9303SOL     OW28807   3.807   6.022   0.965
 9303SOL    HW128808   3.830   6.099   0.905
 9303SOL    HW228809   3.711   5.999   0.954
 9304SOL     OW28810   4.282   4.051   0.974
 9304SOL    HW128811   4.299   4.131   0.916
 9304SOL    HW228812   4.356   3.985   0.961
 9305SOL     OW28813   3.964   1.556   1.796
 9305SOL    HW128814   3.995   1.545   1.702
 9305SOL    HW228815   3.884   1.615   1.798
 9306SOL     OW28816   0.432   4.771   4.737
 9306SOL    HW128817   0.457   4.834   4.664
 9306SOL    HW228818   0.495   4.782   4.814
 9307SOL     OW28819   1.297   3.279   1.455
 9307SOL    HW128820   1.263   3.363   1.498
 9307SOL    HW228821   1.301   3.292   1.356
 9308SOL     OW28822   1.108   4.004   1.166
 9308SOL    HW128823   1.151   3.963   1.085
 9308SOL    HW228824   1.154   3.970   1.248
 9309SOL     OW28825   3.413   5.043   5.401
 9309SOL    HW128826   3.409   5.048   5.301
 9309SOL    HW228827   3.348   4.975   5.434
 9310SOL     OW28828   4.628   5.848   6.309
 9310SOL    HW128829   4.529   5.860   6.307
 9310SOL    HW228830   4.655   5.777   6.243
 9311SOL     OW28831   5.959   4.724   1.817
 9311SOL    HW128832   5.941   4.630   1.846
 9311SOL    HW228833   6.049   4.752   1.851
 9312SOL     OW28834   1.663   4.007   1.638
 9312SOL    HW128835   1.572   4.035   1.607
 9312SOL    HW228836   1.679   4.042   1.730
 9313SOL     OW28837   0.424   0.751   1.006
 9313SOL    HW128838   0.397   0.811   0.931
 9313SOL    HW228839   0.488   0.801   1.066
 9314SOL     OW28840   3.820   5.326   6.135
 9314SOL    HW128841   3.832   5.425   6.123
 9314SOL    HW228842   3.738   5.297   6.085
 9315SOL     OW28843   6.378   0.848   5.495
 9315SOL    HW128844   6.293   0.825   5.448
 9315SOL    HW228845   6.435   0.904   5.435
 9316SOL     OW28846   3.989   5.406   5.559
 9316SOL    HW128847   3.989   5.309   5.537
 9316SOL    HW228848   4.083   5.440   5.562
 9317SOL     OW28849   6.450   5.717   3.094
 9317SOL    HW128850   6.406   5.634   3.129
 9317SOL    HW228851   6.381   5.785   3.072
 9318SOL     OW28852   6.814   1.140   4.824
 9318SOL    HW128853   6.843   1.145   4.729
 9318SOL    HW228854   6.750   1.064   4.836
 9319SOL     OW28855   0.503   2.804   5.599
 9319SOL    HW128856   0.407   2.832   5.597
 9319SOL    HW228857   0.555   2.866   5.657
 9320SOL     OW28858   4.472   1.982   6.831
 9320SOL    HW128859   4.571   1.982   6.817
 9320SOL    HW228860   4.434   1.893   6.807
 9321SOL     OW28861   6.038   6.971   2.720
 9321SOL    HW128862   6.100   6.992   2.644
 9321SOL    HW228863   5.951   6.939   2.683
 9322SOL     OW28864   6.976   6.132   6.370
 9322SOL    HW128865   0.036   6.183   6.380
 9322SOL    HW228866   6.945   6.100   6.459
 9323SOL     OW28867   2.044   0.104   5.796
 9323SOL    HW128868   2.104   0.083   5.719
 9323SOL    HW228869   1.964   0.156   5.764
 9324SOL     OW28870   1.702   5.108   0.589
 9324SOL    HW128871   1.702   5.123   0.688
 9324SOL    HW228872   1.730   5.191   0.542
 9325SOL     OW28873   5.197   1.504   0.441
 9325SOL    HW128874   5.218   1.558   0.523
 9325SOL    HW228875   5.228   1.410   0.454
 9326SOL     OW28876   2.466   6.928   1.081
 9326SOL    HW128877   2.539   6.910   1.015
 9326SOL    HW228878   2.466   7.025   1.105
 9327SOL     OW28879   4.889   6.567   2.527
 9327SOL    HW128880   4.873   6.649   2.583
 9327SOL    HW228881   4.840   6.490   2.566
 9328SOL     OW28882   4.121   0.904   6.044
 9328SOL    HW128883   4.181   0.952   6.107
 9328SOL    HW228884   4.133   0.941   5.952
 9329SOL     OW28885   6.997   3.908   2.187
 9329SOL    HW128886   0.056   3.868   2.151
 9329SOL    HW228887   7.016   3.998   2.226
 9330SOL     OW28888   0.216   6.243   0.122
 9330SOL    HW128889   0.276   6.320   0.145
 9330SOL    HW228890   0.139   6.240   0.186
 9331SOL     OW28891   0.942   1.241   6.018
 9331SOL    HW128892   0.954   1.338   6.038
 9331SOL    HW228893   0.967   1.186   6.097
 9332SOL     OW28894   3.826   3.945   2.851
 9332SOL    HW128895   3.790   3.859   2.886
 9332SOL    HW228896   3.773   4.021   2.889
 9333SOL     OW28897   4.861   3.714   1.377
 9333SOL    HW128898   4.910   3.773   1.313
 9333SOL    HW228899   4.822   3.769   1.450
 9334SOL     OW28900   4.139   6.840   3.641
 9334SOL    HW128901   4.188   6.913   3.688
 9334SOL    HW228902   4.096   6.780   3.708
 9335SOL     OW28903   1.068   0.893   6.132
 9335SOL    HW128904   1.036   0.972   6.185
 9335SOL    HW228905   0.994   0.859   6.075
 9336SOL     OW28906   3.778   5.634   6.762
 9336SOL    HW128907   3.814   5.656   6.671
 9336SOL    HW228908   3.845   5.662   6.831
 9337SOL     OW28909   5.015   0.714   3.475
 9337SOL    HW128910   4.933   0.738   3.424
 9337SOL    HW228911   5.064   0.642   3.426
 9338SOL     OW28912   4.487   1.015   2.073
 9338SOL    HW128913   4.556   0.944   2.056
 9338SOL    HW228914   4.396   0.977   2.060
 9339SOL     OW28915   5.316   6.662   0.587
 9339SOL    HW128916   5.384   6.731   0.563
 9339SOL    HW228917   5.316   6.589   0.519
 9340SOL     OW28918   5.040   3.721   5.119
 9340SOL    HW128919   4.962   3.688   5.066
 9340SOL    HW228920   5.042   3.675   5.208
 9341SOL     OW28921   0.664   5.906   6.360
 9341SOL    HW128922   0.648   5.974   6.431
 9341SOL    HW228923   0.762   5.897   6.343
 9342SOL     OW28924   2.107   0.804   4.045
 9342SOL    HW128925   2.206   0.792   4.048
 9342SOL    HW228926   2.084   0.872   3.975
 9343SOL     OW28927   6.347   4.578   3.053
 9343SOL    HW128928   6.346   4.511   3.127
 9343SOL    HW228929   6.310   4.537   2.970
 9344SOL     OW28930   4.627   5.626   1.764
 9344SOL    HW128931   4.636   5.629   1.863
 9344SOL    HW228932   4.671   5.707   1.724
 9345SOL     OW28933   6.405   3.770   1.690
 9345SOL    HW128934   6.353   3.813   1.764
 9345SOL    HW228935   6.454   3.690   1.727
 9346SOL     OW28936   6.277   1.090   1.047
 9346SOL    HW128937   6.324   1.164   1.096
 9346SOL    HW228938   6.305   1.091   0.950
 9347SOL     OW28939   1.501   5.411   0.968
 9347SOL    HW128940   1.567   5.337   0.954
 9347SOL    HW228941   1.456   5.433   0.881
 9348SOL     OW28942   4.267   5.545   1.551
 9348SOL    HW128943   4.174   5.576   1.572
 9348SOL    HW228944   4.291   5.574   1.458
 9349SOL     OW28945   0.649   0.074   2.419
 9349SOL    HW128946   0.748   0.069   2.413
 9349SOL    HW228947   0.608   0.022   2.344
 9350SOL     OW28948   0.938   3.127   5.610
 9350SOL    HW128949   1.027   3.088   5.634
 9350SOL    HW228950   0.944   3.168   5.519
 9351SOL     OW28951   3.318   1.063   6.342
 9351SOL    HW128952   3.264   1.009   6.278
 9351SOL    HW228953   3.415   1.056   6.318
 9352SOL     OW28954   2.590   3.500   0.237
 9352SOL    HW128955   2.647   3.508   0.319
 9352SOL    HW228956   2.634   3.550   0.162
 9353SOL     OW28957   0.763   5.149   1.856
 9353SOL    HW128958   0.858   5.155   1.825
 9353SOL    HW228959   0.723   5.064   1.822
 9354SOL     OW28960   6.798   2.207   6.516
 9354SOL    HW128961   6.889   2.229   6.551
 9354SOL    HW228962   6.798   2.214   6.416
 9355SOL     OW28963   0.768   2.662   4.959
 9355SOL    HW128964   0.761   2.562   4.957
 9355SOL    HW228965   0.753   2.699   4.867
 9356SOL     OW28966   3.759   6.843   1.308
 9356SOL    HW128967   3.664   6.864   1.282
 9356SOL    HW228968   3.766   6.839   1.408
 9357SOL     OW28969   1.076   2.923   6.459
 9357SOL    HW128970   0.998   2.982   6.440
 9357SOL    HW228971   1.046   2.829   6.468
 9358SOL     OW28972   0.349   4.342   2.516
 9358SOL    HW128973   0.339   4.402   2.595
 9358SOL    HW228974   0.370   4.397   2.435
 9359SOL     OW28975   1.778   5.391   6.154
 9359SOL    HW128976   1.772   5.346   6.065
 9359SOL    HW228977   1.870   5.428   6.166
 9360SOL     OW28978   1.535   5.908   6.435
 9360SOL    HW128979   1.534   6.003   6.402
 9360SOL    HW228980   1.444   5.885   6.472
 9361SOL     OW28981   2.114   5.899   3.483
 9361SOL    HW128982   2.172   5.952   3.421
 9361SOL    HW228983   2.069   5.961   3.548
 9362SOL     OW28984   1.764   1.676   2.114
 9362SOL    HW128985   1.769   1.651   2.017
 9362SOL    HW228986   1.688   1.740   2.128
 9363SOL     OW28987   3.326   5.100   1.759
 9363SOL    HW128988   3.379   5.127   1.840
 9363SOL    HW228989   3.230   5.091   1.785
 9364SOL     OW28990   2.431   2.995   1.700
 9364SOL    HW128991   2.435   2.932   1.778
 9364SOL    HW228992   2.370   3.071   1.723
 9365SOL     OW28993   2.801   1.955   4.277
 9365SOL    HW128994   2.845   1.874   4.316
 9365SOL    HW228995   2.838   2.037   4.321
 9366SOL     OW28996   3.201   5.842   0.342
 9366SOL    HW128997   3.237   5.876   0.429
 9366SOL    HW228998   3.251   5.759   0.315
 9367SOL     OW28999   5.568   0.602   1.317
 9367SOL    HW129000   5.496   0.670   1.331
 9367SOL    HW229001   5.535   0.528   1.259
 9368SOL     OW29002   3.720   0.097   2.505
 9368SOL    HW129003   3.643   0.035   2.514
 9368SOL    HW229004   3.707   0.176   2.565
 9369SOL     OW29005   0.610   5.823   4.877
 9369SOL    HW129006   0.627   5.829   4.976
 9369SOL    HW229007   0.519   5.785   4.861
 9370SOL     OW29008   4.368   1.269   4.064
 9370SOL    HW129009   4.385   1.281   3.967
 9370SOL    HW229010   4.446   1.303   4.117
 9371SOL     OW29011   3.659   5.072   1.182
 9371SOL    HW129012   3.665   5.137   1.257
 9371SOL    HW229013   3.569   5.079   1.139
 9372SOL     OW29014   4.588   6.945   1.518
 9372SOL    HW129015   4.499   6.988   1.533
 9372SOL    HW229016   4.611   6.950   1.421
 9373SOL     OW29017   6.255   2.828   0.382
 9373SOL    HW129018   6.208   2.912   0.407
 9373SOL    HW229019   6.243   2.760   0.456
 9374SOL     OW29020   0.709   4.378   5.441
 9374SOL    HW129021   0.629   4.319   5.446
 9374SOL    HW229022   0.693   4.461   5.495
 9375SOL     OW29023   0.250   2.174   0.210
 9375SOL    HW129024   0.330   2.211   0.162
 9375SOL    HW229025   0.191   2.249   0.239
 9376SOL     OW29026   2.127   3.670   2.056
 9376SOL    HW129027   2.149   3.574   2.041
 9376SOL    HW229028   2.148   3.694   2.150
 9377SOL     OW29029   2.040   4.982   2.255
 9377SOL    HW129030   1.981   5.010   2.331
 9377SOL    HW229031   1.984   4.952   2.178
 9378SOL     OW29032   3.377   0.599   3.614
 9378SOL    HW129033   3.465   0.641   3.635
 9378SOL    HW229034   3.391   0.504   3.585
 9379SOL     OW29035   4.607   6.654   4.661
 9379SOL    HW129036   4.557   6.645   4.575
 9379SOL    HW229037   4.676   6.581   4.668
 9380SOL     OW29038   3.606   5.351   5.949
 9380SOL    HW129039   3.597   5.441   5.906
 9380SOL    HW229040   3.515   5.310   5.960
 9381SOL     OW29041   4.808   1.928   4.340
 9381SOL    HW129042   4.817   1.881   4.428
 9381SOL    HW229043   4.876   2.002   4.335
 9382SOL     OW29044   3.348   0.637   4.094
 9382SOL    HW129045   3.361   0.724   4.141
 9382SOL    HW229046   3.388   0.563   4.148
 9383SOL     OW29047   5.004   4.099   3.680
 9383SOL    HW129048   5.086   4.079   3.627
 9383SOL    HW229049   4.962   4.183   3.646
 9384SOL     OW29050   1.957   7.017   1.856
 9384SOL    HW129051   1.922   0.043   1.778
 9384SOL    HW229052   1.925   6.922   1.849
 9385SOL     OW29053   3.871   1.439   3.894
 9385SOL    HW129054   3.803   1.493   3.846
 9385SOL    HW229055   3.836   1.346   3.910
 9386SOL     OW29056   3.873   5.984   5.224
 9386SOL    HW129057   3.822   5.981   5.138
 9386SOL    HW229058   3.886   5.892   5.259
 9387SOL     OW29059   4.132   1.996   0.082
 9387SOL    HW129060   4.116   2.086   0.041
 9387SOL    HW229061   4.227   1.969   0.066
 9388SOL     OW29062   1.913   6.882   3.938
 9388SOL    HW129063   1.814   6.892   3.942
 9388SOL    HW229064   1.942   6.807   3.998
 9389SOL     OW29065   3.380   5.119   2.532
 9389SOL    HW129066   3.311   5.149   2.466
 9389SOL    HW229067   3.443   5.195   2.551
 9390SOL     OW29068   5.488   4.848   5.229
 9390SOL    HW129069   5.568   4.880   5.280
 9390SOL    HW229070   5.415   4.823   5.293
 9391SOL     OW29071   1.110   6.665   4.746
 9391SOL    HW129072   1.140   6.738   4.807
 9391SOL    HW229073   1.021   6.689   4.707
 9392SOL     OW29074   5.226   4.122   3.501
 9392SOL    HW129075   5.222   4.096   3.404
 9392SOL    HW229076   5.305   4.182   3.515
 9393SOL     OW29077   3.106   6.154   6.336
 9393SOL    HW129078   3.028   6.150   6.273
 9393SOL    HW229079   3.133   6.061   6.360
 9394SOL     OW29080   5.728   0.443   1.457
 9394SOL    HW129081   5.663   0.500   1.407
 9394SOL    HW229082   5.739   0.355   1.409
 9395SOL     OW29083   2.842   1.530   0.919
 9395SOL    HW129084   2.823   1.628   0.919
 9395SOL    HW229085   2.883   1.504   0.832
 9396SOL     OW29086   1.761   5.822   6.543
 9396SOL    HW129087   1.755   5.726   6.517
 9396SOL    HW229088   1.672   5.866   6.529
 9397SOL     OW29089   3.667   0.296   6.189
 9397SOL    HW129090   3.658   0.258   6.281
 9397SOL    HW229091   3.638   0.229   6.122
 9398SOL     OW29092   6.606   1.253   6.448
 9398SOL    HW129093   6.613   1.170   6.392
 9398SOL    HW229094   6.692   1.269   6.495
 9399SOL     OW29095   1.978   3.131   4.130
 9399SOL    HW129096   2.010   3.202   4.192
 9399SOL    HW229097   2.057   3.076   4.099
 9400SOL     OW29098   5.115   1.283   0.778
 9400SOL    HW129099   5.163   1.260   0.694
 9400SOL    HW229100   5.132   1.212   0.847
 9401SOL     OW29101   0.831   2.407   2.844
 9401SOL    HW129102   0.805   2.460   2.925
 9401SOL    HW229103   0.778   2.322   2.842
 9402SOL     OW29104   1.809   5.651   2.936
 9402SOL    HW129105   1.895   5.680   2.977
 9402SOL    HW229106   1.815   5.556   2.907
 9403SOL     OW29107   6.890   1.650   2.370
 9403SOL    HW129108   6.916   1.593   2.292
 9403SOL    HW229109   6.820   1.715   2.341
 9404SOL     OW29110   1.701   3.331   0.831
 9404SOL    HW129111   1.650   3.292   0.754
 9404SOL    HW229112   1.646   3.402   0.875
 9405SOL     OW29113   0.262   4.566   4.811
 9405SOL    HW129114   0.318   4.626   4.754
 9405SOL    HW229115   0.321   4.507   4.865
 9406SOL     OW29116   0.347   3.001   6.443
 9406SOL    HW129117   0.398   2.916   6.427
 9406SOL    HW229118   0.288   2.989   6.523
 9407SOL     OW29119   2.293   5.282   4.932
 9407SOL    HW129120   2.258   5.347   4.865
 9407SOL    HW229121   2.221   5.218   4.958
 9408SOL     OW29122   6.792   3.991   5.337
 9408SOL    HW129123   6.791   4.081   5.381
 9408SOL    HW229124   6.699   3.967   5.309
 9409SOL     OW29125   6.505   5.128   2.157
 9409SOL    HW129126   6.556   5.212   2.174
 9409SOL    HW229127   6.483   5.122   2.059
 9410SOL     OW29128   4.335   0.596   2.081
 9410SOL    HW129129   4.343   0.666   2.152
 9410SOL    HW229130   4.319   0.641   1.993
 9411SOL     OW29131   4.087   3.213   3.517
 9411SOL    HW129132   4.138   3.171   3.442
 9411SOL    HW229133   3.989   3.193   3.506
 9412SOL     OW29134   0.252   0.966   1.356
 9412SOL    HW129135   0.187   1.015   1.298
 9412SOL    HW229136   0.273   0.877   1.316
 9413SOL     OW29137   4.297   5.096   3.885
 9413SOL    HW129138   4.373   5.160   3.897
 9413SOL    HW229139   4.296   5.031   3.961
 9414SOL     OW29140   2.365   2.402   5.348
 9414SOL    HW129141   2.293   2.349   5.393
 9414SOL    HW229142   2.324   2.479   5.299
 9415SOL     OW29143   3.801   0.491   2.510
 9415SOL    HW129144   3.780   0.588   2.524
 9415SOL    HW229145   3.898   0.482   2.487
 9416SOL     OW29146   0.164   6.313   6.348
 9416SOL    HW129147   0.160   6.351   6.256
 9416SOL    HW229148   0.247   6.345   6.394
 9417SOL     OW29149   2.760   6.444   0.732
 9417SOL    HW129150   2.762   6.457   0.831
 9417SOL    HW229151   2.803   6.523   0.688
 9418SOL     OW29152   3.141   1.897   4.411
 9418SOL    HW129153   3.192   1.980   4.391
 9418SOL    HW229154   3.162   1.867   4.505
 9419SOL     OW29155   3.187   2.164   7.018
 9419SOL    HW129156   3.115   2.153   0.060
 9419SOL    HW229157   3.177   2.094   6.947
 9420SOL     OW29158   5.727   3.429   0.082
 9420SOL    HW129159   5.783   3.346   0.084
 9420SOL    HW229160   5.635   3.406   0.051
 9421SOL     OW29161   3.854   6.205   5.765
 9421SOL    HW129162   3.932   6.142   5.754
 9421SOL    HW229163   3.803   6.181   5.847
 9422SOL     OW29164   2.736   5.765   4.631
 9422SOL    HW129165   2.738   5.785   4.729
 9422SOL    HW229166   2.685   5.836   4.583
 9423SOL     OW29167   3.952   5.937   3.521
 9423SOL    HW129168   3.890   5.975   3.452
 9423SOL    HW229169   4.031   5.895   3.476
 9424SOL     OW29170   5.154   0.951   4.541
 9424SOL    HW129171   5.099   0.970   4.623
 9424SOL    HW229172   5.152   0.853   4.522
 9425SOL     OW29173   6.862   5.053   0.414
 9425SOL    HW129174   6.841   5.050   0.512
 9425SOL    HW229175   6.961   5.040   0.402
 9426SOL     OW29176   0.531   1.857   6.333
 9426SOL    HW129177   0.588   1.859   6.251
 9426SOL    HW229178   0.547   1.772   6.383
 9427SOL     OW29179   3.502   5.996   2.903
 9427SOL    HW129180   3.405   6.019   2.906
 9427SOL    HW229181   3.513   5.899   2.923
 9428SOL     OW29182   6.682   0.231   6.844
 9428SOL    HW129183   6.650   0.190   6.758
 9428SOL    HW229184   6.683   0.161   6.915
 9429SOL     OW29185   1.190   2.251   4.057
 9429SOL    HW129186   1.260   2.217   3.994
 9429SOL    HW229187   1.105   2.200   4.044
 9430SOL     OW29188   0.375   2.034   4.199
 9430SOL    HW129189   0.464   2.078   4.215
 9430SOL    HW229190   0.390   1.945   4.155
 9431SOL     OW29191   6.863   4.688   6.931
 9431SOL    HW129192   6.817   4.603   6.905
 9431SOL    HW229193   6.805   4.766   6.905
 9432SOL     OW29194   6.574   1.788   3.640
 9432SOL    HW129195   6.601   1.825   3.729
 9432SOL    HW229196   6.628   1.831   3.568
 9433SOL     OW29197   3.780   6.308   2.932
 9433SOL    HW129198   3.780   6.250   2.850
 9433SOL    HW229199   3.830   6.392   2.913
 9434SOL     OW29200   5.127   5.727   3.936
 9434SOL    HW129201   5.200   5.664   3.965
 9434SOL    HW229202   5.043   5.675   3.922
 9435SOL     OW29203   0.834   2.539   1.801
 9435SOL    HW129204   0.916   2.581   1.838
 9435SOL    HW229205   0.763   2.535   1.871
 9436SOL     OW29206   0.751   0.775   2.807
 9436SOL    HW129207   0.717   0.723   2.728
 9436SOL    HW229208   0.784   0.711   2.877
 9437SOL     OW29209   0.025   5.258   4.380
 9437SOL    HW129210   7.008   5.327   4.321
 9437SOL    HW229211   6.980   5.216   4.437
 9438SOL     OW29212   2.381   6.323   1.769
 9438SOL    HW129213   2.431   6.360   1.848
 9438SOL    HW229214   2.445   6.303   1.695
 9439SOL     OW29215   0.681   2.878   0.145
 9439SOL    HW129216   0.678   2.975   0.170
 9439SOL    HW229217   0.589   2.847   0.120
 9440SOL     OW29218   3.139   4.911   3.718
 9440SOL    HW129219   3.085   4.992   3.743
 9440SOL    HW229220   3.234   4.939   3.702
 9441SOL     OW29221   6.798   5.719   4.107
 9441SOL    HW129222   6.735   5.754   4.176
 9441SOL    HW229223   6.890   5.710   4.146
 9442SOL     OW29224   4.683   3.690   0.494
 9442SOL    HW129225   4.733   3.604   0.492
 9442SOL    HW229226   4.594   3.677   0.538
 9443SOL     OW29227   2.283   4.632   2.657
 9443SOL    HW129228   2.269   4.699   2.584
 9443SOL    HW229229   2.279   4.678   2.746
 9444SOL     OW29230   2.023   4.032   0.552
 9444SOL    HW129231   2.076   3.997   0.475
 9444SOL    HW229232   1.962   3.960   0.586
 9445SOL     OW29233   0.747   1.262   3.746
 9445SOL    HW129234   0.781   1.252   3.840
 9445SOL    HW229235   0.804   1.208   3.684
 9446SOL     OW29236   6.573   5.139   3.384
 9446SOL    HW129237   6.499   5.086   3.425
 9446SOL    HW229238   6.660   5.113   3.425
 9447SOL     OW29239   5.420   5.356   2.609
 9447SOL    HW129240   5.384   5.279   2.557
 9447SOL    HW229241   5.396   5.345   2.706
 9448SOL     OW29242   5.860   0.317   5.817
 9448SOL    HW129243   5.856   0.416   5.804
 9448SOL    HW229244   5.907   0.276   5.739
 9449SOL     OW29245   5.972   6.705   1.453
 9449SOL    HW129246   6.011   6.641   1.387
 9449SOL    HW229247   5.981   6.668   1.546
 9450SOL     OW29248   1.724   5.992   4.114
 9450SOL    HW129249   1.713   5.938   4.198
 9450SOL    HW229250   1.809   6.044   4.119
 9451SOL     OW29251   3.338   5.516   6.685
 9451SOL    HW129252   3.369   5.429   6.725
 9451SOL    HW229253   3.366   5.592   6.743
 9452SOL     OW29254   0.201   4.280   1.077
 9452SOL    HW129255   0.116   4.326   1.050
 9452SOL    HW229256   0.245   4.241   0.996
 9453SOL     OW29257   3.901   5.113   3.187
 9453SOL    HW129258   3.958   5.152   3.115
 9453SOL    HW229259   3.810   5.094   3.151
 9454SOL     OW29260   4.388   4.533   0.744
 9454SOL    HW129261   4.431   4.612   0.701
 9454SOL    HW229262   4.373   4.461   0.676
 9455SOL     OW29263   2.702   2.241   2.108
 9455SOL    HW129264   2.707   2.150   2.150
 9455SOL    HW229265   2.777   2.252   2.043
 9456SOL     OW29266   5.991   2.990   2.309
 9456SOL    HW129267   5.970   2.927   2.235
 9456SOL    HW229268   5.922   3.062   2.314
 9457SOL     OW29269   0.997   4.702   3.840
 9457SOL    HW129270   0.907   4.692   3.796
 9457SOL    HW229271   1.061   4.636   3.800
 9458SOL     OW29272   6.750   4.064   0.374
 9458SOL    HW129273   6.690   3.987   0.354
 9458SOL    HW229274   6.845   4.034   0.368
 9459SOL     OW29275   5.145   4.844   4.975
 9459SOL    HW129276   5.100   4.914   4.921
 9459SOL    HW229277   5.243   4.842   4.953
 9460SOL     OW29278   1.076   2.591   3.139
 9460SOL    HW129279   1.004   2.615   3.204
 9460SOL    HW229280   1.138   2.525   3.181
 9461SOL     OW29281   1.829   2.250   1.753
 9461SOL    HW129282   1.777   2.176   1.796
 9461SOL    HW229283   1.836   2.327   1.816
 9462SOL     OW29284   2.111   1.771   4.507
 9462SOL    HW129285   2.052   1.804   4.581
 9462SOL    HW229286   2.152   1.849   4.460
 9463SOL     OW29287   5.751   6.342   0.842
 9463SOL    HW129288   5.809   6.294   0.776
 9463SOL    HW229289   5.697   6.276   0.894
 9464SOL     OW29290   0.313   0.965   2.004
 9464SOL    HW129291   0.253   0.887   2.024
 9464SOL    HW229292   0.267   1.026   1.940
 9465SOL     OW29293   0.270   4.095   1.592
 9465SOL    HW129294   0.333   4.026   1.556
 9465SOL    HW229295   0.178   4.077   1.557
 9466SOL     OW29296   3.944   5.089   6.849
 9466SOL    HW129297   3.855   5.104   6.894
 9466SOL    HW229298   3.970   5.172   6.799
 9467SOL     OW29299   1.971   3.343   0.864
 9467SOL    HW129300   2.019   3.266   0.906
 9467SOL    HW229301   1.873   3.325   0.862
 9468SOL     OW29302   6.456   3.044   0.639
 9468SOL    HW129303   6.445   2.947   0.657
 9468SOL    HW229304   6.366   3.087   0.627
 9469SOL     OW29305   0.146   6.224   0.599
 9469SOL    HW129306   0.126   6.129   0.623
 9469SOL    HW229307   0.240   6.230   0.564
 9470SOL     OW29308   4.728   3.968   0.449
 9470SOL    HW129309   4.718   3.869   0.458
 9470SOL    HW229310   4.681   3.999   0.366
 9471SOL     OW29311   6.026   2.108   5.077
 9471SOL    HW129312   6.072   2.049   5.143
 9471SOL    HW229313   6.077   2.193   5.066
 9472SOL     OW29314   1.470   3.897   6.269
 9472SOL    HW129315   1.489   3.986   6.310
 9472SOL    HW229316   1.385   3.860   6.307
 9473SOL     OW29317   2.729   4.480   0.431
 9473SOL    HW129318   2.656   4.432   0.383
 9473SOL    HW229319   2.694   4.565   0.471
 9474SOL     OW29320   5.384   3.500   1.689
 9474SOL    HW129321   5.467   3.522   1.639
 9474SOL    HW229322   5.344   3.416   1.653
 9475SOL     OW29323   4.689   3.559   5.907
 9475SOL    HW129324   4.667   3.657   5.907
 9475SOL    HW229325   4.734   3.535   5.821
 9476SOL     OW29326   3.597   4.036   6.099
 9476SOL    HW129327   3.574   4.056   6.195
 9476SOL    HW229328   3.643   4.115   6.058
 9477SOL     OW29329   2.152   4.155   1.667
 9477SOL    HW129330   2.138   4.101   1.750
 9477SOL    HW229331   2.072   4.148   1.608
 9478SOL     OW29332   5.329   2.558   0.357
 9478SOL    HW129333   5.403   2.536   0.421
 9478SOL    HW229334   5.366   2.561   0.264
 9479SOL     OW29335   4.220   0.960   2.019
 9479SOL    HW129336   4.168   1.013   1.952
 9479SOL    HW229337   4.177   0.968   2.109
 9480SOL     OW29338   6.355   6.594   6.872
 9480SOL    HW129339   6.367   6.593   6.971
 9480SOL    HW229340   6.444   6.595   6.828
 9481SOL     OW29341   4.476   1.904   3.201
 9481SOL    HW129342   4.521   1.986   3.234
 9481SOL    HW229343   4.377   1.918   3.201
 9482SOL     OW29344   5.928   0.839   0.908
 9482SOL    HW129345   5.935   0.904   0.833
 9482SOL    HW229346   6.009   0.780   0.909
 9483SOL     OW29347   0.602   0.549   0.673
 9483SOL    HW129348   0.694   0.547   0.632
 9483SOL    HW229349   0.560   0.637   0.653
 9484SOL     OW29350   2.965   6.026   4.578
 9484SOL    HW129351   2.874   6.049   4.612
 9484SOL    HW229352   2.987   5.932   4.604
 9485SOL     OW29353   6.771   1.737   6.884
 9485SOL    HW129354   6.812   1.819   6.925
 9485SOL    HW229355   6.828   1.658   6.903
 9486SOL     OW29356   4.573   5.643   0.070
 9486SOL    HW129357   4.630   5.564   0.093
 9486SOL    HW229358   4.478   5.624   0.094
 9487SOL     OW29359   3.035   3.216   4.293
 9487SOL    HW129360   3.061   3.303   4.252
 9487SOL    HW229361   3.099   3.145   4.263
 9488SOL     OW29362   1.733   1.673   0.971
 9488SOL    HW129363   1.689   1.762   0.957
 9488SOL    HW229364   1.683   1.621   1.040
 9489SOL     OW29365   5.141   3.980   0.363
 9489SOL    HW129366   5.067   4.045   0.383
 9489SOL    HW229367   5.148   3.967   0.264
 9490SOL     OW29368   6.057   4.085   3.832
 9490SOL    HW129369   5.991   4.060   3.761
 9490SOL    HW229370   6.148   4.051   3.808
 9491SOL     OW29371   4.879   7.003   3.563
 9491SOL    HW129372   4.803   6.948   3.596
 9491SOL    HW229373   4.951   6.943   3.529
 9492SOL     OW29374   4.976   3.188   4.631
 9492SOL    HW129375   4.954   3.285   4.617
 9492SOL    HW229376   4.969   3.166   4.728
 9493SOL     OW29377   4.297   6.538   3.878
 9493SOL    HW129378   4.251   6.556   3.965
 9493SOL    HW229379   4.269   6.449   3.844
 9494SOL     OW29380   5.152   2.748   1.918
 9494SOL    HW129381   5.202   2.754   2.004
 9494SOL    HW229382   5.061   2.788   1.930
 9495SOL     OW29383   0.755   0.614   2.331
 9495SOL    HW129384   0.730   0.667   2.250
 9495SOL    HW229385   0.721   0.660   2.413
 9496SOL     OW29386   3.949   1.919   2.402
 9496SOL    HW129387   3.921   1.875   2.316
 9496SOL    HW229388   3.897   2.003   2.415
 9497SOL     OW29389   5.922   5.162   4.635
 9497SOL    HW129390   5.977   5.079   4.629
 9497SOL    HW229391   5.829   5.139   4.663
 9498SOL     OW29392   6.921   5.167   4.588
 9498SOL    HW129393   6.981   5.088   4.597
 9498SOL    HW229394   6.826   5.137   4.580
 9499SOL     OW29395   5.982   5.500   5.586
 9499SOL    HW129396   6.062   5.534   5.635
 9499SOL    HW229397   5.914   5.467   5.652
 9500SOL     OW29398   4.357   0.139   0.946
 9500SOL    HW129399   4.303   0.223   0.952
 9500SOL    HW229400   4.442   0.157   0.898
 9501SOL     OW29401   1.657   1.686   4.625
 9501SOL    HW129402   1.627   1.703   4.718
 9501SOL    HW229403   1.706   1.767   4.591
 9502SOL     OW29404   5.534   4.649   5.721
 9502SOL    HW129405   5.541   4.674   5.625
 9502SOL    HW229406   5.558   4.552   5.732
 9503SOL     OW29407   0.494   2.091   6.857
 9503SOL    HW129408   0.513   2.034   6.936
 9503SOL    HW229409   0.427   2.161   6.882
 9504SOL     OW29410   6.216   5.007   1.726
 9504SOL    HW129411   6.249   5.039   1.637
 9504SOL    HW229412   6.119   4.985   1.720
 9505SOL     OW29413   4.445   4.769   5.366
 9505SOL    HW129414   4.529   4.802   5.410
 9505SOL    HW229415   4.396   4.846   5.326
 9506SOL     OW29416   3.079   2.296   1.261
 9506SOL    HW129417   3.011   2.296   1.187
 9506SOL    HW229418   3.104   2.202   1.282
 9507SOL     OW29419   6.111   0.121   2.053
 9507SOL    HW129420   6.101   0.214   2.089
 9507SOL    HW229421   6.021   0.086   2.028
 9508SOL     OW29422   4.589   1.429   3.128
 9508SOL    HW129423   4.663   1.470   3.181
 9508SOL    HW229424   4.504   1.477   3.146
 9509SOL     OW29425   6.593   0.562   2.807
 9509SOL    HW129426   6.623   0.546   2.902
 9509SOL    HW229427   6.658   0.623   2.762
 9510SOL     OW29428   0.395   2.926   3.822
 9510SOL    HW129429   0.315   2.983   3.805
 9510SOL    HW229430   0.460   2.935   3.746
 9511SOL     OW29431   1.419   1.257   0.532
 9511SOL    HW129432   1.381   1.288   0.618
 9511SOL    HW229433   1.360   1.186   0.492
 9512SOL     OW29434   6.447   2.853   1.134
 9512SOL    HW129435   6.348   2.839   1.130
 9512SOL    HW229436   6.473   2.889   1.224
 9513SOL     OW29437   3.925   4.805   6.603
 9513SOL    HW129438   3.984   4.809   6.683
 9513SOL    HW229439   3.843   4.860   6.618
 9514SOL     OW29440   3.193   2.940   6.720
 9514SOL    HW129441   3.204   3.039   6.731
 9514SOL    HW229442   3.148   2.903   6.801
 9515SOL     OW29443   2.513   4.967   3.767
 9515SOL    HW129444   2.555   5.015   3.844
 9515SOL    HW229445   2.538   5.012   3.681
 9516SOL     OW29446   6.682   3.817   0.252
 9516SOL    HW129447   6.605   3.813   0.188
 9516SOL    HW229448   6.666   3.755   0.328
 9517SOL     OW29449   0.941   4.172   1.032
 9517SOL    HW129450   1.014   4.107   1.056
 9517SOL    HW229451   0.976   4.265   1.042
 9518SOL     OW29452   2.465   1.483   0.312
 9518SOL    HW129453   2.548   1.537   0.298
 9518SOL    HW229454   2.490   1.388   0.333
 9519SOL     OW29455   1.052   3.033   5.281
 9519SOL    HW129456   0.974   3.000   5.229
 9519SOL    HW229457   1.136   3.015   5.231
 9520SOL     OW29458   2.461   0.204   2.949
 9520SOL    HW129459   2.559   0.220   2.936
 9520SOL    HW229460   2.444   0.107   2.962
 9521SOL     OW29461   5.650   5.590   4.133
 9521SOL    HW129462   5.643   5.609   4.035
 9521SOL    HW229463   5.604   5.503   4.153
 9522SOL     OW29464   3.421   5.974   1.299
 9522SOL    HW129465   3.410   6.061   1.251
 9522SOL    HW229466   3.518   5.951   1.304
 9523SOL     OW29467   3.375   4.955   4.852
 9523SOL    HW129468   3.436   4.969   4.774
 9523SOL    HW229469   3.296   4.902   4.823
 9524SOL     OW29470   3.531   3.443   1.113
 9524SOL    HW129471   3.560   3.505   1.186
 9524SOL    HW229472   3.560   3.350   1.135
 9525SOL     OW29473   1.927   0.766   6.094
 9525SOL    HW129474   1.917   0.671   6.124
 9525SOL    HW229475   1.997   0.811   6.148
 9526SOL     OW29476   4.790   6.319   3.175
 9526SOL    HW129477   4.711   6.271   3.212
 9526SOL    HW229478   4.854   6.340   3.249
 9527SOL     OW29479   1.064   1.104   1.939
 9527SOL    HW129480   1.147   1.066   1.899
 9527SOL    HW229481   1.021   1.036   1.998
 9528SOL     OW29482   6.702   0.640   1.873
 9528SOL    HW129483   6.730   0.544   1.863
 9528SOL    HW229484   6.640   0.649   1.951
 9529SOL     OW29485   0.868   3.068   6.373
 9529SOL    HW129486   0.771   3.044   6.371
 9529SOL    HW229487   0.888   3.134   6.300
 9530SOL     OW29488   1.595   2.449   3.217
 9530SOL    HW129489   1.536   2.473   3.294
 9530SOL    HW229490   1.663   2.522   3.204
 9531SOL     OW29491   3.322   6.936   3.261
 9531SOL    HW129492   3.413   6.927   3.220
 9531SOL    HW229493   3.325   7.006   3.332
 9532SOL     OW29494   1.857   0.301   1.176
 9532SOL    HW129495   1.847   0.216   1.227
 9532SOL    HW229496   1.823   0.288   1.083
 9533SOL     OW29497   1.228   0.941   5.883
 9533SOL    HW129498   1.223   0.905   5.976
 9533SOL    HW229499   1.283   0.879   5.827
 9534SOL     OW29500   5.195   2.051   4.778
 9534SOL    HW129501   5.201   2.130   4.716
 9534SOL    HW229502   5.181   2.082   4.871
 9535SOL     OW29503   2.241   1.312   5.349
 9535SOL    HW129504   2.337   1.328   5.326
 9535SOL    HW229505   2.185   1.320   5.267
 9536SOL     OW29506   1.773   5.544   5.544
 9536SOL    HW129507   1.873   5.542   5.540
 9536SOL    HW229508   1.736   5.468   5.490
 9537SOL     OW29509   3.137   0.369   2.143
 9537SOL    HW129510   3.069   0.434   2.178
 9537SOL    HW229511   3.215   0.419   2.106
 9538SOL     OW29512   6.825   2.197   4.645
 9538SOL    HW129513   6.762   2.142   4.700
 9538SOL    HW229514   6.839   2.285   4.690
 9539SOL     OW29515   0.663   5.816   0.152
 9539SOL    HW129516   0.673   5.898   0.095
 9539SOL    HW229517   0.574   5.818   0.197
 9540SOL     OW29518   4.180   5.144   4.556
 9540SOL    HW129519   4.239   5.143   4.637
 9540SOL    HW229520   4.234   5.168   4.476
 9541SOL     OW29521   2.021   2.818   4.345
 9541SOL    HW129522   1.922   2.833   4.350
 9541SOL    HW229523   2.069   2.893   4.391
 9542SOL     OW29524   4.928   3.472   4.596
 9542SOL    HW129525   4.924   3.540   4.669
 9542SOL    HW229526   5.016   3.481   4.548
 9543SOL     OW29527   4.889   1.256   3.264
 9543SOL    HW129528   4.888   1.339   3.321
 9543SOL    HW229529   4.886   1.281   3.168
 9544SOL     OW29530   5.028   1.159   2.497
 9544SOL    HW129531   5.067   1.068   2.487
 9544SOL    HW229532   4.937   1.152   2.536
 9545SOL     OW29533   6.908   0.671   3.542
 9545SOL    HW129534   6.812   0.692   3.562
 9545SOL    HW229535   6.927   0.692   3.446
 9546SOL     OW29536   2.664   5.563   0.040
 9546SOL    HW129537   2.613   5.515   0.112
 9546SOL    HW229538   2.665   5.661   0.059
 9547SOL     OW29539   0.878   6.366   4.523
 9547SOL    HW129540   0.836   6.278   4.507
 9547SOL    HW229541   0.894   6.378   4.622
 9548SOL     OW29542   5.125   5.899   4.169
 9548SOL    HW129543   5.132   5.839   4.089
 9548SOL    HW229544   5.142   5.846   4.252
 9549SOL     OW29545   2.418   6.090   0.609
 9549SOL    HW129546   2.514   6.105   0.632
 9549SOL    HW229547   2.372   6.044   0.685
 9550SOL     OW29548   1.349   1.845   0.680
 9550SOL    HW129549   1.406   1.764   0.690
 9550SOL    HW229550   1.383   1.917   0.741
 9551SOL     OW29551   0.753   6.777   4.990
 9551SOL    HW129552   0.686   6.704   5.003
 9551SOL    HW229553   0.750   6.809   4.896
 9552SOL     OW29554   2.068   6.116   3.142
 9552SOL    HW129555   2.022   6.120   3.053
 9552SOL    HW229556   2.007   6.152   3.212
 9553SOL     OW29557   6.085   4.380   5.723
 9553SOL    HW129558   6.184   4.393   5.720
 9553SOL    HW229559   6.042   4.458   5.768
 9554SOL     OW29560   2.345   1.415   2.162
 9554SOL    HW129561   2.374   1.509   2.146
 9554SOL    HW229562   2.357   1.361   2.078
 9555SOL     OW29563   0.096   2.376   0.705
 9555SOL    HW129564   0.049   2.460   0.729
 9555SOL    HW229565   0.183   2.371   0.752
 9556SOL     OW29566   2.373   1.393   1.544
 9556SOL    HW129567   2.347   1.443   1.626
 9556SOL    HW229568   2.417   1.455   1.479
 9557SOL     OW29569   5.533   6.891   2.386
 9557SOL    HW129570   5.520   6.984   2.351
 9557SOL    HW229571   5.622   6.884   2.432
 9558SOL     OW29572   6.502   4.886   2.721
 9558SOL    HW129573   6.576   4.837   2.676
 9558SOL    HW229574   6.511   4.876   2.820
 9559SOL     OW29575   6.500   3.200   1.619
 9559SOL    HW129576   6.440   3.132   1.660
 9559SOL    HW229577   6.451   3.287   1.612
 9560SOL     OW29578   3.055   1.439   3.490
 9560SOL    HW129579   3.034   1.516   3.551
 9560SOL    HW229580   3.152   1.444   3.463
 9561SOL     OW29581   4.107   6.692   0.671
 9561SOL    HW129582   4.070   6.716   0.761
 9561SOL    HW229583   4.202   6.662   0.681
 9562SOL     OW29584   4.935   4.964   2.752
 9562SOL    HW129585   4.993   4.923   2.682
 9562SOL    HW229586   4.903   5.054   2.722
 9563SOL     OW29587   6.713   5.837   6.721
 9563SOL    HW129588   6.636   5.901   6.717
 9563SOL    HW229589   6.727   5.807   6.815
 9564SOL     OW29590   3.013   6.731   0.316
 9564SOL    HW129591   3.050   6.670   0.386
 9564SOL    HW229592   2.923   6.696   0.287
 9565SOL     OW29593   3.699   5.744   4.736
 9565SOL    HW129594   3.605   5.712   4.750
 9565SOL    HW229595   3.698   5.839   4.705
 9566SOL     OW29596   2.731   4.388   5.305
 9566SOL    HW129597   2.709   4.291   5.299
 9566SOL    HW229598   2.829   4.401   5.287
 9567SOL     OW29599   6.116   5.786   5.853
 9567SOL    HW129600   6.018   5.806   5.845
 9567SOL    HW229601   6.128   5.688   5.869
 9568SOL     OW29602   4.999   3.704   6.783
 9568SOL    HW129603   4.924   3.748   6.732
 9568SOL    HW229604   4.973   3.697   6.879
 9569SOL     OW29605   6.339   0.871   0.077
 9569SOL    HW129606   6.299   0.879   7.011
 9569SOL    HW229607   6.416   0.808   0.075
 9570SOL     OW29608   1.389   1.140   0.157
 9570SOL    HW129609   1.438   1.120   0.241
 9570SOL    HW229610   1.325   1.066   0.137
 9571SOL     OW29611   2.305   3.777   0.144
 9571SOL    HW129612   2.343   3.746   0.057
 9571SOL    HW229613   2.235   3.712   0.174
 9572SOL     OW29614   1.328   3.945   1.886
 9572SOL    HW129615   1.409   3.900   1.847
 9572SOL    HW229616   1.270   3.979   1.812
 9573SOL     OW29617   2.020   1.787   0.316
 9573SOL    HW129618   2.092   1.718   0.314
 9573SOL    HW229619   2.039   1.858   0.248
 9574SOL     OW29620   2.783   2.930   5.697
 9574SOL    HW129621   2.720   2.854   5.681
 9574SOL    HW229622   2.876   2.900   5.677
 9575SOL     OW29623   5.346   0.401   2.429
 9575SOL    HW129624   5.406   0.338   2.478
 9575SOL    HW229625   5.258   0.406   2.475
 9576SOL     OW29626   2.928   1.185   5.184
 9576SOL    HW129627   2.862   1.112   5.167
 9576SOL    HW229628   2.934   1.244   5.103
 9577SOL     OW29629   0.702   6.248   2.951
 9577SOL    HW129630   0.725   6.337   2.910
 9577SOL    HW229631   0.647   6.195   2.887
 9578SOL     OW29632   6.117   2.833   2.038
 9578SOL    HW129633   6.063   2.807   1.958
 9578SOL    HW229634   6.101   2.767   2.112
 9579SOL     OW29635   0.969   6.504   2.769
 9579SOL    HW129636   1.058   6.524   2.728
 9579SOL    HW229637   0.950   6.407   2.761
 9580SOL     OW29638   4.272   3.590   5.820
 9580SOL    HW129639   4.360   3.625   5.789
 9580SOL    HW229640   4.202   3.612   5.752
 9581SOL     OW29641   0.833   4.338   5.950
 9581SOL    HW129642   0.857   4.430   5.917
 9581SOL    HW229643   0.912   4.278   5.939
 9582SOL     OW29644   4.206   4.668   4.194
 9582SOL    HW129645   4.274   4.660   4.267
 9582SOL    HW229646   4.171   4.577   4.170
 9583SOL     OW29647   2.213   4.543   2.398
 9583SOL    HW129648   2.115   4.560   2.400
 9583SOL    HW229649   2.260   4.624   2.362
 9584SOL     OW29650   6.248   5.604   6.418
 9584SOL    HW129651   6.231   5.632   6.324
 9584SOL    HW229652   6.326   5.655   6.454
 9585SOL     OW29653   6.150   0.494   4.536
 9585SOL    HW129654   6.056   0.477   4.507
 9585SOL    HW229655   6.179   0.423   4.601
 9586SOL     OW29656   5.651   3.207   3.183
 9586SOL    HW129657   5.613   3.135   3.241
 9586SOL    HW229658   5.594   3.289   3.189
 9587SOL     OW29659   5.174   0.052   2.692
 9587SOL    HW129660   5.208   6.996   2.647
 9587SOL    HW229661   5.138   0.116   2.624
 9588SOL     OW29662   0.778   0.632   1.659
 9588SOL    HW129663   0.759   0.719   1.703
 9588SOL    HW229664   0.877   0.617   1.654
 9589SOL     OW29665   2.910   1.209   6.453
 9589SOL    HW129666   2.817   1.211   6.489
 9589SOL    HW229667   2.913   1.154   6.369
 9590SOL     OW29668   6.893   4.291   3.685
 9590SOL    HW129669   6.920   4.377   3.728
 9590SOL    HW229670   6.807   4.303   3.635
 9591SOL     OW29671   1.553   5.178   1.397
 9591SOL    HW129672   1.481   5.157   1.331
 9591SOL    HW229673   1.517   5.167   1.490
 9592SOL     OW29674   4.929   5.469   1.816
 9592SOL    HW129675   4.844   5.467   1.869
 9592SOL    HW229676   4.997   5.523   1.865
 9593SOL     OW29677   6.918   2.647   4.559
 9593SOL    HW129678   7.015   2.666   4.574
 9593SOL    HW229679   6.889   2.687   4.472
 9594SOL     OW29680   6.286   0.302   2.695
 9594SOL    HW129681   6.358   0.243   2.660
 9594SOL    HW229682   6.210   0.304   2.629
 9595SOL     OW29683   1.473   5.757   4.178
 9595SOL    HW129684   1.399   5.824   4.181
 9595SOL    HW229685   1.509   5.750   4.086
 9596SOL     OW29686   5.809   6.092   5.109
 9596SOL    HW129687   5.883   6.033   5.077
 9596SOL    HW229688   5.746   6.111   5.034
 9597SOL     OW29689   2.042   3.948   1.347
 9597SOL    HW129690   2.123   4.004   1.328
 9597SOL    HW229691   2.023   3.951   1.445
 9598SOL     OW29692   6.985   5.553   6.108
 9598SOL    HW129693   7.006   5.620   6.037
 9598SOL    HW229694   0.042   5.534   6.161
 9599SOL     OW29695   4.730   1.487   5.580
 9599SOL    HW129696   4.706   1.577   5.542
 9599SOL    HW229697   4.798   1.498   5.652
 9600SOL     OW29698   1.360   0.282   6.804
 9600SOL    HW129699   1.276   0.279   6.858
 9600SOL    HW229700   1.435   0.317   6.860
 9601SOL     OW29701   0.159   5.388   5.402
 9601SOL    HW129702   0.085   5.410   5.338
 9601SOL    HW229703   0.212   5.311   5.367
 9602SOL     OW29704   1.352   5.588   0.076
 9602SOL    HW129705   1.449   5.575   0.055
 9602SOL    HW229706   1.318   5.669   0.027
 9603SOL     OW29707   1.849   6.010   4.591
 9603SOL    HW129708   1.760   5.988   4.551
 9603SOL    HW229709   1.838   6.081   4.661
 9604SOL     OW29710   5.947   1.358   0.020
 9604SOL    HW129711   5.857   1.400   0.009
 9604SOL    HW229712   5.962   1.333   0.115
 9605SOL     OW29713   2.026   5.877   6.545
 9605SOL    HW129714   2.051   5.957   6.599
 9605SOL    HW229715   1.929   5.856   6.560
 9606SOL     OW29716   6.497   6.356   4.004
 9606SOL    HW129717   6.518   6.275   4.058
 9606SOL    HW229718   6.564   6.367   3.931
 9607SOL     OW29719   1.173   1.978   1.930
 9607SOL    HW129720   1.237   2.055   1.934
 9607SOL    HW229721   1.127   1.969   2.018
 9608SOL     OW29722   0.675   6.776   2.293
 9608SOL    HW129723   0.657   6.857   2.238
 9608SOL    HW229724   0.715   6.803   2.381
 9609SOL     OW29725   1.227   3.810   4.735
 9609SOL    HW129726   1.285   3.815   4.817
 9609SOL    HW229727   1.172   3.727   4.739
 9610SOL     OW29728   2.281   1.804   6.130
 9610SOL    HW129729   2.376   1.832   6.118
 9610SOL    HW229730   2.229   1.879   6.171
 9611SOL     OW29731   6.392   0.163   0.867
 9611SOL    HW129732   6.429   0.140   0.777
 9611SOL    HW229733   6.466   0.167   0.934
 9612SOL     OW29734   5.537   2.910   1.801
 9612SOL    HW129735   5.602   2.898   1.726
 9612SOL    HW229736   5.506   2.820   1.833
 9613SOL     OW29737   6.113   6.485   5.278
 9613SOL    HW129738   6.202   6.483   5.232
 9613SOL    HW229739   6.061   6.403   5.252
 9614SOL     OW29740   3.878   3.495   2.422
 9614SOL    HW129741   3.927   3.459   2.502
 9614SOL    HW229742   3.799   3.548   2.451
 9615SOL     OW29743   1.346   5.783   3.006
 9615SOL    HW129744   1.266   5.744   2.960
 9615SOL    HW229745   1.414   5.809   2.937
 9616SOL     OW29746   3.472   3.353   0.534
 9616SOL    HW129747   3.516   3.345   0.623
 9616SOL    HW229748   3.488   3.444   0.496
 9617SOL     OW29749   0.603   3.789   3.870
 9617SOL    HW129750   0.700   3.797   3.848
 9617SOL    HW229751   0.549   3.821   3.792
 9618SOL     OW29752   4.350   6.546   6.960
 9618SOL    HW129753   4.417   6.603   7.008
 9618SOL    HW229754   4.272   6.602   6.932
 9619SOL     OW29755   2.601   6.834   0.252
 9619SOL    HW129756   2.593   6.751   0.306
 9619SOL    HW229757   2.605   6.914   0.312
 9620SOL     OW29758   3.049   1.239   6.037
 9620SOL    HW129759   3.033   1.184   6.119
 9620SOL    HW229760   2.991   1.320   6.040
 9621SOL     OW29761   0.656   0.580   1.166
 9621SOL    HW129762   0.740   0.586   1.220
 9621SOL    HW229763   0.676   0.602   1.071
 9622SOL     OW29764   5.868   0.265   6.118
 9622SOL    HW129765   5.858   0.354   6.163
 9622SOL    HW229766   5.859   0.276   6.019
 9623SOL     OW29767   4.081   6.305   6.449
 9623SOL    HW129768   4.052   6.254   6.530
 9623SOL    HW229769   4.179   6.288   6.433
 9624SOL     OW29770   3.733   5.038   4.891
 9624SOL    HW129771   3.702   5.027   4.796
 9624SOL    HW229772   3.659   5.014   4.953
 9625SOL     OW29773   4.825   4.401   5.870
 9625SOL    HW129774   4.744   4.458   5.885
 9625SOL    HW229775   4.822   4.324   5.934
 9626SOL     OW29776   2.444   4.102   5.855
 9626SOL    HW129777   2.464   4.094   5.757
 9626SOL    HW229778   2.529   4.110   5.906
 9627SOL     OW29779   1.041   5.512   0.411
 9627SOL    HW129780   1.018   5.501   0.314
 9627SOL    HW229781   1.131   5.553   0.420
 9628SOL     OW29782   5.631   2.831   6.463
 9628SOL    HW129783   5.619   2.798   6.369
 9628SOL    HW229784   5.728   2.850   6.479
 9629SOL     OW29785   0.385   5.695   3.681
 9629SOL    HW129786   0.388   5.603   3.720
 9629SOL    HW229787   0.317   5.750   3.729
 9630SOL     OW29788   6.423   5.948   6.760
 9630SOL    HW129789   6.422   5.867   6.819
 9630SOL    HW229790   6.337   5.998   6.770
 9631SOL     OW29791   4.276   0.910   0.449
 9631SOL    HW129792   4.302   0.912   0.353
 9631SOL    HW229793   4.222   0.827   0.467
 9632SOL     OW29794   3.723   6.193   1.817
 9632SOL    HW129795   3.796   6.262   1.823
 9632SOL    HW229796   3.691   6.169   1.909
 9633SOL     OW29797   2.881   3.370   2.602
 9633SOL    HW129798   2.903   3.467   2.610
 9633SOL    HW229799   2.890   3.342   2.506
 9634SOL     OW29800   5.167   4.511   2.215
 9634SOL    HW129801   5.245   4.569   2.239
 9634SOL    HW229802   5.084   4.565   2.210
 9635SOL     OW29803   0.731   4.011   3.561
 9635SOL    HW129804   0.722   4.050   3.652
 9635SOL    HW229805   0.817   3.961   3.554
 9636SOL     OW29806   4.863   2.282   4.878
 9636SOL    HW129807   4.847   2.218   4.953
 9636SOL    HW229808   4.784   2.283   4.817
 9637SOL     OW29809   2.578   3.239   0.608
 9637SOL    HW129810   2.480   3.257   0.616
 9637SOL    HW229811   2.628   3.325   0.616
 9638SOL     OW29812   0.105   4.417   5.547
 9638SOL    HW129813   0.084   4.508   5.584
 9638SOL    HW229814   0.178   4.426   5.479
 9639SOL     OW29815   3.838   1.745   2.582
 9639SOL    HW129816   3.873   1.807   2.512
 9639SOL    HW229817   3.783   1.797   2.648
 9640SOL     OW29818   3.608   0.770   2.575
 9640SOL    HW129819   3.586   0.834   2.501
 9640SOL    HW229820   3.705   0.777   2.597
 9641SOL     OW29821   6.039   4.596   2.777
 9641SOL    HW129822   6.011   4.530   2.707
 9641SOL    HW229823   6.123   4.642   2.747
 9642SOL     OW29824   1.867   0.393   3.671
 9642SOL    HW129825   1.886   0.312   3.726
 9642SOL    HW229826   1.905   0.474   3.718
 9643SOL     OW29827   5.362   4.496   4.170
 9643SOL    HW129828   5.283   4.444   4.205
 9643SOL    HW229829   5.391   4.563   4.238
 9644SOL     OW29830   1.357   5.576   4.639
 9644SOL    HW129831   1.310   5.532   4.562
 9644SOL    HW229832   1.367   5.510   4.714
 9645SOL     OW29833   0.955   5.808   0.185
 9645SOL    HW129834   0.855   5.805   0.183
 9645SOL    HW229835   0.988   5.788   0.277
 9646SOL     OW29836   3.674   6.133   5.968
 9646SOL    HW129837   3.625   6.220   5.964
 9646SOL    HW229838   3.712   6.121   6.060
 9647SOL     OW29839   6.048   6.879   3.524
 9647SOL    HW129840   6.021   6.818   3.449
 9647SOL    HW229841   6.147   6.872   3.537
 9648SOL     OW29842   4.608   2.182   1.053
 9648SOL    HW129843   4.521   2.215   1.092
 9648SOL    HW229844   4.589   2.130   0.970
 9649SOL     OW29845   2.007   4.524   6.965
 9649SOL    HW129846   1.945   4.560   6.894
 9649SOL    HW229847   2.004   4.424   6.963
 9650SOL     OW29848   0.017   4.954   4.662
 9650SOL    HW129849   0.047   4.867   4.701
 9650SOL    HW229850   0.096   5.004   4.626
 9651SOL     OW29851   3.820   0.976   0.736
 9651SOL    HW129852   3.875   0.966   0.654
 9651SOL    HW229853   3.803   1.073   0.754
 9652SOL     OW29854   6.905   3.798   0.564
 9652SOL    HW129855   6.925   3.793   0.662
 9652SOL    HW229856   6.807   3.807   0.550
 9653SOL     OW29857   4.353   3.799   6.186
 9653SOL    HW129858   4.387   3.776   6.277
 9653SOL    HW229859   4.308   3.719   6.147
 9654SOL     OW29860   3.678   3.365   3.512
 9654SOL    HW129861   3.659   3.360   3.610
 9654SOL    HW229862   3.592   3.367   3.461
 9655SOL     OW29863   4.244   1.445   1.777
 9655SOL    HW129864   4.318   1.501   1.813
 9655SOL    HW229865   4.156   1.486   1.801
 9656SOL     OW29866   5.576   3.970   1.227
 9656SOL    HW129867   5.608   3.981   1.133
 9656SOL    HW229868   5.487   4.014   1.237
 9657SOL     OW29869   5.512   3.252   3.510
 9657SOL    HW129870   5.592   3.309   3.492
 9657SOL    HW229871   5.526   3.162   3.471
 9658SOL     OW29872   5.168   2.137   2.328
 9658SOL    HW129873   5.071   2.144   2.349
 9658SOL    HW229874   5.185   2.059   2.268
 9659SOL     OW29875   3.099   3.211   0.623
 9659SOL    HW129876   3.151   3.282   0.671
 9659SOL    HW229877   3.162   3.145   0.582
 9660SOL     OW29878   0.243   5.817   1.266
 9660SOL    HW129879   0.264   5.776   1.177
 9660SOL    HW229880   0.263   5.915   1.263
 9661SOL     OW29881   4.960   4.766   0.678
 9661SOL    HW129882   4.916   4.753   0.767
 9661SOL    HW229883   4.983   4.862   0.665
 9662SOL     OW29884   5.205   4.235   6.438
 9662SOL    HW129885   5.247   4.299   6.503
 9662SOL    HW229886   5.180   4.284   6.355
 9663SOL     OW29887   0.803   4.929   3.561
 9663SOL    HW129888   0.735   4.856   3.569
 9663SOL    HW229889   0.763   5.016   3.591
 9664SOL     OW29890   5.443   3.853   3.276
 9664SOL    HW129891   5.369   3.919   3.265
 9664SOL    HW229892   5.530   3.894   3.247
 9665SOL     OW29893   5.377   5.920   6.249
 9665SOL    HW129894   5.417   5.897   6.338
 9665SOL    HW229895   5.359   6.018   6.244
 9666SOL     OW29896   5.821   3.501   0.530
 9666SOL    HW129897   5.870   3.414   0.541
 9666SOL    HW229898   5.737   3.484   0.479
 9667SOL     OW29899   5.681   5.772   0.142
 9667SOL    HW129900   5.774   5.741   0.123
 9667SOL    HW229901   5.672   5.789   0.240
 9668SOL     OW29902   0.395   0.001   5.655
 9668SOL    HW129903   0.335   6.995   5.581
 9668SOL    HW229904   0.350   7.011   5.743
 9669SOL     OW29905   3.469   6.972   0.290
 9669SOL    HW129906   3.406   6.950   0.365
 9669SOL    HW229907   3.441   6.923   0.207
 9670SOL     OW29908   0.424   0.350   6.504
 9670SOL    HW129909   0.502   0.402   6.538
 9670SOL    HW229910   0.433   0.254   6.532
 9671SOL     OW29911   1.371   5.216   5.884
 9671SOL    HW129912   1.314   5.134   5.887
 9671SOL    HW229913   1.467   5.189   5.884
 9672SOL     OW29914   0.108   3.593   4.810
 9672SOL    HW129915   0.150   3.661   4.750
 9672SOL    HW229916   0.015   3.623   4.835
 9673SOL     OW29917   2.397   4.245   1.090
 9673SOL    HW129918   2.429   4.238   1.184
 9673SOL    HW229919   2.361   4.156   1.060
 9674SOL     OW29920   3.065   6.386   3.844
 9674SOL    HW129921   3.077   6.334   3.760
 9674SOL    HW229922   3.122   6.346   3.916
 9675SOL     OW29923   4.802   3.834   1.635
 9675SOL    HW129924   4.890   3.819   1.680
 9675SOL    HW229925   4.769   3.926   1.657
 9676SOL     OW29926   1.497   3.008   5.517
 9676SOL    HW129927   1.534   3.027   5.426
 9676SOL    HW229928   1.479   3.093   5.565
 9677SOL     OW29929   6.623   5.325   0.473
 9677SOL    HW129930   6.705   5.367   0.434
 9677SOL    HW229931   6.593   5.378   0.552
 9678SOL     OW29932   3.676   3.661   4.810
 9678SOL    HW129933   3.582   3.634   4.833
 9678SOL    HW229934   3.704   3.736   4.870
 9679SOL     OW29935   1.678   1.150   5.129
 9679SOL    HW129936   1.673   1.200   5.216
 9679SOL    HW229937   1.588   1.146   5.087
 9680SOL     OW29938   4.237   6.026   3.116
 9680SOL    HW129939   4.204   6.120   3.130
 9680SOL    HW229940   4.230   6.002   3.020
 9681SOL     OW29941   1.797   1.919   2.518
 9681SOL    HW129942   1.779   1.824   2.545
 9681SOL    HW229943   1.862   1.960   2.581
 9682SOL     OW29944   5.262   5.686   5.110
 9682SOL    HW129945   5.305   5.658   5.024
 9682SOL    HW229946   5.290   5.625   5.183
 9683SOL     OW29947   2.887   6.407   1.369
 9683SOL    HW129948   2.803   6.456   1.346
 9683SOL    HW229949   2.946   6.466   1.425
 9684SOL     OW29950   1.116   4.068   5.687
 9684SOL    HW129951   1.038   4.081   5.626
 9684SOL    HW229952   1.115   4.139   5.757
 9685SOL     OW29953   3.753   4.840   1.492
 9685SOL    HW129954   3.695   4.782   1.436
 9685SOL    HW229955   3.711   4.930   1.502
 9686SOL     OW29956   6.950   1.957   5.659
 9686SOL    HW129957   6.876   1.964   5.726
 9686SOL    HW229958   6.933   1.880   5.598
 9687SOL     OW29959   6.106   0.501   2.369
 9687SOL    HW129960   6.064   0.591   2.379
 9687SOL    HW229961   6.204   0.512   2.351
 9688SOL     OW29962   1.031   4.291   1.307
 9688SOL    HW129963   0.948   4.284   1.364
 9688SOL    HW229964   1.013   4.353   1.231
 9689SOL     OW29965   1.128   6.464   0.961
 9689SOL    HW129966   1.094   6.393   0.900
 9689SOL    HW229967   1.124   6.431   1.056
 9690SOL     OW29968   5.757   5.439   5.165
 9690SOL    HW129969   5.846   5.396   5.149
 9690SOL    HW229970   5.765   5.538   5.153
 9691SOL     OW29971   3.273   3.254   1.755
 9691SOL    HW129972   3.237   3.226   1.844
 9691SOL    HW229973   3.371   3.236   1.751
 9692SOL     OW29974   4.555   5.364   0.617
 9692SOL    HW129975   4.564   5.399   0.524
 9692SOL    HW229976   4.642   5.376   0.665
 9693SOL     OW29977   5.239   4.085   4.052
 9693SOL    HW129978   5.215   4.174   4.011
 9693SOL    HW229979   5.297   4.034   3.989
 9694SOL     OW29980   3.281   6.212   1.949
 9694SOL    HW129981   3.227   6.154   2.009
 9694SOL    HW229982   3.230   6.295   1.928
 9695SOL     OW29983   0.254   2.477   3.715
 9695SOL    HW129984   0.202   2.412   3.771
 9695SOL    HW229985   0.342   2.436   3.690
 9696SOL     OW29986   5.688   1.853   2.593
 9696SOL    HW129987   5.740   1.923   2.543
 9696SOL    HW229988   5.678   1.882   2.688
 9697SOL     OW29989   0.020   6.027   0.074
 9697SOL    HW129990   0.090   5.959   0.097
 9697SOL    HW229991   0.039   6.113   0.123
 9698SOL     OW29992   5.632   3.683   0.029
 9698SOL    HW129993   5.675   3.731   6.979
 9698SOL    HW229994   5.682   3.598   0.046
 9699SOL     OW29995   0.989   5.259   0.479
 9699SOL    HW129996   1.015   5.352   0.506
 9699SOL    HW229997   1.042   5.232   0.399
 9700SOL     OW29998   5.739   6.556   4.796
 9700SOL    HW129999   5.791   6.504   4.728
 9700SOL    HW230000   5.721   6.497   4.875
 9701SOL     OW30001   4.617   3.098   6.200
 9701SOL    HW130002   4.637   3.065   6.108
 9701SOL    HW230003   4.672   3.179   6.220
 9702SOL     OW30004   3.166   2.974   1.311
 9702SOL    HW130005   3.178   3.049   1.375
 9702SOL    HW230006   3.153   2.888   1.361
 9703SOL     OW30007   6.150   3.799   5.118
 9703SOL    HW130008   6.205   3.794   5.035
 9703SOL    HW230009   6.056   3.769   5.098
 9704SOL     OW30010   2.106   4.403   2.691
 9704SOL    HW130011   2.144   4.316   2.659
 9704SOL    HW230012   2.173   4.476   2.675
 9705SOL     OW30013   5.910   4.176   5.713
 9705SOL    HW130014   5.827   4.203   5.762
 9705SOL    HW230015   5.975   4.252   5.714
 9706SOL     OW30016   1.468   1.839   1.922
 9706SOL    HW130017   1.391   1.788   1.883
 9706SOL    HW230018   1.455   1.850   2.020
 9707SOL     OW30019   6.191   4.754   2.455
 9707SOL    HW130020   6.205   4.762   2.553
 9707SOL    HW230021   6.272   4.713   2.413
 9708SOL     OW30022   2.130   0.737   1.712
 9708SOL    HW130023   2.070   0.815   1.728
 9708SOL    HW230024   2.225   0.768   1.714
 9709SOL     OW30025   5.432   2.541   2.191
 9709SOL    HW130026   5.389   2.454   2.167
 9709SOL    HW230027   5.530   2.528   2.199
 9710SOL     OW30028   6.346   5.416   4.841
 9710SOL    HW130029   6.408   5.491   4.820
 9710SOL    HW230030   6.251   5.444   4.824
 9711SOL     OW30031   4.101   6.717   7.016
 9711SOL    HW130032   4.110   6.655   0.068
 9711SOL    HW230033   4.045   6.675   6.945
 9712SOL     OW30034   6.201   2.373   0.466
 9712SOL    HW130035   6.185   2.275   0.475
 9712SOL    HW230036   6.142   2.411   0.395
 9713SOL     OW30037   1.947   6.559   3.907
 9713SOL    HW130038   1.865   6.589   3.858
 9713SOL    HW230039   1.933   6.466   3.941
 9714SOL     OW30040   3.110   4.873   4.852
 9714SOL    HW130041   3.031   4.857   4.793
 9714SOL    HW230042   3.078   4.885   4.947
 9715SOL     OW30043   6.060   4.198   0.736
 9715SOL    HW130044   6.117   4.139   0.793
 9715SOL    HW230045   6.019   4.144   0.662
 9716SOL     OW30046   2.862   4.914   6.900
 9716SOL    HW130047   2.865   4.825   6.854
 9716SOL    HW230048   2.956   4.944   6.918
 9717SOL     OW30049   4.182   0.977   5.795
 9717SOL    HW130050   4.256   1.040   5.770
 9717SOL    HW230051   4.150   0.928   5.714
 9718SOL     OW30052   3.400   1.520   0.335
 9718SOL    HW130053   3.485   1.468   0.334
 9718SOL    HW230054   3.323   1.458   0.322
 9719SOL     OW30055   4.563   6.296   5.124
 9719SOL    HW130056   4.576   6.197   5.133
 9719SOL    HW230057   4.535   6.318   5.031
 9720SOL     OW30058   1.789   4.274   3.003
 9720SOL    HW130059   1.821   4.214   2.929
 9720SOL    HW230060   1.738   4.220   3.070
 9721SOL     OW30061   1.060   2.301   0.483
 9721SOL    HW130062   1.124   2.298   0.559
 9721SOL    HW230063   0.969   2.328   0.517
 9722SOL     OW30064   3.873   2.870   5.111
 9722SOL    HW130065   3.931   2.790   5.128
 9722SOL    HW230066   3.792   2.867   5.169
 9723SOL     OW30067   6.259   5.060   4.326
 9723SOL    HW130068   6.292   5.024   4.413
 9723SOL    HW230069   6.325   5.038   4.254
 9724SOL     OW30070   0.824   6.033   0.371
 9724SOL    HW130071   0.914   5.994   0.352
 9724SOL    HW230072   0.765   6.021   0.291
 9725SOL     OW30073   2.841   5.270   5.328
 9725SOL    HW130074   2.871   5.231   5.414
 9725SOL    HW230075   2.918   5.317   5.284
 9726SOL     OW30076   6.051   1.146   4.352
 9726SOL    HW130077   5.971   1.124   4.408
 9726SOL    HW230078   6.030   1.223   4.292
 9727SOL     OW30079   0.975   1.411   6.749
 9727SOL    HW130080   1.064   1.366   6.743
 9727SOL    HW230081   0.903   1.344   6.731
 9728SOL     OW30082   5.265   0.274   6.025
 9728SOL    HW130083   5.236   0.370   6.020
 9728SOL    HW230084   5.245   0.237   6.115
 9729SOL     OW30085   0.488   4.956   3.352
 9729SOL    HW130086   0.512   4.886   3.419
 9729SOL    HW230087   0.571   5.002   3.320
 9730SOL     OW30088   0.572   4.425   3.141
 9730SOL    HW130089   0.626   4.456   3.062
 9730SOL    HW230090   0.481   4.396   3.109
 9731SOL     OW30091   5.156   3.907   3.031
 9731SOL    HW130092   5.119   3.989   2.986
 9731SOL    HW230093   5.092   3.831   3.018
 9732SOL     OW30094   1.392   3.035   2.354
 9732SOL    HW130095   1.300   3.062   2.384
 9732SOL    HW230096   1.453   3.114   2.361
 9733SOL     OW30097   6.486   5.370   2.630
 9733SOL    HW130098   6.432   5.411   2.557
 9733SOL    HW230099   6.567   5.427   2.647
 9734SOL     OW30100   6.098   0.011   6.829
 9734SOL    HW130101   6.141   6.950   6.802
 9734SOL    HW230102   6.154   0.087   6.797
 9735SOL     OW30103   0.951   1.796   2.252
 9735SOL    HW130104   0.922   1.777   2.346
 9735SOL    HW230105   1.007   1.880   2.251
 9736SOL     OW30106   4.634   2.421   5.225
 9736SOL    HW130107   4.697   2.497   5.208
 9736SOL    HW230108   4.569   2.447   5.296
 9737SOL     OW30109   6.296   2.125   2.509
 9737SOL    HW130110   6.212   2.074   2.489
 9737SOL    HW230111   6.348   2.139   2.425
 9738SOL     OW30112   2.027   5.609   1.298
 9738SOL    HW130113   2.100   5.541   1.305
 9738SOL    HW230114   1.952   5.584   1.359
 9739SOL     OW30115   5.367   0.096   0.396
 9739SOL    HW130116   5.381   0.112   0.298
 9739SOL    HW230117   5.402   0.174   0.448
 9740SOL     OW30118   6.943   0.475   2.963
 9740SOL    HW130119   6.956   0.469   2.864
 9740SOL    HW230120   6.846   0.487   2.983
 9741SOL     OW30121   3.101   1.339   4.705
 9741SOL    HW130122   3.092   1.298   4.796
 9741SOL    HW230123   3.133   1.270   4.640
 9742SOL     OW30124   3.882   1.843   6.131
 9742SOL    HW130125   3.885   1.929   6.182
 9742SOL    HW230126   3.793   1.799   6.146
 9743SOL     OW30127   6.352   2.928   3.384
 9743SOL    HW130128   6.449   2.914   3.401
 9743SOL    HW230129   6.298   2.873   3.448
 9744SOL     OW30130   1.756   0.142   3.466
 9744SOL    HW130131   1.828   0.075   3.485
 9744SOL    HW230132   1.797   0.223   3.422
 9745SOL     OW30133   6.168   0.956   5.705
 9745SOL    HW130134   6.135   0.912   5.622
 9745SOL    HW230135   6.257   0.916   5.730
 9746SOL     OW30136   4.946   5.512   6.077
 9746SOL    HW130137   5.043   5.522   6.102
 9746SOL    HW230138   4.938   5.499   5.978
 9747SOL     OW30139   2.316   2.528   2.248
 9747SOL    HW130140   2.311   2.432   2.276
 9747SOL    HW230141   2.405   2.546   2.206
 9748SOL     OW30142   1.215   0.719   2.971
 9748SOL    HW130143   1.250   0.672   2.890
 9748SOL    HW230144   1.119   0.694   2.986
 9749SOL     OW30145   0.066   1.743   2.780
 9749SOL    HW130146   0.063   1.651   2.820
 9749SOL    HW230147   0.137   1.745   2.709
 9750SOL     OW30148   6.439   4.713   3.753
 9750SOL    HW130149   6.509   4.761   3.805
 9750SOL    HW230150   6.400   4.775   3.684
 9751SOL     OW30151   2.548   1.217   1.867
 9751SOL    HW130152   2.453   1.197   1.889
 9751SOL    HW230153   2.576   1.164   1.786
 9752SOL     OW30154   4.091   3.099   0.658
 9752SOL    HW130155   4.030   3.088   0.579
 9752SOL    HW230156   4.038   3.131   0.736
 9753SOL     OW30157   6.135   6.267   5.604
 9753SOL    HW130158   6.070   6.215   5.548
 9753SOL    HW230159   6.086   6.342   5.649
 9754SOL     OW30160   3.796   0.246   1.485
 9754SOL    HW130161   3.770   0.227   1.391
 9754SOL    HW230162   3.883   0.296   1.486
 9755SOL     OW30163   3.378   3.908   5.940
 9755SOL    HW130164   3.447   3.963   5.988
 9755SOL    HW230165   3.411   3.815   5.928
 9756SOL     OW30166   5.736   0.964   6.692
 9756SOL    HW130167   5.807   1.031   6.671
 9756SOL    HW230168   5.746   0.885   6.632
 9757SOL     OW30169   4.889   4.033   3.971
 9757SOL    HW130170   4.941   4.096   4.028
 9757SOL    HW230171   4.861   4.078   3.887
 9758SOL     OW30172   2.302   0.569   0.521
 9758SOL    HW130173   2.352   0.603   0.600
 9758SOL    HW230174   2.287   0.470   0.532
 9759SOL     OW30175   1.726   2.036   0.692
 9759SOL    HW130176   1.657   2.083   0.636
 9759SOL    HW230177   1.811   2.030   0.641
 9760SOL     OW30178   4.696   2.241   0.345
 9760SOL    HW130179   4.608   2.207   0.315
 9760SOL    HW230180   4.737   2.297   0.273
 9761SOL     OW30181   1.797   1.204   1.586
 9761SOL    HW130182   1.864   1.277   1.593
 9761SOL    HW230183   1.721   1.222   1.648
 9762SOL     OW30184   2.986   1.784   5.589
 9762SOL    HW130185   3.051   1.857   5.568
 9762SOL    HW230186   2.942   1.804   5.677
 9763SOL     OW30187   6.421   1.222   1.645
 9763SOL    HW130188   6.454   1.155   1.712
 9763SOL    HW230189   6.326   1.245   1.665
 9764SOL     OW30190   5.444   1.923   2.448
 9764SOL    HW130191   5.360   1.889   2.491
 9764SOL    HW230192   5.521   1.867   2.478
 9765SOL     OW30193   6.999   1.534   2.110
 9765SOL    HW130194   0.063   1.566   2.081
 9765SOL    HW230195   6.932   1.553   2.039
 9766SOL     OW30196   2.128   0.995   3.864
 9766SOL    HW130197   2.113   1.085   3.905
 9766SOL    HW230198   2.129   1.003   3.765
 9767SOL     OW30199   1.921   3.036   5.892
 9767SOL    HW130200   1.957   3.107   5.953
 9767SOL    HW230201   1.952   2.946   5.924
 9768SOL     OW30202   5.937   2.353   1.030
 9768SOL    HW130203   6.012   2.374   1.092
 9768SOL    HW230204   5.886   2.274   1.065
 9769SOL     OW30205   2.763   1.746   5.002
 9769SOL    HW130206   2.740   1.714   4.910
 9769SOL    HW230207   2.788   1.843   4.998
 9770SOL     OW30208   3.254   2.279   6.413
 9770SOL    HW130209   3.230   2.202   6.472
 9770SOL    HW230210   3.238   2.364   6.462
 9771SOL     OW30211   2.490   6.459   2.354
 9771SOL    HW130212   2.529   6.403   2.426
 9771SOL    HW230213   2.536   6.548   2.352
 9772SOL     OW30214   1.253   6.118   1.595
 9772SOL    HW130215   1.153   6.119   1.595
 9772SOL    HW230216   1.286   6.024   1.603
 9773SOL     OW30217   5.293   5.427   2.081
 9773SOL    HW130218   5.370   5.363   2.077
 9773SOL    HW230219   5.316   5.503   2.142
 9774SOL     OW30220   0.554   5.652   4.220
 9774SOL    HW130221   0.652   5.641   4.238
 9774SOL    HW230222   0.539   5.735   4.167
 9775SOL     OW30223   2.434   0.879   3.706
 9775SOL    HW130224   2.527   0.860   3.674
 9775SOL    HW230225   2.426   0.976   3.730
 9776SOL     OW30226   1.710   5.545   6.440
 9776SOL    HW130227   1.652   5.509   6.513
 9776SOL    HW230228   1.719   5.476   6.368
 9777SOL     OW30229   5.395   0.101   6.530
 9777SOL    HW130230   5.476   0.045   6.545
 9777SOL    HW230231   5.372   0.150   6.614
 9778SOL     OW30232   0.593   2.048   4.621
 9778SOL    HW130233   0.641   2.116   4.566
 9778SOL    HW230234   0.544   2.093   4.696
 9779SOL     OW30235   0.966   1.751   3.561
 9779SOL    HW130236   0.880   1.802   3.564
 9779SOL    HW230237   0.950   1.658   3.593
 9780SOL     OW30238   1.830   1.863   1.192
 9780SOL    HW130239   1.743   1.911   1.205
 9780SOL    HW230240   1.838   1.835   1.096
 9781SOL     OW30241   1.381   3.521   3.255
 9781SOL    HW130242   1.447   3.446   3.262
 9781SOL    HW230243   1.353   3.531   3.159
 9782SOL     OW30244   0.617   2.343   0.672
 9782SOL    HW130245   0.647   2.364   0.765
 9782SOL    HW230246   0.575   2.252   0.670
 9783SOL     OW30247   3.535   1.271   3.444
 9783SOL    HW130248   3.530   1.301   3.540
 9783SOL    HW230249   3.562   1.348   3.387
 9784SOL     OW30250   2.544   1.810   0.317
 9784SOL    HW130251   2.564   1.871   0.240
 9784SOL    HW230252   2.606   1.829   0.393
 9785SOL     OW30253   0.025   2.375   4.536
 9785SOL    HW130254   7.008   2.465   4.541
 9785SOL    HW230255   0.020   2.331   4.626
 9786SOL     OW30256   2.342   4.671   0.842
 9786SOL    HW130257   2.253   4.714   0.827
 9786SOL    HW230258   2.359   4.604   0.770
 9787SOL     OW30259   3.426   3.231   2.572
 9787SOL    HW130260   3.384   3.144   2.546
 9787SOL    HW230261   3.394   3.303   2.510
 9788SOL     OW30262   0.518   5.735   1.941
 9788SOL    HW130263   0.498   5.731   2.038
 9788SOL    HW230264   0.531   5.642   1.905
 9789SOL     OW30265   3.109   6.813   6.595
 9789SOL    HW130266   3.146   6.889   6.541
 9789SOL    HW230267   3.155   6.810   6.683
 9790SOL     OW30268   0.061   3.671   4.280
 9790SOL    HW130269   0.050   3.592   4.219
 9790SOL    HW230270   0.019   3.652   4.368
 9791SOL     OW30271   0.817   6.420   0.784
 9791SOL    HW130272   0.815   6.453   0.878
 9791SOL    HW230273   0.911   6.417   0.752
 9792SOL     OW30274   3.658   5.450   1.020
 9792SOL    HW130275   3.695   5.398   1.097
 9792SOL    HW230276   3.670   5.399   0.935
 9793SOL     OW30277   4.765   1.399   2.554
 9793SOL    HW130278   4.784   1.487   2.511
 9793SOL    HW230279   4.743   1.332   2.483
 9794SOL     OW30280   4.741   4.762   4.791
 9794SOL    HW130281   4.692   4.845   4.763
 9794SOL    HW230282   4.678   4.685   4.792
 9795SOL     OW30283   0.936   2.931   3.589
 9795SOL    HW130284   0.957   2.909   3.684
 9795SOL    HW230285   0.864   3.001   3.586
 9796SOL     OW30286   3.407   4.136   3.388
 9796SOL    HW130287   3.418   4.207   3.318
 9796SOL    HW230288   3.497   4.109   3.422
 9797SOL     OW30289   2.960   6.272   6.593
 9797SOL    HW130290   2.965   6.201   6.523
 9797SOL    HW230291   2.926   6.357   6.552
 9798SOL     OW30292   1.429   2.755   1.377
 9798SOL    HW130293   1.499   2.754   1.448
 9798SOL    HW230294   1.431   2.669   1.326
 9799SOL     OW30295   3.191   5.907   6.466
 9799SOL    HW130296   3.111   5.897   6.525
 9799SOL    HW230297   3.186   5.840   6.391
 9800SOL     OW30298   5.347   2.878   4.003
 9800SOL    HW130299   5.280   2.854   3.932
 9800SOL    HW230300   5.352   2.805   4.071
 9801SOL     OW30301   6.079   4.927   6.161
 9801SOL    HW130302   5.997   4.905   6.214
 9801SOL    HW230303   6.127   4.843   6.137
 9802SOL     OW30304   4.365   5.215   1.348
 9802SOL    HW130305   4.392   5.165   1.266
 9802SOL    HW230306   4.268   5.240   1.341
 9803SOL     OW30307   1.216   3.872   6.424
 9803SOL    HW130308   1.143   3.940   6.414
 9803SOL    HW230309   1.268   3.892   6.507
 9804SOL     OW30310   6.613   5.480   3.036
 9804SOL    HW130311   6.649   5.574   3.041
 9804SOL    HW230312   6.532   5.472   3.094
 9805SOL     OW30313   0.403   6.640   3.770
 9805SOL    HW130314   0.395   6.607   3.676
 9805SOL    HW230315   0.323   6.610   3.822
 9806SOL     OW30316   3.884   2.766   6.057
 9806SOL    HW130317   3.949   2.731   6.125
 9806SOL    HW230318   3.908   2.730   5.967
 9807SOL     OW30319   2.902   3.464   2.247
 9807SOL    HW130320   2.805   3.473   2.272
 9807SOL    HW230321   2.941   3.384   2.292
 9808SOL     OW30322   4.807   6.430   3.944
 9808SOL    HW130323   4.857   6.514   3.924
 9808SOL    HW230324   4.710   6.443   3.923
 9809SOL     OW30325   0.293   2.989   0.628
 9809SOL    HW130326   0.228   3.062   0.650
 9809SOL    HW230327   0.377   3.002   0.680
 9810SOL     OW30328   2.286   1.623   5.668
 9810SOL    HW130329   2.354   1.673   5.613
 9810SOL    HW230330   2.330   1.545   5.712
 9811SOL     OW30331   6.667   3.778   4.285
 9811SOL    HW130332   6.676   3.873   4.314
 9811SOL    HW230333   6.708   3.767   4.194
 9812SOL     OW30334   2.454   6.771   4.502
 9812SOL    HW130335   2.377   6.833   4.512
 9812SOL    HW230336   2.495   6.783   4.412
 9813SOL     OW30337   5.366   2.285   0.581
 9813SOL    HW130338   5.342   2.365   0.637
 9813SOL    HW230339   5.294   2.271   0.513
 9814SOL     OW30340   5.861   1.716   6.934
 9814SOL    HW130341   5.835   1.639   6.993
 9814SOL    HW230342   5.849   1.801   6.983
 9815SOL     OW30343   4.722   2.912   4.768
 9815SOL    HW130344   4.706   3.004   4.733
 9815SOL    HW230345   4.745   2.917   4.865
 9816SOL     OW30346   1.298   0.554   0.516
 9816SOL    HW130347   1.376   0.518   0.568
 9816SOL    HW230348   1.223   0.575   0.578
 9817SOL     OW30349   0.384   0.307   3.138
 9817SOL    HW130350   0.387   0.370   3.216
 9817SOL    HW230351   0.472   0.308   3.091
 9818SOL     OW30352   6.029   1.800   4.682
 9818SOL    HW130353   6.079   1.861   4.743
 9818SOL    HW230354   5.971   1.854   4.621
 9819SOL     OW30355   3.852   1.678   3.385
 9819SOL    HW130356   3.873   1.713   3.294
 9819SOL    HW230357   3.827   1.581   3.379
 9820SOL     OW30358   3.364   4.015   5.680
 9820SOL    HW130359   3.365   3.938   5.617
 9820SOL    HW230360   3.364   3.982   5.775
 9821SOL     OW30361   5.539   5.656   6.926
 9821SOL    HW130362   5.605   5.710   6.977
 9821SOL    HW230363   5.448   5.666   6.968
 9822SOL     OW30364   0.446   6.941   3.033
 9822SOL    HW130365   0.477   7.003   3.106
 9822SOL    HW230366   0.353   6.967   3.006
 9823SOL     OW30367   3.453   0.758   2.205
 9823SOL    HW130368   3.362   0.721   2.190
 9823SOL    HW230369   3.446   0.851   2.240
 9824SOL     OW30370   0.750   4.017   5.331
 9824SOL    HW130371   0.767   3.919   5.320
 9824SOL    HW230372   0.821   4.057   5.388
 9825SOL     OW30373   3.701   5.058   5.527
 9825SOL    HW130374   3.749   5.059   5.439
 9825SOL    HW230375   3.604   5.035   5.511
 9826SOL     OW30376   4.371   5.972   6.037
 9826SOL    HW130377   4.330   5.910   6.103
 9826SOL    HW230378   4.339   5.949   5.945
 9827SOL     OW30379   1.640   4.140   4.799
 9827SOL    HW130380   1.609   4.232   4.821
 9827SOL    HW230381   1.708   4.111   4.866
 9828SOL     OW30382   3.531   2.929   6.343
 9828SOL    HW130383   3.599   2.946   6.414
 9828SOL    HW230384   3.477   3.013   6.329
 9829SOL     OW30385   3.450   6.221   0.554
 9829SOL    HW130386   3.387   6.144   0.542
 9829SOL    HW230387   3.534   6.204   0.504
 9830SOL     OW30388   6.076   1.728   1.140
 9830SOL    HW130389   6.046   1.813   1.182
 9830SOL    HW230390   6.116   1.747   1.050
 9831SOL     OW30391   1.052   6.174   1.302
 9831SOL    HW130392   1.026   6.146   1.394
 9831SOL    HW230393   1.137   6.128   1.276
 9832SOL     OW30394   4.271   5.055   2.766
 9832SOL    HW130395   4.370   5.051   2.780
 9832SOL    HW230396   4.237   4.964   2.743
 9833SOL     OW30397   3.432   3.414   4.935
 9833SOL    HW130398   3.362   3.431   5.004
 9833SOL    HW230399   3.509   3.365   4.977
 9834SOL     OW30400   2.416   3.685   5.637
 9834SOL    HW130401   2.383   3.599   5.599
 9834SOL    HW230402   2.478   3.728   5.571
 9835SOL     OW30403   4.568   1.724   3.839
 9835SOL    HW130404   4.613   1.766   3.918
 9835SOL    HW230405   4.517   1.794   3.789
 9836SOL     OW30406   5.683   3.425   3.410
 9836SOL    HW130407   5.621   3.457   3.339
 9836SOL    HW230408   5.777   3.425   3.375
 9837SOL     OW30409   2.056   0.233   3.826
 9837SOL    HW130410   2.133   0.289   3.795
 9837SOL    HW230411   2.071   0.137   3.800
 9838SOL     OW30412   1.099   6.543   5.865
 9838SOL    HW130413   1.066   6.616   5.805
 9838SOL    HW230414   1.061   6.555   5.956
 9839SOL     OW30415   6.992   1.525   2.597
 9839SOL    HW130416   6.963   1.582   2.520
 9839SOL    HW230417   0.046   1.471   2.569
 9840SOL     OW30418   0.369   0.427   0.630
 9840SOL    HW130419   0.384   0.343   0.577
 9840SOL    HW230420   0.456   0.461   0.665
 9841SOL     OW30421   1.645   4.235   4.529
 9841SOL    HW130422   1.640   4.192   4.619
 9841SOL    HW230423   1.554   4.267   4.503
 9842SOL     OW30424   3.548   3.132   3.720
 9842SOL    HW130425   3.577   3.081   3.800
 9842SOL    HW230426   3.527   3.227   3.747
 9843SOL     OW30427   6.466   2.316   1.374
 9843SOL    HW130428   6.558   2.297   1.339
 9843SOL    HW230429   6.470   2.394   1.438
 9844SOL     OW30430   4.137   6.958   2.931
 9844SOL    HW130431   4.201   0.008   2.942
 9844SOL    HW230432   4.081   6.973   2.850
 9845SOL     OW30433   2.176   1.561   5.080
 9845SOL    HW130434   2.190   1.636   5.144
 9845SOL    HW230435   2.258   1.549   5.024
 9846SOL     OW30436   3.007   3.859   3.628
 9846SOL    HW130437   2.977   3.794   3.697
 9846SOL    HW230438   3.035   3.944   3.672
 9847SOL     OW30439   2.645   2.907   6.170
 9847SOL    HW130440   2.568   2.868   6.120
 9847SOL    HW230441   2.612   2.980   6.229
 9848SOL     OW30442   3.856   2.226   6.772
 9848SOL    HW130443   3.817   2.191   6.687
 9848SOL    HW230444   3.838   2.324   6.778
 9849SOL     OW30445   5.739   0.339   6.548
 9849SOL    HW130446   5.758   0.250   6.507
 9849SOL    HW230447   5.813   0.403   6.526
 9850SOL     OW30448   4.714   5.943   2.280
 9850SOL    HW130449   4.647   5.879   2.316
 9850SOL    HW230450   4.791   5.950   2.344
 9851SOL     OW30451   4.482   2.056   5.028
 9851SOL    HW130452   4.527   2.126   5.082
 9851SOL    HW230453   4.451   2.095   4.941
 9852SOL     OW30454   4.317   1.532   3.119
 9852SOL    HW130455   4.321   1.594   3.040
 9852SOL    HW230456   4.271   1.578   3.195
 9853SOL     OW30457   4.862   3.848   3.016
 9853SOL    HW130458   4.891   3.812   3.105
 9853SOL    HW230459   4.788   3.914   3.030
 9854SOL     OW30460   6.071   4.904   5.381
 9854SOL    HW130461   6.041   4.986   5.431
 9854SOL    HW230462   6.057   4.918   5.283
 9855SOL     OW30463   0.655   4.235   1.259
 9855SOL    HW130464   0.576   4.247   1.318
 9855SOL    HW230465   0.651   4.301   1.184
 9856SOL     OW30466   4.140   4.617   6.895
 9856SOL    HW130467   4.141   4.613   6.795
 9856SOL    HW230468   4.139   4.712   6.924
 9857SOL     OW30469   5.371   1.870   3.010
 9857SOL    HW130470   5.274   1.895   3.011
 9857SOL    HW230471   5.381   1.776   2.978
 9858SOL     OW30472   5.060   0.779   1.525
 9858SOL    HW130473   5.036   0.810   1.433
 9858SOL    HW230474   4.998   0.818   1.592
 9859SOL     OW30475   6.503   0.059   1.377
 9859SOL    HW130476   6.586   0.111   1.396
 9859SOL    HW230477   6.512   6.992   1.413
 9860SOL     OW30478   0.718   1.172   1.400
 9860SOL    HW130479   0.632   1.215   1.373
 9860SOL    HW230480   0.794   1.231   1.375
 9861SOL     OW30481   3.877   6.690   4.533
 9861SOL    HW130482   3.790   6.727   4.501
 9861SOL    HW230483   3.880   6.592   4.514
 9862SOL     OW30484   2.624   3.723   0.638
 9862SOL    HW130485   2.570   3.705   0.720
 9862SOL    HW230486   2.565   3.725   0.558
 9863SOL     OW30487   2.946   6.913   2.784
 9863SOL    HW130488   2.876   6.948   2.722
 9863SOL    HW230489   3.036   6.924   2.743
 9864SOL     OW30490   4.180   6.099   3.621
 9864SOL    HW130491   4.103   6.041   3.598
 9864SOL    HW230492   4.211   6.147   3.539
 9865SOL     OW30493   0.917   1.128   3.572
 9865SOL    HW130494   0.955   1.035   3.567
 9865SOL    HW230495   0.915   1.168   3.481
 9866SOL     OW30496   5.120   4.419   4.773
 9866SOL    HW130497   5.065   4.484   4.824
 9866SOL    HW230498   5.161   4.464   4.694
 9867SOL     OW30499   4.302   0.840   1.149
 9867SOL    HW130500   4.352   0.906   1.206
 9867SOL    HW230501   4.329   0.853   1.053
 9868SOL     OW30502   1.613   4.735   6.079
 9868SOL    HW130503   1.603   4.699   5.986
 9868SOL    HW230504   1.555   4.683   6.141
 9869SOL     OW30505   2.060   3.486   3.094
 9869SOL    HW130506   2.007   3.456   3.173
 9869SOL    HW230507   2.087   3.407   3.040
 9870SOL     OW30508   4.192   5.604   2.229
 9870SOL    HW130509   4.182   5.591   2.327
 9870SOL    HW230510   4.118   5.556   2.181
 9871SOL     OW30511   0.880   6.680   6.023
 9871SOL    HW130512   0.835   6.596   6.052
 9871SOL    HW230513   0.833   6.717   5.943
 9872SOL     OW30514   2.476   5.177   3.059
 9872SOL    HW130515   2.474   5.196   2.961
 9872SOL    HW230516   2.383   5.170   3.094
 9873SOL     OW30517   2.039   2.395   1.265
 9873SOL    HW130518   2.078   2.469   1.320
 9873SOL    HW230519   1.954   2.426   1.223
 9874SOL     OW30520   0.548   2.254   4.270
 9874SOL    HW130521   0.501   2.307   4.200
 9874SOL    HW230522   0.535   2.296   4.360
 9875SOL     OW30523   0.037   6.806   2.328
 9875SOL    HW130524   0.068   6.890   2.284
 9875SOL    HW230525   0.116   6.750   2.352
 9876SOL     OW30526   0.126   0.600   2.635
 9876SOL    HW130527   0.204   0.626   2.691
 9876SOL    HW230528   0.074   0.681   2.609
 9877SOL     OW30529   1.703   5.883   2.479
 9877SOL    HW130530   1.791   5.843   2.452
 9877SOL    HW230531   1.703   5.981   2.459
 9878SOL     OW30532   2.327   5.383   5.188
 9878SOL    HW130533   2.257   5.326   5.231
 9878SOL    HW230534   2.336   5.356   5.092
 9879SOL     OW30535   5.564   5.170   4.951
 9879SOL    HW130536   5.481   5.115   4.960
 9879SOL    HW230537   5.541   5.259   4.913
 9880SOL     OW30538   1.709   2.734   5.333
 9880SOL    HW130539   1.684   2.678   5.411
 9880SOL    HW230540   1.653   2.817   5.332
 9881SOL     OW30541   2.135   2.091   4.978
 9881SOL    HW130542   2.220   2.130   4.944
 9881SOL    HW230543   2.058   2.128   4.925
 9882SOL     OW30544   1.195   1.988   3.810
 9882SOL    HW130545   1.272   2.019   3.755
 9882SOL    HW230546   1.224   1.978   3.905
 9883SOL     OW30547   0.788   6.151   0.676
 9883SOL    HW130548   0.832   6.237   0.703
 9883SOL    HW230549   0.762   6.156   0.580
 9884SOL     OW30550   3.784   1.490   2.930
 9884SOL    HW130551   3.837   1.537   2.860
 9884SOL    HW230552   3.688   1.485   2.902
 9885SOL     OW30553   0.468   3.432   5.541
 9885SOL    HW130554   0.483   3.454   5.637
 9885SOL    HW230555   0.556   3.413   5.497
 9886SOL     OW30556   0.662   4.616   2.104
 9886SOL    HW130557   0.672   4.517   2.095
 9886SOL    HW230558   0.732   4.661   2.049
 9887SOL     OW30559   3.513   1.487   6.241
 9887SOL    HW130560   3.439   1.433   6.200
 9887SOL    HW230561   3.485   1.517   6.332
 9888SOL     OW30562   0.212   4.589   0.804
 9888SOL    HW130563   0.120   4.552   0.788
 9888SOL    HW230564   0.233   4.658   0.735
 9889SOL     OW30565   6.571   4.956   0.949
 9889SOL    HW130566   6.658   4.998   0.921
 9889SOL    HW230567   6.506   5.028   0.975
 9890SOL     OW30568   1.767   2.264   0.016
 9890SOL    HW130569   1.863   2.289   0.004
 9890SOL    HW230570   1.708   2.341   7.016
 9891SOL     OW30571   5.526   2.684   1.069
 9891SOL    HW130572   5.594   2.651   1.135
 9891SOL    HW230573   5.459   2.741   1.116
 9892SOL     OW30574   6.538   5.682   0.353
 9892SOL    HW130575   6.441   5.668   0.332
 9892SOL    HW230576   6.593   5.650   0.276
 9893SOL     OW30577   1.460   0.379   0.782
 9893SOL    HW130578   1.388   0.414   0.841
 9893SOL    HW230579   1.483   0.286   0.809
 9894SOL     OW30580   1.931   1.877   1.447
 9894SOL    HW130581   1.904   1.872   1.351
 9894SOL    HW230582   1.987   1.959   1.461
 9895SOL     OW30583   5.492   3.395   5.713
 9895SOL    HW130584   5.569   3.360   5.661
 9895SOL    HW230585   5.446   3.320   5.761
 9896SOL     OW30586   5.984   6.888   5.937
 9896SOL    HW130587   5.941   6.886   5.847
 9896SOL    HW230588   5.989   6.983   5.969
 9897SOL     OW30589   5.835   5.538   3.516
 9897SOL    HW130590   5.747   5.543   3.469
 9897SOL    HW230591   5.874   5.446   3.506
 9898SOL     OW30592   2.394   5.592   6.196
 9898SOL    HW130593   2.465   5.589   6.126
 9898SOL    HW230594   2.365   5.498   6.218
 9899SOL     OW30595   0.094   5.646   0.352
 9899SOL    HW130596   0.182   5.636   0.306
 9899SOL    HW230597   0.102   5.715   0.424
 9900SOL     OW30598   1.684   3.780   3.487
 9900SOL    HW130599   1.618   3.726   3.434
 9900SOL    HW230600   1.648   3.872   3.502
 9901SOL     OW30601   2.833   1.665   6.001
 9901SOL    HW130602   2.915   1.622   5.964
 9901SOL    HW230603   2.783   1.711   5.928
 9902SOL     OW30604   3.105   4.970   0.014
 9902SOL    HW130605   3.110   5.049   0.074
 9902SOL    HW230606   3.165   4.984   6.961
 9903SOL     OW30607   4.850   0.779   1.697
 9903SOL    HW130608   4.868   0.710   1.767
 9903SOL    HW230609   4.751   0.785   1.682
 9904SOL     OW30610   0.801   3.287   6.648
 9904SOL    HW130611   0.832   3.201   6.689
 9904SOL    HW230612   0.708   3.275   6.613
 9905SOL     OW30613   2.867   0.552   6.783
 9905SOL    HW130614   2.885   0.641   6.741
 9905SOL    HW230615   2.952   0.502   6.797
 9906SOL     OW30616   3.006   3.425   1.996
 9906SOL    HW130617   3.046   3.335   2.016
 9906SOL    HW230618   2.960   3.459   2.077
 9907SOL     OW30619   6.532   0.923   0.384
 9907SOL    HW130620   6.627   0.933   0.353
 9907SOL    HW230621   6.477   0.997   0.347
 9908SOL     OW30622   5.725   1.627   3.958
 9908SOL    HW130623   5.713   1.595   4.052
 9908SOL    HW230624   5.822   1.625   3.934
 9909SOL     OW30625   3.689   0.408   3.693
 9909SOL    HW130626   3.684   0.504   3.720
 9909SOL    HW230627   3.771   0.366   3.734
 9910SOL     OW30628   0.807   3.742   2.805
 9910SOL    HW130629   0.760   3.660   2.838
 9910SOL    HW230630   0.887   3.715   2.751
 9911SOL     OW30631   3.505   6.522   2.273
 9911SOL    HW130632   3.540   6.495   2.183
 9911SOL    HW230633   3.579   6.561   2.327
 9912SOL     OW30634   3.618   1.836   1.752
 9912SOL    HW130635   3.670   1.838   1.667
 9912SOL    HW230636   3.565   1.751   1.757
 9913SOL     OW30637   6.433   4.423   0.547
 9913SOL    HW130638   6.430   4.523   0.545
 9913SOL    HW230639   6.517   4.392   0.503
 9914SOL     OW30640   5.306   2.450   5.127
 9914SOL    HW130641   5.244   2.479   5.200
 9914SOL    HW230642   5.399   2.443   5.163
 9915SOL     OW30643   5.434   0.678   3.720
 9915SOL    HW130644   5.370   0.709   3.650
 9915SOL    HW230645   5.525   0.716   3.702
 9916SOL     OW30646   2.083   2.888   3.193
 9916SOL    HW130647   2.165   2.880   3.250
 9916SOL    HW230648   2.064   2.799   3.150
 9917SOL     OW30649   5.866   3.897   0.039
 9917SOL    HW130650   5.914   3.947   0.112
 9917SOL    HW230651   5.803   3.831   0.080
 9918SOL     OW30652   3.254   1.641   3.118
 9918SOL    HW130653   3.207   1.667   3.034
 9918SOL    HW230654   3.254   1.719   3.181
 9919SOL     OW30655   6.091   5.126   1.166
 9919SOL    HW130656   6.030   5.164   1.235
 9919SOL    HW230657   6.068   5.030   1.151
 9920SOL     OW30658   4.787   1.834   1.771
 9920SOL    HW130659   4.797   1.926   1.811
 9920SOL    HW230660   4.690   1.814   1.759
 9921SOL     OW30661   4.819   6.264   6.539
 9921SOL    HW130662   4.859   6.178   6.571
 9921SOL    HW230663   4.864   6.292   6.454
 9922SOL     OW30664   2.098   4.811   0.956
 9922SOL    HW130665   2.076   4.872   1.032
 9922SOL    HW230666   2.044   4.727   0.963
 9923SOL     OW30667   4.976   4.625   0.163
 9923SOL    HW130668   5.038   4.607   0.240
 9923SOL    HW230669   5.001   4.566   0.086
 9924SOL     OW30670   6.223   2.298   5.022
 9924SOL    HW130671   6.277   2.252   4.951
 9924SOL    HW230672   6.160   2.363   4.979
 9925SOL     OW30673   6.819   3.278   3.722
 9925SOL    HW130674   6.781   3.247   3.635
 9925SOL    HW230675   6.892   3.217   3.750
 9926SOL     OW30676   3.342   3.091   0.474
 9926SOL    HW130677   3.394   3.175   0.486
 9926SOL    HW230678   3.382   3.019   0.531
 9927SOL     OW30679   0.209   0.271   1.263
 9927SOL    HW130680   0.256   0.183   1.269
 9927SOL    HW230681   0.273   0.342   1.234
 9928SOL     OW30682   5.055   6.382   1.821
 9928SOL    HW130683   5.069   6.287   1.848
 9928SOL    HW230684   5.015   6.385   1.730
 9929SOL     OW30685   2.527   5.215   4.808
 9929SOL    HW130686   2.431   5.227   4.833
 9929SOL    HW230687   2.575   5.167   4.882
 9930SOL     OW30688   6.397   6.835   4.673
 9930SOL    HW130689   6.382   6.891   4.755
 9930SOL    HW230690   6.466   6.765   4.693
 9931SOL     OW30691   1.035   4.744   4.618
 9931SOL    HW130692   0.936   4.737   4.632
 9931SOL    HW230693   1.071   4.819   4.674
 9932SOL     OW30694   1.950   5.089   6.606
 9932SOL    HW130695   1.907   5.135   6.529
 9932SOL    HW230696   2.021   5.027   6.573
 9933SOL     OW30697   1.069   5.124   3.371
 9933SOL    HW130698   1.019   5.039   3.355
 9933SOL    HW230699   1.005   5.197   3.392
 9934SOL     OW30700   5.859   1.459   5.514
 9934SOL    HW130701   5.879   1.449   5.417
 9934SOL    HW230702   5.764   1.488   5.526
 9935SOL     OW30703   3.407   6.805   0.088
 9935SOL    HW130704   3.479   6.847   0.032
 9935SOL    HW230705   3.319   6.819   0.044
 9936SOL     OW30706   0.050   5.053   6.157
 9936SOL    HW130707   0.086   5.098   6.076
 9936SOL    HW230708   0.103   4.970   6.176
 9937SOL     OW30709   6.570   1.638   6.307
 9937SOL    HW130710   6.631   1.653   6.385
 9937SOL    HW230711   6.625   1.628   6.224
 9938SOL     OW30712   6.968   5.128   2.909
 9938SOL    HW130713   6.944   5.225   2.917
 9938SOL    HW230714   0.011   5.117   2.837
 9939SOL     OW30715   4.082   1.981   0.365
 9939SOL    HW130716   4.009   1.913   0.377
 9939SOL    HW230717   4.100   1.992   0.267
 9940SOL     OW30718   1.001   0.968   0.970
 9940SOL    HW130719   1.044   1.056   0.991
 9940SOL    HW230720   0.903   0.973   0.991
 9941SOL     OW30721   3.215   3.694   5.054
 9941SOL    HW130722   3.231   3.752   5.134
 9941SOL    HW230723   3.290   3.706   4.989
 9942SOL     OW30724   2.480   5.204   2.796
 9942SOL    HW130725   2.463   5.298   2.767
 9942SOL    HW230726   2.407   5.145   2.762
 9943SOL     OW30727   6.820   5.928   5.530
 9943SOL    HW130728   6.729   5.967   5.544
 9943SOL    HW230729   6.876   5.947   5.611
 9944SOL     OW30730   2.155   4.915   6.059
 9944SOL    HW130731   2.126   4.999   6.105
 9944SOL    HW230732   2.125   4.918   5.963
 9945SOL     OW30733   6.214   5.790   6.928
 9945SOL    HW130734   6.211   5.811   7.026
 9945SOL    HW230735   6.296   5.737   6.908
 9946SOL     OW30736   4.923   1.021   4.734
 9946SOL    HW130737   4.883   0.999   4.645
 9946SOL    HW230738   4.885   1.107   4.768
 9947SOL     OW30739   1.298   3.656   5.254
 9947SOL    HW130740   1.387   3.652   5.209
 9947SOL    HW230741   1.226   3.664   5.185
 9948SOL     OW30742   5.767   4.682   4.347
 9948SOL    HW130743   5.832   4.731   4.289
 9948SOL    HW230744   5.812   4.602   4.387
 9949SOL     OW30745   5.234   5.224   3.490
 9949SOL    HW130746   5.183   5.309   3.506
 9949SOL    HW230747   5.309   5.218   3.556
 9950SOL     OW30748   5.827   5.721   5.264
 9950SOL    HW130749   5.868   5.755   5.179
 9950SOL    HW230750   5.800   5.798   5.321
 9951SOL     OW30751   5.932   1.553   4.608
 9951SOL    HW130752   5.850   1.544   4.665
 9951SOL    HW230753   5.975   1.641   4.627
 9952SOL     OW30754   0.205   3.604   0.920
 9952SOL    HW130755   0.152   3.541   0.975
 9952SOL    HW230756   0.279   3.643   0.975
 9953SOL     OW30757   6.206   2.377   4.279
 9953SOL    HW130758   6.172   2.330   4.361
 9953SOL    HW230759   6.215   2.475   4.299
 9954SOL     OW30760   5.709   6.889   6.072
 9954SOL    HW130761   5.756   6.849   5.993
 9954SOL    HW230762   5.769   6.887   6.152
 9955SOL     OW30763   6.190   3.254   5.570
 9955SOL    HW130764   6.184   3.181   5.501
 9955SOL    HW230765   6.110   3.313   5.563
 9956SOL     OW30766   2.107   6.915   1.501
 9956SOL    HW130767   2.141   6.844   1.563
 9956SOL    HW230768   2.185   6.962   1.459
 9957SOL     OW30769   5.826   5.645   2.748
 9957SOL    HW130770   5.827   5.651   2.648
 9957SOL    HW230771   5.810   5.735   2.787
 9958SOL     OW30772   2.984   5.660   0.517
 9958SOL    HW130773   3.074   5.620   0.500
 9958SOL    HW230774   2.995   5.756   0.541
 9959SOL     OW30775   4.179   3.714   5.599
 9959SOL    HW130776   4.173   3.799   5.652
 9959SOL    HW230777   4.181   3.735   5.502
 9960SOL     OW30778   6.737   0.012   2.204
 9960SOL    HW130779   6.823   0.063   2.208
 9960SOL    HW230780   6.752   6.950   2.159
 9961SOL     OW30781   1.936   6.038   3.869
 9961SOL    HW130782   2.022   5.987   3.870
 9961SOL    HW230783   1.865   5.984   3.824
 9962SOL     OW30784   6.737   6.888   2.935
 9962SOL    HW130785   6.716   6.984   2.953
 9962SOL    HW230786   6.733   6.872   2.836
 9963SOL     OW30787   3.077   2.830   6.946
 9963SOL    HW130788   2.987   2.800   6.977
 9963SOL    HW230789   3.142   2.823   7.022
 9964SOL     OW30790   4.539   5.430   5.026
 9964SOL    HW130791   4.445   5.404   5.003
 9964SOL    HW230792   4.597   5.421   4.945
 9965SOL     OW30793   3.667   6.925   7.005
 9965SOL    HW130794   3.653   7.020   6.979
 9965SOL    HW230795   3.765   6.907   7.015
 9966SOL     OW30796   1.588   4.895   1.532
 9966SOL    HW130797   1.554   4.985   1.560
 9966SOL    HW230798   1.577   4.885   1.433
 9967SOL     OW30799   0.015   5.719   2.405
 9967SOL    HW130800   0.028   5.818   2.405
 9967SOL    HW230801   0.083   5.677   2.345
 9968SOL     OW30802   3.660   3.997   1.525
 9968SOL    HW130803   3.678   4.092   1.498
 9968SOL    HW230804   3.574   3.967   1.482
 9969SOL     OW30805   1.684   3.517   2.257
 9969SOL    HW130806   1.749   3.500   2.183
 9969SOL    HW230807   1.617   3.585   2.227
 9970SOL     OW30808   5.047   4.124   2.902
 9970SOL    HW130809   5.090   4.214   2.898
 9970SOL    HW230810   5.083   4.067   2.828
 9971SOL     OW30811   2.290   4.920   1.302
 9971SOL    HW130812   2.345   4.868   1.237
 9971SOL    HW230813   2.199   4.935   1.262
 9972SOL     OW30814   5.461   4.977   0.938
 9972SOL    HW130815   5.560   4.982   0.931
 9972SOL    HW230816   5.435   4.923   1.018
 9973SOL     OW30817   5.844   1.710   2.948
 9973SOL    HW130818   5.800   1.716   3.037
 9973SOL    HW230819   5.778   1.679   2.879
 9974SOL     OW30820   0.917   2.458   2.419
 9974SOL    HW130821   0.908   2.368   2.462
 9974SOL    HW230822   0.848   2.468   2.348
 9975SOL     OW30823   6.219   3.141   0.573
 9975SOL    HW130824   6.154   3.065   0.583
 9975SOL    HW230825   6.179   3.211   0.514
 9976SOL     OW30826   1.028   5.799   5.170
 9976SOL    HW130827   1.007   5.732   5.241
 9976SOL    HW230828   1.025   5.754   5.081
 9977SOL     OW30829   6.312   5.832   5.509
 9977SOL    HW130830   6.305   5.891   5.589
 9977SOL    HW230831   6.338   5.886   5.429
 9978SOL     OW30832   1.162   2.815   5.130
 9978SOL    HW130833   1.203   2.728   5.157
 9978SOL    HW230834   1.065   2.814   5.153
 9979SOL     OW30835   6.404   4.718   5.547
 9979SOL    HW130836   6.432   4.770   5.628
 9979SOL    HW230837   6.324   4.761   5.506
 9980SOL     OW30838   2.831   6.932   0.088
 9980SOL    HW130839   2.771   6.862   0.127
 9980SOL    HW230840   2.913   6.941   0.145
 9981SOL     OW30841   2.527   1.724   2.996
 9981SOL    HW130842   2.501   1.659   3.068
 9981SOL    HW230843   2.589   1.792   3.033
 9982SOL     OW30844   6.330   5.718   4.004
 9982SOL    HW130845   6.289   5.781   3.938
 9982SOL    HW230846   6.390   5.654   3.955
 9983SOL     OW30847   0.288   1.938   3.400
 9983SOL    HW130848   0.290   2.027   3.355
 9983SOL    HW230849   0.382   1.906   3.415
 9984SOL     OW30850   2.588   1.837   6.749
 9984SOL    HW130851   2.668   1.780   6.731
 9984SOL    HW230852   2.555   1.820   6.842
 9985SOL     OW30853   2.271   0.760   0.334
 9985SOL    HW130854   2.172   0.771   0.324
 9985SOL    HW230855   2.291   0.694   0.406
 9986SOL     OW30856   6.500   3.867   5.676
 9986SOL    HW130857   6.401   3.866   5.663
 9986SOL    HW230858   6.525   3.950   5.727
 9987SOL     OW30859   5.960   3.425   5.520
 9987SOL    HW130860   5.932   3.506   5.573
 9987SOL    HW230861   5.936   3.439   5.424
 9988SOL     OW30862   0.216   5.819   4.592
 9988SOL    HW130863   0.150   5.856   4.528
 9988SOL    HW230864   0.286   5.768   4.543
 9989SOL     OW30865   6.685   3.157   3.502
 9989SOL    HW130866   6.634   3.201   3.428
 9989SOL    HW230867   6.688   3.058   3.487
 9990SOL     OW30868   1.781   5.482   3.473
 9990SOL    HW130869   1.743   5.464   3.383
 9990SOL    HW230870   1.880   5.465   3.472
 9991SOL     OW30871   2.968   2.245   4.754
 9991SOL    HW130872   3.047   2.191   4.724
 9991SOL    HW230873   2.988   2.288   4.842
 9992SOL     OW30874   5.738   4.947   0.053
 9992SOL    HW130875   5.643   4.919   0.067
 9992SOL    HW230876   5.788   4.939   0.139
 9993SOL     OW30877   2.968   1.273   1.038
 9993SOL    HW130878   3.056   1.286   0.993
 9993SOL    HW230879   2.909   1.352   1.018
 9994SOL     OW30880   5.890   4.222   3.014
 9994SOL    HW130881   5.801   4.216   2.969
 9994SOL    HW230882   5.880   4.258   3.106
 9995SOL     OW30883   4.708   1.288   3.509
 9995SOL    HW130884   4.692   1.384   3.490
 9995SOL    HW230885   4.790   1.257   3.460
 9996SOL     OW30886   2.873   3.861   6.778
 9996SOL    HW130887   2.807   3.819   6.716
 9996SOL    HW230888   2.873   3.811   6.865
 9997SOL     OW30889   2.739   1.347   5.774
 9997SOL    HW130890   2.777   1.351   5.866
 9997SOL    HW230891   2.763   1.430   5.724
 9998SOL     OW30892   5.747   5.122   5.135
 9998SOL    HW130893   5.824   5.184   5.123
 9998SOL    HW230894   5.678   5.142   5.066
 9999SOL     OW30895   6.425   3.004   5.925
 9999SOL    HW130896   6.368   3.057   5.989
 9999SOL    HW230897   6.504   3.059   5.898
10000SOL     OW30898   6.772   3.492   0.162
10000SOL    HW130899   6.743   3.403   0.127
10000SOL    HW230900   6.749   3.497   0.260
10001SOL     OW30901   4.793   0.030   2.307
10001SOL    HW130902   4.768   0.105   2.368
10001SOL    HW230903   4.866   7.002   2.347
10002SOL     OW30904   1.669   6.511   2.059
10002SOL    HW130905   1.609   6.587   2.084
10002SOL    HW230906   1.761   6.530   2.092
10003SOL     OW30907   3.310   2.171   3.883
10003SOL    HW130908   3.337   2.076   3.875
10003SOL    HW230909   3.386   2.225   3.918
10004SOL     OW30910   6.773   2.840   4.714
10004SOL    HW130911   6.701   2.805   4.774
10004SOL    HW230912   6.811   2.765   4.660
10005SOL     OW30913   5.849   0.676   3.754
10005SOL    HW130914   5.810   0.586   3.774
10005SOL    HW230915   5.891   0.713   3.837
10006SOL     OW30916   4.620   6.719   4.044
10006SOL    HW130917   4.719   6.735   4.046
10006SOL    HW230918   4.581   6.761   3.962
10007SOL     OW30919   0.017   3.831   4.989
10007SOL    HW130920   0.063   3.860   5.072
10007SOL    HW230921   0.003   3.910   4.929
10008SOL     OW30922   3.690   1.206   4.640
10008SOL    HW130923   3.594   1.220   4.615
10008SOL    HW230924   3.701   1.113   4.676
10009SOL     OW30925   1.915   3.775   1.928
10009SOL    HW130926   2.002   3.734   1.958
10009SOL    HW230927   1.883   3.838   1.998
10010SOL     OW30928   2.211   0.826   6.734
10010SOL    HW130929   2.250   0.806   6.824
10010SOL    HW230930   2.281   0.811   6.663
10011SOL     OW30931   6.623   0.689   5.445
10011SOL    HW130932   6.525   0.686   5.426
10011SOL    HW230933   6.661   0.597   5.438
10012SOL     OW30934   6.327   0.521   2.898
10012SOL    HW130935   6.280   0.456   2.838
10012SOL    HW230936   6.425   0.520   2.879
10013SOL     OW30937   0.170   1.097   3.051
10013SOL    HW130938   0.084   1.148   3.056
10013SOL    HW230939   0.185   1.066   2.957
10014SOL     OW30940   0.775   4.368   6.502
10014SOL    HW130941   0.851   4.365   6.567
10014SOL    HW230942   0.770   4.281   6.453
10015SOL     OW30943   2.328   5.365   0.656
10015SOL    HW130944   2.426   5.386   0.663
10015SOL    HW230945   2.317   5.274   0.615
10016SOL     OW30946   1.718   1.339   6.370
10016SOL    HW130947   1.716   1.244   6.340
10016SOL    HW230948   1.759   1.396   6.299
10017SOL     OW30949   2.878   2.160   4.522
10017SOL    HW130950   2.851   2.243   4.473
10017SOL    HW230951   2.902   2.184   4.616
10018SOL     OW30952   5.349   0.267   6.770
10018SOL    HW130953   5.255   0.270   6.805
10018SOL    HW230954   5.410   0.232   6.841
10019SOL     OW30955   1.009   1.340   3.060
10019SOL    HW130956   1.058   1.416   3.018
10019SOL    HW230957   1.056   1.254   3.039
10020SOL     OW30958   1.120   3.038   1.493
10020SOL    HW130959   1.073   3.091   1.424
10020SOL    HW230960   1.202   3.086   1.523
10021SOL     OW30961   0.017   3.774   0.840
10021SOL    HW130962   0.102   3.728   0.864
10021SOL    HW230963   6.979   3.771   0.917
10022SOL     OW30964   2.524   1.519   6.205
10022SOL    HW130965   2.565   1.598   6.251
10022SOL    HW230966   2.491   1.547   6.114
10023SOL     OW30967   6.387   4.069   0.481
10023SOL    HW130968   6.411   4.116   0.565
10023SOL    HW230969   6.380   3.970   0.499
10024SOL     OW30970   1.171   5.925   3.761
10024SOL    HW130971   1.222   5.998   3.807
10024SOL    HW230972   1.159   5.948   3.665
10025SOL     OW30973   2.067   0.623   1.462
10025SOL    HW130974   2.071   0.640   1.560
10025SOL    HW230975   2.000   0.685   1.420
10026SOL     OW30976   5.686   0.529   3.402
10026SOL    HW130977   5.649   0.602   3.346
10026SOL    HW230978   5.754   0.566   3.465
10027SOL     OW30979   5.421   3.299   4.268
10027SOL    HW130980   5.349   3.235   4.296
10027SOL    HW230981   5.457   3.271   4.179
10028SOL     OW30982   1.659   0.937   0.851
10028SOL    HW130983   1.665   1.031   0.816
10028SOL    HW230984   1.604   0.882   0.787
10029SOL     OW30985   5.576   1.850   3.401
10029SOL    HW130986   5.477   1.837   3.400
10029SOL    HW230987   5.604   1.881   3.492
10030SOL     OW30988   2.125   0.901   3.572
10030SOL    HW130989   2.085   0.812   3.592
10030SOL    HW230990   2.224   0.897   3.582
10031SOL     OW30991   5.280   4.619   3.922
10031SOL    HW130992   5.235   4.551   3.864
10031SOL    HW230993   5.318   4.574   4.003
10032SOL     OW30994   2.502   2.013   5.428
10032SOL    HW130995   2.591   2.049   5.397
10032SOL    HW230996   2.429   2.074   5.395
10033SOL     OW30997   6.098   2.965   4.332
10033SOL    HW130998   6.103   2.929   4.239
10033SOL    HW230999   6.176   3.023   4.350
10034SOL     OW31000   3.722   0.373   4.671
10034SOL    HW131001   3.732   0.354   4.574
10034SOL    HW231002   3.798   0.431   4.702
10035SOL     OW31003   6.692   5.058   1.808
10035SOL    HW131004   6.732   5.056   1.717
10035SOL    HW231005   6.761   5.035   1.876
10036SOL     OW31006   6.859   2.069   0.246
10036SOL    HW131007   6.868   2.168   0.239
10036SOL    HW231008   6.772   2.046   0.289
10037SOL     OW31009   6.919   0.781   6.125
10037SOL    HW131010   6.885   0.713   6.189
10037SOL    HW231011   6.895   0.873   6.158
10038SOL     OW31012   6.533   0.169   1.104
10038SOL    HW131013   6.618   0.202   1.146
10038SOL    HW231014   6.489   0.104   1.166
10039SOL     OW31015   2.878   0.530   3.394
10039SOL    HW131016   2.958   0.517   3.336
10039SOL    HW231017   2.809   0.583   3.344
10040SOL     OW31018   6.334   3.792   0.526
10040SOL    HW131019   6.259   3.796   0.461
10040SOL    HW231020   6.346   3.699   0.559
10041SOL     OW31021   3.482   6.472   0.095
10041SOL    HW131022   3.436   6.494   0.181
10041SOL    HW231023   3.539   6.390   0.108
10042SOL     OW31024   6.689   2.087   3.164
10042SOL    HW131025   6.777   2.114   3.126
10042SOL    HW231026   6.698   1.998   3.208
10043SOL     OW31027   6.996   1.862   5.979
10043SOL    HW131028   6.976   1.826   6.071
10043SOL    HW231029   6.911   1.894   5.937
10044SOL     OW31030   2.533   2.602   5.921
10044SOL    HW131031   2.446   2.651   5.909
10044SOL    HW231032   2.520   2.527   5.985
10045SOL     OW31033   4.354   0.845   0.890
10045SOL    HW131034   4.389   0.771   0.834
10045SOL    HW231035   4.295   0.904   0.835
10046SOL     OW31036   0.500   4.890   1.293
10046SOL    HW131037   0.541   4.803   1.318
10046SOL    HW231038   0.449   4.880   1.208
10047SOL     OW31039   0.570   3.109   6.256
10047SOL    HW131040   0.559   3.050   6.175
10047SOL    HW231041   0.497   3.089   6.321
10048SOL     OW31042   6.294   6.787   2.717
10048SOL    HW131043   6.212   6.835   2.747
10048SOL    HW231044   6.361   6.853   2.683
10049SOL     OW31045   7.012   2.113   5.325
10049SOL    HW131046   0.027   2.173   5.394
10049SOL    HW231047   0.031   2.127   5.237
10050SOL     OW31048   5.525   3.403   5.199
10050SOL    HW131049   5.454   3.390   5.129
10050SOL    HW231050   5.611   3.363   5.167
10051SOL     OW31051   0.740   3.889   4.325
10051SOL    HW131052   0.656   3.898   4.271
10051SOL    HW231053   0.745   3.796   4.363
10052SOL     OW31054   0.986   0.423   3.513
10052SOL    HW131055   0.896   0.436   3.473
10052SOL    HW231056   1.006   0.326   3.522
10053SOL     OW31057   4.825   5.394   4.509
10053SOL    HW131058   4.810   5.298   4.530
10053SOL    HW231059   4.771   5.451   4.572
10054SOL     OW31060   5.317   3.949   4.643
10054SOL    HW131061   5.285   4.024   4.701
10054SOL    HW231062   5.305   3.975   4.547
10055SOL     OW31063   6.794   1.715   6.490
10055SOL    HW131064   6.741   1.665   6.558
10055SOL    HW231065   6.877   1.752   6.534
10056SOL     OW31066   5.249   2.964   2.872
10056SOL    HW131067   5.237   3.021   2.953
10056SOL    HW231068   5.228   2.869   2.895
10057SOL     OW31069   5.287   4.637   6.216
10057SOL    HW131070   5.334   4.564   6.265
10057SOL    HW231071   5.351   4.683   6.154
10058SOL     OW31072   6.023   3.360   4.764
10058SOL    HW131073   5.929   3.333   4.742
10058SOL    HW231074   6.052   3.316   4.849
10059SOL     OW31075   0.043   1.484   6.456
10059SOL    HW131076   0.027   1.496   6.358
10059SOL    HW231077   0.079   1.568   6.495
10060SOL     OW31078   2.435   1.852   2.736
10060SOL    HW131079   2.442   1.760   2.774
10060SOL    HW231080   2.459   1.919   2.806
10061SOL     OW31081   3.776   0.743   3.261
10061SOL    HW131082   3.762   0.653   3.220
10061SOL    HW231083   3.688   0.784   3.283
10062SOL     OW31084   0.233   0.077   4.302
10062SOL    HW131085   0.145   0.112   4.270
10062SOL    HW231086   0.221   0.028   4.388
10063SOL     OW31087   1.702   3.170   4.921
10063SOL    HW131088   1.627   3.161   4.855
10063SOL    HW231089   1.729   3.079   4.952
10064SOL     OW31090   2.812   6.526   0.318
10064SOL    HW131091   2.872   6.453   0.352
10064SOL    HW231092   2.731   6.531   0.376
10065SOL     OW31093   0.688   1.079   2.230
10065SOL    HW131094   0.698   1.176   2.253
10065SOL    HW231095   0.661   1.070   2.134
10066SOL     OW31096   6.628   3.181   4.829
10066SOL    HW131097   6.660   3.133   4.747
10066SOL    HW231098   6.587   3.268   4.803
10067SOL     OW31099   6.521   2.221   5.091
10067SOL    HW131100   6.430   2.236   5.127
10067SOL    HW231101   6.568   2.152   5.145
10068SOL     OW31102   2.588   2.363   2.612
10068SOL    HW131103   2.491   2.365   2.636
10068SOL    HW231104   2.598   2.344   2.514
10069SOL     OW31105   3.252   5.214   1.058
10069SOL    HW131106   3.297   5.125   1.066
10069SOL    HW231107   3.184   5.211   0.985
10070SOL     OW31108   3.593   5.691   5.396
10070SOL    HW131109   3.522   5.753   5.365
10070SOL    HW231110   3.596   5.610   5.337
10071SOL     OW31111   6.450   0.031   3.396
10071SOL    HW131112   6.383   6.983   3.390
10071SOL    HW231113   6.478   0.044   3.491
10072SOL     OW31114   6.819   2.119   2.602
10072SOL    HW131115   6.914   2.091   2.586
10072SOL    HW231116   6.816   2.189   2.673
10073SOL     OW31117   6.198   3.923   4.479
10073SOL    HW131118   6.122   3.881   4.530
10073SOL    HW231119   6.264   3.852   4.455
10074SOL     OW31120   1.573   4.871   0.692
10074SOL    HW131121   1.605   4.951   0.641
10074SOL    HW231122   1.590   4.788   0.638
10075SOL     OW31123   1.884   3.290   1.780
10075SOL    HW131124   1.805   3.307   1.839
10075SOL    HW231125   1.936   3.374   1.770
10076SOL     OW31126   5.277   5.393   4.001
10076SOL    HW131127   5.293   5.415   4.097
10076SOL    HW231128   5.365   5.378   3.955
10077SOL     OW31129   6.142   2.862   6.463
10077SOL    HW131130   6.236   2.826   6.467
10077SOL    HW231131   6.145   2.962   6.464
10078SOL     OW31132   6.773   6.709   5.273
10078SOL    HW131133   6.871   6.726   5.263
10078SOL    HW231134   6.758   6.640   5.344
10079SOL     OW31135   4.543   2.402   2.912
10079SOL    HW131136   4.557   2.312   2.952
10079SOL    HW231137   4.449   2.408   2.877
10080SOL     OW31138   5.516   0.220   6.227
10080SOL    HW131139   5.552   0.162   6.154
10080SOL    HW231140   5.455   0.167   6.285
10081SOL     OW31141   2.334   3.086   0.837
10081SOL    HW131142   2.425   3.072   0.800
10081SOL    HW231143   2.309   3.008   0.895
10082SOL     OW31144   1.219   4.105   1.691
10082SOL    HW131145   1.282   4.065   1.624
10082SOL    HW231146   1.141   4.146   1.644
10083SOL     OW31147   3.515   5.310   3.461
10083SOL    HW131148   3.486   5.281   3.552
10083SOL    HW231149   3.444   5.367   3.419
10084SOL     OW31150   1.219   0.630   4.967
10084SOL    HW131151   1.145   0.625   5.035
10084SOL    HW231152   1.217   0.549   4.909
10085SOL     OW31153   4.711   0.108   0.585
10085SOL    HW131154   4.788   0.051   0.555
10085SOL    HW231155   4.657   0.135   0.505
10086SOL     OW31156   6.961   6.327   2.103
10086SOL    HW131157   6.901   6.247   2.100
10086SOL    HW231158   0.008   6.317   2.035
10087SOL     OW31159   1.574   6.140   4.938
10087SOL    HW131160   1.588   6.227   4.890
10087SOL    HW231161   1.651   6.122   4.999
10088SOL     OW31162   0.378   2.690   0.361
10088SOL    HW131163   0.321   2.772   0.361
10088SOL    HW231164   0.332   2.618   0.414
10089SOL     OW31165   3.992   1.560   2.359
10089SOL    HW131166   4.005   1.577   2.262
10089SOL    HW231167   3.895   1.545   2.378
10090SOL     OW31168   2.192   6.328   1.502
10090SOL    HW131169   2.232   6.253   1.555
10090SOL    HW231170   2.254   6.352   1.427
10091SOL     OW31171   6.221   4.430   5.438
10091SOL    HW131172   6.204   4.356   5.502
10091SOL    HW231173   6.142   4.490   5.434
10092SOL     OW31174   0.444   2.193   4.804
10092SOL    HW131175   0.355   2.187   4.849
10092SOL    HW231176   0.517   2.189   4.872
10093SOL     OW31177   5.569   4.138   5.598
10093SOL    HW131178   5.668   4.145   5.586
10093SOL    HW231179   5.542   4.042   5.594
10094SOL     OW31180   3.259   0.640   0.837
10094SOL    HW131181   3.314   0.721   0.819
10094SOL    HW231182   3.219   0.646   0.929
10095SOL     OW31183   4.913   2.797   5.345
10095SOL    HW131184   4.841   2.728   5.347
10095SOL    HW231185   4.874   2.887   5.365
10096SOL     OW31186   5.366   1.509   3.214
10096SOL    HW131187   5.304   1.433   3.193
10096SOL    HW231188   5.459   1.482   3.190
10097SOL     OW31189   1.015   2.036   0.197
10097SOL    HW131190   0.973   2.039   0.288
10097SOL    HW231191   1.049   1.943   0.180
10098SOL     OW31192   3.671   6.176   3.814
10098SOL    HW131193   3.622   6.178   3.727
10098SOL    HW231194   3.751   6.117   3.806
10099SOL     OW31195   6.911   4.861   1.253
10099SOL    HW131196   6.815   4.874   1.278
10099SOL    HW231197   6.930   4.763   1.242
10100SOL     OW31198   4.471   5.135   4.203
10100SOL    HW131199   4.443   5.041   4.183
10100SOL    HW231200   4.421   5.198   4.144
10101SOL     OW31201   0.972   1.934   1.761
10101SOL    HW131202   0.879   1.950   1.794
10101SOL    HW231203   1.035   1.937   1.839
10102SOL     OW31204   6.271   6.641   1.780
10102SOL    HW131205   6.294   6.618   1.685
10102SOL    HW231206   6.330   6.589   1.841
10103SOL     OW31207   6.815   6.238   6.677
10103SOL    HW131208   6.851   6.146   6.667
10103SOL    HW231209   6.721   6.242   6.642
10104SOL     OW31210   2.037   0.314   4.586
10104SOL    HW131211   1.988   0.380   4.529
10104SOL    HW231212   2.070   0.239   4.530
10105SOL     OW31213   2.513   0.605   6.110
10105SOL    HW131214   2.451   0.587   6.186
10105SOL    HW231215   2.460   0.626   6.028
10106SOL     OW31216   5.251   5.949   1.228
10106SOL    HW131217   5.212   5.898   1.305
10106SOL    HW231218   5.195   5.935   1.147
10107SOL     OW31219   5.101   4.566   6.937
10107SOL    HW131220   5.182   4.507   6.936
10107SOL    HW231221   5.124   4.654   6.895
10108SOL     OW31222   2.033   2.804   0.030
10108SOL    HW131223   1.969   2.743   7.009
10108SOL    HW231224   1.987   2.844   0.110
10109SOL     OW31225   1.330   2.089   1.348
10109SOL    HW131226   1.280   2.172   1.324
10109SOL    HW231227   1.301   2.057   1.438
10110SOL     OW31228   4.879   6.098   2.785
10110SOL    HW131229   4.913   6.183   2.823
10110SOL    HW231230   4.918   6.021   2.835
10111SOL     OW31231   1.735   1.603   1.854
10111SOL    HW131232   1.803   1.561   1.794
10111SOL    HW231233   1.701   1.687   1.813
10112SOL     OW31234   6.991   1.857   3.663
10112SOL    HW131235   7.019   1.891   3.573
10112SOL    HW231236   6.979   1.758   3.659
10113SOL     OW31237   6.347   0.885   6.170
10113SOL    HW131238   6.263   0.908   6.121
10113SOL    HW231239   6.424   0.886   6.105
10114SOL     OW31240   5.188   1.877   2.178
10114SOL    HW131241   5.190   1.782   2.148
10114SOL    HW231242   5.098   1.916   2.158
10115SOL     OW31243   3.491   2.712   5.780
10115SOL    HW131244   3.396   2.740   5.790
10115SOL    HW231245   3.544   2.746   5.858
10116SOL     OW31246   6.418   0.367   5.000
10116SOL    HW131247   6.479   0.295   4.968
10116SOL    HW231248   6.350   0.329   5.063
10117SOL     OW31249   6.048   4.378   3.933
10117SOL    HW131250   6.140   4.364   3.969
10117SOL    HW231251   6.031   4.313   3.859
10118SOL     OW31252   3.993   5.390   4.803
10118SOL    HW131253   3.912   5.429   4.847
10118SOL    HW231254   4.037   5.461   4.747
10119SOL     OW31255   6.972   5.458   5.248
10119SOL    HW131256   6.967   5.558   5.254
10119SOL    HW231257   6.903   5.417   5.308
10120SOL     OW31258   2.151   3.087   2.479
10120SOL    HW131259   2.134   3.021   2.406
10120SOL    HW231260   2.176   3.175   2.439
10121SOL     OW31261   6.700   3.991   0.658
10121SOL    HW131262   6.635   4.051   0.705
10121SOL    HW231263   6.739   4.039   0.579
10122SOL     OW31264   1.200   0.446   3.699
10122SOL    HW131265   1.161   0.452   3.791
10122SOL    HW231266   1.127   0.459   3.631
10123SOL     OW31267   5.761   5.444   6.823
10123SOL    HW131268   5.704   5.515   6.862
10123SOL    HW231269   5.723   5.414   6.736
10124SOL     OW31270   1.200   4.742   3.034
10124SOL    HW131271   1.264   4.810   3.070
10124SOL    HW231272   1.128   4.724   3.101
10125SOL     OW31273   1.190   1.451   5.940
10125SOL    HW131274   1.276   1.493   5.969
10125SOL    HW231275   1.179   1.362   5.984
10126SOL     OW31276   6.261   0.204   6.716
10126SOL    HW131277   6.332   0.244   6.658
10126SOL    HW231278   6.235   0.269   6.787
10127SOL     OW31279   1.881   5.388   5.882
10127SOL    HW131280   1.972   5.429   5.892
10127SOL    HW231281   1.870   5.355   5.788
10128SOL     OW31282   2.803   1.675   6.647
10128SOL    HW131283   2.903   1.675   6.657
10128SOL    HW231284   2.765   1.595   6.695
10129SOL     OW31285   5.624   1.260   3.980
10129SOL    HW131286   5.617   1.292   4.074
10129SOL    HW231287   5.569   1.177   3.968
10130SOL     OW31288   0.965   1.922   2.644
10130SOL    HW131289   0.884   1.919   2.586
10130SOL    HW231290   0.983   2.016   2.672
10131SOL     OW31291   1.666   6.892   4.587
10131SOL    HW131292   1.721   6.969   4.556
10131SOL    HW231293   1.624   6.847   4.509
10132SOL     OW31294   6.817   1.090   1.903
10132SOL    HW131295   6.765   1.084   1.988
10132SOL    HW231296   6.831   0.999   1.866
10133SOL     OW31297   5.790   6.864   0.438
10133SOL    HW131298   5.776   6.899   0.345
10133SOL    HW231299   5.754   6.930   0.503
10134SOL     OW31300   5.926   6.946   1.925
10134SOL    HW131301   5.978   6.891   1.859
10134SOL    HW231302   5.908   6.892   2.007
10135SOL     OW31303   6.373   6.989   2.911
10135SOL    HW131304   6.360   7.002   2.812
10135SOL    HW231305   6.434   0.035   2.946
10136SOL     OW31306   5.672   1.617   2.742
10136SOL    HW131307   5.691   1.706   2.702
10136SOL    HW231308   5.686   1.545   2.674
10137SOL     OW31309   6.580   5.281   5.502
10137SOL    HW131310   6.501   5.330   5.466
10137SOL    HW231311   6.594   5.197   5.448
10138SOL     OW31312   0.233   1.610   0.270
10138SOL    HW131313   0.170   1.671   0.317
10138SOL    HW231314   0.202   1.595   0.176
10139SOL     OW31315   3.621   2.820   6.029
10139SOL    HW131316   3.626   2.887   6.102
10139SOL    HW231317   3.714   2.799   5.997
10140SOL     OW31318   0.276   6.600   5.798
10140SOL    HW131319   0.303   6.608   5.702
10140SOL    HW231320   0.275   6.503   5.824
10141SOL     OW31321   1.872   2.580   4.502
10141SOL    HW131322   1.950   2.526   4.470
10141SOL    HW231323   1.905   2.655   4.559
10142SOL     OW31324   4.703   6.283   4.318
10142SOL    HW131325   4.640   6.348   4.275
10142SOL    HW231326   4.773   6.333   4.369
10143SOL     OW31327   5.222   3.306   6.585
10143SOL    HW131328   5.279   3.243   6.637
10143SOL    HW231329   5.277   3.349   6.513
10144SOL     OW31330   3.743   6.946   6.175
10144SOL    HW131331   3.720   6.850   6.193
10144SOL    HW231332   3.760   6.993   6.261
10145SOL     OW31333   5.527   5.852   6.524
10145SOL    HW131334   5.510   5.755   6.539
10145SOL    HW231335   5.614   5.863   6.476
10146SOL     OW31336   6.910   2.425   4.286
10146SOL    HW131337   6.934   2.412   4.190
10146SOL    HW231338   6.987   2.397   4.344
10147SOL     OW31339   4.837   5.262   6.063
10147SOL    HW131340   4.873   5.353   6.082
10147SOL    HW231341   4.777   5.234   6.137
10148SOL     OW31342   1.219   4.700   0.689
10148SOL    HW131343   1.137   4.650   0.663
10148SOL    HW231344   1.300   4.650   0.659
10149SOL     OW31345   3.535   4.651   0.108
10149SOL    HW131346   3.574   4.642   0.016
10149SOL    HW231347   3.438   4.627   0.106
10150SOL     OW31348   3.991   4.435   0.521
10150SOL    HW131349   3.957   4.358   0.574
10150SOL    HW231350   3.920   4.466   0.457
10151SOL     OW31351   5.553   0.028   5.935
10151SOL    HW131352   5.629   0.081   5.898
10151SOL    HW231353   5.588   6.971   5.979
10152SOL     OW31354   4.246   6.614   2.936
10152SOL    HW131355   4.293   6.677   2.875
10152SOL    HW231356   4.221   6.661   3.021
10153SOL     OW31357   4.574   4.417   3.055
10153SOL    HW131358   4.500   4.436   3.119
10153SOL    HW231359   4.633   4.345   3.092
10154SOL     OW31360   5.176   5.323   5.474
10154SOL    HW131361   5.128   5.239   5.499
10154SOL    HW231362   5.275   5.310   5.484
10155SOL     OW31363   4.207   1.380   4.766
10155SOL    HW131364   4.136   1.325   4.722
10155SOL    HW231365   4.227   1.343   4.857
10156SOL     OW31366   5.141   2.136   0.093
10156SOL    HW131367   5.119   2.120   7.023
10156SOL    HW231368   5.123   2.052   0.145
10157SOL     OW31369   0.652   3.280   0.866
10157SOL    HW131370   0.652   3.378   0.881
10157SOL    HW231371   0.745   3.244   0.875
10158SOL     OW31372   6.189   4.867   0.796
10158SOL    HW131373   6.264   4.821   0.844
10158SOL    HW231374   6.196   4.848   0.698
10159SOL     OW31375   3.268   3.650   2.451
10159SOL    HW131376   3.193   3.682   2.393
10159SOL    HW231377   3.235   3.636   2.544
10160SOL     OW31378   1.030   4.817   2.761
10160SOL    HW131379   1.082   4.742   2.801
10160SOL    HW231380   1.045   4.820   2.662
10161SOL     OW31381   5.338   3.164   5.543
10161SOL    HW131382   5.251   3.122   5.518
10161SOL    HW231383   5.339   3.260   5.514
10162SOL     OW31384   1.598   2.778   2.839
10162SOL    HW131385   1.574   2.684   2.818
10162SOL    HW231386   1.553   2.840   2.775
10163SOL     OW31387   1.600   6.081   5.340
10163SOL    HW131388   1.526   6.069   5.407
10163SOL    HW231389   1.605   6.000   5.282
10164SOL     OW31390   1.217   2.406   3.281
10164SOL    HW131391   1.292   2.467   3.308
10164SOL    HW231392   1.172   2.370   3.363
10165SOL     OW31393   6.968   3.382   4.480
10165SOL    HW131394   6.978   3.367   4.579
10165SOL    HW231395   6.906   3.459   4.464
10166SOL     OW31396   2.398   0.475   1.683
10166SOL    HW131397   2.331   0.418   1.636
10166SOL    HW231398   2.403   0.564   1.639
10167SOL     OW31399   2.268   0.406   6.704
10167SOL    HW131400   2.169   0.395   6.699
10167SOL    HW231401   2.310   0.318   6.726
10168SOL     OW31402   6.994   1.018   6.904
10168SOL    HW131403   6.958   1.088   6.843
10168SOL    HW231404   6.939   0.936   6.897
10169SOL     OW31405   6.268   2.775   3.621
10169SOL    HW131406   6.273   2.802   3.717
10169SOL    HW231407   6.189   2.715   3.607
10170SOL     OW31408   5.697   5.578   6.365
10170SOL    HW131409   5.764   5.563   6.293
10170SOL    HW231410   5.687   5.676   6.382
10171SOL     OW31411   2.102   3.426   5.901
10171SOL    HW131412   2.003   3.413   5.891
10171SOL    HW231413   2.119   3.500   5.967
10172SOL     OW31414   6.196   6.962   3.108
10172SOL    HW131415   6.266   6.960   3.037
10172SOL    HW231416   6.112   6.920   3.074
10173SOL     OW31417   2.992   3.931   5.180
10173SOL    HW131418   2.986   4.030   5.173
10173SOL    HW231419   3.078   3.906   5.224
10174SOL     OW31420   4.133   5.716   3.572
10174SOL    HW131421   4.204   5.686   3.509
10174SOL    HW231422   4.072   5.640   3.592
10175SOL     OW31423   0.282   1.238   3.781
10175SOL    HW131424   0.235   1.285   3.856
10175SOL    HW231425   0.293   1.142   3.803
10176SOL     OW31426   6.563   1.801   6.043
10176SOL    HW131427   6.561   1.892   6.084
10176SOL    HW231428   6.480   1.788   5.989
10177SOL     OW31429   2.381   0.726   3.361
10177SOL    HW131430   2.480   0.722   3.348
10177SOL    HW231431   2.349   0.637   3.395
10178SOL     OW31432   2.085   2.279   0.745
10178SOL    HW131433   2.110   2.367   0.784
10178SOL    HW231434   1.997   2.249   0.783
10179SOL     OW31435   6.947   4.602   1.239
10179SOL    HW131436   6.875   4.544   1.277
10179SOL    HW231437   7.001   4.549   1.174
10180SOL     OW31438   4.319   0.434   5.820
10180SOL    HW131439   4.296   0.514   5.876
10180SOL    HW231440   4.255   0.427   5.744
10181SOL     OW31441   6.500   3.073   1.967
10181SOL    HW131442   6.435   3.149   1.982
10181SOL    HW231443   6.586   3.093   2.014
10182SOL     OW31444   5.818   1.900   0.094
10182SOL    HW131445   5.733   1.951   0.111
10182SOL    HW231446   5.896   1.962   0.098
10183SOL     OW31447   6.142   1.922   6.611
10183SOL    HW131448   6.236   1.892   6.628
10183SOL    HW231449   6.091   1.848   6.567
10184SOL     OW31450   5.583   2.685   6.232
10184SOL    HW131451   5.510   2.705   6.168
10184SOL    HW231452   5.637   2.608   6.199
10185SOL     OW31453   3.736   5.552   1.846
10185SOL    HW131454   3.791   5.625   1.807
10185SOL    HW231455   3.680   5.510   1.774
10186SOL     OW31456   3.816   3.343   5.807
10186SOL    HW131457   3.811   3.368   5.904
10186SOL    HW231458   3.802   3.425   5.751
10187SOL     OW31459   1.974   4.913   5.805
10187SOL    HW131460   1.933   4.985   5.861
10187SOL    HW231461   1.903   4.846   5.780
10188SOL     OW31462   2.916   0.471   6.431
10188SOL    HW131463   3.009   0.501   6.453
10188SOL    HW231464   2.871   0.539   6.373
10189SOL     OW31465   1.069   2.138   6.554
10189SOL    HW131466   1.025   2.097   6.474
10189SOL    HW231467   1.121   2.068   6.603
10190SOL     OW31468   3.381   5.318   2.214
10190SOL    HW131469   3.443   5.383   2.170
10190SOL    HW231470   3.361   5.349   2.307
10191SOL     OW31471   5.884   5.754   6.665
10191SOL    HW131472   5.910   5.658   6.655
10191SOL    HW231473   5.966   5.810   6.678
10192SOL     OW31474   1.750   1.885   4.075
10192SOL    HW131475   1.690   1.818   4.031
10192SOL    HW231476   1.845   1.855   4.067
10193SOL     OW31477   3.296   3.772   3.564
10193SOL    HW131478   3.199   3.766   3.541
10193SOL    HW231479   3.350   3.766   3.481
10194SOL     OW31480   3.006   0.254   2.833
10194SOL    HW131481   3.040   0.265   2.739
10194SOL    HW231482   2.910   0.229   2.830
10195SOL     OW31483   3.972   6.137   2.083
10195SOL    HW131484   3.950   6.054   2.032
10195SOL    HW231485   4.045   6.117   2.149
10196SOL     OW31486   6.133   1.583   3.502
10196SOL    HW131487   6.122   1.505   3.563
10196SOL    HW231488   6.049   1.637   3.500
10197SOL     OW31489   5.955   0.238   1.734
10197SOL    HW131490   5.965   0.337   1.727
10197SOL    HW231491   5.897   0.216   1.812
10198SOL     OW31492   2.722   6.871   0.976
10198SOL    HW131493   2.787   6.909   1.042
10198SOL    HW231494   2.735   6.916   0.887
10199SOL     OW31495   1.336   1.581   0.534
10199SOL    HW131496   1.310   1.589   0.438
10199SOL    HW231497   1.434   1.597   0.544
10200SOL     OW31498   4.866   4.754   4.507
10200SOL    HW131499   4.840   4.768   4.602
10200SOL    HW231500   4.939   4.686   4.502
10201SOL     OW31501   1.613   4.549   2.403
10201SOL    HW131502   1.708   4.529   2.377
10201SOL    HW231503   1.612   4.627   2.466
10202SOL     OW31504   1.410   3.527   2.430
10202SOL    HW131505   1.437   3.565   2.341
10202SOL    HW231506   1.310   3.531   2.438
10203SOL     OW31507   1.894   3.082   2.600
10203SOL    HW131508   1.978   3.090   2.546
10203SOL    HW231509   1.818   3.062   2.538
10204SOL     OW31510   3.169   4.471   5.391
10204SOL    HW131511   3.267   4.477   5.374
10204SOL    HW231512   3.120   4.458   5.305
10205SOL     OW31513   4.747   1.965   2.698
10205SOL    HW131514   4.651   1.950   2.676
10205SOL    HW231515   4.762   1.948   2.796
10206SOL     OW31516   5.237   0.167   6.334
10206SOL    HW131517   5.200   0.084   6.292
10206SOL    HW231518   5.303   0.142   6.404
10207SOL     OW31519   3.992   0.971   2.780
10207SOL    HW131520   3.940   1.036   2.836
10207SOL    HW231521   4.080   1.013   2.754
10208SOL     OW31522   6.164   4.326   5.163
10208SOL    HW131523   6.176   4.355   5.258
10208SOL    HW231524   6.143   4.228   5.160
10209SOL     OW31525   5.899   6.900   6.258
10209SOL    HW131526   5.999   6.898   6.254
10209SOL    HW231527   5.868   6.991   6.284
10210SOL     OW31528   5.003   6.299   2.191
10210SOL    HW131529   4.963   6.296   2.282
10210SOL    HW231530   4.940   6.258   2.125
10211SOL     OW31531   3.968   5.641   5.351
10211SOL    HW131532   3.963   5.677   5.444
10211SOL    HW231533   4.045   5.578   5.343
10212SOL     OW31534   0.013   0.608   5.632
10212SOL    HW131535   0.061   0.521   5.617
10212SOL    HW231536   6.981   0.601   5.713
10213SOL     OW31537   6.296   1.374   2.799
10213SOL    HW131538   6.261   1.333   2.883
10213SOL    HW231539   6.396   1.369   2.799
10214SOL     OW31540   0.130   1.133   1.855
10214SOL    HW131541   0.034   1.143   1.881
10214SOL    HW231542   0.135   1.089   1.765
10215SOL     OW31543   3.514   3.471   6.670
10215SOL    HW131544   3.450   3.540   6.634
10215SOL    HW231545   3.464   3.403   6.724
10216SOL     OW31546   4.909   0.491   1.640
10216SOL    HW131547   4.869   0.403   1.614
10216SOL    HW231548   4.925   0.546   1.558
10217SOL     OW31549   2.219   2.058   4.645
10217SOL    HW131550   2.132   2.021   4.677
10217SOL    HW231551   2.293   2.025   4.704
10218SOL     OW31552   2.456   1.286   0.749
10218SOL    HW131553   2.525   1.322   0.686
10218SOL    HW231554   2.501   1.237   0.824
10219SOL     OW31555   0.871   3.393   1.096
10219SOL    HW131556   0.891   3.308   1.047
10219SOL    HW231557   0.939   3.462   1.072
10220SOL     OW31558   4.579   2.122   0.768
10220SOL    HW131559   4.551   2.051   0.704
10220SOL    HW231560   4.511   2.195   0.768
10221SOL     OW31561   2.841   0.068   5.023
10221SOL    HW131562   2.912   0.057   4.954
10221SOL    HW231563   2.833   7.010   5.077
10222SOL     OW31564   1.909   5.370   5.301
10222SOL    HW131565   1.981   5.301   5.309
10222SOL    HW231566   1.943   5.458   5.334
10223SOL     OW31567   0.837   4.786   7.004
10223SOL    HW131568   0.936   4.804   7.010
10223SOL    HW231569   0.820   4.690   0.001
10224SOL     OW31570   1.686   0.175   3.957
10224SOL    HW131571   1.594   0.163   3.995
10224SOL    HW231572   1.753   0.137   4.020
10225SOL     OW31573   6.599   5.383   4.524
10225SOL    HW131574   6.667   5.418   4.460
10225SOL    HW231575   6.513   5.369   4.475
10226SOL     OW31576   1.891   1.579   7.009
10226SOL    HW131577   1.825   1.560   0.055
10226SOL    HW231578   1.868   1.664   6.963
10227SOL     OW31579   5.513   4.802   0.125
10227SOL    HW131580   5.444   4.812   0.196
10227SOL    HW231581   5.493   4.720   0.070
10228SOL     OW31582   0.918   5.289   2.949
10228SOL    HW131583   0.956   5.358   2.886
10228SOL    HW231584   0.971   5.204   2.941
10229SOL     OW31585   1.663   0.272   2.768
10229SOL    HW131586   1.749   0.315   2.798
10229SOL    HW231587   1.594   0.343   2.753
10230SOL     OW31588   6.432   0.672   3.869
10230SOL    HW131589   6.421   0.744   3.938
10230SOL    HW231590   6.372   0.692   3.792
10231SOL     OW31591   5.530   6.728   4.747
10231SOL    HW131592   5.448   6.673   4.735
10231SOL    HW231593   5.605   6.669   4.778
10232SOL     OW31594   3.043   2.033   5.066
10232SOL    HW131595   2.952   2.011   5.030
10232SOL    HW231596   3.069   2.125   5.037
10233SOL     OW31597   5.156   1.670   5.561
10233SOL    HW131598   5.254   1.650   5.563
10233SOL    HW231599   5.107   1.599   5.613
10234SOL     OW31600   5.063   0.034   1.715
10234SOL    HW131601   5.077   0.065   1.621
10234SOL    HW231602   5.081   6.961   1.720
10235SOL     OW31603   5.745   0.872   6.942
10235SOL    HW131604   5.715   0.957   6.984
10235SOL    HW231605   5.766   0.888   6.845
10236SOL     OW31606   2.437   5.003   2.137
10236SOL    HW131607   2.534   4.994   2.113
10236SOL    HW231608   2.401   5.087   2.098
10237SOL     OW31609   5.832   3.452   2.400
10237SOL    HW131610   5.744   3.456   2.353
10237SOL    HW231611   5.876   3.364   2.380
10238SOL     OW31612   4.388   4.908   4.526
10238SOL    HW131613   4.294   4.927   4.554
10238SOL    HW231614   4.395   4.815   4.490
10239SOL     OW31615   0.327   3.737   4.302
10239SOL    HW131616   0.230   3.722   4.289
10239SOL    HW231617   0.352   3.827   4.268
10240SOL     OW31618   0.421   3.889   3.678
10240SOL    HW131619   0.410   3.986   3.654
10240SOL    HW231620   0.383   3.833   3.604
10241SOL     OW31621   1.957   1.139   1.967
10241SOL    HW131622   1.864   1.176   1.974
10241SOL    HW231623   1.966   1.060   2.028
10242SOL     OW31624   7.002   0.361   6.295
10242SOL    HW131625   6.957   0.285   6.248
10242SOL    HW231626   0.050   0.326   6.352
10243SOL     OW31627   1.237   5.836   1.293
10243SOL    HW131628   1.244   5.879   1.383
10243SOL    HW231629   1.321   5.852   1.241
10244SOL     OW31630   2.032   5.854   6.936
10244SOL    HW131631   2.038   5.951   6.911
10244SOL    HW231632   2.098   5.835   7.009
10245SOL     OW31633   2.481   2.353   6.075
10245SOL    HW131634   2.573   2.320   6.051
10245SOL    HW231635   2.415   2.279   6.064
10246SOL     OW31636   3.200   4.142   5.034
10246SOL    HW131637   3.142   4.107   4.960
10246SOL    HW231638   3.144   4.189   5.101
10247SOL     OW31639   0.254   4.211   5.791
10247SOL    HW131640   0.193   4.288   5.809
10247SOL    HW231641   0.205   4.125   5.809
10248SOL     OW31642   3.616   0.363   1.853
10248SOL    HW131643   3.601   0.319   1.764
10248SOL    HW231644   3.710   0.395   1.859
10249SOL     OW31645   5.401   1.059   5.626
10249SOL    HW131646   5.439   1.001   5.698
10249SOL    HW231647   5.342   1.129   5.667
10250SOL     OW31648   6.711   1.668   0.205
10250SOL    HW131649   6.645   1.622   0.145
10250SOL    HW231650   6.732   1.609   0.283
10251SOL     OW31651   2.687   3.752   6.619
10251SOL    HW131652   2.704   3.657   6.648
10251SOL    HW231653   2.591   3.775   6.636
10252SOL     OW31654   6.103   5.872   1.480
10252SOL    HW131655   6.098   5.775   1.504
10252SOL    HW231656   6.194   5.907   1.501
10253SOL     OW31657   4.509   5.464   6.749
10253SOL    HW131658   4.519   5.476   6.650
10253SOL    HW231659   4.466   5.376   6.768
10254SOL     OW31660   2.224   2.038   5.218
10254SOL    HW131661   2.190   2.059   5.126
10254SOL    HW231662   2.208   2.117   5.278
10255SOL     OW31663   2.651   6.058   2.532
10255SOL    HW131664   2.697   6.011   2.606
10255SOL    HW231665   2.717   6.115   2.482
10256SOL     OW31666   5.706   0.280   6.822
10256SOL    HW131667   5.710   0.301   6.725
10256SOL    HW231668   5.705   0.365   6.875
10257SOL     OW31669   1.183   5.331   5.690
10257SOL    HW131670   1.265   5.317   5.745
10257SOL    HW231671   1.164   5.429   5.684
10258SOL     OW31672   3.741   7.016   3.262
10258SOL    HW131673   3.702   7.020   3.170
10258SOL    HW231674   3.746   6.920   3.292
10259SOL     OW31675   0.046   3.560   3.443
10259SOL    HW131676   0.085   3.514   3.522
10259SOL    HW231677   6.978   3.587   3.463
10260SOL     OW31678   1.032   6.975   2.116
10260SOL    HW131679   0.988   0.030   2.077
10260SOL    HW231680   1.088   7.002   2.194
10261SOL     OW31681   0.862   5.587   1.937
10261SOL    HW131682   0.915   5.670   1.956
10261SOL    HW231683   0.911   5.508   1.974
10262SOL     OW31684   2.611   4.625   4.703
10262SOL    HW131685   2.532   4.567   4.724
10262SOL    HW231686   2.596   4.672   4.616
10263SOL     OW31687   5.797   1.674   6.214
10263SOL    HW131688   5.790   1.763   6.260
10263SOL    HW231689   5.732   1.671   6.139
10264SOL     OW31690   6.612   0.458   6.138
10264SOL    HW131691   6.537   0.509   6.094
10264SOL    HW231692   6.611   0.364   6.107
10265SOL     OW31693   3.707   1.594   2.415
10265SOL    HW131694   3.634   1.551   2.468
10265SOL    HW231695   3.763   1.650   2.476
10266SOL     OW31696   3.068   4.130   6.423
10266SOL    HW131697   3.036   4.120   6.517
10266SOL    HW231698   3.039   4.219   6.388
10267SOL     OW31699   0.431   1.979   6.623
10267SOL    HW131700   0.433   2.019   6.715
10267SOL    HW231701   0.512   1.922   6.610
10268SOL     OW31702   5.232   5.997   1.675
10268SOL    HW131703   5.171   6.004   1.754
10268SOL    HW231704   5.199   5.925   1.614
10269SOL     OW31705   2.497   2.670   6.644
10269SOL    HW131706   2.482   2.681   6.743
10269SOL    HW231707   2.512   2.759   6.603
10270SOL     OW31708   1.716   5.741   0.539
10270SOL    HW131709   1.707   5.707   0.633
10270SOL    HW231710   1.732   5.664   0.477
10271SOL     OW31711   4.319   4.384   1.387
10271SOL    HW131712   4.266   4.304   1.359
10271SOL    HW231713   4.413   4.357   1.406
10272SOL     OW31714   0.606   0.899   5.491
10272SOL    HW131715   0.644   0.933   5.405
10272SOL    HW231716   0.619   0.801   5.498
10273SOL     OW31717   3.755   5.520   4.876
10273SOL    HW131718   3.674   5.461   4.875
10273SOL    HW231719   3.740   5.598   4.815
10274SOL     OW31720   0.854   4.801   5.290
10274SOL    HW131721   0.877   4.730   5.223
10274SOL    HW231722   0.924   4.803   5.361
10275SOL     OW31723   0.723   6.520   2.900
10275SOL    HW131724   0.661   6.559   2.833
10275SOL    HW231725   0.818   6.538   2.872
10276SOL     OW31726   6.641   5.710   5.604
10276SOL    HW131727   6.546   5.680   5.597
10276SOL    HW231728   6.650   5.801   5.562
10277SOL     OW31729   2.987   6.410   4.664
10277SOL    HW131730   2.993   6.503   4.701
10277SOL    HW231731   3.047   6.349   4.715
10278SOL     OW31732   5.874   0.537   6.214
10278SOL    HW131733   5.967   0.572   6.199
10278SOL    HW231734   5.839   0.575   6.300
10279SOL     OW31735   3.592   0.123   4.156
10279SOL    HW131736   3.571   0.151   4.250
10279SOL    HW231737   3.530   0.169   4.093
10280SOL     OW31738   1.423   4.095   0.434
10280SOL    HW131739   1.427   4.057   0.526
10280SOL    HW231740   1.507   4.071   0.385
10281SOL     OW31741   4.631   0.371   3.414
10281SOL    HW131742   4.712   0.331   3.455
10281SOL    HW231743   4.610   0.458   3.459
10282SOL     OW31744   1.025   2.302   4.334
10282SOL    HW131745   1.057   2.300   4.239
10282SOL    HW231746   0.941   2.247   4.341
10283SOL     OW31747   0.975   3.262   0.676
10283SOL    HW131748   0.928   3.316   0.606
10283SOL    HW231749   1.055   3.217   0.635
10284SOL     OW31750   5.595   3.111   5.568
10284SOL    HW131751   5.613   3.017   5.538
10284SOL    HW231752   5.497   3.130   5.559
10285SOL     OW31753   5.622   0.437   0.831
10285SOL    HW131754   5.687   0.362   0.843
10285SOL    HW231755   5.637   0.480   0.742
10286SOL     OW31756   3.920   0.199   3.328
10286SOL    HW131757   3.854   0.271   3.344
10286SOL    HW231758   3.872   0.113   3.308
10287SOL     OW31759   1.887   6.727   1.829
10287SOL    HW131760   1.928   6.660   1.767
10287SOL    HW231761   1.788   6.727   1.817
10288SOL     OW31762   6.345   6.233   3.367
10288SOL    HW131763   6.390   6.149   3.335
10288SOL    HW231764   6.246   6.219   3.371
10289SOL     OW31765   3.254   1.396   1.899
10289SOL    HW131766   3.259   1.357   1.991
10289SOL    HW231767   3.326   1.356   1.842
10290SOL     OW31768   3.882   3.093   2.734
10290SOL    HW131769   3.968   3.114   2.781
10290SOL    HW231770   3.820   3.171   2.741
10291SOL     OW31771   3.286   0.774   4.934
10291SOL    HW131772   3.228   0.697   4.906
10291SOL    HW231773   3.232   0.858   4.935
10292SOL     OW31774   0.785   1.137   4.677
10292SOL    HW131775   0.842   1.136   4.595
10292SOL    HW231776   0.842   1.140   4.758
10293SOL     OW31777   2.738   6.334   3.526
10293SOL    HW131778   2.707   6.289   3.610
10293SOL    HW231779   2.669   6.399   3.495
10294SOL     OW31780   5.262   1.497   3.460
10294SOL    HW131781   5.322   1.428   3.501
10294SOL    HW231782   5.298   1.522   3.370
10295SOL     OW31783   0.548   5.776   6.150
10295SOL    HW131784   0.467   5.835   6.151
10295SOL    HW231785   0.599   5.788   6.235
10296SOL     OW31786   6.759   3.338   0.402
10296SOL    HW131787   6.776   3.263   0.338
10296SOL    HW231788   6.844   3.362   0.449
10297SOL     OW31789   1.009   5.103   4.599
10297SOL    HW131790   0.966   5.054   4.524
10297SOL    HW231791   1.088   5.051   4.632
10298SOL     OW31792   4.760   4.264   3.836
10298SOL    HW131793   4.664   4.282   3.858
10298SOL    HW231794   4.791   4.328   3.765
10299SOL     OW31795   4.522   5.020   3.200
10299SOL    HW131796   4.560   4.975   3.281
10299SOL    HW231797   4.584   5.007   3.122
10300SOL     OW31798   0.967   4.069   2.755
10300SOL    HW131799   0.900   4.083   2.828
10300SOL    HW231800   0.929   4.010   2.684
10301SOL     OW31801   6.162   1.263   1.709
10301SOL    HW131802   6.169   1.220   1.799
10301SOL    HW231803   6.072   1.243   1.669
10302SOL     OW31804   1.474   5.732   2.485
10302SOL    HW131805   1.514   5.640   2.488
10302SOL    HW231806   1.548   5.800   2.481
10303SOL     OW31807   3.919   4.045   1.261
10303SOL    HW131808   3.891   4.059   1.167
10303SOL    HW231809   3.920   3.947   1.282
10304SOL     OW31810   6.824   6.660   2.422
10304SOL    HW131811   6.903   6.721   2.418
10304SOL    HW231812   6.748   6.701   2.371
10305SOL     OW31813   1.003   5.828   0.548
10305SOL    HW131814   1.052   5.768   0.611
10305SOL    HW231815   0.940   5.886   0.600
10306SOL     OW31816   4.039   6.010   0.743
10306SOL    HW131817   3.949   6.023   0.702
10306SOL    HW231818   4.102   5.972   0.675
10307SOL     OW31819   1.478   1.182   6.479
10307SOL    HW131820   1.552   1.152   6.418
10307SOL    HW231821   1.500   1.271   6.517
10308SOL     OW31822   3.012   6.017   3.280
10308SOL    HW131823   2.961   6.018   3.366
10308SOL    HW231824   2.952   6.047   3.206
10309SOL     OW31825   6.869   6.436   2.874
10309SOL    HW131826   6.894   6.507   2.808
10309SOL    HW231827   6.932   6.359   2.865
10310SOL     OW31828   4.046   3.753   2.990
10310SOL    HW131829   4.007   3.815   2.923
10310SOL    HW231830   4.017   3.659   2.970
10311SOL     OW31831   0.327   5.572   0.201
10311SOL    HW131832   0.332   5.473   0.206
10311SOL    HW231833   0.333   5.602   0.105
10312SOL     OW31834   2.390   4.634   0.401
10312SOL    HW131835   2.470   4.665   0.451
10312SOL    HW231836   2.394   4.535   0.388
10313SOL     OW31837   5.412   0.120   2.814
10313SOL    HW131838   5.400   0.196   2.878
10313SOL    HW231839   5.322   0.092   2.778
10314SOL     OW31840   6.254   6.877   0.874
10314SOL    HW131841   6.301   6.935   0.940
10314SOL    HW231842   6.225   6.792   0.917
10315SOL     OW31843   6.404   4.968   4.551
10315SOL    HW131844   6.434   4.937   4.641
10315SOL    HW231845   6.478   5.019   4.507
10316SOL     OW31846   0.649   3.732   3.515
10316SOL    HW131847   0.661   3.831   3.510
10316SOL    HW231848   0.554   3.711   3.541
10317SOL     OW31849   4.282   5.364   0.013
10317SOL    HW131850   4.184   5.349   0.027
10317SOL    HW231851   4.311   5.316   6.956
10318SOL     OW31852   5.821   5.674   2.157
10318SOL    HW131853   5.840   5.705   2.064
10318SOL    HW231854   5.869   5.732   2.223
10319SOL     OW31855   5.631   5.977   3.428
10319SOL    HW131856   5.625   6.076   3.430
10319SOL    HW231857   5.704   5.947   3.490
10320SOL     OW31858   6.773   0.155   1.329
10320SOL    HW131859   6.848   0.090   1.343
10320SOL    HW231860   6.809   0.238   1.285
10321SOL     OW31861   4.249   5.614   4.040
10321SOL    HW131862   4.180   5.571   3.981
10321SOL    HW231863   4.206   5.687   4.093
10322SOL     OW31864   6.222   3.963   0.739
10322SOL    HW131865   6.295   3.903   0.706
10322SOL    HW231866   6.181   3.923   0.821
10323SOL     OW31867   5.044   3.024   5.852
10323SOL    HW131868   4.994   3.104   5.886
10323SOL    HW231869   5.026   3.013   5.754
10324SOL     OW31870   3.405   3.129   3.474
10324SOL    HW131871   3.390   3.225   3.451
10324SOL    HW231872   3.463   3.122   3.555
10325SOL     OW31873   0.520   2.696   2.630
10325SOL    HW131874   0.550   2.633   2.558
10325SOL    HW231875   0.484   2.779   2.588
10326SOL     OW31876   5.369   2.006   0.422
10326SOL    HW131877   5.436   2.078   0.439
10326SOL    HW231878   5.333   1.973   0.509
10327SOL     OW31879   0.301   0.914   3.219
10327SOL    HW131880   0.334   0.825   3.188
10327SOL    HW231881   0.228   0.945   3.159
10328SOL     OW31882   5.814   3.189   2.351
10328SOL    HW131883   5.763   3.221   2.272
10328SOL    HW231884   5.765   3.114   2.394
10329SOL     OW31885   3.199   6.867   2.388
10329SOL    HW131886   3.253   6.920   2.323
10329SOL    HW231887   3.159   6.788   2.341
10330SOL     OW31888   4.124   5.158   2.035
10330SOL    HW131889   4.157   5.179   2.127
10330SOL    HW231890   4.106   5.060   2.029
10331SOL     OW31891   5.823   0.860   3.058
10331SOL    HW131892   5.879   0.905   3.128
10331SOL    HW231893   5.877   0.789   3.013
10332SOL     OW31894   6.865   2.342   6.051
10332SOL    HW131895   6.916   2.301   5.975
10332SOL    HW231896   6.879   2.441   6.051
10333SOL     OW31897   5.441   5.133   4.461
10333SOL    HW131898   5.386   5.141   4.378
10333SOL    HW231899   5.511   5.063   4.448
10334SOL     OW31900   2.319   4.777   4.155
10334SOL    HW131901   2.298   4.847   4.223
10334SOL    HW231902   2.252   4.703   4.162
10335SOL     OW31903   1.686   5.435   1.380
10335SOL    HW131904   1.660   5.357   1.438
10335SOL    HW231905   1.690   5.518   1.436
10336SOL     OW31906   4.250   6.268   2.455
10336SOL    HW131907   4.205   6.336   2.397
10336SOL    HW231908   4.202   6.263   2.543
10337SOL     OW31909   0.626   4.392   4.785
10337SOL    HW131910   0.566   4.315   4.807
10337SOL    HW231911   0.599   4.472   4.838
10338SOL     OW31912   2.851   6.123   3.107
10338SOL    HW131913   2.752   6.106   3.105
10338SOL    HW231914   2.878   6.169   3.023
10339SOL     OW31915   2.589   6.224   1.266
10339SOL    HW131916   2.633   6.276   1.193
10339SOL    HW231917   2.659   6.173   1.317
10340SOL     OW31918   1.590   6.714   0.702
10340SOL    HW131919   1.575   6.806   0.666
10340SOL    HW231920   1.672   6.714   0.760
10341SOL     OW31921   2.034   1.805   2.791
10341SOL    HW131922   2.032   1.796   2.891
10341SOL    HW231923   1.959   1.752   2.752
10342SOL     OW31924   2.618   6.721   4.702
10342SOL    HW131925   2.545   6.739   4.637
10342SOL    HW231926   2.687   6.793   4.695
10343SOL     OW31927   2.050   3.375   5.486
10343SOL    HW131928   2.007   3.309   5.423
10343SOL    HW231929   2.135   3.409   5.446
10344SOL     OW31930   3.923   4.032   4.956
10344SOL    HW131931   3.829   4.008   4.978
10344SOL    HW231932   3.957   3.970   4.885
10345SOL     OW31933   2.262   1.667   6.413
10345SOL    HW131934   2.288   1.634   6.323
10345SOL    HW231935   2.163   1.672   6.420
10346SOL     OW31936   5.079   6.117   0.155
10346SOL    HW131937   5.178   6.111   0.145
10346SOL    HW231938   5.035   6.059   0.086
10347SOL     OW31939   5.729   1.514   1.703
10347SOL    HW131940   5.770   1.593   1.658
10347SOL    HW231941   5.759   1.430   1.657
10348SOL     OW31942   0.246   6.704   5.503
10348SOL    HW131943   0.292   6.785   5.466
10348SOL    HW231944   0.266   6.625   5.446
10349SOL     OW31945   0.106   1.833   1.122
10349SOL    HW131946   0.028   1.824   1.060
10349SOL    HW231947   0.098   1.918   1.175
10350SOL     OW31948   2.580   5.256   4.309
10350SOL    HW131949   2.557   5.159   4.312
10350SOL    HW231950   2.547   5.301   4.392
10351SOL     OW31951   5.534   4.643   4.994
10351SOL    HW131952   5.446   4.621   5.036
10351SOL    HW231953   5.598   4.673   5.065
10352SOL     OW31954   5.995   2.098   0.113
10352SOL    HW131955   6.092   2.082   0.096
10352SOL    HW231956   5.955   2.146   0.034
10353SOL     OW31957   6.296   2.672   3.974
10353SOL    HW131958   6.308   2.606   3.899
10353SOL    HW231959   6.373   2.665   4.037
10354SOL     OW31960   0.230   3.214   0.391
10354SOL    HW131961   0.137   3.197   0.423
10354SOL    HW231962   0.284   3.256   0.465
10355SOL     OW31963   0.857   0.815   0.766
10355SOL    HW131964   0.774   0.872   0.768
10355SOL    HW231965   0.922   0.848   0.834
10356SOL     OW31966   6.577   4.137   6.526
10356SOL    HW131967   6.538   4.050   6.497
10356SOL    HW231968   6.674   4.126   6.545
10357SOL     OW31969   1.279   2.897   6.274
10357SOL    HW131970   1.354   2.942   6.321
10357SOL    HW231971   1.195   2.905   6.327
10358SOL     OW31972   0.829   2.697   2.196
10358SOL    HW131973   0.826   2.731   2.291
10358SOL    HW231974   0.790   2.766   2.135
10359SOL     OW31975   6.017   2.030   2.463
10359SOL    HW131976   6.008   1.949   2.520
10359SOL    HW231977   5.927   2.070   2.446
10360SOL     OW31978   5.763   4.427   2.364
10360SOL    HW131979   5.682   4.455   2.416
10360SOL    HW231980   5.817   4.508   2.340
10361SOL     OW31981   0.438   1.577   1.645
10361SOL    HW131982   0.387   1.621   1.571
10361SOL    HW231983   0.373   1.541   1.712
10362SOL     OW31984   1.346   4.857   2.431
10362SOL    HW131985   1.269   4.884   2.490
10362SOL    HW231986   1.423   4.918   2.449
10363SOL     OW31987   5.069   4.403   0.442
10363SOL    HW131988   5.164   4.375   0.459
10363SOL    HW231989   5.011   4.322   0.436
10364SOL     OW31990   5.946   4.650   2.358
10364SOL    HW131991   5.924   4.736   2.312
10364SOL    HW231992   6.040   4.655   2.393
10365SOL     OW31993   6.457   5.958   0.587
10365SOL    HW131994   6.381   5.986   0.528
10365SOL    HW231995   6.518   5.898   0.537
10366SOL     OW31996   2.829   6.364   3.225
10366SOL    HW131997   2.844   6.274   3.184
10366SOL    HW231998   2.798   6.354   3.319
10367SOL     OW31999   6.144   1.731   0.859
10367SOL    HW132000   6.232   1.694   0.829
10367SOL    HW232001   6.122   1.812   0.804
10368SOL     OW32002   1.436   5.861   1.806
10368SOL    HW132003   1.466   5.954   1.831
10368SOL    HW232004   1.472   5.796   1.873
10369SOL     OW32005   3.570   0.041   5.705
10369SOL    HW132006   3.586   0.101   5.627
10369SOL    HW232007   3.656   0.023   5.752
10370SOL     OW32008   0.498   1.003   5.021
10370SOL    HW132009   0.421   0.942   5.041
10370SOL    HW232010   0.534   0.982   4.930
10371SOL     OW32011   3.273   5.558   3.694
10371SOL    HW132012   3.296   5.611   3.612
10371SOL    HW232013   3.289   5.615   3.775
10372SOL     OW32014   2.600   6.465   1.574
10372SOL    HW132015   2.529   6.480   1.506
10372SOL    HW232016   2.648   6.379   1.556
10373SOL     OW32017   0.824   1.916   5.356
10373SOL    HW132018   0.763   1.982   5.401
10373SOL    HW232019   0.905   1.902   5.413
10374SOL     OW32020   3.211   6.794   4.818
10374SOL    HW132021   3.222   6.817   4.721
10374SOL    HW232022   3.296   6.755   4.853
10375SOL     OW32023   2.848   3.618   0.330
10375SOL    HW132024   2.833   3.708   0.371
10375SOL    HW232025   2.930   3.622   0.273
10376SOL     OW32026   2.076   4.678   2.868
10376SOL    HW132027   2.161   4.687   2.921
10376SOL    HW232028   2.032   4.592   2.892
10377SOL     OW32029   1.359   0.987   2.936
10377SOL    HW132030   1.297   0.911   2.915
10377SOL    HW232031   1.418   1.005   2.857
10378SOL     OW32032   6.994   4.304   5.070
10378SOL    HW132033   6.976   4.352   4.984
10378SOL    HW232034   7.015   4.371   5.141
10379SOL     OW32035   1.855   6.187   4.801
10379SOL    HW132036   1.768   6.234   4.801
10379SOL    HW232037   1.862   6.128   4.881
10380SOL     OW32038   1.621   2.692   4.380
10380SOL    HW132039   1.701   2.651   4.424
10380SOL    HW232040   1.629   2.791   4.382
10381SOL     OW32041   4.324   4.629   1.570
10381SOL    HW132042   4.296   4.543   1.528
10381SOL    HW232043   4.342   4.614   1.667
10382SOL     OW32044   3.369   5.297   1.565
10382SOL    HW132045   3.401   5.259   1.479
10382SOL    HW232046   3.353   5.223   1.630
10383SOL     OW32047   2.109   4.539   0.387
10383SOL    HW132048   2.044   4.561   0.460
10383SOL    HW232049   2.201   4.568   0.414
10384SOL     OW32050   5.494   6.615   1.533
10384SOL    HW132051   5.434   6.598   1.455
10384SOL    HW232052   5.464   6.559   1.610
10385SOL     OW32053   4.117   4.592   6.599
10385SOL    HW132054   4.068   4.665   6.552
10385SOL    HW232055   4.158   4.531   6.531
10386SOL     OW32056   0.142   0.826   7.004
10386SOL    HW132057   0.083   0.903   6.981
10386SOL    HW232058   0.179   0.785   6.921
10387SOL     OW32059   4.905   3.130   2.532
10387SOL    HW132060   4.879   3.123   2.436
10387SOL    HW232061   4.874   3.218   2.569
10388SOL     OW32062   2.787   0.461   5.819
10388SOL    HW132063   2.818   0.451   5.725
10388SOL    HW232064   2.866   0.463   5.880
10389SOL     OW32065   0.617   3.254   0.543
10389SOL    HW132066   0.669   3.171   0.529
10389SOL    HW232067   0.642   3.322   0.473
10390SOL     OW32068   3.033   2.447   1.022
10390SOL    HW132069   3.096   2.408   0.955
10390SOL    HW232070   2.939   2.440   0.987
10391SOL     OW32071   6.617   6.670   4.353
10391SOL    HW132072   6.556   6.595   4.326
10391SOL    HW232073   6.697   6.670   4.294
10392SOL     OW32074   6.620   5.114   4.421
10392SOL    HW132075   6.580   5.115   4.329
10392SOL    HW232076   6.612   5.205   4.462
10393SOL     OW32077   1.873   3.928   4.015
10393SOL    HW132078   1.830   3.978   4.091
10393SOL    HW232079   1.812   3.854   3.986
10394SOL     OW32080   3.241   6.022   4.358
10394SOL    HW132081   3.185   5.974   4.291
10394SOL    HW232082   3.194   6.105   4.388
10395SOL     OW32083   7.018   6.973   0.826
10395SOL    HW132084   6.974   6.901   0.771
10395SOL    HW232085   6.952   7.009   0.892
10396SOL     OW32086   2.924   1.738   4.381
10396SOL    HW132087   3.006   1.795   4.385
10396SOL    HW232088   2.936   1.658   4.441
10397SOL     OW32089   3.109   2.162   2.560
10397SOL    HW132090   3.142   2.137   2.469
10397SOL    HW232091   3.009   2.172   2.558
10398SOL     OW32092   0.222   2.953   1.676
10398SOL    HW132093   0.316   2.985   1.665
10398SOL    HW232094   0.221   2.872   1.735
10399SOL     OW32095   6.493   2.741   1.794
10399SOL    HW132096   6.443   2.735   1.881
10399SOL    HW232097   6.588   2.711   1.809
10400SOL     OW32098   4.245   0.028   0.709
10400SOL    HW132099   4.220   6.965   0.748
10400SOL    HW232100   4.317   0.069   0.765
10401SOL     OW32101   6.578   0.829   4.268
10401SOL    HW132102   6.520   0.792   4.195
10401SOL    HW232103   6.626   0.754   4.313
10402SOL     OW32104   6.010   2.954   4.664
10402SOL    HW132105   5.996   2.890   4.589
10402SOL    HW232106   6.068   3.029   4.633
10403SOL     OW32107   3.113   0.615   3.236
10403SOL    HW132108   3.149   0.663   3.155
10403SOL    HW232109   3.173   0.538   3.258
10404SOL     OW32110   6.247   6.861   6.007
10404SOL    HW132111   6.153   6.839   5.981
10404SOL    HW232112   6.284   6.930   5.946
10405SOL     OW32113   0.807   1.193   5.644
10405SOL    HW132114   0.766   1.174   5.733
10405SOL    HW232115   0.865   1.275   5.652
10406SOL     OW32116   3.302   4.807   1.918
10406SOL    HW132117   3.399   4.791   1.937
10406SOL    HW232118   3.275   4.753   1.838
10407SOL     OW32119   3.277   5.745   6.123
10407SOL    HW132120   3.356   5.703   6.168
10407SOL    HW232121   3.293   5.844   6.116
10408SOL     OW32122   4.973   1.111   0.603
10408SOL    HW132123   4.987   1.185   0.670
10408SOL    HW232124   4.892   1.132   0.548
10409SOL     OW32125   6.646   4.903   0.262
10409SOL    HW132126   6.732   4.904   0.312
10409SOL    HW232127   6.625   4.995   0.229
10410SOL     OW32128   5.285   1.223   0.170
10410SOL    HW132129   5.212   1.164   0.204
10410SOL    HW232130   5.247   1.288   0.104
10411SOL     OW32131   2.938   5.799   2.947
10411SOL    HW132132   3.019   5.779   3.002
10411SOL    HW232133   2.857   5.761   2.991
10412SOL     OW32134   6.162   1.301   0.632
10412SOL    HW132135   6.180   1.330   0.538
10412SOL    HW232136   6.143   1.382   0.688
10413SOL     OW32137   6.930   2.216   1.409
10413SOL    HW132138   6.954   2.148   1.340
10413SOL    HW232139   6.988   2.297   1.397
10414SOL     OW32140   4.620   3.814   5.558
10414SOL    HW132141   4.570   3.734   5.591
10414SOL    HW232142   4.594   3.834   5.464
10415SOL     OW32143   0.623   5.535   6.038
10415SOL    HW132144   0.631   5.616   6.096
10415SOL    HW232145   0.687   5.543   5.961
10416SOL     OW32146   5.897   1.669   3.291
10416SOL    HW132147   5.964   1.678   3.217
10416SOL    HW232148   5.813   1.716   3.265
10417SOL     OW32149   3.197   5.145   4.627
10417SOL    HW132150   3.146   5.146   4.713
10417SOL    HW232151   3.157   5.078   4.565
10418SOL     OW32152   0.100   4.670   5.650
10418SOL    HW132153   0.105   4.752   5.592
10418SOL    HW232154   0.109   4.696   5.746
10419SOL     OW32155   1.445   0.641   7.008
10419SOL    HW132156   1.439   0.725   0.035
10419SOL    HW232157   1.448   0.664   6.910
10420SOL     OW32158   6.915   2.934   2.333
10420SOL    HW132159   6.851   2.920   2.408
10420SOL    HW232160   6.971   3.015   2.352
10421SOL     OW32161   1.018   1.734   3.286
10421SOL    HW132162   1.005   1.741   3.385
10421SOL    HW232163   1.102   1.685   3.266
10422SOL     OW32164   6.497   2.486   5.284
10422SOL    HW132165   6.562   2.415   5.259
10422SOL    HW232166   6.545   2.558   5.334
10423SOL     OW32167   4.722   5.252   4.256
10423SOL    HW132168   4.723   5.294   4.346
10423SOL    HW232169   4.634   5.207   4.241
10424SOL     OW32170   5.748   2.615   0.033
10424SOL    HW132171   5.799   2.538   7.022
10424SOL    HW232172   5.810   2.675   0.085
10425SOL     OW32173   1.974   6.823   2.126
10425SOL    HW132174   1.974   6.833   2.026
10425SOL    HW232175   2.068   6.805   2.158
10426SOL     OW32176   0.034   4.065   0.809
10426SOL    HW132177   0.007   3.972   0.785
10426SOL    HW232178   0.070   4.112   0.728
10427SOL     OW32179   4.497   1.463   0.473
10427SOL    HW132180   4.411   1.507   0.500
10427SOL    HW232181   4.496   1.447   0.374
10428SOL     OW32182   3.275   1.541   4.598
10428SOL    HW132183   3.230   1.459   4.633
10428SOL    HW232184   3.251   1.620   4.655
10429SOL     OW32185   7.006   5.719   1.258
10429SOL    HW132186   6.972   5.648   1.319
10429SOL    HW232187   0.067   5.755   1.294
10430SOL     OW32188   4.422   0.305   3.771
10430SOL    HW132189   4.420   0.257   3.858
10430SOL    HW232190   4.472   0.391   3.782
10431SOL     OW32191   3.263   0.130   5.534
10431SOL    HW132192   3.276   0.212   5.589
10431SOL    HW232193   3.253   0.050   5.594
10432SOL     OW32194   6.298   0.888   4.031
10432SOL    HW132195   6.248   0.966   3.994
10432SOL    HW232196   6.262   0.866   4.122
10433SOL     OW32197   1.470   6.204   1.400
10433SOL    HW132198   1.560   6.213   1.442
10433SOL    HW232199   1.401   6.194   1.471
10434SOL     OW32200   3.289   0.013   2.868
10434SOL    HW132201   3.222   0.031   2.940
10434SOL    HW232202   3.241   7.008   2.786
10435SOL     OW32203   6.170   0.145   4.998
10435SOL    HW132204   6.082   0.117   5.036
10435SOL    HW232205   6.161   0.162   4.900
10436SOL     OW32206   0.766   4.686   4.561
10436SOL    HW132207   0.686   4.716   4.614
10436SOL    HW232208   0.740   4.611   4.501
10437SOL     OW32209   6.415   5.228   5.706
10437SOL    HW132210   6.472   5.239   5.624
10437SOL    HW232211   6.473   5.206   5.784
10438SOL     OW32212   5.336   6.558   0.282
10438SOL    HW132213   5.368   6.464   0.289
10438SOL    HW232214   5.413   6.619   0.265
10439SOL     OW32215   3.068   1.530   5.884
10439SOL    HW132216   3.094   1.464   5.814
10439SOL    HW232217   3.140   1.535   5.953
10440SOL     OW32218   0.247   6.344   1.095
10440SOL    HW132219   0.328   6.304   1.052
10440SOL    HW232220   0.195   6.395   1.027
10441SOL     OW32221   5.001   1.694   7.017
10441SOL    HW132222   5.042   1.702   0.082
10441SOL    HW232223   4.981   1.598   6.998
10442SOL     OW32224   3.448   5.303   5.530
10442SOL    HW132225   3.436   5.218   5.478
10442SOL    HW232226   3.486   5.282   5.620
10443SOL     OW32227   5.289   3.576   4.440
10443SOL    HW132228   5.268   3.636   4.517
10443SOL    HW232229   5.283   3.480   4.470
10444SOL     OW32230   3.966   5.298   4.504
10444SOL    HW132231   4.038   5.236   4.534
10444SOL    HW232232   3.943   5.361   4.578
10445SOL     OW32233   0.739   4.629   4.247
10445SOL    HW132234   0.709   4.534   4.243
10445SOL    HW232235   0.713   4.676   4.163
10446SOL     OW32236   1.219   4.468   6.686
10446SOL    HW132237   1.184   4.501   6.598
10446SOL    HW232238   1.293   4.527   6.717
10447SOL     OW32239   0.259   1.398   1.801
10447SOL    HW132240   0.204   1.318   1.823
10447SOL    HW232241   0.246   1.467   1.872
10448SOL     OW32242   4.194   3.331   1.222
10448SOL    HW132243   4.128   3.360   1.154
10448SOL    HW232244   4.219   3.235   1.206
10449SOL     OW32245   2.635   5.114   3.969
10449SOL    HW132246   2.690   5.094   4.050
10449SOL    HW232247   2.669   5.197   3.925
10450SOL     OW32248   0.631   2.450   6.448
10450SOL    HW132249   0.626   2.403   6.360
10450SOL    HW232250   0.639   2.383   6.522
10451SOL     OW32251   2.425   4.424   2.803
10451SOL    HW132252   2.393   4.496   2.741
10451SOL    HW232253   2.373   4.340   2.785
10452SOL     OW32254   0.026   3.136   3.239
10452SOL    HW132255   0.083   3.184   3.172
10452SOL    HW232256   6.955   3.155   3.221
10453SOL     OW32257   5.599   5.875   1.599
10453SOL    HW132258   5.552   5.802   1.648
10453SOL    HW232259   5.531   5.941   1.566
10454SOL     OW32260   5.444   3.046   1.340
10454SOL    HW132261   5.512   3.117   1.324
10454SOL    HW232262   5.483   2.975   1.398
10455SOL     OW32263   0.433   5.317   3.505
10455SOL    HW132264   0.447   5.342   3.409
10455SOL    HW232265   0.423   5.401   3.559
10456SOL     OW32266   2.989   6.172   1.039
10456SOL    HW132267   3.059   6.123   1.091
10456SOL    HW232268   2.987   6.268   1.068
10457SOL     OW32269   3.760   3.726   3.552
10457SOL    HW132270   3.813   3.660   3.500
10457SOL    HW232271   3.819   3.766   3.623
10458SOL     OW32272   0.366   6.945   0.046
10458SOL    HW132273   0.318   7.010   0.106
10458SOL    HW232274   0.464   6.968   0.045
10459SOL     OW32275   5.908   5.596   2.466
10459SOL    HW132276   6.001   5.597   2.502
10459SOL    HW232277   5.888   5.507   2.426
10460SOL     OW32278   2.419   6.180   1.488
10460SOL    HW132279   2.429   6.081   1.478
10460SOL    HW232280   2.461   6.226   1.410
10461SOL     OW32281   1.726   6.510   6.375
10461SOL    HW132282   1.722   6.576   6.300
10461SOL    HW232283   1.804   6.530   6.433
10462SOL     OW32284   6.354   0.655   1.240
10462SOL    HW132285   6.386   0.745   1.209
10462SOL    HW232286   6.394   0.584   1.183
10463SOL     OW32287   3.011   4.121   6.062
10463SOL    HW132288   2.954   4.058   6.115
10463SOL    HW232289   2.986   4.215   6.083
10464SOL     OW32290   4.437   6.919   1.057
10464SOL    HW132291   4.373   6.893   1.129
10464SOL    HW232292   4.425   7.015   1.034
10465SOL     OW32293   0.770   6.858   6.308
10465SOL    HW132294   0.739   6.854   6.213
10465SOL    HW232295   0.869   6.873   6.311
10466SOL     OW32296   4.910   5.575   4.822
10466SOL    HW132297   4.906   5.673   4.801
10466SOL    HW232298   4.944   5.563   4.916
10467SOL     OW32299   1.704   1.709   5.344
10467SOL    HW132300   1.779   1.740   5.285
10467SOL    HW232301   1.627   1.680   5.287
10468SOL     OW32302   3.693   6.421   4.160
10468SOL    HW132303   3.664   6.424   4.064
10468SOL    HW232304   3.699   6.326   4.190
10469SOL     OW32305   2.087   3.812   0.959
10469SOL    HW132306   2.091   3.727   0.907
10469SOL    HW232307   2.005   3.812   1.017
10470SOL     OW32308   2.515   1.979   4.235
10470SOL    HW132309   2.595   1.930   4.200
10470SOL    HW232310   2.463   2.018   4.159
10471SOL     OW32311   2.389   4.230   1.691
10471SOL    HW132312   2.412   4.225   1.788
10471SOL    HW232313   2.296   4.197   1.677
10472SOL     OW32314   3.949   6.969   2.171
10472SOL    HW132315   3.871   6.908   2.183
10472SOL    HW232316   3.963   7.022   2.255
10473SOL     OW32317   6.020   6.719   0.474
10473SOL    HW132318   5.942   6.780   0.460
10473SOL    HW232319   6.104   6.765   0.445
10474SOL     OW32320   3.977   1.022   4.544
10474SOL    HW132321   3.883   0.988   4.537
10474SOL    HW232322   4.032   0.955   4.594
10475SOL     OW32323   4.203   6.144   1.326
10475SOL    HW132324   4.106   6.165   1.314
10475SOL    HW232325   4.257   6.226   1.311
10476SOL     OW32326   6.439   5.648   6.811
10476SOL    HW132327   6.416   5.560   6.852
10476SOL    HW232328   6.465   5.635   6.715
10477SOL     OW32329   5.227   3.409   4.676
10477SOL    HW132330   5.324   3.430   4.688
10477SOL    HW232331   5.172   3.471   4.732
10478SOL     OW32332   0.883   6.860   0.013
10478SOL    HW132333   0.946   6.785   0.035
10478SOL    HW232334   0.901   6.937   0.074
10479SOL     OW32335   1.368   3.418   1.965
10479SOL    HW132336   1.289   3.358   1.976
10479SOL    HW232337   1.337   3.511   1.945
10480SOL     OW32338   5.484   6.520   1.840
10480SOL    HW132339   5.396   6.556   1.869
10480SOL    HW232340   5.550   6.527   1.915
10481SOL     OW32341   2.515   1.198   5.163
10481SOL    HW132342   2.576   1.121   5.181
10481SOL    HW232343   2.502   1.251   5.246
10482SOL     OW32344   0.810   6.091   4.916
10482SOL    HW132345   0.908   6.106   4.934
10482SOL    HW232346   0.800   6.047   4.827
10483SOL     OW32347   6.305   5.848   0.145
10483SOL    HW132348   6.312   5.948   0.153
10483SOL    HW232349   6.271   5.809   0.230
10484SOL     OW32350   0.039   0.631   1.437
10484SOL    HW132351   6.991   0.642   1.370
10484SOL    HW232352   0.115   0.691   1.413
10485SOL     OW32353   2.920   3.786   3.110
10485SOL    HW132354   2.974   3.814   3.031
10485SOL    HW232355   2.873   3.700   3.090
10486SOL     OW32356   6.825   6.968   5.420
10486SOL    HW132357   6.801   6.947   5.325
10486SOL    HW232358   6.900   6.909   5.450
10487SOL     OW32359   4.938   1.648   1.849
10487SOL    HW132360   4.888   1.734   1.841
10487SOL    HW232361   4.888   1.586   1.910
10488SOL     OW32362   0.684   1.819   5.698
10488SOL    HW132363   0.641   1.733   5.674
10488SOL    HW232364   0.653   1.891   5.636
10489SOL     OW32365   5.990   4.918   3.716
10489SOL    HW132366   6.001   4.823   3.743
10489SOL    HW232367   5.961   4.922   3.620
10490SOL     OW32368   6.148   0.277   0.774
10490SOL    HW132369   6.133   0.345   0.846
10490SOL    HW232370   6.226   0.219   0.799
10491SOL     OW32371   1.608   3.453   6.855
10491SOL    HW132372   1.596   3.543   6.898
10491SOL    HW232373   1.551   3.447   6.774
10492SOL     OW32374   4.993   0.368   0.528
10492SOL    HW132375   4.907   0.415   0.547
10492SOL    HW232376   5.007   0.296   0.597
10493SOL     OW32377   4.628   5.591   1.485
10493SOL    HW132378   4.630   5.589   1.585
10493SOL    HW232379   4.562   5.659   1.454
10494SOL     OW32380   0.562   4.477   5.951
10494SOL    HW132381   0.500   4.411   5.908
10494SOL    HW232382   0.657   4.455   5.927
10495SOL     OW32383   0.582   6.459   5.734
10495SOL    HW132384   0.662   6.408   5.764
10495SOL    HW232385   0.509   6.394   5.710
10496SOL     OW32386   6.542   3.589   5.561
10496SOL    HW132387   6.546   3.685   5.590
10496SOL    HW232388   6.500   3.535   5.633
10497SOL     OW32389   2.483   0.075   1.543
10497SOL    HW132390   2.393   0.114   1.564
10497SOL    HW232391   2.553   0.146   1.554
10498SOL     OW32392   4.679   5.629   0.803
10498SOL    HW132393   4.747   5.558   0.783
10498SOL    HW232394   4.640   5.613   0.894
10499SOL     OW32395   5.609   5.484   2.231
10499SOL    HW132396   5.669   5.558   2.200
10499SOL    HW232397   5.608   5.411   2.163
10500SOL     OW32398   5.789   4.171   5.174
10500SOL    HW132399   5.783   4.073   5.156
10500SOL    HW232400   5.791   4.221   5.088
10501SOL     OW32401   2.639   5.690   2.220
10501SOL    HW132402   2.642   5.599   2.177
10501SOL    HW232403   2.616   5.758   2.150
10502SOL     OW32404   2.933   3.630   2.601
10502SOL    HW132405   2.941   3.648   2.503
10502SOL    HW232406   3.021   3.646   2.646
10503SOL     OW32407   6.876   3.317   6.446
10503SOL    HW132408   6.919   3.274   6.525
10503SOL    HW232409   6.828   3.248   6.392
10504SOL     OW32410   2.024   2.806   6.002
10504SOL    HW132411   1.951   2.738   6.003
10504SOL    HW232412   2.056   2.823   6.095
10505SOL     OW32413   5.817   6.195   1.877
10505SOL    HW132414   5.866   6.110   1.858
10505SOL    HW232415   5.736   6.202   1.819
10506SOL     OW32416   0.722   2.982   6.757
10506SOL    HW132417   0.782   2.995   6.836
10506SOL    HW232418   0.721   2.886   6.731
10507SOL     OW32419   2.341   4.758   0.009
10507SOL    HW132420   2.426   4.708   7.021
10507SOL    HW232421   2.346   4.811   0.094
10508SOL     OW32422   0.845   5.072   5.133
10508SOL    HW132423   0.764   5.131   5.124
10508SOL    HW232424   0.816   4.982   5.166
10509SOL     OW32425   4.904   3.499   3.736
10509SOL    HW132426   4.998   3.481   3.765
10509SOL    HW232427   4.859   3.557   3.804
10510SOL     OW32428   4.581   5.655   4.514
10510SOL    HW132429   4.499   5.653   4.456
10510SOL    HW232430   4.662   5.668   4.457
10511SOL     OW32431   2.926   1.638   1.916
10511SOL    HW132432   2.943   1.736   1.903
10511SOL    HW232433   2.827   1.622   1.921
10512SOL     OW32434   4.177   1.054   5.069
10512SOL    HW132435   4.195   1.141   5.022
10512SOL    HW232436   4.094   1.013   5.032
10513SOL     OW32437   5.324   3.180   1.551
10513SOL    HW132438   5.289   3.119   1.623
10513SOL    HW232439   5.343   3.127   1.469
10514SOL     OW32440   0.981   3.054   1.717
10514SOL    HW132441   1.049   3.056   1.790
10514SOL    HW232442   1.026   3.030   1.631
10515SOL     OW32443   2.169   3.539   4.973
10515SOL    HW132444   2.103   3.593   5.026
10515SOL    HW232445   2.174   3.574   4.880
10516SOL     OW32446   3.687   2.561   0.113
10516SOL    HW132447   3.691   2.484   0.176
10516SOL    HW232448   3.646   2.640   0.159
10517SOL     OW32449   1.015   3.110   3.209
10517SOL    HW132450   1.081   3.185   3.206
10517SOL    HW232451   0.922   3.147   3.215
10518SOL     OW32452   0.968   5.120   2.132
10518SOL    HW132453   1.015   5.043   2.176
10518SOL    HW232454   0.871   5.118   2.156
10519SOL     OW32455   2.199   6.209   1.079
10519SOL    HW132456   2.270   6.238   1.015
10519SOL    HW232457   2.222   6.243   1.171
10520SOL     OW32458   6.926   1.080   6.224
10520SOL    HW132459   7.019   1.048   6.243
10520SOL    HW232460   6.929   1.153   6.156
10521SOL     OW32461   6.144   3.521   1.100
10521SOL    HW132462   6.162   3.425   1.121
10521SOL    HW232463   6.191   3.580   1.166
10522SOL     OW32464   5.410   2.410   2.863
10522SOL    HW132465   5.490   2.463   2.834
10522SOL    HW232466   5.348   2.398   2.786
10523SOL     OW32467   0.281   4.076   3.945
10523SOL    HW132468   0.315   4.085   4.039
10523SOL    HW232469   0.207   4.010   3.943
10524SOL     OW32470   6.665   6.423   3.793
10524SOL    HW132471   6.704   6.357   3.729
10524SOL    HW232472   6.613   6.491   3.742
10525SOL     OW32473   4.594   1.362   4.878
10525SOL    HW132474   4.583   1.447   4.825
10525SOL    HW232475   4.564   1.285   4.823
10526SOL     OW32476   0.807   5.611   0.500
10526SOL    HW132477   0.818   5.611   0.600
10526SOL    HW232478   0.894   5.586   0.457
10527SOL     OW32479   0.994   1.093   5.009
10527SOL    HW132480   0.972   1.186   5.039
10527SOL    HW232481   1.019   1.095   4.912
10528SOL     OW32482   0.987   4.842   6.562
10528SOL    HW132483   0.961   4.936   6.579
10528SOL    HW232484   0.910   4.781   6.580
10529SOL     OW32485   1.593   6.290   6.227
10529SOL    HW132486   1.662   6.342   6.276
10529SOL    HW232487   1.632   6.205   6.193
10530SOL     OW32488   1.213   6.972   0.127
10530SOL    HW132489   1.289   6.947   0.188
10530SOL    HW232490   1.217   6.917   0.044
10531SOL     OW32491   2.969   2.843   5.454
10531SOL    HW132492   3.051   2.827   5.399
10531SOL    HW232493   2.895   2.876   5.395
10532SOL     OW32494   6.092   6.214   6.677
10532SOL    HW132495   6.040   6.299   6.690
10532SOL    HW232496   6.132   6.212   6.586
10533SOL     OW32497   3.327   5.695   3.488
10533SOL    HW132498   3.402   5.686   3.423
10533SOL    HW232499   3.309   5.791   3.505
10534SOL     OW32500   1.018   5.885   2.681
10534SOL    HW132501   0.998   5.863   2.777
10534SOL    HW232502   1.082   5.817   2.645
10535SOL     OW32503   2.701   1.186   2.824
10535SOL    HW132504   2.658   1.258   2.878
10535SOL    HW232505   2.734   1.114   2.884
10536SOL     OW32506   4.992   1.265   4.356
10536SOL    HW132507   5.070   1.228   4.306
10536SOL    HW232508   4.929   1.310   4.292
10537SOL     OW32509   4.739   6.892   3.012
10537SOL    HW132510   4.810   6.904   2.943
10537SOL    HW232511   4.651   6.880   2.966
10538SOL     OW32512   6.605   3.158   2.295
10538SOL    HW132513   6.608   3.204   2.206
10538SOL    HW232514   6.520   3.106   2.303
10539SOL     OW32515   6.098   6.637   2.924
10539SOL    HW132516   6.098   6.546   2.966
10539SOL    HW232517   6.177   6.646   2.863
10540SOL     OW32518   2.413   3.740   6.090
10540SOL    HW132519   2.465   3.689   6.022
10540SOL    HW232520   2.464   3.745   6.175
10541SOL     OW32521   2.942   3.195   4.992
10541SOL    HW132522   3.012   3.138   5.036
10541SOL    HW232523   2.857   3.143   4.984
10542SOL     OW32524   6.155   6.903   4.489
10542SOL    HW132525   6.216   6.846   4.543
10542SOL    HW232526   6.203   6.986   4.461
10543SOL     OW32527   0.094   3.221   5.717
10543SOL    HW132528   0.171   3.219   5.652
10543SOL    HW232529   0.015   3.263   5.673
10544SOL     OW32530   1.294   1.409   3.630
10544SOL    HW132531   1.299   1.379   3.534
10544SOL    HW232532   1.235   1.346   3.681
10545SOL     OW32533   2.595   2.264   3.038
10545SOL    HW132534   2.646   2.287   2.955
10545SOL    HW232535   2.590   2.344   3.097
10546SOL     OW32536   3.282   0.047   1.055
10546SOL    HW132537   3.274   0.036   1.155
10546SOL    HW232538   3.212   0.110   1.023
10547SOL     OW32539   4.388   6.674   5.274
10547SOL    HW132540   4.481   6.701   5.294
10547SOL    HW232541   4.384   6.634   5.182
10548SOL     OW32542   1.169   4.716   4.277
10548SOL    HW132543   1.113   4.639   4.308
10548SOL    HW232544   1.190   4.705   4.180
10549SOL     OW32545   0.362   1.274   0.947
10549SOL    HW132546   0.285   1.336   0.932
10549SOL    HW232547   0.387   1.230   0.861
10550SOL     OW32548   3.721   6.084   3.059
10550SOL    HW132549   3.742   6.171   3.014
10550SOL    HW232550   3.637   6.046   3.020
10551SOL     OW32551   3.346   2.091   5.919
10551SOL    HW132552   3.259   2.058   5.957
10551SOL    HW232553   3.332   2.181   5.877
10552SOL     OW32554   3.405   0.875   4.594
10552SOL    HW132555   3.457   0.869   4.679
10552SOL    HW232556   3.351   0.791   4.581
10553SOL     OW32557   0.362   5.073   0.259
10553SOL    HW132558   0.341   4.981   0.225
10553SOL    HW232559   0.448   5.072   0.309
10554SOL     OW32560   6.242   5.143   2.802
10554SOL    HW132561   6.150   5.158   2.766
10554SOL    HW232562   6.236   5.097   2.890
10555SOL     OW32563   3.468   2.416   0.413
10555SOL    HW132564   3.399   2.344   0.420
10555SOL    HW232565   3.543   2.384   0.354
10556SOL     OW32566   1.872   1.949   3.057
10556SOL    HW132567   1.953   2.002   3.083
10556SOL    HW232568   1.826   1.994   2.980
10557SOL     OW32569   2.144   3.711   3.645
10557SOL    HW132570   2.178   3.764   3.568
10557SOL    HW232571   2.162   3.762   3.730
10558SOL     OW32572   2.859   5.489   5.667
10558SOL    HW132573   2.923   5.452   5.599
10558SOL    HW232574   2.910   5.546   5.732
10559SOL     OW32575   3.549   0.242   6.453
10559SOL    HW132576   3.540   0.334   6.492
10559SOL    HW232577   3.484   0.180   6.497
10560SOL     OW32578   5.154   6.799   1.759
10560SOL    HW132579   5.164   6.701   1.779
10560SOL    HW232580   5.236   6.832   1.712
10561SOL     OW32581   5.863   3.770   0.445
10561SOL    HW132582   5.784   3.805   0.393
10561SOL    HW232583   5.847   3.674   0.468
10562SOL     OW32584   3.105   6.636   1.434
10562SOL    HW132585   3.180   6.582   1.473
10562SOL    HW232586   3.120   6.648   1.336
10563SOL     OW32587   0.428   0.182   0.521
10563SOL    HW132588   0.518   0.146   0.496
10563SOL    HW232589   0.374   0.110   0.565
10564SOL     OW32590   6.147   6.049   3.577
10564SOL    HW132591   6.164   6.093   3.665
10564SOL    HW232592   6.199   5.963   3.572
10565SOL     OW32593   6.554   6.975   5.153
10565SOL    HW132594   6.615   0.021   5.118
10565SOL    HW232595   6.476   6.965   5.091
10566SOL     OW32596   2.849   2.777   0.314
10566SOL    HW132597   2.937   2.822   0.325
10566SOL    HW232598   2.779   2.825   0.368
10567SOL     OW32599   1.244   1.906   6.578
10567SOL    HW132600   1.201   1.890   6.666
10567SOL    HW232601   1.324   1.846   6.569
10568SOL     OW32602   4.933   2.543   6.285
10568SOL    HW132603   5.017   2.562   6.234
10568SOL    HW232604   4.855   2.583   6.236
10569SOL     OW32605   5.365   6.884   1.601
10569SOL    HW132606   5.380   6.983   1.598
10569SOL    HW232607   5.403   6.843   1.518
10570SOL     OW32608   0.414   5.060   4.331
10570SOL    HW132609   0.449   5.149   4.300
10570SOL    HW232610   0.461   4.987   4.282
10571SOL     OW32611   6.952   4.217   5.527
10571SOL    HW132612   7.013   4.296   5.527
10571SOL    HW232613   6.977   4.156   5.602
10572SOL     OW32614   6.034   4.787   1.409
10572SOL    HW132615   6.012   4.854   1.481
10572SOL    HW232616   5.962   4.787   1.340
10573SOL     OW32617   5.828   0.923   3.503
10573SOL    HW132618   5.866   0.837   3.469
10573SOL    HW232619   5.806   0.913   3.600
10574SOL     OW32620   0.253   1.582   3.784
10574SOL    HW132621   0.277   1.485   3.787
10574SOL    HW232622   0.336   1.637   3.785
10575SOL     OW32623   6.453   0.986   2.076
10575SOL    HW132624   6.357   1.013   2.080
10575SOL    HW232625   6.509   1.057   2.121
10576SOL     OW32626   2.218   5.108   3.739
10576SOL    HW132627   2.205   5.013   3.710
10576SOL    HW232628   2.281   5.111   3.816
10577SOL     OW32629   4.039   6.489   1.019
10577SOL    HW132630   4.084   6.400   1.015
10577SOL    HW232631   3.941   6.478   1.003
10578SOL     OW32632   6.342   2.232   4.063
10578SOL    HW132633   6.415   2.262   4.123
10578SOL    HW232634   6.265   2.296   4.068
10579SOL     OW32635   2.454   3.429   1.246
10579SOL    HW132636   2.420   3.337   1.225
10579SOL    HW232637   2.452   3.442   1.345
10580SOL     OW32638   6.330   6.939   6.529
10580SOL    HW132639   6.407   6.996   6.557
10580SOL    HW232640   6.279   6.910   6.610
10581SOL     OW32641   5.362   6.885   3.449
10581SOL    HW132642   5.263   6.891   3.463
10581SOL    HW232643   5.406   6.962   3.495
10582SOL     OW32644   5.823   4.784   6.653
10582SOL    HW132645   5.886   4.707   6.663
10582SOL    HW232646   5.847   4.856   6.717
10583SOL     OW32647   2.732   0.502   4.079
10583SOL    HW132648   2.727   0.424   4.141
10583SOL    HW232649   2.640   0.536   4.060
10584SOL     OW32650   0.071   6.996   5.133
10584SOL    HW132651   0.118   7.024   5.049
10584SOL    HW232652   0.096   0.033   5.207
10585SOL     OW32653   0.705   1.172   5.906
10585SOL    HW132654   0.790   1.202   5.950
10585SOL    HW232655   0.629   1.184   5.969
10586SOL     OW32656   4.853   4.671   5.578
10586SOL    HW132657   4.881   4.579   5.606
10586SOL    HW232658   4.814   4.719   5.656
10587SOL     OW32659   0.988   5.558   5.472
10587SOL    HW132660   1.062   5.567   5.539
10587SOL    HW232661   0.986   5.464   5.437
10588SOL     OW32662   0.996   3.915   3.970
10588SOL    HW132663   0.983   3.944   4.065
10588SOL    HW232664   1.086   3.944   3.938
10589SOL     OW32665   5.437   6.322   4.058
10589SOL    HW132666   5.520   6.320   4.002
10589SOL    HW232667   5.423   6.414   4.094
10590SOL     OW32668   0.550   5.218   2.036
10590SOL    HW132669   0.535   5.312   2.004
10590SOL    HW232670   0.619   5.174   1.979
10591SOL     OW32671   1.407   1.732   1.274
10591SOL    HW132672   1.461   1.754   1.355
10591SOL    HW232673   1.313   1.713   1.302
10592SOL     OW32674   5.676   2.175   5.537
10592SOL    HW132675   5.658   2.115   5.615
10592SOL    HW232676   5.616   2.150   5.461
10593SOL     OW32677   3.022   6.332   1.640
10593SOL    HW132678   3.024   6.314   1.739
10593SOL    HW232679   2.939   6.292   1.601
10594SOL     OW32680   3.524   0.111   3.400
10594SOL    HW132681   3.603   0.086   3.457
10594SOL    HW232682   3.551   0.108   3.304
10595SOL     OW32683   6.024   0.472   0.979
10595SOL    HW132684   5.948   0.416   1.011
10595SOL    HW232685   6.049   0.538   1.050
10596SOL     OW32686   4.578   1.568   6.899
10596SOL    HW132687   4.607   1.608   6.986
10596SOL    HW232688   4.653   1.513   6.861
10597SOL     OW32689   2.339   0.168   5.851
10597SOL    HW132690   2.239   0.166   5.850
10597SOL    HW232691   2.371   0.223   5.928
10598SOL     OW32692   2.332   1.560   6.003
10598SOL    HW132693   2.298   1.649   6.034
10598SOL    HW232694   2.261   1.491   6.017
10599SOL     OW32695   6.968   3.483   6.212
10599SOL    HW132696   6.948   3.397   6.259
10599SOL    HW232697   6.920   3.558   6.257
10600SOL     OW32698   2.561   1.926   1.985
10600SOL    HW132699   2.521   2.007   1.941
10600SOL    HW232700   2.605   1.954   2.071
10601SOL     OW32701   0.339   6.964   6.491
10601SOL    HW132702   0.300   0.028   6.514
10601SOL    HW232703   0.267   6.904   6.456
10602SOL     OW32704   0.169   6.978   0.352
10602SOL    HW132705   0.143   7.014   0.441
10602SOL    HW232706   0.094   6.922   0.315
10603SOL     OW32707   4.639   6.500   1.908
10603SOL    HW132708   4.586   6.584   1.900
10603SOL    HW232709   4.737   6.522   1.910
10604SOL     OW32710   0.235   0.070   4.870
10604SOL    HW132711   0.181   0.147   4.903
10604SOL    HW232712   0.332   0.096   4.867
10605SOL     OW32713   2.556   1.488   0.962
10605SOL    HW132714   2.539   1.423   1.037
10605SOL    HW232715   2.653   1.489   0.941
10606SOL     OW32716   6.546   0.898   1.377
10606SOL    HW132717   6.527   0.873   1.282
10606SOL    HW232718   6.559   0.816   1.432
10607SOL     OW32719   3.764   4.251   6.014
10607SOL    HW132720   3.843   4.250   6.076
10607SOL    HW232721   3.794   4.272   5.921
10608SOL     OW32722   6.323   2.918   2.692
10608SOL    HW132723   6.281   2.887   2.777
10608SOL    HW232724   6.259   2.906   2.616
10609SOL     OW32725   3.927   0.664   0.241
10609SOL    HW132726   3.894   0.637   0.151
10609SOL    HW232727   3.882   0.608   0.311
10610SOL     OW32728   0.192   1.423   4.877
10610SOL    HW132729   0.264   1.483   4.843
10610SOL    HW232730   0.232   1.346   4.926
10611SOL     OW32731   2.519   5.763   4.909
10611SOL    HW132732   2.464   5.721   4.981
10611SOL    HW232733   2.505   5.714   4.823
10612SOL     OW32734   5.082   1.567   3.931
10612SOL    HW132735   5.077   1.498   3.859
10612SOL    HW232736   5.115   1.653   3.892
10613SOL     OW32737   6.137   6.588   4.251
10613SOL    HW132738   6.212   6.651   4.270
10613SOL    HW232739   6.051   6.638   4.251
10614SOL     OW32740   5.081   0.311   6.862
10614SOL    HW132741   5.045   0.308   6.769
10614SOL    HW232742   5.115   0.403   6.882
10615SOL     OW32743   2.437   2.327   6.360
10615SOL    HW132744   2.435   2.356   6.264
10615SOL    HW232745   2.531   2.307   6.386
10616SOL     OW32746   2.398   5.833   6.498
10616SOL    HW132747   2.406   5.780   6.583
10616SOL    HW232748   2.347   5.917   6.516
10617SOL     OW32749   2.940   3.271   1.430
10617SOL    HW132750   2.864   3.327   1.465
10617SOL    HW232751   2.978   3.216   1.504
10618SOL     OW32752   0.650   5.254   4.989
10618SOL    HW132753   0.570   5.298   4.948
10618SOL    HW232754   0.732   5.282   4.940
10619SOL     OW32755   1.088   2.071   3.204
10619SOL    HW132756   1.088   2.077   3.303
10619SOL    HW232757   1.047   1.984   3.175
10620SOL     OW32758   2.547   6.886   6.452
10620SOL    HW132759   2.563   6.980   6.420
10620SOL    HW232760   2.596   6.822   6.393
10621SOL     OW32761   1.331   3.575   2.993
10621SOL    HW132762   1.289   3.644   2.934
10621SOL    HW232763   1.389   3.515   2.937
10622SOL     OW32764   4.187   3.415   0.814
10622SOL    HW132765   4.145   3.405   0.724
10622SOL    HW232766   4.250   3.340   0.831
10623SOL     OW32767   5.780   5.834   6.429
10623SOL    HW132768   5.804   5.792   6.516
10623SOL    HW232769   5.853   5.897   6.401
10624SOL     OW32770   0.632   2.637   5.436
10624SOL    HW132771   0.716   2.620   5.486
10624SOL    HW232772   0.577   2.705   5.485
10625SOL     OW32773   6.727   3.842   6.384
10625SOL    HW132774   6.757   3.764   6.438
10625SOL    HW232775   6.798   3.868   6.320
10626SOL     OW32776   4.002   3.307   1.568
10626SOL    HW132777   3.955   3.315   1.656
10626SOL    HW232778   4.078   3.372   1.565
10627SOL     OW32779   5.588   6.306   5.886
10627SOL    HW132780   5.573   6.390   5.937
10627SOL    HW232781   5.502   6.254   5.882
10628SOL     OW32782   4.192   0.449   0.367
10628SOL    HW132783   4.188   0.360   0.413
10628SOL    HW232784   4.287   0.470   0.344
10629SOL     OW32785   3.845   5.599   4.535
10629SOL    HW132786   3.808   5.506   4.532
10629SOL    HW232787   3.803   5.649   4.611
10630SOL     OW32788   4.578   0.431   3.164
10630SOL    HW132789   4.511   0.361   3.138
10630SOL    HW232790   4.628   0.401   3.245
10631SOL     OW32791   4.614   5.916   0.150
10631SOL    HW132792   4.586   5.838   0.095
10631SOL    HW232793   4.614   5.890   0.247
10632SOL     OW32794   4.753   5.860   3.204
10632SOL    HW132795   4.684   5.833   3.138
10632SOL    HW232796   4.730   5.824   3.294
10633SOL     OW32797   2.111   3.044   2.105
10633SOL    HW132798   2.202   3.004   2.115
10633SOL    HW232799   2.050   3.004   2.174
10634SOL     OW32800   0.667   4.951   6.869
10634SOL    HW132801   0.663   4.908   6.779
10634SOL    HW232802   0.720   4.892   6.931
10635SOL     OW32803   2.452   3.624   0.451
10635SOL    HW132804   2.470   3.581   0.363
10635SOL    HW232805   2.354   3.621   0.470
10636SOL     OW32806   6.660   2.370   6.718
10636SOL    HW132807   6.697   2.297   6.661
10636SOL    HW232808   6.576   2.406   6.676
10637SOL     OW32809   3.106   6.650   6.386
10637SOL    HW132810   3.098   6.714   6.309
10637SOL    HW232811   3.122   6.701   6.470
10638SOL     OW32812   6.825   5.322   1.885
10638SOL    HW132813   6.727   5.313   1.868
10638SOL    HW232814   6.877   5.277   1.813
10639SOL     OW32815   2.034   3.360   1.505
10639SOL    HW132816   1.959   3.399   1.557
10639SOL    HW232817   2.121   3.389   1.545
10640SOL     OW32818   3.940   0.023   3.667
10640SOL    HW132819   4.003   6.972   3.660
10640SOL    HW232820   3.982   0.105   3.630
10641SOL     OW32821   0.680   0.274   2.900
10641SOL    HW132822   0.712   0.222   2.821
10641SOL    HW232823   0.710   0.230   2.984
10642SOL     OW32824   6.216   2.393   0.062
10642SOL    HW132825   6.271   2.430   7.013
10642SOL    HW232826   6.274   2.337   0.120
10643SOL     OW32827   1.674   4.762   5.190
10643SOL    HW132828   1.681   4.673   5.146
10643SOL    HW232829   1.720   4.831   5.134
10644SOL     OW32830   0.167   2.550   2.455
10644SOL    HW132831   0.178   2.648   2.441
10644SOL    HW232832   0.166   2.530   2.553
10645SOL     OW32833   2.355   2.787   3.264
10645SOL    HW132834   2.391   2.880   3.262
10645SOL    HW232835   2.356   2.749   3.171
10646SOL     OW32836   5.217   1.629   4.656
10646SOL    HW132837   5.197   1.617   4.559
10646SOL    HW232838   5.184   1.549   4.707
10647SOL     OW32839   3.987   5.113   4.817
10647SOL    HW132840   3.901   5.073   4.848
10647SOL    HW232841   3.976   5.212   4.809
10648SOL     OW32842   5.676   4.931   4.889
10648SOL    HW132843   5.639   5.019   4.917
10648SOL    HW232844   5.719   4.887   4.968
10649SOL     OW32845   0.382   3.184   3.317
10649SOL    HW132846   0.316   3.225   3.254
10649SOL    HW232847   0.363   3.086   3.326
10650SOL     OW32848   7.011   0.121   4.201
10650SOL    HW132849   6.997   0.181   4.122
10650SOL    HW232850   6.946   0.045   4.198
10651SOL     OW32851   4.866   6.235   5.467
10651SOL    HW132852   4.794   6.165   5.460
10651SOL    HW232853   4.838   6.316   5.416
10652SOL     OW32854   1.316   6.761   6.072
10652SOL    HW132855   1.332   6.749   6.170
10652SOL    HW232856   1.384   6.709   6.021
10653SOL     OW32857   3.696   6.301   4.682
10653SOL    HW132858   3.774   6.307   4.620
10653SOL    HW232859   3.669   6.393   4.710
10654SOL     OW32860   5.185   1.647   4.365
10654SOL    HW132861   5.223   1.739   4.378
10654SOL    HW232862   5.086   1.653   4.362
10655SOL     OW32863   1.282   4.724   1.345
10655SOL    HW132864   1.337   4.655   1.297
10655SOL    HW232865   1.230   4.680   1.418
10656SOL     OW32866   6.852   1.455   1.897
10656SOL    HW132867   6.870   1.391   1.822
10656SOL    HW232868   6.787   1.525   1.866
10657SOL     OW32869   6.171   0.760   4.254
10657SOL    HW132870   6.101   0.831   4.256
10657SOL    HW232871   6.135   0.678   4.209
10658SOL     OW32872   5.495   3.486   4.725
10658SOL    HW132873   5.548   3.402   4.716
10658SOL    HW232874   5.557   3.563   4.742
10659SOL     OW32875   0.910   4.607   0.884
10659SOL    HW132876   0.937   4.694   0.925
10659SOL    HW232877   0.926   4.609   0.786
10660SOL     OW32878   6.356   3.443   5.721
10660SOL    HW132879   6.308   3.398   5.646
10660SOL    HW232880   6.289   3.472   5.790
10661SOL     OW32881   1.191   4.521   0.285
10661SOL    HW132882   1.218   4.617   0.273
10661SOL    HW232883   1.268   4.469   0.320
10662SOL     OW32884   2.932   1.307   2.966
10662SOL    HW132885   2.953   1.388   3.020
10662SOL    HW232886   2.964   1.225   3.014
10663SOL     OW32887   1.263   0.892   3.399
10663SOL    HW132888   1.331   0.867   3.468
10663SOL    HW232889   1.267   0.827   3.323
10664SOL     OW32890   1.197   5.185   4.299
10664SOL    HW132891   1.198   5.187   4.199
10664SOL    HW232892   1.246   5.103   4.330
10665SOL     OW32893   2.259   3.513   6.436
10665SOL    HW132894   2.196   3.591   6.439
10665SOL    HW232895   2.258   3.473   6.344
10666SOL     OW32896   3.802   3.290   2.185
10666SOL    HW132897   3.852   3.205   2.168
10666SOL    HW232898   3.787   3.301   2.283
10667SOL     OW32899   5.472   2.258   2.610
10667SOL    HW132900   5.454   2.176   2.664
10667SOL    HW232901   5.400   2.271   2.543
10668SOL     OW32902   3.273   1.978   5.457
10668SOL    HW132903   3.283   2.066   5.411
10668SOL    HW232904   3.205   1.923   5.409
10669SOL     OW32905   5.965   1.070   0.657
10669SOL    HW132906   6.041   1.135   0.650
10669SOL    HW232907   5.919   1.062   0.569
10670SOL     OW32908   4.813   4.109   4.266
10670SOL    HW132909   4.749   4.091   4.191
10670SOL    HW232910   4.799   4.202   4.300
10671SOL     OW32911   1.342   1.383   4.316
10671SOL    HW132912   1.246   1.382   4.286
10671SOL    HW232913   1.350   1.438   4.399
10672SOL     OW32914   6.179   4.093   1.570
10672SOL    HW132915   6.183   3.993   1.569
10672SOL    HW232916   6.256   4.130   1.517
10673SOL     OW32917   2.042   0.571   0.794
10673SOL    HW132918   1.994   0.647   0.750
10673SOL    HW232919   2.092   0.518   0.725
10674SOL     OW32920   4.106   3.349   4.481
10674SOL    HW132921   4.072   3.265   4.438
10674SOL    HW232922   4.094   3.343   4.580
10675SOL     OW32923   3.501   1.295   6.529
10675SOL    HW132924   3.465   1.385   6.504
10675SOL    HW232925   3.500   1.236   6.449
10676SOL     OW32926   0.842   5.751   4.774
10676SOL    HW132927   0.841   5.758   4.675
10676SOL    HW232928   0.755   5.785   4.811
10677SOL     OW32929   1.565   1.647   0.669
10677SOL    HW132930   1.634   1.720   0.675
10677SOL    HW232931   1.571   1.589   0.750
10678SOL     OW32932   3.781   4.916   3.557
10678SOL    HW132933   3.713   4.979   3.519
10678SOL    HW232934   3.822   4.957   3.639
10679SOL     OW32935   3.997   4.845   0.421
10679SOL    HW132936   4.058   4.908   0.373
10679SOL    HW232937   3.975   4.883   0.511
10680SOL     OW32938   3.441   1.816   4.182
10680SOL    HW132939   3.509   1.792   4.112
10680SOL    HW232940   3.411   1.733   4.229
10681SOL     OW32941   6.750   3.632   6.963
10681SOL    HW132942   6.672   3.690   6.943
10681SOL    HW232943   6.740   3.592   0.029
10682SOL     OW32944   6.226   3.131   4.629
10682SOL    HW132945   6.240   3.071   4.707
10682SOL    HW232946   6.191   3.219   4.661
10683SOL     OW32947   4.412   0.209   3.490
10683SOL    HW132948   4.491   0.260   3.454
10683SOL    HW232949   4.392   0.241   3.582
10684SOL     OW32950   5.223   5.203   1.253
10684SOL    HW132951   5.259   5.180   1.343
10684SOL    HW232952   5.238   5.300   1.235
10685SOL     OW32953   6.499   5.694   1.914
10685SOL    HW132954   6.451   5.673   1.829
10685SOL    HW232955   6.589   5.649   1.913
10686SOL     OW32956   1.662   3.964   6.549
10686SOL    HW132957   1.622   4.021   6.478
10686SOL    HW232958   1.756   3.941   6.525
10687SOL     OW32959   6.482   4.840   2.999
10687SOL    HW132960   6.444   4.763   3.050
10687SOL    HW232961   6.533   4.899   3.061
10688SOL     OW32962   5.442   1.375   2.185
10688SOL    HW132963   5.411   1.289   2.144
10688SOL    HW232964   5.382   1.449   2.155
10689SOL     OW32965   0.466   0.126   1.805
10689SOL    HW132966   0.517   0.125   1.718
10689SOL    HW232967   0.375   0.163   1.789
10690SOL     OW32968   0.047   5.302   3.744
10690SOL    HW132969   0.051   5.352   3.831
10690SOL    HW232970   6.987   5.323   3.698
10691SOL     OW32971   2.247   1.812   2.115
10691SOL    HW132972   2.173   1.752   2.147
10691SOL    HW232973   2.316   1.758   2.069
10692SOL     OW32974   3.135   0.945   4.653
10692SOL    HW132975   3.230   0.952   4.622
10692SOL    HW232976   3.128   0.976   4.747
10693SOL     OW32977   0.634   5.911   1.674
10693SOL    HW132978   0.599   5.994   1.631
10693SOL    HW232979   0.569   5.877   1.741
10694SOL     OW32980   5.058   6.517   6.092
10694SOL    HW132981   5.026   6.455   6.020
10694SOL    HW232982   4.982   6.577   6.119
10695SOL     OW32983   1.351   2.959   1.177
10695SOL    HW132984   1.419   2.961   1.104
10695SOL    HW232985   1.373   2.886   1.242
10696SOL     OW32986   5.887   3.643   5.191
10696SOL    HW132987   5.928   3.565   5.144
10696SOL    HW232988   5.795   3.619   5.222
10697SOL     OW32989   0.263   6.346   5.819
10697SOL    HW132990   0.315   6.280   5.764
10697SOL    HW232991   0.169   6.313   5.829
10698SOL     OW32992   4.927   4.199   0.293
10698SOL    HW132993   4.942   4.141   0.213
10698SOL    HW232994   4.829   4.219   0.302
10699SOL     OW32995   3.937   4.428   0.875
10699SOL    HW132996   4.019   4.485   0.865
10699SOL    HW232997   3.940   4.383   0.964
10700SOL     OW32998   5.965   6.964   0.806
10700SOL    HW132999   5.942   0.033   0.784
10700SOL    HW233000   6.064   6.957   0.821
10701SOL     OW33001   3.092   0.204   6.075
10701SOL    HW133002   3.029   0.127   6.081
10701SOL    HW233003   3.120   0.217   5.979
10702SOL     OW33004   4.878   3.397   2.646
10702SOL    HW133005   4.974   3.426   2.645
10702SOL    HW233006   4.830   3.443   2.721
10703SOL     OW33007   2.242   2.924   5.483
10703SOL    HW133008   2.224   2.953   5.389
10703SOL    HW233009   2.250   3.005   5.541
10704SOL     OW33010   6.911   5.002   2.526
10704SOL    HW133011   7.011   5.004   2.525
10704SOL    HW233012   6.877   5.024   2.434
10705SOL     OW33013   5.996   5.048   0.831
10705SOL    HW133014   5.925   4.997   0.881
10705SOL    HW233015   6.068   4.985   0.802
10706SOL     OW33016   4.741   6.751   1.633
10706SOL    HW133017   4.682   6.688   1.684
10706SOL    HW233018   4.684   6.813   1.579
10707SOL     OW33019   7.024   6.500   4.324
10707SOL    HW133020   0.082   6.525   4.274
10707SOL    HW233021   0.022   6.453   4.408
10708SOL     OW33022   4.611   1.196   1.898
10708SOL    HW133023   4.556   1.157   1.824
10708SOL    HW233024   4.589   1.149   1.984
10709SOL     OW33025   5.856   5.650   4.447
10709SOL    HW133026   5.782   5.706   4.411
10709SOL    HW233027   5.857   5.561   4.401
10710SOL     OW33028   5.237   0.812   3.893
10710SOL    HW133029   5.238   0.836   3.990
10710SOL    HW233030   5.318   0.759   3.871
10711SOL     OW33031   2.183   6.687   3.832
10711SOL    HW133032   2.246   6.610   3.836
10711SOL    HW233033   2.089   6.653   3.824
10712SOL     OW33034   3.952   0.254   2.836
10712SOL    HW133035   3.985   0.343   2.867
10712SOL    HW233036   3.880   0.222   2.897
10713SOL     OW33037   1.395   2.665   0.133
10713SOL    HW133038   1.486   2.694   0.103
10713SOL    HW233039   1.390   2.565   0.128
10714SOL     OW33040   4.572   3.301   5.323
10714SOL    HW133041   4.496   3.255   5.369
10714SOL    HW233042   4.545   3.395   5.300
10715SOL     OW33043   4.105   0.443   2.184
10715SOL    HW133044   4.113   0.346   2.205
10715SOL    HW233045   4.177   0.470   2.119
10716SOL     OW33046   6.255   2.592   2.467
10716SOL    HW133047   6.301   2.514   2.425
10716SOL    HW233048   6.167   2.562   2.505
10717SOL     OW33049   1.775   2.907   0.883
10717SOL    HW133050   1.852   2.869   0.934
10717SOL    HW233051   1.808   2.949   0.799
10718SOL     OW33052   0.917   4.086   6.847
10718SOL    HW133053   0.956   4.026   6.777
10718SOL    HW233054   0.836   4.042   6.886
10719SOL     OW33055   6.039   5.669   3.248
10719SOL    HW133056   6.023   5.570   3.253
10719SOL    HW233057   5.974   5.710   3.185
10720SOL     OW33058   6.006   5.159   4.351
10720SOL    HW133059   5.998   5.187   4.446
10720SOL    HW233060   6.090   5.107   4.338
10721SOL     OW33061   5.147   4.094   5.090
10721SOL    HW133062   5.237   4.051   5.096
10721SOL    HW233063   5.155   4.191   5.115
10722SOL     OW33064   6.498   4.407   0.204
10722SOL    HW133065   6.550   4.491   0.218
10722SOL    HW233066   6.413   4.428   0.155
10723SOL     OW33067   0.254   1.917   6.367
10723SOL    HW133068   0.267   1.984   6.440
10723SOL    HW233069   0.341   1.873   6.347
10724SOL     OW33070   6.220   6.772   6.328
10724SOL    HW133071   6.275   6.820   6.397
10724SOL    HW233072   6.271   6.768   6.242
10725SOL     OW33073   1.928   5.865   5.381
10725SOL    HW133074   1.861   5.795   5.408
10725SOL    HW233075   1.911   5.949   5.431
10726SOL     OW33076   4.987   0.832   4.156
10726SOL    HW133077   4.947   0.920   4.181
10726SOL    HW233078   4.915   0.762   4.155
10727SOL     OW33079   0.365   5.503   6.001
10727SOL    HW133080   0.343   5.542   5.912
10727SOL    HW233081   0.458   5.529   6.027
10728SOL     OW33082   1.084   5.021   6.305
10728SOL    HW133083   1.016   4.978   6.364
10728SOL    HW233084   1.051   5.112   6.277
10729SOL     OW33085   6.269   1.298   2.322
10729SOL    HW133086   6.263   1.199   2.327
10729SOL    HW233087   6.192   1.339   2.371
10730SOL     OW33088   3.197   0.388   0.739
10730SOL    HW133089   3.222   0.480   0.768
10730SOL    HW233090   3.140   0.392   0.657
10731SOL     OW33091   3.329   0.874   0.481
10731SOL    HW133092   3.235   0.883   0.448
10731SOL    HW233093   3.383   0.824   0.413
10732SOL     OW33094   0.499   4.640   5.217
10732SOL    HW133095   0.453   4.600   5.297
10732SOL    HW233096   0.555   4.570   5.172
10733SOL     OW33097   6.413   1.925   6.712
10733SOL    HW133098   6.465   1.888   6.636
10733SOL    HW233099   6.458   1.903   6.798
10734SOL     OW33100   1.594   1.444   0.433
10734SOL    HW133101   1.686   1.432   0.469
10734SOL    HW233102   1.535   1.370   0.465
10735SOL     OW33103   0.589   2.604   2.407
10735SOL    HW133104   0.538   2.680   2.365
10735SOL    HW233105   0.579   2.523   2.350
10736SOL     OW33106   1.288   0.346   3.160
10736SOL    HW133107   1.238   0.432   3.155
10736SOL    HW233108   1.351   0.348   3.238
10737SOL     OW33109   1.423   2.088   0.844
10737SOL    HW133110   1.441   2.185   0.828
10737SOL    HW233111   1.419   2.070   0.942
10738SOL     OW33112   2.861   6.869   2.419
10738SOL    HW133113   2.937   6.833   2.473
10738SOL    HW233114   2.831   6.800   2.353
10739SOL     OW33115   2.241   1.178   1.433
10739SOL    HW133116   2.298   1.244   1.482
10739SOL    HW233117   2.221   1.214   1.341
10740SOL     OW33118   0.084   5.199   5.636
10740SOL    HW133119   0.059   5.291   5.604
10740SOL    HW233120   0.107   5.203   5.733
10741SOL     OW33121   4.557   1.087   1.511
10741SOL    HW133122   4.651   1.107   1.538
10741SOL    HW233123   4.546   0.988   1.500
10742SOL     OW33124   5.972   0.126   1.391
10742SOL    HW133125   6.048   0.190   1.384
10742SOL    HW233126   5.968   0.089   1.484
10743SOL     OW33127   1.312   2.699   5.822
10743SOL    HW133128   1.350   2.792   5.828
10743SOL    HW233129   1.270   2.675   5.909
10744SOL     OW33130   3.590   1.158   0.907
10744SOL    HW133131   3.514   1.222   0.907
10744SOL    HW233132   3.668   1.197   0.859
10745SOL     OW33133   6.568   6.009   5.863
10745SOL    HW133134   6.484   5.981   5.908
10745SOL    HW233135   6.637   5.937   5.872
10746SOL     OW33136   1.899   4.558   1.014
10746SOL    HW133137   1.930   4.529   1.104
10746SOL    HW233138   1.807   4.597   1.021
10747SOL     OW33139   3.573   1.397   4.872
10747SOL    HW133140   3.495   1.458   4.874
10747SOL    HW233141   3.651   1.441   4.917
10748SOL     OW33142   5.576   1.189   1.197
10748SOL    HW133143   5.569   1.094   1.227
10748SOL    HW233144   5.484   1.226   1.182
10749SOL     OW33145   0.170   5.801   3.832
10749SOL    HW133146   0.072   5.785   3.843
10749SOL    HW233147   0.192   5.896   3.855
10750SOL     OW33148   4.295   6.217   4.782
10750SOL    HW133149   4.387   6.251   4.800
10750SOL    HW233150   4.286   6.193   4.685
10751SOL     OW33151   1.487   4.880   4.065
10751SOL    HW133152   1.568   4.939   4.058
10751SOL    HW233153   1.430   4.891   3.984
10752SOL     OW33154   6.153   4.770   4.848
10752SOL    HW133155   6.251   4.751   4.837
10752SOL    HW233156   6.101   4.713   4.784
10753SOL     OW33157   6.385   4.828   4.177
10753SOL    HW133158   6.369   4.785   4.266
10753SOL    HW233159   6.465   4.786   4.134
10754SOL     OW33160   0.375   6.667   3.210
10754SOL    HW133161   0.288   6.712   3.229
10754SOL    HW233162   0.430   6.725   3.150
10755SOL     OW33163   6.801   0.263   0.811
10755SOL    HW133164   6.763   0.351   0.782
10755SOL    HW233165   6.865   0.278   0.886
10756SOL     OW33166   6.852   5.294   6.102
10756SOL    HW133167   6.884   5.387   6.123
10756SOL    HW233168   6.845   5.284   6.003
10757SOL     OW33169   1.645   2.497   6.942
10757SOL    HW133170   1.638   2.584   6.991
10757SOL    HW233171   1.554   2.467   6.913
10758SOL     OW33172   1.053   6.034   4.163
10758SOL    HW133173   0.989   6.108   4.184
10758SOL    HW233174   1.028   5.952   4.216
10759SOL     OW33175   1.853   4.011   0.926
10759SOL    HW133176   1.885   3.977   1.014
10759SOL    HW233177   1.918   4.077   0.889
10760SOL     OW33178   5.541   0.567   3.018
10760SOL    HW133179   5.551   0.633   3.093
10760SOL    HW233180   5.628   0.521   3.003
10761SOL     OW33181   0.399   5.778   5.712
10761SOL    HW133182   0.356   5.830   5.638
10761SOL    HW233183   0.353   5.799   5.799
10762SOL     OW33184   2.842   1.230   4.324
10762SOL    HW133185   2.800   1.234   4.234
10762SOL    HW233186   2.940   1.250   4.316
10763SOL     OW33187   3.742   6.595   2.433
10763SOL    HW133188   3.819   6.534   2.414
10763SOL    HW233189   3.750   6.630   2.527
10764SOL     OW33190   5.306   2.165   5.721
10764SOL    HW133191   5.361   2.139   5.800
10764SOL    HW233192   5.211   2.137   5.735
10765SOL     OW33193   4.535   2.938   0.664
10765SOL    HW133194   4.465   2.903   0.603
10765SOL    HW233195   4.494   3.000   0.730
10766SOL     OW33196   4.182   4.857   0.786
10766SOL    HW133197   4.207   4.936   0.729
10766SOL    HW233198   4.232   4.862   0.872
10767SOL     OW33199   2.828   0.240   1.295
10767SOL    HW133200   2.890   0.285   1.358
10767SOL    HW233201   2.808   0.147   1.327
10768SOL     OW33202   5.145   4.987   1.118
10768SOL    HW133203   5.099   4.936   1.191
10768SOL    HW233204   5.170   5.078   1.152
10769SOL     OW33205   2.001   4.152   5.375
10769SOL    HW133206   2.062   4.088   5.327
10769SOL    HW233207   2.053   4.202   5.444
10770SOL     OW33208   5.171   6.401   3.890
10770SOL    HW133209   5.169   6.301   3.901
10770SOL    HW233210   5.255   6.436   3.931
10771SOL     OW33211   4.489   6.871   4.270
10771SOL    HW133212   4.406   6.924   4.250
10771SOL    HW233213   4.494   6.792   4.208
10772SOL     OW33214   6.196   6.711   4.968
10772SOL    HW133215   6.116   6.717   4.907
10772SOL    HW233216   6.257   6.639   4.935
10773SOL     OW33217   5.223   4.753   6.782
10773SOL    HW133218   5.282   4.830   6.807
10773SOL    HW233219   5.171   4.776   6.700
10774SOL     OW33220   1.931   1.169   6.164
10774SOL    HW133221   1.870   1.246   6.147
10774SOL    HW233222   2.005   1.170   6.096
10775SOL     OW33223   0.316   4.935   2.694
10775SOL    HW133224   0.409   4.929   2.659
10775SOL    HW233225   0.311   4.889   2.783
10776SOL     OW33226   0.513   1.115   6.643
10776SOL    HW133227   0.506   1.134   6.741
10776SOL    HW233228   0.447   1.044   6.618
10777SOL     OW33229   3.999   5.440   1.527
10777SOL    HW133230   3.929   5.509   1.512
10777SOL    HW233231   4.011   5.385   1.444
10778SOL     OW33232   5.149   0.089   3.740
10778SOL    HW133233   5.170   0.066   3.645
10778SOL    HW233234   5.197   0.172   3.766
10779SOL     OW33235   5.749   2.856   3.163
10779SOL    HW133236   5.674   2.803   3.124
10779SOL    HW233237   5.765   2.938   3.107
10780SOL     OW33238   1.472   0.499   4.049
10780SOL    HW133239   1.509   0.483   3.958
10780SOL    HW233240   1.447   0.411   4.090
10781SOL     OW33241   4.002   0.699   3.760
10781SOL    HW133242   4.094   0.674   3.730
10781SOL    HW233243   3.954   0.747   3.686
10782SOL     OW33244   6.945   0.780   3.252
10782SOL    HW133245   6.972   0.874   3.274
10782SOL    HW233246   6.859   0.781   3.201
10783SOL     OW33247   0.487   2.331   2.541
10783SOL    HW133248   0.558   2.354   2.607
10783SOL    HW233249   0.423   2.267   2.582
10784SOL     OW33250   3.607   0.974   4.042
10784SOL    HW133251   3.613   1.044   4.112
10784SOL    HW233252   3.660   0.894   4.070
10785SOL     OW33253   0.941   3.955   0.808
10785SOL    HW133254   0.883   4.015   0.864
10785SOL    HW233255   0.909   3.861   0.817
10786SOL     OW33256   5.846   5.036   3.270
10786SOL    HW133257   5.943   5.054   3.253
10786SOL    HW233258   5.792   5.071   3.193
10787SOL     OW33259   1.364   1.175   5.989
10787SOL    HW133260   1.463   1.163   5.988
10787SOL    HW233261   1.320   1.102   5.937
10788SOL     OW33262   0.877   4.499   0.005
10788SOL    HW133263   0.842   4.449   0.084
10788SOL    HW233264   0.976   4.485   7.023
10789SOL     OW33265   6.468   3.488   6.782
10789SOL    HW133266   6.399   3.485   6.710
10789SOL    HW233267   6.547   3.434   6.755
10790SOL     OW33268   1.045   6.682   2.220
10790SOL    HW133269   1.087   6.633   2.143
10790SOL    HW233270   1.047   6.780   2.201
10791SOL     OW33271   6.987   5.774   1.899
10791SOL    HW133272   6.957   5.859   1.856
10791SOL    HW233273   7.024   5.713   1.830
10792SOL     OW33274   3.668   3.015   4.865
10792SOL    HW133275   3.731   3.086   4.898
10792SOL    HW233276   3.617   2.977   4.942
10793SOL     OW33277   6.432   3.980   6.102
10793SOL    HW133278   6.342   3.944   6.079
10793SOL    HW233279   6.476   3.921   6.169
10794SOL     OW33280   4.062   3.752   4.011
10794SOL    HW133281   4.146   3.734   4.062
10794SOL    HW233282   4.009   3.823   4.056
10795SOL     OW33283   0.184   5.138   2.774
10795SOL    HW133284   0.155   5.203   2.703
10795SOL    HW233285   0.237   5.064   2.731
10796SOL     OW33286   6.407   0.022   5.377
10796SOL    HW133287   6.493   0.053   5.420
10796SOL    HW233288   6.416   0.026   5.278
10797SOL     OW33289   3.157   2.618   1.187
10797SOL    HW133290   3.204   2.561   1.255
10797SOL    HW233291   3.105   2.560   1.125
10798SOL     OW33292   2.523   1.220   0.381
10798SOL    HW133293   2.498   1.131   0.419
10798SOL    HW233294   2.526   1.213   0.281
10799SOL     OW33295   4.253   1.060   2.395
10799SOL    HW133296   4.323   1.079   2.464
10799SOL    HW233297   4.205   0.976   2.419
10800SOL     OW33298   0.813   6.300   5.786
10800SOL    HW133299   0.878   6.289   5.710
10800SOL    HW233300   0.856   6.270   5.871
10801SOL     OW33301   1.173   0.195   6.990
10801SOL    HW133302   1.209   0.250   0.040
10801SOL    HW233303   1.152   0.103   7.022
10802SOL     OW33304   0.541   0.517   2.897
10802SOL    HW133305   0.583   0.435   2.858
10802SOL    HW233306   0.442   0.505   2.901
10803SOL     OW33307   1.403   5.743   5.474
10803SOL    HW133308   1.488   5.781   5.511
10803SOL    HW233309   1.333   5.814   5.474
10804SOL     OW33310   6.664   3.226   2.902
10804SOL    HW133311   6.673   3.156   2.972
10804SOL    HW233312   6.578   3.214   2.853
10805SOL     OW33313   5.244   0.704   4.966
10805SOL    HW133314   5.160   0.757   4.965
10805SOL    HW233315   5.259   0.663   4.876
10806SOL     OW33316   3.718   4.538   6.416
10806SOL    HW133317   3.683   4.632   6.418
10806SOL    HW233318   3.741   4.513   6.322
10807SOL     OW33319   1.473   6.111   3.648
10807SOL    HW133320   1.423   6.146   3.727
10807SOL    HW233321   1.414   6.050   3.596
10808SOL     OW33322   7.021   2.207   5.885
10808SOL    HW133323   0.008   2.218   5.786
10808SOL    HW233324   0.076   2.165   5.925
10809SOL     OW33325   2.311   4.456   4.006
10809SOL    HW133326   2.384   4.494   3.949
10809SOL    HW233327   2.321   4.356   4.010
10810SOL     OW33328   0.044   6.900   3.681
10810SOL    HW133329   0.028   6.840   3.603
10810SOL    HW233330   0.037   6.996   3.651
10811SOL     OW33331   4.286   4.990   5.244
10811SOL    HW133332   4.321   5.080   5.268
10811SOL    HW233333   4.234   4.996   5.159
10812SOL     OW33334   6.952   4.378   6.513
10812SOL    HW133335   6.973   4.355   6.418
10812SOL    HW233336   6.853   4.385   6.524
10813SOL     OW33337   0.669   3.921   6.031
10813SOL    HW133338   0.678   4.001   6.091
10813SOL    HW233339   0.662   3.838   6.086
10814SOL     OW33340   2.069   6.946   6.842
10814SOL    HW133341   2.106   6.878   6.905
10814SOL    HW233342   2.043   0.002   6.892
10815SOL     OW33343   5.251   2.787   2.498
10815SOL    HW133344   5.178   2.748   2.555
10815SOL    HW233345   5.216   2.867   2.449
10816SOL     OW33346   3.684   3.659   2.578
10816SOL    HW133347   3.631   3.585   2.621
10816SOL    HW233348   3.623   3.713   2.520
10817SOL     OW33349   3.244   0.703   3.833
10817SOL    HW133350   3.267   0.655   3.748
10817SOL    HW233351   3.297   0.664   3.908
10818SOL     OW33352   4.445   4.854   5.713
10818SOL    HW133353   4.459   4.813   5.803
10818SOL    HW233354   4.367   4.916   5.716
10819SOL     OW33355   6.082   5.187   6.111
10819SOL    HW133356   5.995   5.230   6.134
10819SOL    HW233357   6.072   5.087   6.119
10820SOL     OW33358   0.237   5.445   4.574
10820SOL    HW133359   0.283   5.500   4.504
10820SOL    HW233360   0.139   5.465   4.573
10821SOL     OW33361   4.452   6.715   2.634
10821SOL    HW133362   4.501   6.741   2.551
10821SOL    HW233363   4.408   6.626   2.620
10822SOL     OW33364   6.775   1.909   1.248
10822SOL    HW133365   6.796   1.889   1.344
10822SOL    HW233366   6.837   1.857   1.189
10823SOL     OW33367   0.246   0.470   3.410
10823SOL    HW133368   0.211   0.498   3.500
10823SOL    HW233369   0.194   0.516   3.338
10824SOL     OW33370   0.670   1.423   2.484
10824SOL    HW133371   0.680   1.375   2.571
10824SOL    HW233372   0.737   1.387   2.419
10825SOL     OW33373   1.611   2.731   0.617
10825SOL    HW133374   1.680   2.802   0.625
10825SOL    HW233375   1.619   2.668   0.694
10826SOL     OW33376   0.633   2.120   2.416
10826SOL    HW133377   0.584   2.079   2.339
10826SOL    HW233378   0.571   2.182   2.465
10827SOL     OW33379   6.441   2.747   5.134
10827SOL    HW133380   6.447   2.705   5.225
10827SOL    HW233381   6.468   2.680   5.065
10828SOL     OW33382   0.404   4.236   0.871
10828SOL    HW133383   0.390   4.250   0.773
10828SOL    HW233384   0.499   4.255   0.895
10829SOL     OW33385   4.286   3.553   0.076
10829SOL    HW133386   4.328   3.639   0.046
10829SOL    HW233387   4.353   3.479   0.072
10830SOL     OW33388   4.567   1.523   3.490
10830SOL    HW133389   4.581   1.616   3.454
10830SOL    HW233390   4.471   1.509   3.511
10831SOL     OW33391   3.194   6.679   2.018
10831SOL    HW133392   3.138   6.762   2.016
10831SOL    HW233393   3.229   6.664   2.110
10832SOL     OW33394   6.501   3.768   6.846
10832SOL    HW133395   6.504   3.676   6.807
10832SOL    HW233396   6.569   3.825   6.800
10833SOL     OW33397   0.541   2.310   0.324
10833SOL    HW133398   0.597   2.389   0.300
10833SOL    HW233399   0.475   2.335   0.394
10834SOL     OW33400   0.146   1.336   6.982
10834SOL    HW133401   0.171   1.303   0.047
10834SOL    HW233402   0.204   1.414   6.958
10835SOL     OW33403   5.719   3.136   0.150
10835SOL    HW133404   5.633   3.099   0.185
10835SOL    HW233405   5.725   3.118   0.051
10836SOL     OW33406   0.426   1.376   2.791
10836SOL    HW133407   0.469   1.306   2.734
10836SOL    HW233408   0.429   1.348   2.887
10837SOL     OW33409   6.526   4.603   2.021
10837SOL    HW133410   6.481   4.663   2.087
10837SOL    HW233411   6.588   4.541   2.068
10838SOL     OW33412   5.558   6.508   4.431
10838SOL    HW133413   5.576   6.594   4.479
10838SOL    HW233414   5.638   6.449   4.438
10839SOL     OW33415   4.561   3.371   0.820
10839SOL    HW133416   4.501   3.291   0.811
10839SOL    HW233417   4.596   3.376   0.914
10840SOL     OW33418   3.693   0.294   2.676
10840SOL    HW133419   3.716   0.377   2.626
10840SOL    HW233420   3.715   0.306   2.773
10841SOL     OW33421   6.109   4.885   5.096
10841SOL    HW133422   6.113   4.860   4.999
10841SOL    HW233423   6.195   4.929   5.123
10842SOL     OW33424   4.800   2.166   1.242
10842SOL    HW133425   4.735   2.186   1.168
10842SOL    HW233426   4.803   2.068   1.258
10843SOL     OW33427   2.199   1.199   1.160
10843SOL    HW133428   2.218   1.251   1.077
10843SOL    HW233429   2.180   1.104   1.135
10844SOL     OW33430   6.949   4.664   3.554
10844SOL    HW133431   6.938   4.635   3.649
10844SOL    HW233432   6.860   4.669   3.509
10845SOL     OW33433   4.459   5.821   4.942
10845SOL    HW133434   4.477   5.905   4.994
10845SOL    HW233435   4.436   5.747   5.005
10846SOL     OW33436   5.580   6.960   6.978
10846SOL    HW133437   5.524   0.017   6.984
10846SOL    HW233438   5.661   6.978   6.923
10847SOL     OW33439   3.261   1.735   0.224
10847SOL    HW133440   3.200   1.756   0.301
10847SOL    HW233441   3.306   1.647   0.241
10848SOL     OW33442   0.615   3.811   1.245
10848SOL    HW133443   0.635   3.723   1.289
10848SOL    HW233444   0.700   3.858   1.224
10849SOL     OW33445   2.571   4.661   4.111
10849SOL    HW133446   2.550   4.589   4.177
10849SOL    HW233447   2.487   4.713   4.090
10850SOL     OW33448   4.107   6.571   0.229
10850SOL    HW133449   4.023   6.517   0.238
10850SOL    HW233450   4.102   6.652   0.288
10851SOL     OW33451   3.340   3.933   0.816
10851SOL    HW133452   3.330   4.032   0.808
10851SOL    HW233453   3.264   3.887   0.770
10852SOL     OW33454   2.230   1.743   6.789
10852SOL    HW133455   2.209   1.697   6.875
10852SOL    HW233456   2.288   1.684   6.732
10853SOL     OW33457   2.533   3.426   5.996
10853SOL    HW133458   2.596   3.498   5.967
10853SOL    HW233459   2.483   3.391   5.916
10854SOL     OW33460   4.502   5.199   5.311
10854SOL    HW133461   4.543   5.200   5.402
10854SOL    HW233462   4.573   5.214   5.242
10855SOL     OW33463   4.004   0.741   0.929
10855SOL    HW133464   3.963   0.816   0.877
10855SOL    HW233465   3.987   0.755   1.026
10856SOL     OW33466   6.845   1.405   6.558
10856SOL    HW133467   6.799   1.488   6.589
10856SOL    HW233468   6.931   1.429   6.513
10857SOL     OW33469   0.458   2.214   3.090
10857SOL    HW133470   0.450   2.312   3.071
10857SOL    HW233471   0.398   2.163   3.029
10858SOL     OW33472   1.396   0.118   0.813
10858SOL    HW133473   1.438   0.143   0.901
10858SOL    HW233474   1.382   0.019   0.810
10859SOL     OW33475   6.700   4.368   4.605
10859SOL    HW133476   6.742   4.285   4.641
10859SOL    HW233477   6.707   4.441   4.672
10860SOL     OW33478   0.365   3.176   4.217
10860SOL    HW133479   0.301   3.230   4.271
10860SOL    HW233480   0.459   3.208   4.234
10861SOL     OW33481   3.058   3.085   2.601
10861SOL    HW133482   3.031   3.039   2.686
10861SOL    HW233483   3.071   3.183   2.619
10862SOL     OW33484   2.031   0.839   5.214
10862SOL    HW133485   2.002   0.925   5.257
10862SOL    HW233486   1.951   0.788   5.184
10863SOL     OW33487   2.240   0.704   4.634
10863SOL    HW133488   2.302   0.638   4.676
10863SOL    HW233489   2.148   0.690   4.671
10864SOL     OW33490   3.203   6.530   0.768
10864SOL    HW133491   3.150   6.594   0.824
10864SOL    HW233492   3.197   6.438   0.806
10865SOL     OW33493   6.950   1.727   0.114
10865SOL    HW133494   6.974   1.819   0.083
10865SOL    HW233495   6.861   1.729   0.160
10866SOL     OW33496   5.757   4.911   0.357
10866SOL    HW133497   5.703   4.966   0.421
10866SOL    HW233498   5.760   4.816   0.389
10867SOL     OW33499   2.940   4.524   0.600
10867SOL    HW133500   2.915   4.518   0.697
10867SOL    HW233501   2.862   4.499   0.544
10868SOL     OW33502   5.179   1.802   3.755
10868SOL    HW133503   5.252   1.782   3.819
10868SOL    HW233504   5.214   1.798   3.661
10869NA      NA33505   6.415   2.814   5.752
10870NA      NA33506   4.474   4.620   5.171
10871NA      NA33507   1.814   3.065   1.732
10872NA      NA33508   4.977   3.968   5.193
10873NA      NA33509   4.063   2.205   5.041
10874NA      NA33510   3.713   4.815   1.725
10875NA      NA33511   6.838   5.092   6.227
10876NA      NA33512   3.325   3.385   4.721
10877NA      NA33513   4.645   6.139   0.055
10878NA      NA33514   3.865   6.441   5.687
10879NA      NA33515   6.476   5.140   2.683
10880NA      NA33516   2.497   0.344   3.428
10881NA      NA33517   4.289   5.288   1.885
10882NA      NA33518   3.981   3.523   2.205
   7.02582   7.02582   7.02582
