Generated by trjconv : CNT in water t=  19.00000
33518
    1C        C    1   2.841   2.764   4.745
    1C        C    2   2.897   2.712   4.864
    1C        C    3   2.847   2.771   4.981
    1C        C    4   2.850   2.772   4.259
    1C        C    5   2.899   2.723   4.382
    1C        C    6   2.846   2.769   4.504
    1C        C    7   3.019   2.641   4.625
    1C        C    8   2.901   2.719   4.625
    1C        C    9   3.082   2.606   4.746
    1C        C   10   3.012   2.630   4.866
    1C        C   11   3.185   2.493   4.981
    1C        C   12   3.062   2.560   4.977
    1C        C   13   2.848   2.770   3.772
    1C        C   14   2.899   2.722   3.895
    1C        C   15   2.845   2.770   4.017
    1C        C   16   3.017   2.640   4.135
    1C        C   17   2.902   2.723   4.137
    1C        C   18   3.079   2.611   4.259
    1C        C   19   3.016   2.644   4.381
    1C        C   20   3.208   2.550   4.503
    1C        C   21   3.077   2.604   4.502
    1C        C   22   3.277   2.523   4.624
    1C        C   23   3.210   2.545   4.747
    1C        C   24   3.413   2.478   4.862
    1C        C   25   3.271   2.500   4.867
    1C        C   26   3.487   2.471   4.981
    1C        C   27   2.846   2.764   3.283
    1C        C   28   2.903   2.724   3.406
    1C        C   29   2.852   2.770   3.529
    1C        C   30   3.018   2.638   3.649
    1C        C   31   2.903   2.721   3.651
    1C        C   32   3.078   2.605   3.772
    1C        C   33   3.014   2.641   3.893
    1C        C   34   3.210   2.552   4.014
    1C        C   35   3.078   2.604   4.014
    1C        C   36   3.276   2.534   4.137
    1C        C   37   3.209   2.555   4.260
    1C        C   38   3.415   2.506   4.379
    1C        C   39   3.275   2.528   4.381
    1C        C   40   3.487   2.502   4.501
    1C        C   41   3.415   2.496   4.622
    1C        C   42   3.631   2.482   4.742
    1C        C   43   3.488   2.478   4.742
    1C        C   44   3.703   2.483   4.864
    1C        C   45   3.626   2.475   4.980
    1C        C   46   2.840   2.751   2.790
    1C        C   47   2.895   2.713   2.915
    1C        C   48   2.846   2.763   3.037
    1C        C   49   3.015   2.638   3.161
    1C        C   50   2.898   2.717   3.160
    1C        C   51   3.078   2.603   3.283
    1C        C   52   3.015   2.638   3.405
    1C        C   53   3.205   2.542   3.524
    1C        C   54   3.076   2.600   3.526
    1C        C   55   3.275   2.525   3.646
    1C        C   56   3.208   2.550   3.768
    1C        C   57   3.414   2.505   3.894
    1C        C   58   3.275   2.528   3.891
    1C        C   59   3.488   2.504   4.015
    1C        C   60   3.415   2.510   4.135
    1C        C   61   3.627   2.495   4.256
    1C        C   62   3.486   2.499   4.257
    1C        C   63   3.701   2.501   4.376
    1C        C   64   3.628   2.499   4.497
    1C        C   65   3.833   2.540   4.619
    1C        C   66   3.698   2.500   4.620
    1C        C   67   3.901   2.562   4.740
    1C        C   68   3.839   2.521   4.860
    1C        C   69   4.049   2.590   4.980
    1C        C   70   3.924   2.528   4.972
    1C        C   71   2.826   2.732   2.306
    1C        C   72   2.882   2.690   2.429
    1C        C   73   2.829   2.743   2.548
    1C        C   74   3.002   2.617   2.673
    1C        C   75   2.883   2.694   2.668
    1C        C   76   3.069   2.590   2.794
    1C        C   77   3.011   2.633   2.916
    1C        C   78   3.206   2.550   3.034
    1C        C   79   3.075   2.601   3.039
    1C        C   80   3.277   2.531   3.155
    1C        C   81   3.208   2.548   3.278
    1C        C   82   3.411   2.502   3.400
    1C        C   83   3.271   2.521   3.401
    1C        C   84   3.483   2.497   3.522
    1C        C   85   3.414   2.502   3.645
    1C        C   86   3.622   2.506   3.767
    1C        C   87   3.481   2.499   3.770
    1C        C   88   3.695   2.514   3.888
    1C        C   89   3.629   2.505   4.012
    1C        C   90   3.835   2.544   4.134
    1C        C   91   3.699   2.505   4.135
    1C        C   92   3.899   2.575   4.256
    1C        C   93   3.836   2.543   4.378
    1C        C   94   4.028   2.633   4.498
    1C        C   95   3.905   2.564   4.499
    1C        C   96   4.089   2.669   4.620
    1C        C   97   4.026   2.630   4.740
    1C        C   98   4.191   2.762   4.859
    1C        C   99   4.094   2.658   4.862
    1C        C  100   4.205   2.844   4.972
    1C        C  101   2.820   2.728   2.066
    1C        C  102   2.991   2.594   2.187
    1C        C  103   2.877   2.680   2.185
    1C        C  104   3.062   2.571   2.308
    1C        C  105   2.999   2.610   2.429
    1C        C  106   3.193   2.527   2.549
    1C        C  107   3.063   2.581   2.551
    1C        C  108   3.268   2.513   2.669
    1C        C  109   3.200   2.537   2.790
    1C        C  110   3.410   2.502   2.913
    1C        C  111   3.270   2.521   2.912
    1C        C  112   3.484   2.496   3.033
    1C        C  113   3.414   2.499   3.155
    1C        C  114   3.624   2.497   3.278
    1C        C  115   3.483   2.492   3.279
    1C        C  116   3.691   2.510   3.401
    1C        C  117   3.624   2.500   3.525
    1C        C  118   3.833   2.549   3.645
    1C        C  119   3.695   2.517   3.646
    1C        C  120   3.900   2.569   3.768
    1C        C  121   3.833   2.544   3.890
    1C        C  122   4.024   2.638   4.011
    1C        C  123   3.900   2.569   4.012
    1C        C  124   4.086   2.676   4.132
    1C        C  125   4.024   2.642   4.254
    1C        C  126   4.198   2.761   4.374
    1C        C  127   4.086   2.676   4.376
    1C        C  128   4.245   2.814   4.496
    1C        C  129   4.190   2.768   4.618
    1C        C  130   4.326   2.933   4.740
    1C        C  131   4.244   2.817   4.739
    1C        C  132   4.354   3.004   4.859
    1C        C  133   4.283   2.959   4.972
    1C        C  134   3.171   2.470   2.078
    1C        C  135   3.036   2.508   2.082
    1C        C  136   3.256   2.475   2.190
    1C        C  137   3.193   2.516   2.310
    1C        C  138   3.404   2.484   2.426
    1C        C  139   3.263   2.494   2.431
    1C        C  140   3.478   2.483   2.546
    1C        C  141   3.408   2.499   2.668
    1C        C  142   3.621   2.491   2.790
    1C        C  143   3.480   2.497   2.790
    1C        C  144   3.695   2.496   2.910
    1C        C  145   3.626   2.494   3.032
    1C        C  146   3.831   2.535   3.156
    1C        C  147   3.695   2.500   3.156
    1C        C  148   3.899   2.561   3.277
    1C        C  149   3.828   2.545   3.398
    1C        C  150   4.024   2.625   3.517
    1C        C  151   3.896   2.565   3.520
    1C        C  152   4.083   2.664   3.640
    1C        C  153   4.024   2.636   3.765
    1C        C  154   4.192   2.764   3.885
    1C        C  155   4.080   2.677   3.888
    1C        C  156   4.242   2.814   4.008
    1C        C  157   4.196   2.765   4.132
    1C        C  158   4.346   2.918   4.250
    1C        C  159   4.253   2.811   4.253
    1C        C  160   4.378   2.979   4.373
    1C        C  161   4.329   2.928   4.495
    1C        C  162   4.432   3.114   4.613
    1C        C  163   4.366   2.989   4.617
    1C        C  164   4.460   3.183   4.732
    1C        C  165   4.430   3.122   4.856
    1C        C  166   4.513   3.320   4.971
    1C        C  167   4.480   3.185   4.971
    1C        C  168   3.475   2.442   2.071
    1C        C  169   3.396   2.458   2.186
    1C        C  170   3.615   2.471   2.306
    1C        C  171   3.473   2.466   2.304
    1C        C  172   3.691   2.491   2.423
    1C        C  173   3.619   2.487   2.545
    1C        C  174   3.826   2.535   2.665
    1C        C  175   3.690   2.498   2.667
    1C        C  176   3.896   2.556   2.786
    1C        C  177   3.831   2.534   2.910
    1C        C  178   4.022   2.622   3.027
    1C        C  179   3.897   2.556   3.033
    1C        C  180   4.083   2.660   3.148
    1C        C  181   4.027   2.620   3.272
    1C        C  182   4.199   2.743   3.397
    1C        C  183   4.086   2.658   3.395
    1C        C  184   4.243   2.802   3.517
    1C        C  185   4.189   2.757   3.640
    1C        C  186   4.331   2.917   3.764
    1C        C  187   4.243   2.807   3.761
    1C        C  188   4.377   2.976   3.884
    1C        C  189   4.336   2.919   4.006
    1C        C  190   4.444   3.104   4.129
    1C        C  191   4.381   2.977   4.127
    1C        C  192   4.474   3.169   4.251
    1C        C  193   4.446   3.103   4.373
    1C        C  194   4.507   3.312   4.490
    1C        C  195   4.470   3.176   4.492
    1C        C  196   4.520   3.385   4.610
    1C        C  197   4.502   3.320   4.734
    1C        C  198   4.555   3.533   4.849
    1C        C  199   4.529   3.393   4.853
    1C        C  200   4.590   3.620   4.957
    1C        C  201   3.614   2.422   2.070
    1C        C  202   3.823   2.514   2.184
    1C        C  203   3.687   2.468   2.184
    1C        C  204   3.901   2.536   2.300
    1C        C  205   3.829   2.523   2.421
    1C        C  206   4.018   2.623   2.541
    1C        C  207   3.894   2.556   2.542
    1C        C  208   4.081   2.656   2.662
    1C        C  209   4.022   2.619   2.785
    1C        C  210   4.200   2.741   2.907
    1C        C  211   4.086   2.657   2.906
    1C        C  212   4.247   2.798   3.027
    1C        C  213   4.193   2.748   3.148
    1C        C  214   4.326   2.907   3.271
    1C        C  215   4.246   2.791   3.272
    1C        C  216   4.368   2.970   3.391
    1C        C  217   4.331   2.913   3.515
    1C        C  218   4.432   3.097   3.636
    1C        C  219   4.367   2.972   3.638
    1C        C  220   4.466   3.165   3.756
    1C        C  221   4.441   3.102   3.880
    1C        C  222   4.504   3.301   3.999
    1C        C  223   4.467   3.165   4.004
    1C        C  224   4.518   3.373   4.120
    1C        C  225   4.512   3.304   4.243
    1C        C  226   4.521   3.518   4.365
    1C        C  227   4.516   3.377   4.364
    1C        C  228   4.518   3.595   4.484
    1C        C  229   4.533   3.526   4.606
    1C        C  230   4.502   3.740   4.724
    1C        C  231   4.529   3.600   4.726
    1C        C  232   4.493   3.817   4.842
    1C        C  233   4.540   3.751   4.957
    1C        C  234   4.021   2.600   2.059
    1C        C  235   3.895   2.541   2.067
    1C        C  236   4.087   2.640   2.176
    1C        C  237   4.028   2.601   2.298
    1C        C  238   4.196   2.737   2.419
    1C        C  239   4.077   2.659   2.417
    1C        C  240   4.253   2.783   2.539
    1C        C  241   4.194   2.741   2.660
    1C        C  242   4.339   2.894   2.780
    1C        C  243   4.249   2.786   2.782
    1C        C  244   4.379   2.957   2.901
    1C        C  245   4.337   2.907   3.026
    1C        C  246   4.436   3.090   3.148
    1C        C  247   4.373   2.963   3.150
    1C        C  248   4.457   3.158   3.269
    1C        C  249   4.430   3.096   3.393
    1C        C  250   4.494   3.300   3.512
    1C        C  251   4.451   3.166   3.514
    1C        C  252   4.510   3.371   3.633
    1C        C  253   4.497   3.303   3.756
    1C        C  254   4.524   3.514   3.874
    1C        C  255   4.514   3.373   3.878
    1C        C  256   4.525   3.585   3.996
    1C        C  257   4.523   3.515   4.119
    1C        C  258   4.487   3.724   4.239
    1C        C  259   4.512   3.585   4.241
    1C        C  260   4.472   3.799   4.358
    1C        C  261   4.485   3.732   4.482
    1C        C  262   4.426   3.938   4.602
    1C        C  263   4.473   3.805   4.602
    1C        C  264   4.396   4.009   4.721
    1C        C  265   4.430   3.943   4.841
    1C        C  266   4.320   4.129   4.956
    1C        C  267   4.387   4.008   4.958
    1C        C  268   4.256   2.777   2.057
    1C        C  269   4.198   2.728   2.175
    1C        C  270   4.348   2.881   2.297
    1C        C  271   4.253   2.775   2.295
    1C        C  272   4.385   2.948   2.416
    1C        C  273   4.341   2.894   2.538
    1C        C  274   4.446   3.080   2.657
    1C        C  275   4.379   2.956   2.659
    1C        C  276   4.470   3.147   2.779
    1C        C  277   4.441   3.084   2.901
    1C        C  278   4.490   3.290   3.022
    1C        C  279   4.459   3.153   3.023
    1C        C  280   4.506   3.362   3.143
    1C        C  281   4.494   3.295   3.266
    1C        C  282   4.512   3.508   3.386
    1C        C  283   4.505   3.367   3.388
    1C        C  284   4.516   3.580   3.507
    1C        C  285   4.520   3.512   3.632
    1C        C  286   4.486   3.723   3.752
    1C        C  287   4.516   3.585   3.753
    1C        C  288   4.466   3.790   3.875
    1C        C  289   4.491   3.722   3.996
    1C        C  290   4.418   3.925   4.118
    1C        C  291   4.468   3.793   4.117
    1C        C  292   4.387   3.992   4.238
    1C        C  293   4.425   3.932   4.360
    1C        C  294   4.325   4.123   4.475
    1C        C  295   4.398   4.002   4.480
    1C        C  296   4.286   4.186   4.595
    1C        C  297   4.324   4.132   4.720
    1C        C  298   4.201   4.315   4.836
    1C        C  299   4.280   4.196   4.839
    1C        C  300   4.163   4.396   4.948
    1C        C  301   4.353   2.877   2.061
    1C        C  302   4.466   3.065   2.173
    1C        C  303   4.400   2.938   2.177
    1C        C  304   4.480   3.141   2.292
    1C        C  305   4.449   3.074   2.413
    1C        C  306   4.507   3.280   2.532
    1C        C  307   4.475   3.143   2.533
    1C        C  308   4.519   3.351   2.653
    1C        C  309   4.504   3.284   2.777
    1C        C  310   4.517   3.498   2.896
    1C        C  311   4.510   3.357   2.899
    1C        C  312   4.517   3.569   3.018
    1C        C  313   4.515   3.503   3.142
    1C        C  314   4.489   3.717   3.261
    1C        C  315   4.507   3.577   3.263
    1C        C  316   4.476   3.785   3.384
    1C        C  317   4.488   3.718   3.508
    1C        C  318   4.425   3.923   3.623
    1C        C  319   4.471   3.790   3.628
    1C        C  320   4.394   3.982   3.747
    1C        C  321   4.417   3.922   3.873
    1C        C  322   4.316   4.110   3.987
    1C        C  323   4.387   3.988   3.995
    1C        C  324   4.278   4.170   4.109
    1C        C  325   4.314   4.114   4.234
    1C        C  326   4.186   4.285   4.351
    1C        C  327   4.282   4.181   4.354
    1C        C  328   4.138   4.338   4.472
    1C        C  329   4.191   4.291   4.594
    1C        C  330   4.020   4.427   4.712
    1C        C  331   4.138   4.347   4.713
    1C        C  332   3.965   4.487   4.828
    1C        C  333   4.051   4.480   4.938
    1C        C  334   4.554   3.267   2.059
    1C        C  335   4.530   3.128   2.062
    1C        C  336   4.540   3.349   2.171
    1C        C  337   4.513   3.279   2.291
    1C        C  338   4.519   3.495   2.408
    1C        C  339   4.519   3.353   2.411
    1C        C  340   4.523   3.566   2.530
    1C        C  341   4.523   3.492   2.651
    1C        C  342   4.485   3.704   2.772
    1C        C  343   4.511   3.565   2.772
    1C        C  344   4.470   3.777   2.892
    1C        C  345   4.494   3.709   3.014
    1C        C  346   4.422   3.911   3.136
    1C        C  347   4.474   3.779   3.135
    1C        C  348   4.395   3.980   3.256
    1C        C  349   4.429   3.918   3.378
    1C        C  350   4.313   4.099   3.500
    1C        C  351   4.395   3.984   3.498
    1C        C  352   4.271   4.159   3.621
    1C        C  353   4.317   4.101   3.741
    1C        C  354   4.175   4.261   3.865
    1C        C  355   4.270   4.156   3.862
    1C        C  356   4.122   4.313   3.985
    1C        C  357   4.176   4.267   4.107
    1C        C  358   4.013   4.405   4.229
    1C        C  359   4.127   4.322   4.228
    1C        C  360   3.954   4.446   4.351
    1C        C  361   4.021   4.419   4.472
    1C        C  362   3.827   4.516   4.591
    1C        C  363   3.955   4.457   4.590
    1C        C  364   3.762   4.553   4.711
    1C        C  365   3.836   4.544   4.830
    1C        C  366   3.625   4.584   4.948
    1C        C  367   3.762   4.560   4.948
    1C        C  368   4.508   3.564   2.052
    1C        C  369   4.526   3.490   2.169
    1C        C  370   4.498   3.707   2.286
    1C        C  371   4.519   3.567   2.287
    1C        C  372   4.482   3.776   2.408
    1C        C  373   4.498   3.705   2.529
    1C        C  374   4.419   3.904   2.648
    1C        C  375   4.472   3.773   2.650
    1C        C  376   4.388   3.970   2.769
    1C        C  377   4.417   3.907   2.893
    1C        C  378   4.316   4.094   3.010
    1C        C  379   4.392   3.975   3.014
    1C        C  380   4.269   4.147   3.132
    1C        C  381   4.312   4.095   3.256
    1C        C  382   4.175   4.259   3.377
    1C        C  383   4.270   4.154   3.377
    1C        C  384   4.119   4.305   3.498
    1C        C  385   4.171   4.259   3.621
    1C        C  386   3.999   4.381   3.741
    1C        C  387   4.117   4.304   3.743
    1C        C  388   3.941   4.425   3.862
    1C        C  389   4.004   4.392   3.984
    1C        C  390   3.816   4.485   4.105
    1C        C  391   3.947   4.431   4.107
    1C        C  392   3.753   4.520   4.227
    1C        C  393   3.825   4.504   4.348
    1C        C  394   3.617   4.543   4.471
    1C        C  395   3.757   4.530   4.469
    1C        C  396   3.545   4.559   4.592
    1C        C  397   3.621   4.567   4.711
    1C        C  398   3.409   4.545   4.837
    1C        C  399   3.547   4.571   4.831
    1C        C  400   3.337   4.519   4.955
    1C        C  401   4.509   3.703   2.051
    1C        C  402   4.449   3.916   2.165
    1C        C  403   4.488   3.780   2.166
    1C        C  404   4.411   3.978   2.286
    1C        C  405   4.430   3.908   2.407
    1C        C  406   4.326   4.096   2.524
    1C        C  407   4.397   3.974   2.528
    1C        C  408   4.272   4.147   2.644
    1C        C  409   4.309   4.087   2.766
    1C        C  410   4.167   4.245   2.888
    1C        C  411   4.267   4.145   2.888
    1C        C  412   4.120   4.297   3.010
    1C        C  413   4.174   4.251   3.133
    1C        C  414   4.001   4.377   3.251
    1C        C  415   4.118   4.298   3.253
    1C        C  416   3.939   4.415   3.373
    1C        C  417   4.000   4.382   3.496
    1C        C  418   3.811   4.478   3.617
    1C        C  419   3.939   4.418   3.618
    1C        C  420   3.742   4.502   3.738
    1C        C  421   3.810   4.479   3.860
    1C        C  422   3.609   4.532   3.984
    1C        C  423   3.747   4.504   3.983
    1C        C  424   3.540   4.540   4.107
    1C        C  425   3.614   4.542   4.227
    1C        C  426   3.404   4.543   4.353
    1C        C  427   3.545   4.551   4.350
    1C        C  428   3.332   4.545   4.475
    1C        C  429   3.404   4.554   4.596
    1C        C  430   3.194   4.519   4.721
    1C        C  431   3.334   4.543   4.718
    1C        C  432   3.122   4.494   4.841
    1C        C  433   3.200   4.495   4.958
    1C        C  434   4.377   4.119   2.045
    1C        C  435   4.444   3.996   2.051
    1C        C  436   4.302   4.162   2.159
    1C        C  437   4.335   4.098   2.282
    1C        C  438   4.188   4.257   2.402
    1C        C  439   4.287   4.156   2.402
    1C        C  440   4.124   4.297   2.521
    1C        C  441   4.174   4.248   2.644
    1C        C  442   4.002   4.374   2.763
    1C        C  443   4.120   4.298   2.765
    1C        C  444   3.938   4.405   2.885
    1C        C  445   4.003   4.376   3.008
    1C        C  446   3.809   4.467   3.126
    1C        C  447   3.940   4.413   3.129
    1C        C  448   3.745   4.492   3.249
    1C        C  449   3.810   4.472   3.373
    1C        C  450   3.606   4.528   3.494
    1C        C  451   3.745   4.502   3.495
    1C        C  452   3.537   4.534   3.617
    1C        C  453   3.604   4.531   3.742
    1C        C  454   3.394   4.540   3.863
    1C        C  455   3.535   4.544   3.864
    1C        C  456   3.328   4.531   3.988
    1C        C  457   3.399   4.534   4.111
    1C        C  458   3.192   4.500   4.235
    1C        C  459   3.330   4.532   4.234
    1C        C  460   3.127   4.481   4.359
    1C        C  461   3.195   4.511   4.479
    1C        C  462   2.996   4.435   4.600
    1C        C  463   3.125   4.492   4.601
    1C        C  464   2.934   4.394   4.720
    1C        C  465   2.990   4.439   4.843
    1C        C  466   2.800   4.336   4.951
    1C        C  467   2.903   4.431   4.956
    1C        C  468   4.126   4.285   2.038
    1C        C  469   4.188   4.248   2.158
    1C        C  470   4.008   4.367   2.277
    1C        C  471   4.131   4.296   2.279
    1C        C  472   3.942   4.402   2.398
    1C        C  473   4.004   4.372   2.521
    1C        C  474   3.810   4.466   2.640
    1C        C  475   3.940   4.410   2.641
    1C        C  476   3.744   4.492   2.763
    1C        C  477   3.811   4.467   2.885
    1C        C  478   3.601   4.514   3.007
    1C        C  479   3.740   4.489   3.005
    1C        C  480   3.535   4.521   3.132
    1C        C  481   3.606   4.516   3.254
    1C        C  482   3.391   4.531   3.374
    1C        C  483   3.532   4.530   3.374
    1C        C  484   3.323   4.524   3.498
    1C        C  485   3.396   4.537   3.619
    1C        C  486   3.186   4.506   3.743
    1C        C  487   3.324   4.536   3.740
    1C        C  488   3.125   4.484   3.869
    1C        C  489   3.190   4.505   3.992
    1C        C  490   3.000   4.408   4.113
    1C        C  491   3.123   4.477   4.114
    1C        C  492   2.941   4.378   4.238
    1C        C  493   3.000   4.418   4.360
    1C        C  494   2.825   4.299   4.481
    1C        C  495   2.936   4.386   4.482
    1C        C  496   2.765   4.255   4.602
    1C        C  497   2.818   4.312   4.720
    1C        C  498   2.663   4.160   4.844
    1C        C  499   2.753   4.268   4.838
    1C        C  500   2.597   4.111   4.958
    1C        C  501   4.004   4.352   2.038
    1C        C  502   3.817   4.462   2.154
    1C        C  503   3.942   4.396   2.156
    1C        C  504   3.744   4.482   2.273
    1C        C  505   3.812   4.455   2.394
    1C        C  506   3.605   4.503   2.517
    1C        C  507   3.744   4.476   2.516
    1C        C  508   3.532   4.517   2.637
    1C        C  509   3.604   4.509   2.758
    1C        C  510   3.395   4.519   2.885
    1C        C  511   3.536   4.515   2.882
    1C        C  512   3.321   4.516   3.006
    1C        C  513   3.394   4.523   3.127
    1C        C  514   3.186   4.494   3.252
    1C        C  515   3.324   4.522   3.250
    1C        C  516   3.119   4.470   3.374
    1C        C  517   3.185   4.496   3.497
    1C        C  518   3.000   4.405   3.623
    1C        C  519   3.121   4.478   3.621
    1C        C  520   2.942   4.369   3.747
    1C        C  521   3.003   4.412   3.867
    1C        C  522   2.837   4.280   3.994
    1C        C  523   2.947   4.368   3.988
    1C        C  524   2.788   4.232   4.118
    1C        C  525   2.834   4.286   4.240
    1C        C  526   2.690   4.131   4.363
    1C        C  527   2.777   4.242   4.361
    1C        C  528   2.651   4.072   4.485
    1C        C  529   2.688   4.137   4.605
    1C        C  530   2.584   3.954   4.730
    1C        C  531   2.639   4.085   4.727
    1C        C  532   2.538   3.896   4.852
    1C        C  533   2.530   3.988   4.961
    1C        C  534   3.615   4.550   2.038
    1C        C  535   3.750   4.509   2.041
    1C        C  536   3.532   4.528   2.152
    1C        C  537   3.604   4.507   2.273
    1C        C  538   3.392   4.506   2.395
    1C        C  539   3.533   4.510   2.395
    1C        C  540   3.322   4.500   2.517
    1C        C  541   3.391   4.514   2.640
    1C        C  542   3.185   4.478   2.764
    1C        C  543   3.323   4.509   2.764
    1C        C  544   3.116   4.458   2.886
    1C        C  545   3.185   4.480   3.008
    1C        C  546   2.991   4.404   3.133
    1C        C  547   3.118   4.467   3.132
    1C        C  548   2.934   4.363   3.255
    1C        C  549   2.995   4.403   3.376
    1C        C  550   2.825   4.283   3.506
    1C        C  551   2.940   4.365   3.501
    1C        C  552   2.774   4.233   3.628
    1C        C  553   2.830   4.283   3.748
    1C        C  554   2.699   4.121   3.873
    1C        C  555   2.783   4.235   3.872
    1C        C  556   2.662   4.061   3.996
    1C        C  557   2.701   4.121   4.117
    1C        C  558   2.599   3.940   4.244
    1C        C  559   2.655   4.069   4.241
    1C        C  560   2.571   3.874   4.366
    1C        C  561   2.590   3.945   4.487
    1C        C  562   2.522   3.747   4.615
    1C        C  563   2.558   3.883   4.611
    1C        C  564   2.515   3.678   4.738
    1C        C  565   2.523   3.754   4.858
    1C        C  566   2.531   3.542   4.976
    1C        C  567   2.521   3.681   4.977
    1C        C  568   3.322   4.470   2.039
    1C        C  569   3.391   4.510   2.154
    1C        C  570   3.179   4.474   2.279
    1C        C  571   3.317   4.506   2.275
    1C        C  572   3.112   4.457   2.402
    1C        C  573   3.182   4.481   2.522
    1C        C  574   2.984   4.407   2.645
    1C        C  575   3.112   4.465   2.644
    1C        C  576   2.926   4.364   2.766
    1C        C  577   2.988   4.400   2.888
    1C        C  578   2.823   4.273   3.014
    1C        C  579   2.929   4.366   3.012
    1C        C  580   2.777   4.219   3.136
    1C        C  581   2.825   4.272   3.258
    1C        C  582   2.695   4.115   3.382
    1C        C  583   2.778   4.230   3.384
    1C        C  584   2.662   4.054   3.505
    1C        C  585   2.693   4.118   3.628
    1C        C  586   2.597   3.934   3.757
    1C        C  587   2.659   4.061   3.752
    1C        C  588   2.567   3.869   3.879
    1C        C  589   2.600   3.934   4.000
    1C        C  590   2.535   3.736   4.128
    1C        C  591   2.571   3.872   4.123
    1C        C  592   2.517   3.667   4.250
    1C        C  593   2.527   3.740   4.371
    1C        C  594   2.510   3.532   4.497
    1C        C  595   2.514   3.673   4.494
    1C        C  596   2.517   3.461   4.619
    1C        C  597   2.519   3.536   4.739
    1C        C  598   2.527   3.322   4.859
    1C        C  599   2.520   3.463   4.861
    1C        C  600   2.529   3.242   4.974
    1C        C  601   3.189   4.434   2.039
    1C        C  602   2.979   4.390   2.160
    1C        C  603   3.116   4.432   2.159
    1C        C  604   2.922   4.354   2.285
    1C        C  605   2.984   4.397   2.404
    1C        C  606   2.816   4.269   2.526
    1C        C  607   2.922   4.362   2.526
    1C        C  608   2.769   4.217   2.649
    1C        C  609   2.820   4.271   2.770
    1C        C  610   2.682   4.112   2.894
    1C        C  611   2.771   4.221   2.893
    1C        C  612   2.650   4.051   3.017
    1C        C  613   2.696   4.104   3.140
    1C        C  614   2.588   3.925   3.267
    1C        C  615   2.653   4.050   3.264
    1C        C  616   2.566   3.862   3.391
    1C        C  617   2.596   3.929   3.512
    1C        C  618   2.528   3.732   3.638
    1C        C  619   2.569   3.867   3.636
    1C        C  620   2.515   3.661   3.760
    1C        C  621   2.525   3.734   3.881
    1C        C  622   2.513   3.525   4.006
    1C        C  623   2.521   3.667   4.006
    1C        C  624   2.513   3.456   4.129
    1C        C  625   2.514   3.526   4.251
    1C        C  626   2.538   3.320   4.375
    1C        C  627   2.516   3.460   4.376
    1C        C  628   2.556   3.251   4.497
    1C        C  629   2.540   3.322   4.618
    1C        C  630   2.597   3.117   4.742
    1C        C  631   2.545   3.250   4.739
    1C        C  632   2.619   3.049   4.865
    1C        C  633   2.555   3.105   4.980
    1C        C  634   2.782   4.298   2.051
    1C        C  635   2.888   4.390   2.050
    1C        C  636   2.747   4.225   2.165
    1C        C  637   2.805   4.272   2.285
    1C        C  638   2.678   4.102   2.407
    1C        C  639   2.762   4.215   2.407
    1C        C  640   2.636   4.046   2.530
    1C        C  641   2.683   4.106   2.650
    1C        C  642   2.589   3.918   2.780
    1C        C  643   2.646   4.048   2.773
    1C        C  644   2.564   3.851   2.902
    1C        C  645   2.592   3.922   3.021
    1C        C  646   2.526   3.723   3.149
    1C        C  647   2.562   3.860   3.144
    1C        C  648   2.510   3.655   3.271
    1C        C  649   2.529   3.725   3.393
    1C        C  650   2.508   3.518   3.516
    1C        C  651   2.518   3.659   3.517
    1C        C  652   2.510   3.449   3.639
    1C        C  653   2.511   3.520   3.761
    1C        C  654   2.534   3.312   3.888
    1C        C  655   2.515   3.452   3.885
    1C        C  656   2.551   3.246   4.012
    1C        C  657   2.533   3.316   4.133
    1C        C  658   2.600   3.114   4.256
    1C        C  659   2.549   3.246   4.255
    1C        C  660   2.629   3.052   4.379
    1C        C  661   2.599   3.116   4.501
    1C        C  662   2.711   2.934   4.623
    1C        C  663   2.631   3.051   4.622
    1C        C  664   2.755   2.877   4.744
    1C        C  665   2.702   2.932   4.864
    1C        C  666   2.745   2.866   4.979
    1C        C  667   2.674   4.020   2.051
    1C        C  668   2.682   4.099   2.166
    1C        C  669   2.588   3.906   2.291
    1C        C  670   2.639   4.039   2.286
    1C        C  671   2.560   3.844   2.414
    1C        C  672   2.578   3.917   2.534
    1C        C  673   2.520   3.718   2.657
    1C        C  674   2.557   3.854   2.658
    1C        C  675   2.504   3.648   2.779
    1C        C  676   2.527   3.715   2.902
    1C        C  677   2.505   3.511   3.026
    1C        C  678   2.518   3.651   3.027
    1C        C  679   2.505   3.443   3.151
    1C        C  680   2.500   3.514   3.273
    1C        C  681   2.529   3.306   3.399
    1C        C  682   2.502   3.445   3.396
    1C        C  683   2.546   3.238   3.522
    1C        C  684   2.530   3.309   3.643
    1C        C  685   2.603   3.112   3.770
    1C        C  686   2.549   3.242   3.766
    1C        C  687   2.635   3.048   3.892
    1C        C  688   2.602   3.114   4.012
    1C        C  689   2.714   2.934   4.139
    1C        C  690   2.636   3.052   4.134
    1C        C  691   2.757   2.879   4.262
    1C        C  692   2.706   2.934   4.382
    1C        C  693   2.753   2.875   4.502
    1C        C  694   2.625   3.889   2.054
    1C        C  695   2.519   3.703   2.175
    1C        C  696   2.582   3.829   2.173
    1C        C  697   2.494   3.636   2.298
    1C        C  698   2.518   3.710   2.416
    1C        C  699   2.485   3.502   2.540
    1C        C  700   2.504   3.642   2.539
    1C        C  701   2.500   3.434   2.663
    1C        C  702   2.499   3.507   2.784
    1C        C  703   2.525   3.297   2.910
    1C        C  704   2.503   3.437   2.906
    1C        C  705   2.542   3.229   3.033
    1C        C  706   2.529   3.304   3.152
    1C        C  707   2.596   3.107   3.276
    1C        C  708   2.548   3.239   3.276
    1C        C  709   2.634   3.047   3.398
    1C        C  710   2.604   3.110   3.521
    1C        C  711   2.714   2.934   3.647
    1C        C  712   2.634   3.051   3.646
    1C        C  713   2.757   2.877   3.769
    1C        C  714   2.715   2.931   3.893
    1C        C  715   2.750   2.874   4.017
    1C        C  716   2.449   3.495   2.062
    1C        C  717   2.492   3.628   2.060
    1C        C  718   2.455   3.419   2.183
    1C        C  719   2.472   3.496   2.301
    1C        C  720   2.512   3.286   2.425
    1C        C  721   2.485   3.424   2.422
    1C        C  722   2.542   3.220   2.546
    1C        C  723   2.524   3.294   2.665
    1C        C  724   2.596   3.097   2.788
    1C        C  725   2.541   3.227   2.788
    1C        C  726   2.622   3.033   2.912
    1C        C  727   2.590   3.095   3.035
    1C        C  728   2.707   2.919   3.158
    1C        C  729   2.625   3.035   3.157
    1C        C  730   2.753   2.870   3.282
    1C        C  731   2.708   2.927   3.404
    1C        C  732   2.760   2.878   3.526
    1C        C  733   2.497   3.199   2.072
    1C        C  734   2.485   3.279   2.187
    1C        C  735   2.585   3.083   2.301
    1C        C  736   2.524   3.211   2.306
    1C        C  737   2.614   3.019   2.423
    1C        C  738   2.592   3.088   2.544
    1C        C  739   2.702   2.910   2.668
    1C        C  740   2.625   3.029   2.668
    1C        C  741   2.747   2.857   2.791
    1C        C  742   2.706   2.920   2.911
    1C        C  743   2.753   2.869   3.034
    1C        C  744   2.543   3.068   2.070
    1C        C  745   2.681   2.890   2.181
    1C        C  746   2.605   3.010   2.181
    1C        C  747   2.731   2.839   2.302
    1C        C  748   2.688   2.899   2.423
    1C        C  749   2.730   2.845   2.546
    1C        C  750   2.740   2.841   2.063
    1C        C  751   3.651   2.323   1.966
    1C        O  752   3.691   2.212   2.010
    1C        O  753   3.651   2.354   1.830
    1C        C  754   4.613   3.044   1.973
    1C        O  755   4.574   3.014   1.857
    1C        O  756   4.750   3.033   2.002
    1C        C  757   4.449   4.227   1.972
    1C        O  758   4.561   4.267   2.014
    1C        O  759   4.415   4.268   1.843
    1C        C  760   3.586   4.662   1.946
    1C        O  761   3.664   4.761   1.940
    1C        O  762   3.518   4.642   1.826
    1C        C  763   2.883   4.492   1.943
    1C        O  764   2.923   4.475   1.824
    1C        O  765   2.774   4.579   1.954
    1C        C  766   2.337   3.471   1.968
    1C        O  767   2.340   3.436   1.847
    1C        O  768   2.208   3.495   2.017
    1C        C  769   4.706   3.600   5.047
    1C        O  770   4.689   3.539   5.156
    1C        O  771   4.836   3.593   4.993
    1C        C  772   4.275   4.460   5.021
    1C        O  773   4.334   4.416   5.123
    1C        O  774   4.368   4.543   4.956
    1C        C  775   4.145   2.512   5.061
    1C        O  776   4.205   2.408   5.021
    1C        O  777   4.218   2.578   5.161
    1C        C  778   2.875   4.542   5.050
    1C        O  779   2.903   4.663   5.028
    1C        O  780   2.851   4.517   5.186
    1C        C  781   2.449   3.033   5.054
    1C        O  782   2.362   2.967   4.991
    1C        O  783   2.480   2.987   5.181
    1C        C  784   2.412   3.979   5.051
    1C        O  785   2.293   3.990   5.013
    1C        O  786   2.416   3.950   5.188
    1C        C  787   2.940   2.423   2.008
    1C        O  788   2.906   2.463   1.894
    1C        O  789   2.888   2.303   2.055
    1C        C  790   3.186   2.379   5.075
    1C        O  791   3.195   2.260   5.033
    1C        O  792   3.159   2.389   5.212
    1C        H  793   4.245   3.045   5.022
    1C        H  794   4.149   2.825   5.061
    1C        H  795   4.517   3.124   5.051
    1C        H  796   4.538   3.363   5.066
    1C        H  797   4.495   3.786   5.047
    1C        H  798   4.377   3.956   5.051
    1C        H  799   4.319   4.181   5.049
    1C        H  800   4.012   4.530   5.024
    1C        H  801   3.808   4.551   5.043
    1C        H  802   3.583   4.637   5.031
    1C        H  803   3.392   4.456   5.021
    1C        H  804   3.161   4.453   5.048
    1C        H  805   3.895   2.469   5.056
    1C        H  806   3.672   2.424   5.062
    1C        H  807   3.029   2.591   5.074
    1C        H  808   3.431   2.446   5.069
    1C        H  809   2.874   2.724   5.073
    1C        H  810   2.719   2.901   5.077
    1C        H  811   2.498   3.290   5.065
    1C        H  812   2.538   3.485   5.066
    1C        H  813   2.523   3.731   5.072
    1C        H  814   2.562   4.187   5.024
    1C        H  815   2.791   4.279   5.041
    1C        H  816   2.761   2.909   1.984
    1C        H  817   2.846   2.690   1.969
    1C        H  818   3.196   2.391   2.010
    1C        H  819   3.428   2.451   1.976
    1C        H  820   3.861   2.502   1.973
    1C        H  821   4.068   2.577   1.966
    1C        H  822   4.252   2.714   1.971
    1C        H  823   4.396   2.901   1.966
    1C        H  824   4.583   3.307   1.965
    1C        H  825   4.475   3.512   1.965
    1C        H  826   4.547   3.753   1.964
    1C        H  827   3.789   4.484   1.945
    1C        H  828   3.984   4.406   1.948
    1C        H  829   4.131   4.212   1.959
    1C        H  830   4.539   3.997   2.001
    1C        H  831   2.673   3.822   1.985
    1C        H  832   2.660   4.076   1.961
    1C        H  833   2.710   4.316   1.973
    1C        H  834   3.365   4.480   1.941
    1C        H  835   3.138   4.415   1.946
    1C        H  836   2.502   3.005   1.994
    1C        H  837   2.440   3.231   1.987
    1C        H  838   2.529   3.656   1.964
    2V3OU   H29  839   2.797   3.550   0.763
    2V3OU   C27  840   2.779   3.502   0.862
    2V3OU   H27  841   2.726   3.567   0.937
    2V3OU   H28  842   2.726   3.403   0.857
    2V3OU   O11  843   2.903   3.478   0.929
    2V3OU   C15  844   2.914   3.399   1.041
    2V3OU   C13  845   3.044   3.375   1.089
    2V3OU   C14  846   3.073   3.269   1.176
    2V3OU   C16  847   2.970   3.187   1.220
    2V3OU    H6  848   2.993   3.099   1.282
    2V3OU   C12  849   3.212   3.227   1.209
    2V3OU    O2  850   3.234   3.122   1.271
    2V3OU   C10  851   3.325   3.308   1.162
    2V3OU    C8  852   3.457   3.269   1.181
    2V3OU   O10  853   3.484   3.150   1.240
    2V3OU   H26  854   3.397   3.117   1.266
    2V3OU    C6  855   3.562   3.344   1.118
    2V3OU    C5  856   3.537   3.467   1.057
    2V3OU    C4  857   3.701   3.293   1.107
    2V3OU    H4  858   3.726   3.219   1.188
    2V3OU    H5  859   3.714   3.227   1.016
    2V3OU    C2  860   3.813   3.396   1.110
    2V3OU    O6  861   3.802   3.475   1.229
    2V3OU   H21  862   3.756   3.556   1.200
    2V3OU    C3  863   3.781   3.491   0.995
    2V3OU    H2  864   3.862   3.568   0.991
    2V3OU    H3  865   3.781   3.437   0.897
    2V3OU   C25  866   3.949   3.326   1.104
    2V3OU    O7  867   3.997   3.296   0.995
    2V3OU   C26  868   4.027   3.288   1.229
    2V3OU   H22  869   4.060   3.388   1.268
    2V3OU   H23  870   4.118   3.231   1.200
    2V3OU    O8  871   3.963   3.209   1.326
    2V3OU   H24  872   3.916   3.263   1.392
    2V3OU    C1  873   3.647   3.560   1.015
    2V3OU    H1  874   3.622   3.614   0.919
    2V3OU    O3  875   3.658   3.657   1.120
    2V3OU   C19  876   3.615   3.790   1.091
    2V3OU    H9  877   3.514   3.797   1.041
    2V3OU    O4  878   3.715   3.844   1.007
    2V3OU   C20  879   3.847   3.872   1.054
    2V3OU   H10  880   3.894   3.771   1.073
    2V3OU   C24  881   3.606   3.856   1.229
    2V3OU   H16  882   3.538   3.797   1.294
    2V3OU   H17  883   3.563   3.958   1.215
    2V3OU   C23  884   3.747   3.874   1.287
    2V3OU   H15  885   3.785   3.769   1.312
    2V3OU    N1  886   3.733   3.956   1.406
    2V3OU   H19  887   3.802   3.924   1.471
    2V3OU   H20  888   3.645   3.932   1.448
    2V3OU   C21  889   3.845   3.945   1.189
    2V3OU   H11  890   3.945   3.918   1.235
    2V3OU    O5  891   3.834   4.086   1.189
    2V3OU   H18  892   3.784   4.100   1.271
    2V3OU   C22  893   3.912   3.945   0.938
    2V3OU   H12  894   3.861   4.042   0.914
    2V3OU   H13  895   3.902   3.885   0.844
    2V3OU   H14  896   4.020   3.962   0.960
    2V3OU   C11  897   3.156   3.465   1.059
    2V3OU    O1  898   3.140   3.584   1.025
    2V3OU    C9  899   3.296   3.427   1.090
    2V3OU    C7  900   3.400   3.505   1.042
    2V3OU    O9  901   3.382   3.613   0.958
    2V3OU   H25  902   3.286   3.626   0.956
    2V3OU   C17  903   2.817   3.309   1.092
    2V3OU    H7  904   2.714   3.346   1.088
    2V3OU   C18  905   2.837   3.204   1.180
    2V3OU    H8  906   2.761   3.139   1.226
    3SOL     OW  907   0.338   4.574   0.895
    3SOL    HW1  908   0.267   4.568   0.965
    3SOL    HW2  909   0.325   4.500   0.829
    4SOL     OW  910   5.810   0.803   2.140
    4SOL    HW1  911   5.792   0.705   2.143
    4SOL    HW2  912   5.794   0.844   2.230
    5SOL     OW  913   3.747   2.950   1.150
    5SOL    HW1  914   3.670   3.007   1.180
    5SOL    HW2  915   3.744   2.862   1.197
    6SOL     OW  916   3.346   2.267   0.419
    6SOL    HW1  917   3.327   2.248   0.322
    6SOL    HW2  918   3.262   2.256   0.472
    7SOL     OW  919   5.466   0.708   1.855
    7SOL    HW1  920   5.370   0.724   1.830
    7SOL    HW2  921   5.491   0.614   1.832
    8SOL     OW  922   3.407   2.152   3.422
    8SOL    HW1  923   3.495   2.147   3.469
    8SOL    HW2  924   3.422   2.139   3.324
    9SOL     OW  925   6.324   4.481   6.232
    9SOL    HW1  926   6.270   4.531   6.165
    9SOL    HW2  927   6.302   4.514   6.324
   10SOL     OW  928   6.953   4.533   1.518
   10SOL    HW1  929   6.912   4.443   1.506
   10SOL    HW2  930   0.024   4.534   1.475
   11SOL     OW  931   3.819   6.477   6.756
   11SOL    HW1  932   3.859   6.385   6.758
   11SOL    HW2  933   3.834   6.517   6.665
   12SOL     OW  934   5.702   0.017   2.222
   12SOL    HW1  935   5.685   7.007   2.128
   12SOL    HW2  936   5.765   0.096   2.221
   13SOL     OW  937   2.174   0.112   2.524
   13SOL    HW1  938   2.086   0.157   2.515
   13SOL    HW2  939   2.246   0.168   2.483
   14SOL     OW  940   2.890   0.449   3.189
   14SOL    HW1  941   2.805   0.447   3.136
   14SOL    HW2  942   2.953   0.515   3.148
   15SOL     OW  943   2.647   6.474   6.089
   15SOL    HW1  944   2.707   6.400   6.117
   15SOL    HW2  945   2.637   6.474   5.990
   16SOL     OW  946   6.536   2.403   0.262
   16SOL    HW1  947   6.609   2.376   0.325
   16SOL    HW2  948   6.454   2.349   0.280
   17SOL     OW  949   3.950   5.619   2.989
   17SOL    HW1  950   3.918   5.684   2.920
   17SOL    HW2  951   4.031   5.656   3.034
   18SOL     OW  952   1.431   0.694   6.819
   18SOL    HW1  953   1.444   0.785   6.780
   18SOL    HW2  954   1.424   0.626   6.746
   19SOL     OW  955   0.967   6.973   1.409
   19SOL    HW1  956   0.961   6.921   1.324
   19SOL    HW2  957   0.972   0.051   1.388
   20SOL     OW  958   3.391   0.307   4.410
   20SOL    HW1  959   3.341   0.334   4.328
   20SOL    HW2  960   3.474   0.361   4.418
   21SOL     OW  961   3.101   3.214   1.755
   21SOL    HW1  962   3.049   3.226   1.671
   21SOL    HW2  963   3.199   3.216   1.735
   22SOL     OW  964   1.490   1.397   5.464
   22SOL    HW1  965   1.419   1.337   5.428
   22SOL    HW2  966   1.449   1.482   5.496
   23SOL     OW  967   2.777   6.216   4.693
   23SOL    HW1  968   2.865   6.231   4.738
   23SOL    HW2  969   2.716   6.167   4.755
   24SOL     OW  970   4.649   1.606   5.209
   24SOL    HW1  971   4.662   1.552   5.126
   24SOL    HW2  972   4.601   1.691   5.186
   25SOL     OW  973   2.404   5.883   0.845
   25SOL    HW1  974   2.377   5.847   0.935
   25SOL    HW2  975   2.350   5.964   0.824
   26SOL     OW  976   5.581   0.910   3.037
   26SOL    HW1  977   5.654   0.976   3.018
   26SOL    HW2  978   5.619   0.831   3.085
   27SOL     OW  979   5.955   0.235   2.835
   27SOL    HW1  980   5.901   0.182   2.900
   27SOL    HW2  981   5.978   0.324   2.875
   28SOL     OW  982   2.678   1.245   0.063
   28SOL    HW1  983   2.773   1.246   0.094
   28SOL    HW2  984   2.618   1.217   0.138
   29SOL     OW  985   4.660   2.988   1.605
   29SOL    HW1  986   4.627   2.989   1.699
   29SOL    HW2  987   4.758   2.969   1.604
   30SOL     OW  988   4.123   1.461   6.063
   30SOL    HW1  989   4.158   1.490   5.974
   30SOL    HW2  990   4.200   1.431   6.120
   31SOL     OW  991   0.741   1.809   5.382
   31SOL    HW1  992   0.689   1.767   5.456
   31SOL    HW2  993   0.772   1.900   5.410
   32SOL     OW  994   6.329   1.978   2.200
   32SOL    HW1  995   6.340   2.022   2.289
   32SOL    HW2  996   6.331   2.048   2.128
   33SOL     OW  997   1.554   1.389   5.151
   33SOL    HW1  998   1.645   1.362   5.121
   33SOL    HW2  999   1.522   1.328   5.223
   34SOL     OW 1000   0.976   1.062   4.893
   34SOL    HW1 1001   0.919   1.129   4.939
   34SOL    HW2 1002   1.069   1.066   4.930
   35SOL     OW 1003   4.790   2.368   6.365
   35SOL    HW1 1004   4.713   2.345   6.424
   35SOL    HW2 1005   4.858   2.419   6.417
   36SOL     OW 1006   1.015   2.119   5.712
   36SOL    HW1 1007   1.049   2.206   5.746
   36SOL    HW2 1008   0.922   2.103   5.747
   37SOL     OW 1009   3.302   6.554   1.971
   37SOL    HW1 1010   3.272   6.627   1.910
   37SOL    HW2 1011   3.244   6.553   2.053
   38SOL     OW 1012   6.979   5.727   1.637
   38SOL    HW1 1013   6.952   5.817   1.603
   38SOL    HW2 1014   0.050   5.734   1.679
   39SOL     OW 1015   6.878   2.428   6.486
   39SOL    HW1 1016   6.878   2.342   6.537
   39SOL    HW2 1017   6.946   2.490   6.525
   40SOL     OW 1018   0.230   1.355   1.645
   40SOL    HW1 1019   0.169   1.433   1.661
   40SOL    HW2 1020   0.181   1.270   1.663
   41SOL     OW 1021   1.167   0.904   5.802
   41SOL    HW1 1022   1.212   0.862   5.881
   41SOL    HW2 1023   1.132   0.994   5.828
   42SOL     OW 1024   3.616   0.199   0.380
   42SOL    HW1 1025   3.635   0.112   0.424
   42SOL    HW2 1026   3.633   0.191   0.281
   43SOL     OW 1027   4.168   5.443   5.340
   43SOL    HW1 1028   4.107   5.373   5.303
   43SOL    HW2 1029   4.156   5.528   5.288
   44SOL     OW 1030   1.190   4.056   0.173
   44SOL    HW1 1031   1.287   4.077   0.184
   44SOL    HW2 1032   1.138   4.142   0.173
   45SOL     OW 1033   2.018   0.159   1.558
   45SOL    HW1 1034   2.031   0.169   1.657
   45SOL    HW2 1035   1.937   0.211   1.530
   46SOL     OW 1036   1.030   5.416   3.613
   46SOL    HW1 1037   1.057   5.500   3.660
   46SOL    HW2 1038   1.017   5.435   3.516
   47SOL     OW 1039   6.040   4.275   2.726
   47SOL    HW1 1040   6.033   4.191   2.673
   47SOL    HW2 1041   5.986   4.267   2.810
   48SOL     OW 1042   0.717   1.374   5.515
   48SOL    HW1 1043   0.742   1.320   5.435
   48SOL    HW2 1044   0.781   1.355   5.589
   49SOL     OW 1045   5.860   3.225   0.209
   49SOL    HW1 1046   5.832   3.263   0.297
   49SOL    HW2 1047   5.953   3.255   0.188
   50SOL     OW 1048   0.589   3.839   4.619
   50SOL    HW1 1049   0.501   3.881   4.642
   50SOL    HW2 1050   0.641   3.900   4.560
   51SOL     OW 1051   3.353   5.811   2.008
   51SOL    HW1 1052   3.317   5.872   2.078
   51SOL    HW2 1053   3.303   5.825   1.923
   52SOL     OW 1054   0.466   2.428   1.938
   52SOL    HW1 1055   0.563   2.405   1.933
   52SOL    HW2 1056   0.445   2.464   2.028
   53SOL     OW 1057   4.613   6.830   3.449
   53SOL    HW1 1058   4.546   6.893   3.410
   53SOL    HW2 1059   4.585   6.803   3.541
   54SOL     OW 1060   4.992   4.270   5.226
   54SOL    HW1 1061   4.899   4.242   5.251
   54SOL    HW2 1062   5.057   4.232   5.292
   55SOL     OW 1063   3.687   2.227   1.223
   55SOL    HW1 1064   3.707   2.292   1.296
   55SOL    HW2 1065   3.772   2.194   1.184
   56SOL     OW 1066   0.591   0.189   2.208
   56SOL    HW1 1067   0.527   0.135   2.154
   56SOL    HW2 1068   0.664   0.223   2.150
   57SOL     OW 1069   5.478   0.622   0.524
   57SOL    HW1 1070   5.525   0.686   0.585
   57SOL    HW2 1071   5.382   0.648   0.516
   58SOL     OW 1072   6.638   0.532   6.855
   58SOL    HW1 1073   6.688   0.553   6.939
   58SOL    HW2 1074   6.656   0.437   6.828
   59SOL     OW 1075   0.441   0.004   5.691
   59SOL    HW1 1076   0.373   6.974   5.745
   59SOL    HW2 1077   0.459   0.093   5.732
   60SOL     OW 1078   4.901   6.966   4.895
   60SOL    HW1 1079   4.960   0.024   4.874
   60SOL    HW2 1080   4.924   6.889   4.836
   61SOL     OW 1081   3.767   6.906   5.423
   61SOL    HW1 1082   3.772   6.981   5.358
   61SOL    HW2 1083   3.686   6.850   5.402
   62SOL     OW 1084   2.663   0.495   4.991
   62SOL    HW1 1085   2.672   0.594   4.983
   62SOL    HW2 1086   2.754   0.455   5.004
   63SOL     OW 1087   6.955   3.059   3.562
   63SOL    HW1 1088   6.965   3.027   3.656
   63SOL    HW2 1089   6.886   3.003   3.515
   64SOL     OW 1090   6.907   2.500   5.469
   64SOL    HW1 1091   6.902   2.467   5.563
   64SOL    HW2 1092   6.864   2.434   5.407
   65SOL     OW 1093   1.187   4.184   5.770
   65SOL    HW1 1094   1.107   4.239   5.746
   65SOL    HW2 1095   1.205   4.117   5.698
   66SOL     OW 1096   2.539   1.067   1.379
   66SOL    HW1 1097   2.443   1.049   1.357
   66SOL    HW2 1098   2.545   1.115   1.466
   67SOL     OW 1099   4.760   5.154   4.158
   67SOL    HW1 1100   4.751   5.145   4.257
   67SOL    HW2 1101   4.706   5.083   4.113
   68SOL     OW 1102   5.582   3.032   6.556
   68SOL    HW1 1103   5.579   2.946   6.606
   68SOL    HW2 1104   5.496   3.045   6.505
   69SOL     OW 1105   2.431   2.907   5.747
   69SOL    HW1 1106   2.430   3.006   5.736
   69SOL    HW2 1107   2.495   2.866   5.682
   70SOL     OW 1108   5.676   0.203   2.678
   70SOL    HW1 1109   5.670   0.303   2.679
   70SOL    HW2 1110   5.760   0.174   2.723
   71SOL     OW 1111   1.939   4.332   2.307
   71SOL    HW1 1112   1.925   4.300   2.400
   71SOL    HW2 1113   1.927   4.256   2.243
   72SOL     OW 1114   3.957   5.374   3.815
   72SOL    HW1 1115   3.964   5.280   3.783
   72SOL    HW2 1116   3.874   5.385   3.871
   73SOL     OW 1117   3.701   3.093   6.587
   73SOL    HW1 1118   3.728   3.173   6.641
   73SOL    HW2 1119   3.721   3.010   6.639
   74SOL     OW 1120   5.112   0.094   5.749
   74SOL    HW1 1121   5.170   0.012   5.750
   74SOL    HW2 1122   5.017   0.066   5.732
   75SOL     OW 1123   3.615   5.260   5.408
   75SOL    HW1 1124   3.587   5.165   5.419
   75SOL    HW2 1125   3.603   5.309   5.494
   76SOL     OW 1126   2.637   3.036   0.975
   76SOL    HW1 1127   2.569   3.090   0.925
   76SOL    HW2 1128   2.595   2.951   1.007
   77SOL     OW 1129   5.957   4.284   6.308
   77SOL    HW1 1130   5.973   4.305   6.405
   77SOL    HW2 1131   6.044   4.266   6.263
   78SOL     OW 1132   6.217   6.747   5.968
   78SOL    HW1 1133   6.237   6.789   5.879
   78SOL    HW2 1134   6.136   6.689   5.960
   79SOL     OW 1135   3.230   6.930   0.866
   79SOL    HW1 1136   3.193   6.999   0.804
   79SOL    HW2 1137   3.327   6.914   0.844
   80SOL     OW 1138   0.357   0.929   4.200
   80SOL    HW1 1139   0.369   0.863   4.274
   80SOL    HW2 1140   0.333   0.880   4.116
   81SOL     OW 1141   1.850   6.678   3.139
   81SOL    HW1 1142   1.907   6.609   3.094
   81SOL    HW2 1143   1.780   6.632   3.194
   82SOL     OW 1144   6.590   5.037   5.769
   82SOL    HW1 1145   6.591   4.967   5.840
   82SOL    HW2 1146   6.674   5.031   5.715
   83SOL     OW 1147   6.109   6.497   5.475
   83SOL    HW1 1148   6.070   6.460   5.391
   83SOL    HW2 1149   6.201   6.459   5.488
   84SOL     OW 1150   6.939   3.915   2.082
   84SOL    HW1 1151   6.964   3.900   1.986
   84SOL    HW2 1152   6.874   3.992   2.087
   85SOL     OW 1153   1.185   1.159   5.066
   85SOL    HW1 1154   1.260   1.114   5.017
   85SOL    HW2 1155   1.155   1.240   5.015
   86SOL     OW 1156   2.110   1.074   4.612
   86SOL    HW1 1157   2.112   1.143   4.539
   86SOL    HW2 1158   2.022   1.077   4.659
   87SOL     OW 1159   4.615   6.631   1.915
   87SOL    HW1 1160   4.649   6.725   1.918
   87SOL    HW2 1161   4.517   6.631   1.934
   88SOL     OW 1162   5.894   0.617   1.799
   88SOL    HW1 1163   5.903   0.523   1.833
   88SOL    HW2 1164   5.817   0.622   1.735
   89SOL     OW 1165   1.813   1.811   5.253
   89SOL    HW1 1166   1.897   1.757   5.254
   89SOL    HW2 1167   1.735   1.751   5.273
   90SOL     OW 1168   6.486   6.253   3.616
   90SOL    HW1 1169   6.458   6.235   3.522
   90SOL    HW2 1170   6.406   6.274   3.672
   91SOL     OW 1171   4.735   4.884   4.505
   91SOL    HW1 1172   4.834   4.877   4.500
   91SOL    HW2 1173   4.707   4.976   4.478
   92SOL     OW 1174   3.577   5.874   1.460
   92SOL    HW1 1175   3.504   5.846   1.398
   92SOL    HW2 1176   3.541   5.883   1.552
   93SOL     OW 1177   3.112   4.790   5.819
   93SOL    HW1 1178   3.169   4.711   5.840
   93SOL    HW2 1179   3.162   4.874   5.840
   94SOL     OW 1180   1.820   6.586   2.003
   94SOL    HW1 1181   1.893   6.654   2.007
   94SOL    HW2 1182   1.809   6.553   1.909
   95SOL     OW 1183   6.576   6.858   5.212
   95SOL    HW1 1184   6.673   6.850   5.190
   95SOL    HW2 1185   6.561   6.938   5.271
   96SOL     OW 1186   1.472   6.691   4.946
   96SOL    HW1 1187   1.407   6.722   5.016
   96SOL    HW2 1188   1.436   6.714   4.855
   97SOL     OW 1189   6.357   2.274   4.312
   97SOL    HW1 1190   6.350   2.235   4.404
   97SOL    HW2 1191   6.450   2.308   4.298
   98SOL     OW 1192   4.740   0.834   5.695
   98SOL    HW1 1193   4.705   0.770   5.628
   98SOL    HW2 1194   4.819   0.793   5.743
   99SOL     OW 1195   4.890   1.477   0.873
   99SOL    HW1 1196   4.959   1.426   0.821
   99SOL    HW2 1197   4.934   1.556   0.916
  100SOL     OW 1198   6.493   5.483   6.872
  100SOL    HW1 1199   6.440   5.433   6.941
  100SOL    HW2 1200   6.474   5.580   6.880
  101SOL     OW 1201   1.369   0.010   3.908
  101SOL    HW1 1202   1.312   0.092   3.908
  101SOL    HW2 1203   1.427   0.009   3.989
  102SOL     OW 1204   4.151   0.471   2.780
  102SOL    HW1 1205   4.114   0.451   2.870
  102SOL    HW2 1206   4.248   0.494   2.787
  103SOL     OW 1207   3.793   1.505   1.808
  103SOL    HW1 1208   3.881   1.484   1.850
  103SOL    HW2 1209   3.780   1.604   1.805
  104SOL     OW 1210   6.199   6.301   2.228
  104SOL    HW1 1211   6.193   6.362   2.149
  104SOL    HW2 1212   6.117   6.312   2.285
  105SOL     OW 1213   5.516   0.886   6.147
  105SOL    HW1 1214   5.521   0.808   6.084
  105SOL    HW2 1215   5.422   0.896   6.181
  106SOL     OW 1216   3.776   6.687   1.326
  106SOL    HW1 1217   3.857   6.634   1.349
  106SOL    HW2 1218   3.748   6.666   1.232
  107SOL     OW 1219   2.636   3.309   0.048
  107SOL    HW1 1220   2.623   3.222   0.000
  107SOL    HW2 1221   2.549   3.358   0.050
  108SOL     OW 1222   4.817   3.913   5.396
  108SOL    HW1 1223   4.772   3.824   5.394
  108SOL    HW2 1224   4.899   3.909   5.339
  109SOL     OW 1225   6.184   0.735   2.331
  109SOL    HW1 1226   6.185   0.813   2.269
  109SOL    HW2 1227   6.278   0.711   2.355
  110SOL     OW 1228   3.227   6.497   4.266
  110SOL    HW1 1229   3.297   6.568   4.269
  110SOL    HW2 1230   3.156   6.522   4.201
  111SOL     OW 1231   2.824   1.186   2.966
  111SOL    HW1 1232   2.897   1.147   3.021
  111SOL    HW2 1233   2.746   1.210   3.024
  112SOL     OW 1234   7.007   1.504   6.530
  112SOL    HW1 1235   6.971   1.592   6.560
  112SOL    HW2 1236   0.046   1.465   6.601
  113SOL     OW 1237   6.891   6.629   3.872
  113SOL    HW1 1238   6.833   6.561   3.917
  113SOL    HW2 1239   6.905   6.602   3.777
  114SOL     OW 1240   1.133   6.487   0.426
  114SOL    HW1 1241   1.082   6.462   0.344
  114SOL    HW2 1242   1.073   6.486   0.505
  115SOL     OW 1243   5.232   1.222   5.479
  115SOL    HW1 1244   5.214   1.254   5.386
  115SOL    HW2 1245   5.316   1.265   5.513
  116SOL     OW 1246   6.271   3.967   3.046
  116SOL    HW1 1247   6.237   3.899   2.981
  116SOL    HW2 1248   6.365   3.945   3.071
  117SOL     OW 1249   0.846   6.876   6.147
  117SOL    HW1 1250   0.874   6.960   6.191
  117SOL    HW2 1251   0.890   6.798   6.192
  118SOL     OW 1252   2.102   0.989   3.068
  118SOL    HW1 1253   2.078   1.052   3.143
  118SOL    HW2 1254   2.056   0.901   3.082
  119SOL     OW 1255   6.790   2.409   5.974
  119SOL    HW1 1256   6.809   2.322   6.019
  119SOL    HW2 1257   6.839   2.482   6.020
  120SOL     OW 1258   5.031   5.996   1.889
  120SOL    HW1 1259   5.004   5.912   1.935
  120SOL    HW2 1260   5.106   6.039   1.939
  121SOL     OW 1261   2.859   3.014   5.818
  121SOL    HW1 1262   2.924   2.940   5.801
  121SOL    HW2 1263   2.786   2.981   5.877
  122SOL     OW 1264   1.190   3.206   4.981
  122SOL    HW1 1265   1.178   3.109   5.000
  122SOL    HW2 1266   1.112   3.256   5.019
  123SOL     OW 1267   6.705   1.817   1.584
  123SOL    HW1 1268   6.607   1.825   1.569
  123SOL    HW2 1269   6.727   1.850   1.676
  124SOL     OW 1270   5.029   3.747   1.326
  124SOL    HW1 1271   4.994   3.770   1.235
  124SOL    HW2 1272   4.977   3.798   1.395
  125SOL     OW 1273   2.375   3.535   1.595
  125SOL    HW1 1274   2.383   3.635   1.586
  125SOL    HW2 1275   2.387   3.510   1.691
  126SOL     OW 1276   3.936   4.348   0.296
  126SOL    HW1 1277   3.982   4.398   0.222
  126SOL    HW2 1278   3.858   4.402   0.329
  127SOL     OW 1279   0.938   5.421   5.810
  127SOL    HW1 1280   0.918   5.394   5.716
  127SOL    HW2 1281   0.856   5.460   5.852
  128SOL     OW 1282   4.764   2.452   0.474
  128SOL    HW1 1283   4.728   2.366   0.439
  128SOL    HW2 1284   4.821   2.495   0.404
  129SOL     OW 1285   2.833   3.752   0.526
  129SOL    HW1 1286   2.836   3.652   0.520
  129SOL    HW2 1287   2.764   3.779   0.594
  130SOL     OW 1288   1.465   2.198   4.577
  130SOL    HW1 1289   1.439   2.233   4.667
  130SOL    HW2 1290   1.481   2.099   4.583
  131SOL     OW 1291   5.700   1.098   2.133
  131SOL    HW1 1292   5.697   1.027   2.063
  131SOL    HW2 1293   5.737   1.182   2.094
  132SOL     OW 1294   0.575   2.364   2.316
  132SOL    HW1 1295   0.647   2.304   2.351
  132SOL    HW2 1296   0.610   2.414   2.236
  133SOL     OW 1297   6.977   6.112   2.856
  133SOL    HW1 1298   6.884   6.086   2.830
  133SOL    HW2 1299   0.018   6.033   2.844
  134SOL     OW 1300   1.161   3.478   2.863
  134SOL    HW1 1301   1.146   3.380   2.882
  134SOL    HW2 1302   1.226   3.515   2.929
  135SOL     OW 1303   4.483   1.094   4.238
  135SOL    HW1 1304   4.492   0.999   4.208
  135SOL    HW2 1305   4.562   1.146   4.207
  136SOL     OW 1306   4.996   4.963   6.074
  136SOL    HW1 1307   4.940   4.994   5.997
  136SOL    HW2 1308   4.940   4.906   6.135
  137SOL     OW 1309   3.649   0.898   5.521
  137SOL    HW1 1310   3.697   0.815   5.492
  137SOL    HW2 1311   3.705   0.978   5.501
  138SOL     OW 1312   5.660   4.196   5.563
  138SOL    HW1 1313   5.734   4.262   5.569
  138SOL    HW2 1314   5.674   4.138   5.483
  139SOL     OW 1315   3.346   5.660   6.068
  139SOL    HW1 1316   3.331   5.561   6.063
  139SOL    HW2 1317   3.370   5.695   5.977
  140SOL     OW 1318   6.347   3.854   4.539
  140SOL    HW1 1319   6.406   3.783   4.579
  140SOL    HW2 1320   6.302   3.816   4.458
  141SOL     OW 1321   1.335   2.040   2.333
  141SOL    HW1 1322   1.337   2.086   2.421
  141SOL    HW2 1323   1.292   1.950   2.342
  142SOL     OW 1324   1.525   5.402   1.142
  142SOL    HW1 1325   1.616   5.398   1.101
  142SOL    HW2 1326   1.527   5.358   1.232
  143SOL     OW 1327   5.014   4.213   2.053
  143SOL    HW1 1328   5.079   4.186   2.124
  143SOL    HW2 1329   4.920   4.204   2.088
  144SOL     OW 1330   2.640   7.010   1.128
  144SOL    HW1 1331   2.676   6.918   1.113
  144SOL    HW2 1332   2.693   0.036   1.199
  145SOL     OW 1333   6.693   5.500   0.665
  145SOL    HW1 1334   6.596   5.501   0.637
  145SOL    HW2 1335   6.745   5.445   0.600
  146SOL     OW 1336   7.009   4.686   0.819
  146SOL    HW1 1337   0.003   4.702   0.721
  146SOL    HW2 1338   0.017   4.593   0.841
  147SOL     OW 1339   5.795   2.714   1.023
  147SOL    HW1 1340   5.751   2.794   0.982
  147SOL    HW2 1341   5.841   2.660   0.952
  148SOL     OW 1342   0.987   5.457   5.417
  148SOL    HW1 1343   1.063   5.395   5.400
  148SOL    HW2 1344   1.021   5.551   5.417
  149SOL     OW 1345   3.014   1.101   5.818
  149SOL    HW1 1346   2.967   1.118   5.904
  149SOL    HW2 1347   2.971   1.155   5.745
  150SOL     OW 1348   7.017   6.097   4.862
  150SOL    HW1 1349   0.001   6.002   4.895
  150SOL    HW2 1350   6.929   6.137   4.888
  151SOL     OW 1351   4.483   0.600   2.147
  151SOL    HW1 1352   4.480   0.556   2.057
  151SOL    HW2 1353   4.528   0.539   2.212
  152SOL     OW 1354   2.709   0.755   4.491
  152SOL    HW1 1355   2.761   0.670   4.496
  152SOL    HW2 1356   2.769   0.832   4.511
  153SOL     OW 1357   1.028   0.208   2.734
  153SOL    HW1 1358   1.120   0.189   2.768
  153SOL    HW2 1359   0.979   0.122   2.720
  154SOL     OW 1360   0.231   2.084   3.054
  154SOL    HW1 1361   0.319   2.057   3.092
  154SOL    HW2 1362   0.245   2.153   2.982
  155SOL     OW 1363   0.147   1.191   3.306
  155SOL    HW1 1364   0.109   1.105   3.341
  155SOL    HW2 1365   0.109   1.210   3.216
  156SOL     OW 1366   6.992   2.300   1.529
  156SOL    HW1 1367   0.009   2.380   1.578
  156SOL    HW2 1368   7.005   2.313   1.431
  157SOL     OW 1369   0.270   2.647   2.657
  157SOL    HW1 1370   0.273   2.587   2.576
  157SOL    HW2 1371   0.260   2.591   2.739
  158SOL     OW 1372   1.940   1.664   3.693
  158SOL    HW1 1373   1.915   1.715   3.611
  158SOL    HW2 1374   1.920   1.719   3.774
  159SOL     OW 1375   5.097   3.329   1.818
  159SOL    HW1 1376   5.051   3.241   1.808
  159SOL    HW2 1377   5.075   3.368   1.907
  160SOL     OW 1378   5.978   4.649   6.469
  160SOL    HW1 1379   6.071   4.614   6.460
  160SOL    HW2 1380   5.972   4.738   6.424
  161SOL     OW 1381   3.011   4.654   5.360
  161SOL    HW1 1382   2.970   4.606   5.283
  161SOL    HW2 1383   2.939   4.695   5.416
  162SOL     OW 1384   4.659   6.025   2.465
  162SOL    HW1 1385   4.588   5.997   2.401
  162SOL    HW2 1386   4.743   6.047   2.415
  163SOL     OW 1387   6.162   0.319   1.707
  163SOL    HW1 1388   6.114   0.329   1.795
  163SOL    HW2 1389   6.134   0.234   1.664
  164SOL     OW 1390   6.631   2.899   0.981
  164SOL    HW1 1391   6.612   2.848   1.065
  164SOL    HW2 1392   6.662   2.991   1.005
  165SOL     OW 1393   6.451   3.640   6.938
  165SOL    HW1 1394   6.537   3.620   6.891
  165SOL    HW2 1395   6.465   3.714   7.004
  166SOL     OW 1396   1.656   0.193   0.611
  166SOL    HW1 1397   1.676   0.112   0.666
  166SOL    HW2 1398   1.578   0.241   0.650
  167SOL     OW 1399   6.314   2.586   1.295
  167SOL    HW1 1400   6.217   2.609   1.282
  167SOL    HW2 1401   6.360   2.661   1.342
  168SOL     OW 1402   2.506   5.884   1.537
  168SOL    HW1 1403   2.467   5.926   1.454
  168SOL    HW2 1404   2.474   5.933   1.617
  169SOL     OW 1405   0.999   0.219   1.355
  169SOL    HW1 1406   0.981   0.211   1.257
  169SOL    HW2 1407   1.038   0.308   1.376
  170SOL     OW 1408   0.101   1.721   3.450
  170SOL    HW1 1409   0.056   1.632   3.443
  170SOL    HW2 1410   0.196   1.713   3.418
  171SOL     OW 1411   3.541   3.890   0.475
  171SOL    HW1 1412   3.535   3.863   0.572
  171SOL    HW2 1413   3.613   3.957   0.464
  172SOL     OW 1414   0.223   2.807   2.042
  172SOL    HW1 1415   0.254   2.893   2.002
  172SOL    HW2 1416   0.162   2.826   2.119
  173SOL     OW 1417   6.887   6.576   5.988
  173SOL    HW1 1418   6.797   6.601   6.023
  173SOL    HW2 1419   6.889   6.479   5.964
  174SOL     OW 1420   2.543   5.998   3.728
  174SOL    HW1 1421   2.493   6.079   3.758
  174SOL    HW2 1422   2.489   5.950   3.658
  175SOL     OW 1423   0.501   5.067   3.621
  175SOL    HW1 1424   0.402   5.054   3.623
  175SOL    HW2 1425   0.547   4.984   3.652
  176SOL     OW 1426   2.977   5.487   6.934
  176SOL    HW1 1427   2.883   5.483   6.902
  176SOL    HW2 1428   2.994   5.574   6.980
  177SOL     OW 1429   4.424   1.637   2.799
  177SOL    HW1 1430   4.452   1.542   2.805
  177SOL    HW2 1431   4.431   1.669   2.705
  178SOL     OW 1432   5.327   3.709   6.167
  178SOL    HW1 1433   5.346   3.665   6.079
  178SOL    HW2 1434   5.238   3.753   6.163
  179SOL     OW 1435   3.002   6.943   0.439
  179SOL    HW1 1436   2.982   6.873   0.372
  179SOL    HW2 1437   3.004   6.903   0.530
  180SOL     OW 1438   1.272   2.144   6.751
  180SOL    HW1 1439   1.370   2.155   6.765
  180SOL    HW2 1440   1.225   2.149   6.839
  181SOL     OW 1441   2.866   3.539   3.895
  181SOL    HW1 1442   2.860   3.595   3.812
  181SOL    HW2 1443   2.940   3.472   3.886
  182SOL     OW 1444   5.510   2.561   4.922
  182SOL    HW1 1445   5.565   2.611   4.989
  182SOL    HW2 1446   5.416   2.597   4.923
  183SOL     OW 1447   6.204   1.309   2.468
  183SOL    HW1 1448   6.173   1.214   2.457
  183SOL    HW2 1449   6.298   1.317   2.434
  184SOL     OW 1450   0.292   4.817   2.849
  184SOL    HW1 1451   0.280   4.803   2.947
  184SOL    HW2 1452   0.373   4.768   2.817
  185SOL     OW 1453   2.971   3.868   5.978
  185SOL    HW1 1454   3.057   3.819   5.989
  185SOL    HW2 1455   2.927   3.840   5.892
  186SOL     OW 1456   6.440   6.599   3.396
  186SOL    HW1 1457   6.383   6.644   3.465
  186SOL    HW2 1458   6.386   6.531   3.347
  187SOL     OW 1459   5.409   0.309   4.304
  187SOL    HW1 1460   5.426   0.214   4.280
  187SOL    HW2 1461   5.340   0.313   4.376
  188SOL     OW 1462   6.341   1.903   5.039
  188SOL    HW1 1463   6.439   1.886   5.043
  188SOL    HW2 1464   6.299   1.882   5.127
  189SOL     OW 1465   1.721   4.690   3.350
  189SOL    HW1 1466   1.731   4.639   3.265
  189SOL    HW2 1467   1.760   4.782   3.339
  190SOL     OW 1468   3.678   1.096   6.792
  190SOL    HW1 1469   3.672   1.158   6.871
  190SOL    HW2 1470   3.646   1.143   6.710
  191SOL     OW 1471   5.402   5.903   6.245
  191SOL    HW1 1472   5.463   5.865   6.176
  191SOL    HW2 1473   5.385   5.834   6.316
  192SOL     OW 1474   5.971   0.713   6.791
  192SOL    HW1 1475   5.939   0.795   6.838
  192SOL    HW2 1476   6.033   0.662   6.852
  193SOL     OW 1477   6.482   4.138   6.991
  193SOL    HW1 1478   6.390   4.176   6.991
  193SOL    HW2 1479   6.480   4.045   0.008
  194SOL     OW 1480   4.320   6.983   4.806
  194SOL    HW1 1481   4.404   0.014   4.785
  194SOL    HW2 1482   4.304   6.983   4.904
  195SOL     OW 1483   0.125   5.678   3.125
  195SOL    HW1 1484   0.097   5.774   3.119
  195SOL    HW2 1485   0.223   5.672   3.145
  196SOL     OW 1486   0.848   1.010   0.947
  196SOL    HW1 1487   0.834   0.926   1.000
  196SOL    HW2 1488   0.842   0.989   0.849
  197SOL     OW 1489   1.846   0.930   0.933
  197SOL    HW1 1490   1.854   0.868   1.012
  197SOL    HW2 1491   1.849   0.877   0.849
  198SOL     OW 1492   2.732   1.313   4.271
  198SOL    HW1 1493   2.688   1.376   4.208
  198SOL    HW2 1494   2.712   1.339   4.365
  199SOL     OW 1495   1.432   1.158   4.383
  199SOL    HW1 1496   1.437   1.240   4.439
  199SOL    HW2 1497   1.421   1.184   4.287
  200SOL     OW 1498   6.406   1.978   0.672
  200SOL    HW1 1499   6.368   1.983   0.765
  200SOL    HW2 1500   6.488   2.036   0.666
  201SOL     OW 1501   0.291   1.599   6.195
  201SOL    HW1 1502   0.376   1.638   6.228
  201SOL    HW2 1503   0.214   1.659   6.218
  202SOL     OW 1504   5.315   6.815   0.179
  202SOL    HW1 1505   5.273   6.855   0.098
  202SOL    HW2 1506   5.404   6.777   0.156
  203SOL     OW 1507   6.826   3.392   0.072
  203SOL    HW1 1508   6.849   3.329   0.146
  203SOL    HW2 1509   6.726   3.401   0.066
  204SOL     OW 1510   6.661   0.845   5.352
  204SOL    HW1 1511   6.569   0.816   5.324
  204SOL    HW2 1512   6.729   0.787   5.309
  205SOL     OW 1513   2.108   4.426   3.568
  205SOL    HW1 1514   2.175   4.497   3.545
  205SOL    HW2 1515   2.146   4.366   3.639
  206SOL     OW 1516   0.549   4.119   1.050
  206SOL    HW1 1517   0.637   4.160   1.074
  206SOL    HW2 1518   0.524   4.147   0.957
  207SOL     OW 1519   6.572   2.758   4.734
  207SOL    HW1 1520   6.601   2.835   4.677
  207SOL    HW2 1521   6.473   2.747   4.728
  208SOL     OW 1522   1.436   2.993   4.970
  208SOL    HW1 1523   1.439   3.081   5.017
  208SOL    HW2 1524   1.527   2.972   4.934
  209SOL     OW 1525   6.281   4.021   2.641
  209SOL    HW1 1526   6.319   3.947   2.697
  209SOL    HW2 1527   6.241   4.091   2.701
  210SOL     OW 1528   4.700   3.601   1.138
  210SOL    HW1 1529   4.708   3.614   1.237
  210SOL    HW2 1530   4.752   3.519   1.111
  211SOL     OW 1531   1.218   1.194   1.556
  211SOL    HW1 1532   1.143   1.222   1.615
  211SOL    HW2 1533   1.300   1.177   1.612
  212SOL     OW 1534   2.428   3.834   1.538
  212SOL    HW1 1535   2.425   3.904   1.466
  212SOL    HW2 1536   2.416   3.877   1.627
  213SOL     OW 1537   1.146   5.224   1.404
  213SOL    HW1 1538   1.157   5.124   1.404
  213SOL    HW2 1539   1.049   5.246   1.388
  214SOL     OW 1540   5.733   6.561   2.418
  214SOL    HW1 1541   5.707   6.517   2.332
  214SOL    HW2 1542   5.706   6.657   2.415
  215SOL     OW 1543   2.304   4.790   2.359
  215SOL    HW1 1544   2.315   4.724   2.433
  215SOL    HW2 1545   2.220   4.770   2.309
  216SOL     OW 1546   1.746   6.109   3.214
  216SOL    HW1 1547   1.662   6.160   3.230
  216SOL    HW2 1548   1.818   6.142   3.276
  217SOL     OW 1549   6.909   5.287   5.107
  217SOL    HW1 1550   6.866   5.285   5.016
  217SOL    HW2 1551   7.002   5.321   5.099
  218SOL     OW 1552   2.797   2.456   5.568
  218SOL    HW1 1553   2.864   2.402   5.619
  218SOL    HW2 1554   2.833   2.477   5.477
  219SOL     OW 1555   5.232   2.168   1.464
  219SOL    HW1 1556   5.138   2.199   1.448
  219SOL    HW2 1557   5.294   2.246   1.463
  220SOL     OW 1558   2.671   6.368   0.656
  220SOL    HW1 1559   2.634   6.348   0.566
  220SOL    HW2 1560   2.764   6.403   0.648
  221SOL     OW 1561   4.837   4.516   2.043
  221SOL    HW1 1562   4.870   4.488   1.953
  221SOL    HW2 1563   4.744   4.551   2.036
  222SOL     OW 1564   1.708   3.836   6.706
  222SOL    HW1 1565   1.658   3.860   6.622
  222SOL    HW2 1566   1.775   3.765   6.686
  223SOL     OW 1567   6.574   2.033   4.821
  223SOL    HW1 1568   6.578   1.955   4.883
  223SOL    HW2 1569   6.607   2.005   4.730
  224SOL     OW 1570   3.418   2.537   5.766
  224SOL    HW1 1571   3.486   2.471   5.736
  224SOL    HW2 1572   3.462   2.608   5.822
  225SOL     OW 1573   4.267   6.070   6.803
  225SOL    HW1 1574   4.361   6.045   6.779
  225SOL    HW2 1575   4.220   5.992   6.844
  226SOL     OW 1576   1.898   2.438   0.504
  226SOL    HW1 1577   1.973   2.396   0.452
  226SOL    HW2 1578   1.932   2.468   0.593
  227SOL     OW 1579   1.518   3.972   1.022
  227SOL    HW1 1580   1.587   4.003   1.087
  227SOL    HW2 1581   1.506   3.873   1.031
  228SOL     OW 1582   0.874   0.419   2.621
  228SOL    HW1 1583   0.831   0.395   2.534
  228SOL    HW2 1584   0.944   0.351   2.644
  229SOL     OW 1585   4.250   0.718   6.288
  229SOL    HW1 1586   4.230   0.737   6.192
  229SOL    HW2 1587   4.341   0.754   6.312
  230SOL     OW 1588   5.767   4.261   5.840
  230SOL    HW1 1589   5.790   4.322   5.916
  230SOL    HW2 1590   5.688   4.206   5.864
  231SOL     OW 1591   5.184   1.004   0.203
  231SOL    HW1 1592   5.221   1.090   0.166
  231SOL    HW2 1593   5.119   1.024   0.276
  232SOL     OW 1594   1.192   2.308   5.306
  232SOL    HW1 1595   1.094   2.302   5.288
  232SOL    HW2 1596   1.241   2.250   5.241
  233SOL     OW 1597   3.210   1.382   3.597
  233SOL    HW1 1598   3.293   1.427   3.562
  233SOL    HW2 1599   3.233   1.290   3.628
  234SOL     OW 1600   5.458   0.071   0.298
  234SOL    HW1 1601   5.423   6.997   0.288
  234SOL    HW2 1602   5.472   0.112   0.208
  235SOL     OW 1603   5.418   3.314   2.053
  235SOL    HW1 1604   5.337   3.352   2.097
  235SOL    HW2 1605   5.450   3.235   2.106
  236SOL     OW 1606   3.785   2.846   6.068
  236SOL    HW1 1607   3.812   2.939   6.092
  236SOL    HW2 1608   3.832   2.780   6.127
  237SOL     OW 1609   6.015   3.384   3.029
  237SOL    HW1 1610   6.026   3.378   2.929
  237SOL    HW2 1611   6.037   3.295   3.069
  238SOL     OW 1612   6.528   1.644   0.359
  238SOL    HW1 1613   6.461   1.651   0.432
  238SOL    HW2 1614   6.488   1.679   0.274
  239SOL     OW 1615   1.567   3.231   0.687
  239SOL    HW1 1616   1.562   3.254   0.590
  239SOL    HW2 1617   1.483   3.259   0.732
  240SOL     OW 1618   5.329   3.465   4.165
  240SOL    HW1 1619   5.261   3.502   4.102
  240SOL    HW2 1620   5.307   3.370   4.187
  241SOL     OW 1621   2.152   2.590   3.973
  241SOL    HW1 1622   2.217   2.664   3.958
  241SOL    HW2 1623   2.075   2.599   3.911
  242SOL     OW 1624   3.856   3.504   2.129
  242SOL    HW1 1625   3.805   3.418   2.121
  242SOL    HW2 1626   3.850   3.538   2.222
  243SOL     OW 1627   3.965   2.709   6.250
  243SOL    HW1 1628   4.027   2.761   6.308
  243SOL    HW2 1629   4.004   2.619   6.230
  244SOL     OW 1630   4.945   3.371   4.898
  244SOL    HW1 1631   4.987   3.307   4.963
  244SOL    HW2 1632   4.886   3.434   4.948
  245SOL     OW 1633   3.347   1.198   3.195
  245SOL    HW1 1634   3.314   1.292   3.207
  245SOL    HW2 1635   3.296   1.154   3.121
  246SOL     OW 1636   6.740   1.321   2.255
  246SOL    HW1 1637   6.820   1.262   2.242
  246SOL    HW2 1638   6.668   1.295   2.190
  247SOL     OW 1639   2.417   1.073   1.965
  247SOL    HW1 1640   2.334   1.017   1.967
  247SOL    HW2 1641   2.438   1.104   2.058
  248SOL     OW 1642   3.304   3.722   1.335
  248SOL    HW1 1643   3.290   3.784   1.258
  248SOL    HW2 1644   3.386   3.749   1.385
  249SOL     OW 1645   4.763   6.469   5.331
  249SOL    HW1 1646   4.840   6.506   5.280
  249SOL    HW2 1647   4.710   6.545   5.370
  250SOL     OW 1648   3.839   2.556   0.080
  250SOL    HW1 1649   3.789   2.546   0.166
  250SOL    HW2 1650   3.795   2.626   0.024
  251SOL     OW 1651   4.523   5.143   5.184
  251SOL    HW1 1652   4.614   5.183   5.193
  251SOL    HW2 1653   4.471   5.161   5.268
  252SOL     OW 1654   6.603   6.034   4.812
  252SOL    HW1 1655   6.539   5.961   4.834
  252SOL    HW2 1656   6.552   6.120   4.802
  253SOL     OW 1657   4.429   6.156   6.094
  253SOL    HW1 1658   4.363   6.197   6.030
  253SOL    HW2 1659   4.472   6.076   6.051
  254SOL     OW 1660   6.339   2.079   5.489
  254SOL    HW1 1661   6.270   2.044   5.426
  254SOL    HW2 1662   6.422   2.102   5.437
  255SOL     OW 1663   1.362   4.295   6.669
  255SOL    HW1 1664   1.380   4.200   6.643
  255SOL    HW2 1665   1.325   4.344   6.590
  256SOL     OW 1666   4.848   2.567   5.331
  256SOL    HW1 1667   4.889   2.562   5.240
  256SOL    HW2 1668   4.886   2.495   5.389
  257SOL     OW 1669   4.897   6.504   2.264
  257SOL    HW1 1670   4.811   6.528   2.221
  257SOL    HW2 1671   4.945   6.435   2.209
  258SOL     OW 1672   2.051   3.488   5.627
  258SOL    HW1 1673   2.054   3.398   5.585
  258SOL    HW2 1674   2.078   3.481   5.723
  259SOL     OW 1675   3.264   0.241   3.705
  259SOL    HW1 1676   3.346   0.190   3.729
  259SOL    HW2 1677   3.186   0.203   3.755
  260SOL     OW 1678   3.654   5.546   3.193
  260SOL    HW1 1679   3.562   5.577   3.169
  260SOL    HW2 1680   3.715   5.624   3.200
  261SOL     OW 1681   4.005   4.977   6.909
  261SOL    HW1 1682   3.946   4.977   6.829
  261SOL    HW2 1683   4.041   4.885   6.924
  262SOL     OW 1684   0.934   3.570   6.701
  262SOL    HW1 1685   0.993   3.609   6.630
  262SOL    HW2 1686   0.990   3.519   6.767
  263SOL     OW 1687   1.557   7.000   3.710
  263SOL    HW1 1688   1.485   7.011   3.780
  263SOL    HW2 1689   1.550   0.055   3.645
  264SOL     OW 1690   6.480   2.845   6.577
  264SOL    HW1 1691   6.432   2.931   6.591
  264SOL    HW2 1692   6.546   2.830   6.651
  265SOL     OW 1693   6.947   6.998   3.179
  265SOL    HW1 1694   6.876   7.011   3.249
  265SOL    HW2 1695   6.972   0.067   3.141
  266SOL     OW 1696   3.639   0.875   6.149
  266SOL    HW1 1697   3.685   0.813   6.212
  266SOL    HW2 1698   3.695   0.957   6.135
  267SOL     OW 1699   2.304   0.065   2.803
  267SOL    HW1 1700   2.261   0.067   2.713
  267SOL    HW2 1701   2.400   0.092   2.795
  268SOL     OW 1702   3.550   2.191   0.828
  268SOL    HW1 1703   3.629   2.150   0.783
  268SOL    HW2 1704   3.572   2.285   0.853
  269SOL     OW 1705   5.085   1.730   0.036
  269SOL    HW1 1706   5.175   1.727   0.081
  269SOL    HW2 1707   5.034   1.809   0.068
  270SOL     OW 1708   5.395   1.237   0.383
  270SOL    HW1 1709   5.392   1.242   0.283
  270SOL    HW2 1710   5.328   1.300   0.421
  271SOL     OW 1711   0.375   4.163   6.247
  271SOL    HW1 1712   0.417   4.227   6.182
  271SOL    HW2 1713   0.280   4.146   6.222
  272SOL     OW 1714   2.979   5.839   3.296
  272SOL    HW1 1715   2.917   5.781   3.242
  272SOL    HW2 1716   2.984   5.805   3.390
  273SOL     OW 1717   1.700   5.501   6.110
  273SOL    HW1 1718   1.642   5.431   6.069
  273SOL    HW2 1719   1.673   5.591   6.076
  274SOL     OW 1720   4.341   2.131   3.968
  274SOL    HW1 1721   4.284   2.187   3.908
  274SOL    HW2 1722   4.337   2.166   4.061
  275SOL     OW 1723   5.890   0.225   1.652
  275SOL    HW1 1724   5.946   0.185   1.580
  275SOL    HW2 1725   5.797   0.239   1.618
  276SOL     OW 1726   0.747   0.025   4.564
  276SOL    HW1 1727   0.754   6.995   4.478
  276SOL    HW2 1728   0.673   7.007   4.619
  277SOL     OW 1729   1.990   4.565   1.586
  277SOL    HW1 1730   2.037   4.652   1.576
  277SOL    HW2 1731   2.034   4.497   1.526
  278SOL     OW 1732   0.513   2.545   3.321
  278SOL    HW1 1733   0.505   2.474   3.251
  278SOL    HW2 1734   0.519   2.502   3.411
  279SOL     OW 1735   6.234   0.887   3.101
  279SOL    HW1 1736   6.240   0.914   3.197
  279SOL    HW2 1737   6.218   0.968   3.044
  280SOL     OW 1738   1.826   5.095   2.806
  280SOL    HW1 1739   1.790   5.168   2.864
  280SOL    HW2 1740   1.856   5.133   2.719
  281SOL     OW 1741   2.746   4.059   1.339
  281SOL    HW1 1742   2.767   3.961   1.341
  281SOL    HW2 1743   2.756   4.097   1.431
  282SOL     OW 1744   1.850   1.435   5.244
  282SOL    HW1 1745   1.816   1.500   5.176
  282SOL    HW2 1746   1.941   1.403   5.217
  283SOL     OW 1747   3.188   3.023   6.275
  283SOL    HW1 1748   3.282   3.011   6.307
  283SOL    HW2 1749   3.181   3.111   6.228
  284SOL     OW 1750   0.292   3.807   3.742
  284SOL    HW1 1751   0.364   3.738   3.738
  284SOL    HW2 1752   0.203   3.762   3.738
  285SOL     OW 1753   5.410   4.261   3.868
  285SOL    HW1 1754   5.474   4.204   3.919
  285SOL    HW2 1755   5.324   4.267   3.918
  286SOL     OW 1756   2.905   4.243   0.865
  286SOL    HW1 1757   2.900   4.159   0.919
  286SOL    HW2 1758   2.816   4.289   0.867
  287SOL     OW 1759   0.929   3.064   0.085
  287SOL    HW1 1760   0.900   3.132   0.152
  287SOL    HW2 1761   0.869   3.068   0.005
  288SOL     OW 1762   5.198   3.165   1.368
  288SOL    HW1 1763   5.274   3.113   1.405
  288SOL    HW2 1764   5.170   3.235   1.433
  289SOL     OW 1765   3.883   5.466   6.781
  289SOL    HW1 1766   3.820   5.477   6.857
  289SOL    HW2 1767   3.948   5.393   6.802
  290SOL     OW 1768   1.900   1.161   4.783
  290SOL    HW1 1769   1.908   1.103   4.864
  290SOL    HW2 1770   1.941   1.251   4.802
  291SOL     OW 1771   6.461   1.819   3.127
  291SOL    HW1 1772   6.381   1.850   3.177
  291SOL    HW2 1773   6.528   1.782   3.191
  292SOL     OW 1774   3.438   0.085   4.089
  292SOL    HW1 1775   3.380   0.164   4.113
  292SOL    HW2 1776   3.491   0.057   4.170
  293SOL     OW 1777   3.111   5.127   3.606
  293SOL    HW1 1778   3.136   5.223   3.617
  293SOL    HW2 1779   3.102   5.105   3.509
  294SOL     OW 1780   5.062   0.378   0.445
  294SOL    HW1 1781   5.011   0.293   0.456
  294SOL    HW2 1782   5.160   0.360   0.451
  295SOL     OW 1783   5.750   0.499   4.220
  295SOL    HW1 1784   5.831   0.539   4.177
  295SOL    HW2 1785   5.677   0.567   4.224
  296SOL     OW 1786   2.565   2.017   3.108
  296SOL    HW1 1787   2.511   2.099   3.090
  296SOL    HW2 1788   2.590   1.973   3.022
  297SOL     OW 1789   1.848   5.045   2.095
  297SOL    HW1 1790   1.876   5.134   2.132
  297SOL    HW2 1791   1.920   4.978   2.113
  298SOL     OW 1792   6.461   5.073   0.872
  298SOL    HW1 1793   6.539   5.018   0.903
  298SOL    HW2 1794   6.468   5.165   0.909
  299SOL     OW 1795   6.071   2.306   3.787
  299SOL    HW1 1796   6.013   2.227   3.807
  299SOL    HW2 1797   6.119   2.335   3.870
  300SOL     OW 1798   6.123   6.987   1.793
  300SOL    HW1 1799   6.050   6.920   1.779
  300SOL    HW2 1800   6.177   6.996   1.710
  301SOL     OW 1801   4.933   2.888   5.638
  301SOL    HW1 1802   4.848   2.913   5.685
  301SOL    HW2 1803   5.008   2.888   5.704
  302SOL     OW 1804   1.437   5.442   4.409
  302SOL    HW1 1805   1.487   5.418   4.326
  302SOL    HW2 1806   1.501   5.483   4.475
  303SOL     OW 1807   5.878   0.198   3.898
  303SOL    HW1 1808   5.809   0.264   3.926
  303SOL    HW2 1809   5.837   0.132   3.834
  304SOL     OW 1810   3.797   0.500   3.836
  304SOL    HW1 1811   3.716   0.461   3.793
  304SOL    HW2 1812   3.819   0.449   3.919
  305SOL     OW 1813   1.487   5.099   0.680
  305SOL    HW1 1814   1.478   5.015   0.627
  305SOL    HW2 1815   1.502   5.076   0.776
  306SOL     OW 1816   2.030   1.336   3.414
  306SOL    HW1 1817   2.116   1.381   3.389
  306SOL    HW2 1818   1.966   1.342   3.337
  307SOL     OW 1819   3.418   0.565   1.595
  307SOL    HW1 1820   3.450   0.570   1.690
  307SOL    HW2 1821   3.427   0.654   1.552
  308SOL     OW 1822   0.845   4.912   3.761
  308SOL    HW1 1823   0.915   4.898   3.831
  308SOL    HW2 1824   0.826   5.010   3.752
  309SOL     OW 1825   3.781   4.693   5.320
  309SOL    HW1 1826   3.764   4.596   5.335
  309SOL    HW2 1827   3.740   4.746   5.394
  310SOL     OW 1828   1.544   5.916   6.482
  310SOL    HW1 1829   1.494   5.932   6.396
  310SOL    HW2 1830   1.609   5.842   6.468
  311SOL     OW 1831   0.201   0.784   1.378
  311SOL    HW1 1832   0.194   0.832   1.290
  311SOL    HW2 1833   0.157   0.839   1.449
  312SOL     OW 1834   3.808   1.666   5.544
  312SOL    HW1 1835   3.838   1.571   5.530
  312SOL    HW2 1836   3.877   1.728   5.507
  313SOL     OW 1837   7.017   4.732   1.091
  313SOL    HW1 1838   6.941   4.697   1.146
  313SOL    HW2 1839   7.007   4.701   0.997
  314SOL     OW 1840   3.466   5.756   2.333
  314SOL    HW1 1841   3.375   5.784   2.302
  314SOL    HW2 1842   3.523   5.837   2.344
  315SOL     OW 1843   0.746   3.496   2.864
  315SOL    HW1 1844   0.753   3.520   2.767
  315SOL    HW2 1845   0.678   3.423   2.875
  316SOL     OW 1846   2.031   3.016   4.269
  316SOL    HW1 1847   2.007   2.919   4.260
  316SOL    HW2 1848   2.107   3.026   4.333
  317SOL     OW 1849   6.707   1.416   0.269
  317SOL    HW1 1850   6.661   1.470   0.340
  317SOL    HW2 1851   6.802   1.401   0.296
  318SOL     OW 1852   2.870   4.041   1.066
  318SOL    HW1 1853   2.921   3.955   1.057
  318SOL    HW2 1854   2.843   4.053   1.161
  319SOL     OW 1855   0.827   0.677   6.134
  319SOL    HW1 1856   0.751   0.615   6.154
  319SOL    HW2 1857   0.820   0.758   6.193
  320SOL     OW 1858   5.448   3.216   1.485
  320SOL    HW1 1859   5.441   3.301   1.537
  320SOL    HW2 1860   5.413   3.140   1.540
  321SOL     OW 1861   2.197   1.415   2.281
  321SOL    HW1 1862   2.223   1.470   2.202
  321SOL    HW2 1863   2.241   1.451   2.363
  322SOL     OW 1864   3.322   2.856   5.364
  322SOL    HW1 1865   3.251   2.873   5.295
  322SOL    HW2 1866   3.309   2.766   5.403
  323SOL     OW 1867   1.609   4.121   1.623
  323SOL    HW1 1868   1.647   4.028   1.623
  323SOL    HW2 1869   1.673   4.183   1.668
  324SOL     OW 1870   6.971   2.714   3.968
  324SOL    HW1 1871   6.928   2.657   4.037
  324SOL    HW2 1872   6.959   2.672   3.878
  325SOL     OW 1873   1.792   2.118   2.596
  325SOL    HW1 1874   1.721   2.164   2.543
  325SOL    HW2 1875   1.877   2.171   2.591
  326SOL     OW 1876   1.929   4.190   4.521
  326SOL    HW1 1877   1.892   4.121   4.459
  326SOL    HW2 1878   1.943   4.150   4.611
  327SOL     OW 1879   6.495   3.525   6.291
  327SOL    HW1 1880   6.489   3.615   6.248
  327SOL    HW2 1881   6.447   3.526   6.379
  328SOL     OW 1882   3.417   5.679   3.142
  328SOL    HW1 1883   3.326   5.708   3.111
  328SOL    HW2 1884   3.441   5.728   3.226
  329SOL     OW 1885   3.658   4.128   1.949
  329SOL    HW1 1886   3.577   4.072   1.971
  329SOL    HW2 1887   3.707   4.149   2.033
  330SOL     OW 1888   2.471   2.225   1.639
  330SOL    HW1 1889   2.550   2.233   1.700
  330SOL    HW2 1890   2.490   2.272   1.553
  331SOL     OW 1891   6.411   4.293   5.720
  331SOL    HW1 1892   6.393   4.374   5.776
  331SOL    HW2 1893   6.392   4.210   5.774
  332SOL     OW 1894   3.860   1.643   3.667
  332SOL    HW1 1895   3.779   1.644   3.609
  332SOL    HW2 1896   3.942   1.646   3.610
  333SOL     OW 1897   4.703   6.344   0.870
  333SOL    HW1 1898   4.730   6.438   0.890
  333SOL    HW2 1899   4.663   6.339   0.779
  334SOL     OW 1900   4.847   6.350   2.801
  334SOL    HW1 1901   4.878   6.375   2.709
  334SOL    HW2 1902   4.801   6.428   2.843
  335SOL     OW 1903   3.167   0.596   2.326
  335SOL    HW1 1904   3.135   0.662   2.258
  335SOL    HW2 1905   3.227   0.529   2.281
  336SOL     OW 1906   4.036   0.695   4.671
  336SOL    HW1 1907   4.062   0.712   4.576
  336SOL    HW2 1908   3.976   0.615   4.675
  337SOL     OW 1909   1.167   4.234   2.431
  337SOL    HW1 1910   1.207   4.161   2.375
  337SOL    HW2 1911   1.176   4.210   2.528
  338SOL     OW 1912   2.251   2.306   1.153
  338SOL    HW1 1913   2.194   2.227   1.174
  338SOL    HW2 1914   2.292   2.342   1.237
  339SOL     OW 1915   4.401   0.995   3.216
  339SOL    HW1 1916   4.308   1.013   3.183
  339SOL    HW2 1917   4.407   1.022   3.312
  340SOL     OW 1918   5.497   3.469   4.519
  340SOL    HW1 1919   5.580   3.429   4.557
  340SOL    HW2 1920   5.457   3.531   4.586
  341SOL     OW 1921   4.587   4.179   5.718
  341SOL    HW1 1922   4.598   4.276   5.697
  341SOL    HW2 1923   4.504   4.166   5.773
  342SOL     OW 1924   5.916   3.501   0.728
  342SOL    HW1 1925   5.847   3.474   0.796
  342SOL    HW2 1926   5.981   3.565   0.770
  343SOL     OW 1927   2.563   0.457   2.314
  343SOL    HW1 1928   2.531   0.538   2.362
  343SOL    HW2 1929   2.538   0.463   2.217
  344SOL     OW 1930   3.435   6.901   0.162
  344SOL    HW1 1931   3.446   6.816   0.111
  344SOL    HW2 1932   3.511   6.911   0.226
  345SOL     OW 1933   1.405   1.076   4.925
  345SOL    HW1 1934   1.485   1.071   4.985
  345SOL    HW2 1935   1.403   0.995   4.865
  346SOL     OW 1936   2.674   0.787   5.449
  346SOL    HW1 1937   2.646   0.726   5.375
  346SOL    HW2 1938   2.772   0.808   5.439
  347SOL     OW 1939   5.203   6.084   5.703
  347SOL    HW1 1940   5.250   6.172   5.709
  347SOL    HW2 1941   5.242   6.021   5.770
  348SOL     OW 1942   3.060   6.581   3.328
  348SOL    HW1 1943   3.069   6.515   3.254
  348SOL    HW2 1944   3.119   6.554   3.404
  349SOL     OW 1945   2.268   5.337   2.171
  349SOL    HW1 1946   2.313   5.423   2.190
  349SOL    HW2 1947   2.311   5.264   2.224
  350SOL     OW 1948   4.884   3.405   1.474
  350SOL    HW1 1949   4.852   3.333   1.413
  350SOL    HW2 1950   4.984   3.404   1.478
  351SOL     OW 1951   3.345   1.667   0.775
  351SOL    HW1 1952   3.318   1.589   0.719
  351SOL    HW2 1953   3.427   1.709   0.736
  352SOL     OW 1954   3.064   2.033   6.273
  352SOL    HW1 1955   3.029   2.122   6.244
  352SOL    HW2 1956   2.987   1.970   6.289
  353SOL     OW 1957   2.042   6.975   1.389
  353SOL    HW1 1958   2.038   0.030   1.454
  353SOL    HW2 1959   2.120   6.916   1.411
  354SOL     OW 1960   4.815   0.084   2.213
  354SOL    HW1 1961   4.870   0.165   2.190
  354SOL    HW2 1962   4.860   0.034   2.288
  355SOL     OW 1963   0.710   1.031   2.306
  355SOL    HW1 1964   0.745   1.119   2.336
  355SOL    HW2 1965   0.635   1.003   2.365
  356SOL     OW 1966   3.021   7.015   2.915
  356SOL    HW1 1967   3.029   6.991   2.818
  356SOL    HW2 1968   3.113   0.007   2.954
  357SOL     OW 1969   1.031   5.053   4.571
  357SOL    HW1 1970   0.994   5.144   4.586
  357SOL    HW2 1971   1.126   5.050   4.602
  358SOL     OW 1972   4.938   0.723   3.188
  358SOL    HW1 1973   4.999   0.801   3.193
  358SOL    HW2 1974   4.866   0.732   3.257
  359SOL     OW 1975   0.426   1.568   0.607
  359SOL    HW1 1976   0.372   1.490   0.575
  359SOL    HW2 1977   0.475   1.609   0.530
  360SOL     OW 1978   5.254   6.907   6.916
  360SOL    HW1 1979   5.238   7.005   6.932
  360SOL    HW2 1980   5.336   6.895   6.860
  361SOL     OW 1981   2.759   0.691   2.017
  361SOL    HW1 1982   2.682   0.750   2.043
  361SOL    HW2 1983   2.772   0.620   2.086
  362SOL     OW 1984   2.887   3.983   0.684
  362SOL    HW1 1985   2.790   3.990   0.708
  362SOL    HW2 1986   2.899   3.912   0.614
  363SOL     OW 1987   4.793   4.724   4.022
  363SOL    HW1 1988   4.880   4.740   4.069
  363SOL    HW2 1989   4.782   4.792   3.950
  364SOL     OW 1990   2.741   5.519   6.525
  364SOL    HW1 1991   2.788   5.568   6.451
  364SOL    HW2 1992   2.725   5.424   6.497
  365SOL     OW 1993   4.995   6.281   3.008
  365SOL    HW1 1994   5.057   6.359   3.015
  365SOL    HW2 1995   4.934   6.294   2.930
  366SOL     OW 1996   5.114   1.295   0.003
  366SOL    HW1 1997   5.066   1.245   6.951
  366SOL    HW2 1998   5.051   1.316   0.078
  367SOL     OW 1999   6.262   2.406   2.384
  367SOL    HW1 2000   6.184   2.359   2.427
  367SOL    HW2 2001   6.273   2.375   2.290
  368SOL     OW 2002   6.949   5.271   4.786
  368SOL    HW1 2003   6.850   5.261   4.799
  368SOL    HW2 2004   6.975   5.234   4.696
  369SOL     OW 2005   1.208   3.954   1.944
  369SOL    HW1 2006   1.163   3.960   2.033
  369SOL    HW2 2007   1.303   3.985   1.952
  370SOL     OW 2008   3.535   1.837   6.569
  370SOL    HW1 2009   3.535   1.781   6.652
  370SOL    HW2 2010   3.444   1.877   6.556
  371SOL     OW 2011   3.536   2.488   6.537
  371SOL    HW1 2012   3.503   2.573   6.498
  371SOL    HW2 2013   3.482   2.411   6.503
  372SOL     OW 2014   2.065   5.610   0.209
  372SOL    HW1 2015   1.979   5.644   0.246
  372SOL    HW2 2016   2.050   5.576   0.116
  373SOL     OW 2017   6.313   7.004   6.650
  373SOL    HW1 2018   6.265   0.028   6.726
  373SOL    HW2 2019   6.345   6.913   6.678
  374SOL     OW 2020   5.459   0.856   0.657
  374SOL    HW1 2021   5.494   0.896   0.741
  374SOL    HW2 2022   5.385   0.912   0.621
  375SOL     OW 2023   6.834   4.074   1.721
  375SOL    HW1 2024   6.881   4.089   1.807
  375SOL    HW2 2025   6.800   4.162   1.686
  376SOL     OW 2026   2.562   4.285   5.260
  376SOL    HW1 2027   2.603   4.320   5.344
  376SOL    HW2 2028   2.601   4.196   5.237
  377SOL     OW 2029   4.929   1.182   3.975
  377SOL    HW1 2030   4.922   1.188   3.876
  377SOL    HW2 2031   5.011   1.130   3.999
  378SOL     OW 2032   5.053   2.147   5.748
  378SOL    HW1 2033   5.146   2.173   5.723
  378SOL    HW2 2034   4.989   2.182   5.679
  379SOL     OW 2035   6.386   2.964   0.836
  379SOL    HW1 2036   6.395   2.917   0.749
  379SOL    HW2 2037   6.462   2.937   0.896
  380SOL     OW 2038   0.745   2.589   6.976
  380SOL    HW1 2039   0.763   2.495   7.005
  380SOL    HW2 2040   0.758   2.651   0.033
  381SOL     OW 2041   4.348   4.969   0.297
  381SOL    HW1 2042   4.310   4.881   0.327
  381SOL    HW2 2043   4.286   5.043   0.326
  382SOL     OW 2044   2.133   5.558   6.614
  382SOL    HW1 2045   2.075   5.493   6.664
  382SOL    HW2 2046   2.195   5.603   6.679
  383SOL     OW 2047   6.137   1.818   6.968
  383SOL    HW1 2048   6.184   1.840   6.883
  383SOL    HW2 2049   6.150   1.892   0.014
  384SOL     OW 2050   1.737   5.362   4.571
  384SOL    HW1 2051   1.736   5.412   4.485
  384SOL    HW2 2052   1.718   5.425   4.647
  385SOL     OW 2053   4.631   4.624   0.958
  385SOL    HW1 2054   4.652   4.691   0.886
  385SOL    HW2 2055   4.548   4.573   0.933
  386SOL     OW 2056   2.505   5.839   4.615
  386SOL    HW1 2057   2.546   5.915   4.664
  386SOL    HW2 2058   2.575   5.788   4.566
  387SOL     OW 2059   0.484   0.550   5.466
  387SOL    HW1 2060   0.436   0.530   5.552
  387SOL    HW2 2061   0.532   0.468   5.435
  388SOL     OW 2062   6.909   2.067   4.421
  388SOL    HW1 2063   6.994   2.018   4.402
  388SOL    HW2 2064   6.890   2.131   4.346
  389SOL     OW 2065   4.912   3.139   2.744
  389SOL    HW1 2066   4.912   3.214   2.679
  389SOL    HW2 2067   5.005   3.122   2.776
  390SOL     OW 2068   3.574   2.801   0.602
  390SOL    HW1 2069   3.477   2.784   0.587
  390SOL    HW2 2070   3.617   2.825   0.515
  391SOL     OW 2071   3.842   3.526   3.681
  391SOL    HW1 2072   3.806   3.575   3.601
  391SOL    HW2 2073   3.769   3.513   3.747
  392SOL     OW 2074   1.791   3.256   1.932
  392SOL    HW1 2075   1.842   3.179   1.896
  392SOL    HW2 2076   1.840   3.341   1.913
  393SOL     OW 2077   1.250   6.126   1.142
  393SOL    HW1 2078   1.310   6.198   1.177
  393SOL    HW2 2079   1.302   6.042   1.131
  394SOL     OW 2080   5.968   1.546   6.146
  394SOL    HW1 2081   5.931   1.456   6.167
  394SOL    HW2 2082   6.020   1.579   6.226
  395SOL     OW 2083   6.208   5.157   6.456
  395SOL    HW1 2084   6.121   5.174   6.409
  395SOL    HW2 2085   6.209   5.205   6.543
  396SOL     OW 2086   0.504   1.015   1.067
  396SOL    HW1 2087   0.568   1.088   1.042
  396SOL    HW2 2088   0.535   0.928   1.029
  397SOL     OW 2089   4.679   2.176   4.777
  397SOL    HW1 2090   4.738   2.107   4.819
  397SOL    HW2 2091   4.618   2.133   4.712
  398SOL     OW 2092   0.019   1.502   2.793
  398SOL    HW1 2093   6.990   1.484   2.708
  398SOL    HW2 2094   0.100   1.558   2.774
  399SOL     OW 2095   6.128   5.817   4.362
  399SOL    HW1 2096   6.097   5.855   4.449
  399SOL    HW2 2097   6.227   5.803   4.366
  400SOL     OW 2098   6.949   6.368   3.282
  400SOL    HW1 2099   6.897   6.285   3.300
  400SOL    HW2 2100   6.894   6.448   3.307
  401SOL     OW 2101   1.240   6.093   4.957
  401SOL    HW1 2102   1.237   6.187   4.989
  401SOL    HW2 2103   1.201   6.087   4.866
  402SOL     OW 2104   5.845   1.305   4.415
  402SOL    HW1 2105   5.838   1.392   4.464
  402SOL    HW2 2106   5.933   1.301   4.367
  403SOL     OW 2107   2.593   1.892   5.420
  403SOL    HW1 2108   2.552   1.824   5.360
  403SOL    HW2 2109   2.534   1.973   5.425
  404SOL     OW 2110   3.038   5.768   3.551
  404SOL    HW1 2111   3.095   5.756   3.632
  404SOL    HW2 2112   2.963   5.830   3.572
  405SOL     OW 2113   2.736   4.811   3.860
  405SOL    HW1 2114   2.716   4.909   3.865
  405SOL    HW2 2115   2.682   4.770   3.787
  406SOL     OW 2116   1.215   0.342   0.283
  406SOL    HW1 2117   1.264   0.269   0.330
  406SOL    HW2 2118   1.254   0.357   0.192
  407SOL     OW 2119   2.110   3.815   4.086
  407SOL    HW1 2120   2.056   3.807   4.003
  407SOL    HW2 2121   2.127   3.723   4.124
  408SOL     OW 2122   2.744   2.089   1.991
  408SOL    HW1 2123   2.798   2.161   2.035
  408SOL    HW2 2124   2.748   2.100   1.892
  409SOL     OW 2125   0.263   2.475   1.762
  409SOL    HW1 2126   0.345   2.452   1.814
  409SOL    HW2 2127   0.215   2.390   1.738
  410SOL     OW 2128   1.900   3.074   2.209
  410SOL    HW1 2129   1.937   3.123   2.130
  410SOL    HW2 2130   1.974   3.045   2.269
  411SOL     OW 2131   6.490   1.378   1.285
  411SOL    HW1 2132   6.570   1.334   1.325
  411SOL    HW2 2133   6.515   1.419   1.197
  412SOL     OW 2134   2.436   4.508   3.086
  412SOL    HW1 2135   2.357   4.563   3.057
  412SOL    HW2 2136   2.450   4.519   3.184
  413SOL     OW 2137   6.614   5.013   3.280
  413SOL    HW1 2138   6.654   5.101   3.305
  413SOL    HW2 2139   6.626   4.998   3.181
  414SOL     OW 2140   2.366   6.903   2.377
  414SOL    HW1 2141   2.351   6.999   2.399
  414SOL    HW2 2142   2.392   6.894   2.281
  415SOL     OW 2143   5.978   3.225   1.279
  415SOL    HW1 2144   6.054   3.233   1.214
  415SOL    HW2 2145   6.014   3.216   1.371
  416SOL     OW 2146   6.007   3.159   6.895
  416SOL    HW1 2147   5.920   3.205   6.914
  416SOL    HW2 2148   6.059   3.149   6.980
  417SOL     OW 2149   2.448   2.650   5.848
  417SOL    HW1 2150   2.478   2.633   5.754
  417SOL    HW2 2151   2.370   2.712   5.847
  418SOL     OW 2152   4.448   5.799   6.401
  418SOL    HW1 2153   4.387   5.762   6.331
  418SOL    HW2 2154   4.472   5.726   6.465
  419SOL     OW 2155   5.698   0.048   0.487
  419SOL    HW1 2156   5.618   0.067   0.431
  419SOL    HW2 2157   5.735   0.133   0.524
  420SOL     OW 2158   3.154   6.723   1.022
  420SOL    HW1 2159   3.177   6.807   0.972
  420SOL    HW2 2160   3.110   6.659   0.960
  421SOL     OW 2161   5.132   4.426   2.934
  421SOL    HW1 2162   5.077   4.507   2.914
  421SOL    HW2 2163   5.130   4.407   3.032
  422SOL     OW 2164   4.162   1.522   2.281
  422SOL    HW1 2165   4.166   1.621   2.272
  422SOL    HW2 2166   4.069   1.494   2.304
  423SOL     OW 2167   2.320   1.159   5.996
  423SOL    HW1 2168   2.403   1.109   6.022
  423SOL    HW2 2169   2.242   1.124   6.048
  424SOL     OW 2170   1.531   4.627   4.190
  424SOL    HW1 2171   1.521   4.677   4.105
  424SOL    HW2 2172   1.471   4.667   4.260
  425SOL     OW 2173   3.522   1.387   6.798
  425SOL    HW1 2174   3.430   1.417   6.775
  425SOL    HW2 2175   3.568   1.352   6.717
  426SOL     OW 2176   2.450   2.527   3.029
  426SOL    HW1 2177   2.405   2.575   2.953
  426SOL    HW2 2178   2.444   2.583   3.111
  427SOL     OW 2179   4.368   1.250   4.465
  427SOL    HW1 2180   4.461   1.244   4.503
  427SOL    HW2 2181   4.361   1.191   4.385
  428SOL     OW 2182   2.286   1.907   6.212
  428SOL    HW1 2183   2.193   1.944   6.211
  428SOL    HW2 2184   2.287   1.818   6.165
  429SOL     OW 2185   0.088   6.954   3.478
  429SOL    HW1 2186   0.113   7.005   3.396
  429SOL    HW2 2187   0.026   7.009   3.534
  430SOL     OW 2188   1.627   1.387   3.474
  430SOL    HW1 2189   1.549   1.365   3.416
  430SOL    HW2 2190   1.601   1.379   3.570
  431SOL     OW 2191   2.842   0.971   1.806
  431SOL    HW1 2192   2.895   0.950   1.724
  431SOL    HW2 2193   2.798   1.061   1.795
  432SOL     OW 2194   5.617   1.715   2.000
  432SOL    HW1 2195   5.612   1.799   2.054
  432SOL    HW2 2196   5.656   1.642   2.056
  433SOL     OW 2197   2.225   3.529   6.745
  433SOL    HW1 2198   2.210   3.570   6.655
  433SOL    HW2 2199   2.205   3.595   6.816
  434SOL     OW 2200   3.658   5.611   2.793
  434SOL    HW1 2201   3.657   5.529   2.736
  434SOL    HW2 2202   3.739   5.665   2.772
  435SOL     OW 2203   2.572   2.788   6.535
  435SOL    HW1 2204   2.498   2.839   6.577
  435SOL    HW2 2205   2.548   2.765   6.441
  436SOL     OW 2206   5.443   6.047   2.338
  436SOL    HW1 2207   5.408   5.992   2.414
  436SOL    HW2 2208   5.453   6.142   2.368
  437SOL     OW 2209   0.202   1.451   5.713
  437SOL    HW1 2210   0.299   1.463   5.690
  437SOL    HW2 2211   0.183   1.498   5.800
  438SOL     OW 2212   0.628   3.810   1.668
  438SOL    HW1 2213   0.679   3.844   1.590
  438SOL    HW2 2214   0.641   3.872   1.746
  439SOL     OW 2215   0.838   1.494   6.856
  439SOL    HW1 2216   0.827   1.460   6.763
  439SOL    HW2 2217   0.811   1.590   6.860
  440SOL     OW 2218   3.749   1.365   1.165
  440SOL    HW1 2219   3.781   1.410   1.248
  440SOL    HW2 2220   3.809   1.389   1.089
  441SOL     OW 2221   1.263   4.469   3.008
  441SOL    HW1 2222   1.312   4.486   2.923
  441SOL    HW2 2223   1.324   4.485   3.085
  442SOL     OW 2224   2.886   3.546   4.644
  442SOL    HW1 2225   2.794   3.515   4.667
  442SOL    HW2 2226   2.880   3.617   4.574
  443SOL     OW 2227   4.952   2.657   1.855
  443SOL    HW1 2228   4.961   2.597   1.775
  443SOL    HW2 2229   4.991   2.746   1.833
  444SOL     OW 2230   4.433   2.437   0.864
  444SOL    HW1 2231   4.421   2.425   0.765
  444SOL    HW2 2232   4.344   2.442   0.908
  445SOL     OW 2233   2.187   5.855   3.857
  445SOL    HW1 2234   2.141   5.824   3.774
  445SOL    HW2 2235   2.136   5.932   3.896
  446SOL     OW 2236   0.273   6.947   0.363
  446SOL    HW1 2237   0.248   6.889   0.440
  446SOL    HW2 2238   0.342   6.901   0.307
  447SOL     OW 2239   6.474   3.360   0.497
  447SOL    HW1 2240   6.385   3.384   0.537
  447SOL    HW2 2241   6.469   3.270   0.455
  448SOL     OW 2242   3.692   6.750   4.358
  448SOL    HW1 2243   3.778   6.736   4.309
  448SOL    HW2 2244   3.668   6.847   4.356
  449SOL     OW 2245   1.063   4.165   5.035
  449SOL    HW1 2246   1.100   4.102   4.967
  449SOL    HW2 2247   1.034   4.249   4.990
  450SOL     OW 2248   6.450   3.622   3.990
  450SOL    HW1 2249   6.435   3.545   4.052
  450SOL    HW2 2250   6.548   3.639   3.979
  451SOL     OW 2251   2.771   1.621   6.384
  451SOL    HW1 2252   2.718   1.574   6.314
  451SOL    HW2 2253   2.861   1.578   6.393
  452SOL     OW 2254   4.635   4.719   1.209
  452SOL    HW1 2255   4.626   4.818   1.204
  452SOL    HW2 2256   4.639   4.681   1.116
  453SOL     OW 2257   4.200   0.988   0.330
  453SOL    HW1 2258   4.216   1.083   0.304
  453SOL    HW2 2259   4.129   0.984   0.401
  454SOL     OW 2260   6.935   2.990   3.930
  454SOL    HW1 2261   6.932   2.896   3.964
  454SOL    HW2 2262   6.972   3.050   4.001
  455SOL     OW 2263   5.839   5.581   0.319
  455SOL    HW1 2264   5.755   5.563   0.370
  455SOL    HW2 2265   5.842   5.523   0.237
  456SOL     OW 2266   1.529   1.024   3.441
  456SOL    HW1 2267   1.549   1.053   3.348
  456SOL    HW2 2268   1.498   0.929   3.441
  457SOL     OW 2269   3.138   6.162   0.709
  457SOL    HW1 2270   3.189   6.077   0.724
  457SOL    HW2 2271   3.103   6.195   0.796
  458SOL     OW 2272   3.047   1.300   4.091
  458SOL    HW1 2273   2.982   1.294   4.015
  458SOL    HW2 2274   3.003   1.271   4.176
  459SOL     OW 2275   3.182   1.465   3.867
  459SOL    HW1 2276   3.204   1.442   3.773
  459SOL    HW2 2277   3.192   1.385   3.925
  460SOL     OW 2278   1.347   1.463   6.740
  460SOL    HW1 2279   1.297   1.383   6.709
  460SOL    HW2 2280   1.283   1.529   6.779
  461SOL     OW 2281   1.306   6.997   4.350
  461SOL    HW1 2282   1.334   7.016   4.444
  461SOL    HW2 2283   1.291   0.064   4.301
  462SOL     OW 2284   3.812   4.048   5.585
  462SOL    HW1 2285   3.721   4.080   5.611
  462SOL    HW2 2286   3.833   4.078   5.492
  463SOL     OW 2287   5.685   6.396   3.061
  463SOL    HW1 2288   5.720   6.309   3.095
  463SOL    HW2 2289   5.668   6.457   3.138
  464SOL     OW 2290   4.215   6.064   4.934
  464SOL    HW1 2291   4.178   6.078   5.025
  464SOL    HW2 2292   4.176   5.981   4.893
  465SOL     OW 2293   0.468   5.519   0.835
  465SOL    HW1 2294   0.538   5.484   0.773
  465SOL    HW2 2295   0.403   5.446   0.856
  466SOL     OW 2296   3.554   4.939   3.639
  466SOL    HW1 2297   3.605   5.013   3.683
  466SOL    HW2 2298   3.466   4.926   3.686
  467SOL     OW 2299   0.041   6.956   1.096
  467SOL    HW1 2300   6.991   6.956   1.167
  467SOL    HW2 2301   0.102   6.878   1.109
  468SOL     OW 2302   2.713   6.502   6.829
  468SOL    HW1 2303   2.705   6.565   6.906
  468SOL    HW2 2304   2.693   6.551   6.744
  469SOL     OW 2305   4.176   5.004   5.273
  469SOL    HW1 2306   4.150   4.914   5.239
  469SOL    HW2 2307   4.230   5.051   5.204
  470SOL     OW 2308   2.886   5.069   2.158
  470SOL    HW1 2309   2.873   5.024   2.070
  470SOL    HW2 2310   2.982   5.095   2.168
  471SOL     OW 2311   1.508   2.507   4.160
  471SOL    HW1 2312   1.531   2.444   4.234
  471SOL    HW2 2313   1.454   2.583   4.196
  472SOL     OW 2314   5.079   3.701   6.684
  472SOL    HW1 2315   5.144   3.698   6.607
  472SOL    HW2 2316   4.997   3.649   6.661
  473SOL     OW 2317   5.509   3.616   1.941
  473SOL    HW1 2318   5.543   3.622   2.035
  473SOL    HW2 2319   5.452   3.534   1.932
  474SOL     OW 2320   4.689   5.095   3.866
  474SOL    HW1 2321   4.697   5.181   3.916
  474SOL    HW2 2322   4.595   5.082   3.836
  475SOL     OW 2323   4.710   1.527   0.661
  475SOL    HW1 2324   4.611   1.511   0.663
  475SOL    HW2 2325   4.749   1.503   0.750
  476SOL     OW 2326   1.175   2.888   0.091
  476SOL    HW1 2327   1.195   2.904   7.014
  476SOL    HW2 2328   1.080   2.916   0.109
  477SOL     OW 2329   5.874   5.909   4.292
  477SOL    HW1 2330   5.969   5.907   4.324
  477SOL    HW2 2331   5.859   5.835   4.227
  478SOL     OW 2332   6.605   5.013   1.397
  478SOL    HW1 2333   6.537   5.084   1.379
  478SOL    HW2 2334   6.596   4.982   1.491
  479SOL     OW 2335   3.680   3.650   2.741
  479SOL    HW1 2336   3.649   3.557   2.720
  479SOL    HW2 2337   3.608   3.700   2.789
  480SOL     OW 2338   0.329   0.261   1.868
  480SOL    HW1 2339   0.272   0.313   1.932
  480SOL    HW2 2340   0.301   0.281   1.774
  481SOL     OW 2341   6.351   6.436   1.087
  481SOL    HW1 2342   6.382   6.371   1.018
  481SOL    HW2 2343   6.252   6.449   1.079
  482SOL     OW 2344   3.807   4.834   3.019
  482SOL    HW1 2345   3.791   4.865   2.926
  482SOL    HW2 2346   3.720   4.822   3.066
  483SOL     OW 2347   6.003   2.260   4.872
  483SOL    HW1 2348   5.914   2.301   4.891
  483SOL    HW2 2349   6.072   2.333   4.867
  484SOL     OW 2350   2.599   5.322   3.853
  484SOL    HW1 2351   2.610   5.230   3.889
  484SOL    HW2 2352   2.614   5.389   3.926
  485SOL     OW 2353   4.778   2.546   1.129
  485SOL    HW1 2354   4.771   2.451   1.156
  485SOL    HW2 2355   4.695   2.595   1.156
  486SOL     OW 2356   5.975   6.378   5.257
  486SOL    HW1 2357   5.877   6.398   5.259
  486SOL    HW2 2358   5.990   6.290   5.211
  487SOL     OW 2359   6.417   1.048   6.804
  487SOL    HW1 2360   6.362   1.078   6.725
  487SOL    HW2 2361   6.373   0.970   6.847
  488SOL     OW 2362   1.769   6.151   4.081
  488SOL    HW1 2363   1.694   6.151   4.147
  488SOL    HW2 2364   1.769   6.237   4.030
  489SOL     OW 2365   2.759   4.511   5.434
  489SOL    HW1 2366   2.749   4.415   5.460
  489SOL    HW2 2367   2.787   4.516   5.338
  490SOL     OW 2368   1.127   3.546   4.985
  490SOL    HW1 2369   1.191   3.573   4.913
  490SOL    HW2 2370   1.082   3.627   5.022
  491SOL     OW 2371   6.308   3.384   1.450
  491SOL    HW1 2372   6.241   3.330   1.502
  491SOL    HW2 2373   6.283   3.481   1.455
  492SOL     OW 2374   1.644   2.475   5.727
  492SOL    HW1 2375   1.562   2.521   5.761
  492SOL    HW2 2376   1.707   2.459   5.803
  493SOL     OW 2377   1.690   5.515   4.089
  493SOL    HW1 2378   1.632   5.596   4.096
  493SOL    HW2 2379   1.701   5.490   3.993
  494SOL     OW 2380   2.948   0.203   2.508
  494SOL    HW1 2381   3.039   0.222   2.471
  494SOL    HW2 2382   2.930   0.266   2.583
  495SOL     OW 2383   4.119   4.459   0.121
  495SOL    HW1 2384   4.179   4.441   0.043
  495SOL    HW2 2385   4.160   4.423   0.204
  496SOL     OW 2386   4.724   6.872   3.022
  496SOL    HW1 2387   4.800   6.918   3.067
  496SOL    HW2 2388   4.678   6.811   3.087
  497SOL     OW 2389   4.809   2.947   1.086
  497SOL    HW1 2390   4.790   2.924   1.182
  497SOL    HW2 2391   4.766   2.880   1.026
  498SOL     OW 2392   1.229   6.911   0.985
  498SOL    HW1 2393   1.246   7.009   0.984
  498SOL    HW2 2394   1.263   6.872   1.070
  499SOL     OW 2395   2.957   6.761   6.343
  499SOL    HW1 2396   3.027   6.690   6.339
  499SOL    HW2 2397   2.867   6.720   6.327
  500SOL     OW 2398   6.122   1.435   5.974
  500SOL    HW1 2399   6.062   1.482   6.039
  500SOL    HW2 2400   6.082   1.441   5.882
  501SOL     OW 2401   1.584   2.340   4.378
  501SOL    HW1 2402   1.519   2.305   4.446
  501SOL    HW2 2403   1.669   2.286   4.383
  502SOL     OW 2404   3.200   2.906   0.155
  502SOL    HW1 2405   3.111   2.952   0.159
  502SOL    HW2 2406   3.203   2.833   0.223
  503SOL     OW 2407   4.047   5.680   1.503
  503SOL    HW1 2408   4.011   5.764   1.543
  503SOL    HW2 2409   3.986   5.648   1.431
  504SOL     OW 2410   6.044   1.020   6.956
  504SOL    HW1 2411   6.142   1.024   6.977
  504SOL    HW2 2412   6.029   1.045   6.861
  505SOL     OW 2413   0.268   3.963   5.393
  505SOL    HW1 2414   0.231   3.923   5.477
  505SOL    HW2 2415   0.246   4.061   5.391
  506SOL     OW 2416   2.887   5.890   2.129
  506SOL    HW1 2417   2.955   5.903   2.201
  506SOL    HW2 2418   2.858   5.795   2.128
  507SOL     OW 2419   2.703   6.971   3.789
  507SOL    HW1 2420   2.763   0.017   3.743
  507SOL    HW2 2421   2.618   6.961   3.737
  508SOL     OW 2422   0.578   4.914   2.588
  508SOL    HW1 2423   0.650   4.874   2.646
  508SOL    HW2 2424   0.492   4.865   2.605
  509SOL     OW 2425   4.902   0.542   6.131
  509SOL    HW1 2426   4.943   0.612   6.073
  509SOL    HW2 2427   4.937   0.452   6.105
  510SOL     OW 2428   6.672   4.790   0.328
  510SOL    HW1 2429   6.596   4.849   0.355
  510SOL    HW2 2430   6.642   4.727   0.256
  511SOL     OW 2431   0.033   2.063   0.820
  511SOL    HW1 2432   0.059   2.038   0.913
  511SOL    HW2 2433   0.100   2.027   0.756
  512SOL     OW 2434   1.539   1.897   4.906
  512SOL    HW1 2435   1.512   1.802   4.892
  512SOL    HW2 2436   1.518   1.924   5.000
  513SOL     OW 2437   5.765   5.828   2.640
  513SOL    HW1 2438   5.756   5.740   2.592
  513SOL    HW2 2439   5.836   5.821   2.710
  514SOL     OW 2440   5.140   1.194   4.641
  514SOL    HW1 2441   5.067   1.255   4.673
  514SOL    HW2 2442   5.173   1.139   4.717
  515SOL     OW 2443   3.061   0.592   6.672
  515SOL    HW1 2444   3.139   0.534   6.646
  515SOL    HW2 2445   3.025   0.637   6.590
  516SOL     OW 2446   0.477   5.689   2.796
  516SOL    HW1 2447   0.528   5.762   2.752
  516SOL    HW2 2448   0.382   5.719   2.812
  517SOL     OW 2449   3.492   5.507   0.711
  517SOL    HW1 2450   3.576   5.480   0.758
  517SOL    HW2 2451   3.423   5.435   0.721
  518SOL     OW 2452   1.944   0.299   3.740
  518SOL    HW1 2453   1.908   0.345   3.821
  518SOL    HW2 2454   2.040   0.274   3.755
  519SOL     OW 2455   6.870   6.632   3.100
  519SOL    HW1 2456   6.847   6.703   3.033
  519SOL    HW2 2457   6.941   6.573   3.063
  520SOL     OW 2458   3.479   5.757   0.643
  520SOL    HW1 2459   3.466   5.661   0.666
  520SOL    HW2 2460   3.445   5.775   0.551
  521SOL     OW 2461   0.226   6.890   5.257
  521SOL    HW1 2462   0.280   6.841   5.189
  521SOL    HW2 2463   0.240   6.988   5.246
  522SOL     OW 2464   3.345   5.431   6.394
  522SOL    HW1 2465   3.433   5.397   6.426
  522SOL    HW2 2466   3.358   5.515   6.342
  523SOL     OW 2467   1.770   6.788   5.917
  523SOL    HW1 2468   1.730   6.875   5.889
  523SOL    HW2 2469   1.701   6.734   5.965
  524SOL     OW 2470   6.769   1.364   1.311
  524SOL    HW1 2471   6.854   1.332   1.268
  524SOL    HW2 2472   6.769   1.464   1.315
  525SOL     OW 2473   0.565   3.010   3.373
  525SOL    HW1 2474   0.513   3.093   3.354
  525SOL    HW2 2475   0.590   2.966   3.286
  526SOL     OW 2476   3.990   5.950   4.647
  526SOL    HW1 2477   4.025   6.025   4.591
  526SOL    HW2 2478   4.042   5.867   4.628
  527SOL     OW 2479   6.455   1.366   0.632
  527SOL    HW1 2480   6.509   1.284   0.650
  527SOL    HW2 2481   6.376   1.343   0.575
  528SOL     OW 2482   6.984   1.275   3.704
  528SOL    HW1 2483   7.006   1.366   3.738
  528SOL    HW2 2484   6.889   1.253   3.724
  529SOL     OW 2485   0.865   1.327   5.738
  529SOL    HW1 2486   0.800   1.350   5.811
  529SOL    HW2 2487   0.940   1.392   5.738
  530SOL     OW 2488   3.405   4.427   1.697
  530SOL    HW1 2489   3.359   4.390   1.777
  530SOL    HW2 2490   3.469   4.498   1.725
  531SOL     OW 2491   0.195   1.600   5.938
  531SOL    HW1 2492   0.263   1.600   6.011
  531SOL    HW2 2493   0.181   1.693   5.905
  532SOL     OW 2494   3.631   0.849   6.907
  532SOL    HW1 2495   3.597   0.775   6.848
  532SOL    HW2 2496   3.653   0.929   6.851
  533SOL     OW 2497   3.351   6.966   4.689
  533SOL    HW1 2498   3.436   7.002   4.726
  533SOL    HW2 2499   3.361   6.869   4.669
  534SOL     OW 2500   2.049   4.228   1.225
  534SOL    HW1 2501   2.117   4.161   1.196
  534SOL    HW2 2502   1.965   4.182   1.253
  535SOL     OW 2503   4.808   4.145   3.389
  535SOL    HW1 2504   4.730   4.205   3.410
  535SOL    HW2 2505   4.819   4.079   3.464
  536SOL     OW 2506   6.482   0.195   1.131
  536SOL    HW1 2507   6.412   0.124   1.122
  536SOL    HW2 2508   6.463   0.251   1.212
  537SOL     OW 2509   2.939   1.942   2.364
  537SOL    HW1 2510   3.030   1.940   2.404
  537SOL    HW2 2511   2.927   1.865   2.301
  538SOL     OW 2512   4.192   5.465   6.082
  538SOL    HW1 2513   4.127   5.498   6.150
  538SOL    HW2 2514   4.158   5.485   5.990
  539SOL     OW 2515   2.704   0.006   0.089
  539SOL    HW1 2516   2.629   0.036   0.147
  539SOL    HW2 2517   2.697   0.049   7.018
  540SOL     OW 2518   2.291   1.485   5.406
  540SOL    HW1 2519   2.315   1.575   5.368
  540SOL    HW2 2520   2.290   1.417   5.332
  541SOL     OW 2521   5.645   5.782   2.088
  541SOL    HW1 2522   5.593   5.867   2.075
  541SOL    HW2 2523   5.739   5.805   2.113
  542SOL     OW 2524   3.894   5.708   5.924
  542SOL    HW1 2525   3.869   5.797   5.887
  542SOL    HW2 2526   3.994   5.700   5.926
  543SOL     OW 2527   6.660   1.713   4.921
  543SOL    HW1 2528   6.753   1.747   4.936
  543SOL    HW2 2529   6.656   1.664   4.834
  544SOL     OW 2530   1.115   2.217   1.163
  544SOL    HW1 2531   1.194   2.156   1.158
  544SOL    HW2 2532   1.038   2.168   1.202
  545SOL     OW 2533   0.087   5.520   0.677
  545SOL    HW1 2534   0.137   5.502   0.592
  545SOL    HW2 2535   0.128   5.468   0.752
  546SOL     OW 2536   6.718   6.080   2.765
  546SOL    HW1 2537   6.644   6.053   2.827
  546SOL    HW2 2538   6.681   6.093   2.673
  547SOL     OW 2539   3.621   6.065   6.921
  547SOL    HW1 2540   3.678   6.087   6.842
  547SOL    HW2 2541   3.541   6.126   6.922
  548SOL     OW 2542   4.268   3.125   6.408
  548SOL    HW1 2543   4.345   3.148   6.350
  548SOL    HW2 2544   4.258   3.026   6.413
  549SOL     OW 2545   5.423   2.601   3.970
  549SOL    HW1 2546   5.417   2.681   4.030
  549SOL    HW2 2547   5.333   2.559   3.962
  550SOL     OW 2548   0.280   5.501   4.057
  550SOL    HW1 2549   0.366   5.448   4.055
  550SOL    HW2 2550   0.257   5.530   3.964
  551SOL     OW 2551   5.391   0.880   0.324
  551SOL    HW1 2552   5.354   0.910   0.412
  551SOL    HW2 2553   5.347   0.930   0.250
  552SOL     OW 2554   0.764   0.267   4.290
  552SOL    HW1 2555   0.747   0.240   4.385
  552SOL    HW2 2556   0.786   0.186   4.236
  553SOL     OW 2557   3.947   2.293   5.344
  553SOL    HW1 2558   3.993   2.253   5.422
  553SOL    HW2 2559   3.969   2.391   5.339
  554SOL     OW 2560   0.317   5.013   0.440
  554SOL    HW1 2561   0.281   5.013   0.346
  554SOL    HW2 2562   0.369   5.097   0.456
  555SOL     OW 2563   3.991   4.997   5.803
  555SOL    HW1 2564   4.068   4.934   5.793
  555SOL    HW2 2565   3.986   5.028   5.898
  556SOL     OW 2566   5.716   6.127   3.147
  556SOL    HW1 2567   5.723   6.163   3.240
  556SOL    HW2 2568   5.623   6.096   3.130
  557SOL     OW 2569   6.749   3.461   0.440
  557SOL    HW1 2570   6.825   3.402   0.413
  557SOL    HW2 2571   6.666   3.407   0.450
  558SOL     OW 2572   3.506   3.670   1.984
  558SOL    HW1 2573   3.566   3.678   2.063
  558SOL    HW2 2574   3.466   3.759   1.963
  559SOL     OW 2575   6.069   1.069   6.235
  559SOL    HW1 2576   6.132   1.021   6.296
  559SOL    HW2 2577   5.981   1.022   6.234
  560SOL     OW 2578   1.450   2.368   2.784
  560SOL    HW1 2579   1.445   2.393   2.881
  560SOL    HW2 2580   1.457   2.268   2.777
  561SOL     OW 2581   6.709   4.376   0.255
  561SOL    HW1 2582   6.776   4.325   0.201
  561SOL    HW2 2583   6.755   4.423   0.330
  562SOL     OW 2584   3.219   6.067   3.421
  562SOL    HW1 2585   3.184   6.069   3.327
  562SOL    HW2 2586   3.299   6.007   3.425
  563SOL     OW 2587   0.814   0.992   4.476
  563SOL    HW1 2588   0.887   0.996   4.544
  563SOL    HW2 2589   0.826   0.910   4.419
  564SOL     OW 2590   6.292   1.889   5.870
  564SOL    HW1 2591   6.320   1.876   5.775
  564SOL    HW2 2592   6.233   1.969   5.877
  565SOL     OW 2593   3.510   3.520   3.622
  565SOL    HW1 2594   3.418   3.486   3.639
  565SOL    HW2 2595   3.529   3.599   3.681
  566SOL     OW 2596   1.150   2.673   3.541
  566SOL    HW1 2597   1.057   2.644   3.563
  566SOL    HW2 2598   1.177   2.747   3.602
  567SOL     OW 2599   1.589   3.095   5.213
  567SOL    HW1 2600   1.675   3.043   5.212
  567SOL    HW2 2601   1.551   3.093   5.305
  568SOL     OW 2602   1.145   0.510   6.771
  568SOL    HW1 2603   1.096   0.502   6.859
  568SOL    HW2 2604   1.079   0.530   6.699
  569SOL     OW 2605   5.300   3.210   5.252
  569SOL    HW1 2606   5.290   3.120   5.296
  569SOL    HW2 2607   5.339   3.274   5.318
  570SOL     OW 2608   3.097   0.342   5.532
  570SOL    HW1 2609   3.011   0.313   5.575
  570SOL    HW2 2610   3.151   0.393   5.598
  571SOL     OW 2611   2.137   3.826   2.343
  571SOL    HW1 2612   2.225   3.868   2.365
  571SOL    HW2 2613   2.072   3.897   2.315
  572SOL     OW 2614   2.344   1.469   4.532
  572SOL    HW1 2615   2.332   1.566   4.511
  572SOL    HW2 2616   2.376   1.460   4.627
  573SOL     OW 2617   0.680   6.947   5.837
  573SOL    HW1 2618   0.595   6.951   5.784
  573SOL    HW2 2619   0.685   0.006   5.898
  574SOL     OW 2620   2.544   0.665   5.645
  574SOL    HW1 2621   2.628   0.618   5.672
  574SOL    HW2 2622   2.561   0.716   5.561
  575SOL     OW 2623   4.151   3.944   0.268
  575SOL    HW1 2624   4.128   3.961   0.364
  575SOL    HW2 2625   4.110   4.014   0.211
  576SOL     OW 2626   6.971   0.593   3.672
  576SOL    HW1 2627   6.905   0.668   3.683
  576SOL    HW2 2628   6.923   0.507   3.659
  577SOL     OW 2629   0.203   0.224   2.387
  577SOL    HW1 2630   0.286   0.175   2.413
  577SOL    HW2 2631   0.122   0.171   2.414
  578SOL     OW 2632   4.185   6.809   0.702
  578SOL    HW1 2633   4.248   6.862   0.760
  578SOL    HW2 2634   4.227   6.722   0.678
  579SOL     OW 2635   0.561   3.998   2.035
  579SOL    HW1 2636   0.529   3.906   2.009
  579SOL    HW2 2637   0.613   4.038   1.960
  580SOL     OW 2638   4.604   4.812   4.783
  580SOL    HW1 2639   4.659   4.866   4.719
  580SOL    HW2 2640   4.595   4.862   4.869
  581SOL     OW 2641   2.619   2.452   3.641
  581SOL    HW1 2642   2.648   2.404   3.723
  581SOL    HW2 2643   2.699   2.490   3.594
  582SOL     OW 2644   5.565   4.007   4.791
  582SOL    HW1 2645   5.470   4.018   4.763
  582SOL    HW2 2646   5.599   4.093   4.829
  583SOL     OW 2647   2.898   5.827   5.525
  583SOL    HW1 2648   2.901   5.924   5.547
  583SOL    HW2 2649   2.804   5.801   5.502
  584SOL     OW 2650   3.751   0.697   5.369
  584SOL    HW1 2651   3.836   0.684   5.318
  584SOL    HW2 2652   3.681   0.735   5.309
  585SOL     OW 2653   4.004   6.537   1.851
  585SOL    HW1 2654   3.906   6.545   1.832
  585SOL    HW2 2655   4.055   6.538   1.765
  586SOL     OW 2656   3.615   0.117   0.716
  586SOL    HW1 2657   3.694   0.109   0.655
  586SOL    HW2 2658   3.575   0.026   0.730
  587SOL     OW 2659   4.878   0.476   2.967
  587SOL    HW1 2660   4.956   0.500   3.026
  587SOL    HW2 2661   4.892   0.516   2.876
  588SOL     OW 2662   2.227   4.050   2.797
  588SOL    HW1 2663   2.275   4.100   2.869
  588SOL    HW2 2664   2.236   4.099   2.711
  589SOL     OW 2665   3.420   4.628   5.990
  589SOL    HW1 2666   3.353   4.672   6.049
  589SOL    HW2 2667   3.424   4.530   6.010
  590SOL     OW 2668   2.270   1.653   6.126
  590SOL    HW1 2669   2.353   1.608   6.093
  590SOL    HW2 2670   2.196   1.638   6.061
  591SOL     OW 2671   2.836   0.191   4.003
  591SOL    HW1 2672   2.852   0.228   4.094
  591SOL    HW2 2673   2.816   0.093   4.010
  592SOL     OW 2674   4.403   1.882   4.289
  592SOL    HW1 2675   4.446   1.935   4.361
  592SOL    HW2 2676   4.443   1.906   4.200
  593SOL     OW 2677   1.549   0.169   0.056
  593SOL    HW1 2678   1.509   0.173   6.984
  593SOL    HW2 2679   1.491   0.114   0.115
  594SOL     OW 2680   3.148   1.412   5.083
  594SOL    HW1 2681   3.140   1.428   5.182
  594SOL    HW2 2682   3.058   1.418   5.041
  595SOL     OW 2683   6.007   3.974   2.581
  595SOL    HW1 2684   5.947   3.895   2.594
  595SOL    HW2 2685   6.103   3.943   2.585
  596SOL     OW 2686   6.174   4.662   4.388
  596SOL    HW1 2687   6.173   4.762   4.395
  596SOL    HW2 2688   6.080   4.628   4.380
  597SOL     OW 2689   4.066   1.814   6.577
  597SOL    HW1 2690   4.125   1.890   6.553
  597SOL    HW2 2691   4.118   1.745   6.627
  598SOL     OW 2692   3.193   2.946   2.251
  598SOL    HW1 2693   3.246   2.913   2.329
  598SOL    HW2 2694   3.204   2.884   2.174
  599SOL     OW 2695   1.889   4.879   1.424
  599SOL    HW1 2696   1.827   4.821   1.371
  599SOL    HW2 2697   1.880   4.856   1.521
  600SOL     OW 2698   0.162   3.310   5.808
  600SOL    HW1 2699   0.225   3.316   5.730
  600SOL    HW2 2700   0.201   3.252   5.879
  601SOL     OW 2701   0.060   0.142   5.836
  601SOL    HW1 2702   0.022   0.165   5.925
  601SOL    HW2 2703   0.139   0.200   5.817
  602SOL     OW 2704   0.445   0.649   3.246
  602SOL    HW1 2705   0.363   0.671   3.299
  602SOL    HW2 2706   0.493   0.733   3.222
  603SOL     OW 2707   1.358   1.679   3.794
  603SOL    HW1 2708   1.405   1.597   3.826
  603SOL    HW2 2709   1.265   1.656   3.765
  604SOL     OW 2710   5.528   1.815   0.853
  604SOL    HW1 2711   5.449   1.757   0.873
  604SOL    HW2 2712   5.523   1.848   0.759
  605SOL     OW 2713   5.443   6.528   1.820
  605SOL    HW1 2714   5.423   6.442   1.772
  605SOL    HW2 2715   5.358   6.571   1.848
  606SOL     OW 2716   2.868   6.610   5.345
  606SOL    HW1 2717   2.902   6.539   5.406
  606SOL    HW2 2718   2.936   6.684   5.339
  607SOL     OW 2719   1.637   3.414   6.277
  607SOL    HW1 2720   1.662   3.511   6.276
  607SOL    HW2 2721   1.655   3.377   6.368
  608SOL     OW 2722   2.973   1.280   6.706
  608SOL    HW1 2723   2.918   1.283   6.622
  608SOL    HW2 2724   2.957   1.363   6.759
  609SOL     OW 2725   3.977   3.131   2.437
  609SOL    HW1 2726   4.041   3.068   2.482
  609SOL    HW2 2727   3.919   3.080   2.374
  610SOL     OW 2728   5.513   2.745   1.986
  610SOL    HW1 2729   5.496   2.656   2.029
  610SOL    HW2 2730   5.445   2.811   2.019
  611SOL     OW 2731   3.690   1.530   2.075
  611SOL    HW1 2732   3.705   1.530   1.976
  611SOL    HW2 2733   3.606   1.479   2.095
  612SOL     OW 2734   4.218   5.424   4.242
  612SOL    HW1 2735   4.207   5.447   4.338
  612SOL    HW2 2736   4.147   5.472   4.189
  613SOL     OW 2737   4.011   5.865   6.671
  613SOL    HW1 2738   4.041   5.915   6.589
  613SOL    HW2 2739   3.935   5.805   6.647
  614SOL     OW 2740   3.385   5.948   5.915
  614SOL    HW1 2741   3.418   6.037   5.884
  614SOL    HW2 2742   3.288   5.955   5.938
  615SOL     OW 2743   6.786   5.030   3.808
  615SOL    HW1 2744   6.747   5.035   3.900
  615SOL    HW2 2745   6.833   4.942   3.796
  616SOL     OW 2746   5.773   2.682   3.939
  616SOL    HW1 2747   5.726   2.634   4.013
  616SOL    HW2 2748   5.739   2.651   3.851
  617SOL     OW 2749   2.196   0.613   5.918
  617SOL    HW1 2750   2.226   0.560   5.997
  617SOL    HW2 2751   2.098   0.632   5.926
  618SOL     OW 2752   2.212   0.635   2.725
  618SOL    HW1 2753   2.219   0.592   2.635
  618SOL    HW2 2754   2.304   0.645   2.764
  619SOL     OW 2755   1.123   2.634   6.862
  619SOL    HW1 2756   1.072   2.559   6.821
  619SOL    HW2 2757   1.154   2.607   6.954
  620SOL     OW 2758   4.973   3.969   0.919
  620SOL    HW1 2759   4.917   4.051   0.905
  620SOL    HW2 2760   4.918   3.896   0.959
  621SOL     OW 2761   0.236   5.897   0.943
  621SOL    HW1 2762   0.224   5.874   1.040
  621SOL    HW2 2763   0.148   5.891   0.896
  622SOL     OW 2764   1.213   1.239   6.739
  622SOL    HW1 2765   1.234   1.144   6.716
  622SOL    HW2 2766   1.157   1.242   6.821
  623SOL     OW 2767   6.107   6.120   5.632
  623SOL    HW1 2768   6.110   6.105   5.533
  623SOL    HW2 2769   6.035   6.186   5.654
  624SOL     OW 2770   7.008   1.691   1.233
  624SOL    HW1 2771   0.023   1.613   1.285
  624SOL    HW2 2772   6.915   1.673   1.202
  625SOL     OW 2773   1.301   0.729   1.959
  625SOL    HW1 2774   1.225   0.729   2.024
  625SOL    HW2 2775   1.337   0.822   1.950
  626SOL     OW 2776   3.787   5.380   5.225
  626SOL    HW1 2777   3.872   5.337   5.254
  626SOL    HW2 2778   3.711   5.342   5.276
  627SOL     OW 2779   4.330   5.514   0.516
  627SOL    HW1 2780   4.358   5.489   0.609
  627SOL    HW2 2781   4.367   5.446   0.452
  628SOL     OW 2782   4.860   3.365   3.874
  628SOL    HW1 2783   4.921   3.341   3.950
  628SOL    HW2 2784   4.872   3.300   3.800
  629SOL     OW 2785   1.650   6.673   1.132
  629SOL    HW1 2786   1.607   6.632   1.051
  629SOL    HW2 2787   1.605   6.760   1.153
  630SOL     OW 2788   2.736   1.495   1.879
  630SOL    HW1 2789   2.704   1.571   1.822
  630SOL    HW2 2790   2.709   1.510   1.974
  631SOL     OW 2791   2.126   1.313   4.161
  631SOL    HW1 2792   2.089   1.393   4.112
  631SOL    HW2 2793   2.225   1.320   4.166
  632SOL     OW 2794   3.372   1.077   0.429
  632SOL    HW1 2795   3.432   1.073   0.509
  632SOL    HW2 2796   3.308   1.000   0.432
  633SOL     OW 2797   2.236   0.247   4.384
  633SOL    HW1 2798   2.328   0.232   4.347
  633SOL    HW2 2799   2.185   0.161   4.383
  634SOL     OW 2800   3.063   5.585   1.715
  634SOL    HW1 2801   2.980   5.549   1.756
  634SOL    HW2 2802   3.100   5.519   1.649
  635SOL     OW 2803   3.356   0.394   1.846
  635SOL    HW1 2804   3.408   0.478   1.864
  635SOL    HW2 2805   3.302   0.370   1.926
  636SOL     OW 2806   4.924   4.741   6.602
  636SOL    HW1 2807   4.979   4.764   6.682
  636SOL    HW2 2808   4.975   4.760   6.519
  637SOL     OW 2809   5.728   5.017   6.240
  637SOL    HW1 2810   5.688   5.109   6.232
  637SOL    HW2 2811   5.678   4.965   6.310
  638SOL     OW 2812   5.175   1.790   3.454
  638SOL    HW1 2813   5.075   1.788   3.460
  638SOL    HW2 2814   5.205   1.730   3.380
  639SOL     OW 2815   3.690   3.579   1.586
  639SOL    HW1 2816   3.710   3.565   1.683
  639SOL    HW2 2817   3.624   3.654   1.577
  640SOL     OW 2818   2.944   2.488   5.349
  640SOL    HW1 2819   3.006   2.439   5.286
  640SOL    HW2 2820   2.987   2.573   5.378
  641SOL     OW 2821   0.158   0.116   5.041
  641SOL    HW1 2822   0.226   0.166   5.094
  641SOL    HW2 2823   0.179   0.124   4.944
  642SOL     OW 2824   0.575   4.783   6.013
  642SOL    HW1 2825   0.500   4.840   5.978
  642SOL    HW2 2826   0.542   4.728   6.090
  643SOL     OW 2827   5.237   6.416   4.376
  643SOL    HW1 2828   5.296   6.487   4.336
  643SOL    HW2 2829   5.221   6.436   4.472
  644SOL     OW 2830   3.238   6.148   1.905
  644SOL    HW1 2831   3.158   6.194   1.943
  644SOL    HW2 2832   3.211   6.086   1.832
  645SOL     OW 2833   0.758   2.900   2.710
  645SOL    HW1 2834   0.822   2.855   2.773
  645SOL    HW2 2835   0.810   2.950   2.641
  646SOL     OW 2836   1.864   3.322   4.521
  646SOL    HW1 2837   1.873   3.226   4.496
  646SOL    HW2 2838   1.920   3.341   4.602
  647SOL     OW 2839   5.450   4.778   0.696
  647SOL    HW1 2840   5.507   4.849   0.737
  647SOL    HW2 2841   5.488   4.752   0.608
  648SOL     OW 2842   3.979   2.182   4.093
  648SOL    HW1 2843   3.900   2.121   4.090
  648SOL    HW2 2844   4.028   2.177   4.006
  649SOL     OW 2845   4.076   4.652   1.490
  649SOL    HW1 2846   4.089   4.724   1.422
  649SOL    HW2 2847   4.148   4.583   1.480
  650SOL     OW 2848   5.508   5.331   6.938
  650SOL    HW1 2849   5.502   5.425   6.971
  650SOL    HW2 2850   5.473   5.326   6.844
  651SOL     OW 2851   1.418   5.441   6.276
  651SOL    HW1 2852   1.504   5.419   6.321
  651SOL    HW2 2853   1.410   5.541   6.266
  652SOL     OW 2854   5.015   2.959   1.336
  652SOL    HW1 2855   5.041   3.055   1.351
  652SOL    HW2 2856   5.096   2.906   1.310
  653SOL     OW 2857   3.530   5.296   3.144
  653SOL    HW1 2858   3.515   5.277   3.047
  653SOL    HW2 2859   3.593   5.372   3.154
  654SOL     OW 2860   0.040   5.148   0.148
  654SOL    HW1 2861   0.056   5.187   0.057
  654SOL    HW2 2862   6.971   5.178   0.181
  655SOL     OW 2863   1.820   1.556   0.671
  655SOL    HW1 2864   1.790   1.651   0.684
  655SOL    HW2 2865   1.920   1.553   0.672
  656SOL     OW 2866   1.563   6.611   0.860
  656SOL    HW1 2867   1.516   6.547   0.798
  656SOL    HW2 2868   1.642   6.650   0.813
  657SOL     OW 2869   3.720   0.022   6.796
  657SOL    HW1 2870   3.740   0.072   6.880
  657SOL    HW2 2871   3.623   7.016   6.795
  658SOL     OW 2872   3.758   5.472   0.524
  658SOL    HW1 2873   3.728   5.463   0.619
  658SOL    HW2 2874   3.694   5.529   0.474
  659SOL     OW 2875   3.683   0.370   6.096
  659SOL    HW1 2876   3.654   0.346   6.188
  659SOL    HW2 2877   3.669   0.292   6.035
  660SOL     OW 2878   2.878   6.555   3.710
  660SOL    HW1 2879   2.914   6.634   3.659
  660SOL    HW2 2880   2.839   6.489   3.646
  661SOL     OW 2881   6.818   5.129   3.018
  661SOL    HW1 2882   6.764   5.193   2.963
  661SOL    HW2 2883   6.875   5.180   3.082
  662SOL     OW 2884   4.380   2.400   6.807
  662SOL    HW1 2885   4.451   2.372   6.872
  662SOL    HW2 2886   4.328   2.475   6.846
  663SOL     OW 2887   1.520   4.026   4.613
  663SOL    HW1 2888   1.535   4.119   4.580
  663SOL    HW2 2889   1.448   3.983   4.559
  664SOL     OW 2890   5.686   6.750   6.185
  664SOL    HW1 2891   5.605   6.711   6.230
  664SOL    HW2 2892   5.657   6.822   6.123
  665SOL     OW 2893   1.932   4.028   2.425
  665SOL    HW1 2894   1.952   4.024   2.523
  665SOL    HW2 2895   1.901   3.938   2.394
  666SOL     OW 2896   3.897   1.002   2.737
  666SOL    HW1 2897   3.881   1.051   2.823
  666SOL    HW2 2898   3.977   0.943   2.746
  667SOL     OW 2899   0.128   0.509   1.386
  667SOL    HW1 2900   0.167   0.485   1.297
  667SOL    HW2 2901   0.138   0.608   1.401
  668SOL     OW 2902   4.976   3.339   6.636
  668SOL    HW1 2903   4.941   3.246   6.647
  668SOL    HW2 2904   5.007   3.374   6.725
  669SOL     OW 2905   5.328   1.105   2.918
  669SOL    HW1 2906   5.404   1.040   2.913
  669SOL    HW2 2907   5.357   1.194   2.884
  670SOL     OW 2908   4.052   1.916   1.976
  670SOL    HW1 2909   4.003   1.874   1.900
  670SOL    HW2 2910   4.014   2.007   1.994
  671SOL     OW 2911   1.104   5.779   1.989
  671SOL    HW1 2912   1.175   5.746   1.927
  671SOL    HW2 2913   1.034   5.709   2.001
  672SOL     OW 2914   0.392   6.943   1.311
  672SOL    HW1 2915   0.311   6.931   1.370
  672SOL    HW2 2916   0.391   0.014   1.270
  673SOL     OW 2917   6.207   6.834   6.421
  673SOL    HW1 2918   6.182   6.879   6.335
  673SOL    HW2 2919   6.303   6.854   6.442
  674SOL     OW 2920   4.667   6.947   4.662
  674SOL    HW1 2921   4.666   6.956   4.761
  674SOL    HW2 2922   4.754   6.909   4.632
  675SOL     OW 2923   1.250   5.250   2.535
  675SOL    HW1 2924   1.166   5.273   2.487
  675SOL    HW2 2925   1.302   5.333   2.555
  676SOL     OW 2926   2.301   5.684   6.787
  676SOL    HW1 2927   2.339   5.632   6.863
  676SOL    HW2 2928   2.282   5.778   6.817
  677SOL     OW 2929   5.378   0.549   1.237
  677SOL    HW1 2930   5.319   0.585   1.165
  677SOL    HW2 2931   5.390   0.450   1.223
  678SOL     OW 2932   0.519   5.414   4.332
  678SOL    HW1 2933   0.523   5.494   4.393
  678SOL    HW2 2934   0.589   5.422   4.262
  679SOL     OW 2935   5.382   1.083   5.959
  679SOL    HW1 2936   5.430   1.169   5.939
  679SOL    HW2 2937   5.441   1.006   5.937
  680SOL     OW 2938   5.876   0.154   4.237
  680SOL    HW1 2939   5.958   0.166   4.180
  680SOL    HW2 2940   5.878   0.064   4.280
  681SOL     OW 2941   4.597   4.527   2.680
  681SOL    HW1 2942   4.645   4.445   2.707
  681SOL    HW2 2943   4.537   4.507   2.603
  682SOL     OW 2944   5.992   1.497   3.052
  682SOL    HW1 2945   6.062   1.561   3.085
  682SOL    HW2 2946   6.028   1.445   2.975
  683SOL     OW 2947   3.264   5.371   0.311
  683SOL    HW1 2948   3.347   5.317   0.301
  683SOL    HW2 2949   3.198   5.345   0.240
  684SOL     OW 2950   6.138   1.916   6.158
  684SOL    HW1 2951   6.054   1.863   6.170
  684SOL    HW2 2952   6.164   1.917   6.062
  685SOL     OW 2953   3.245   6.508   3.508
  685SOL    HW1 2954   3.291   6.580   3.560
  685SOL    HW2 2955   3.312   6.443   3.474
  686SOL     OW 2956   3.229   0.511   5.718
  686SOL    HW1 2957   3.150   0.531   5.776
  686SOL    HW2 2958   3.309   0.495   5.774
  687SOL     OW 2959   0.340   0.842   4.457
  687SOL    HW1 2960   0.257   0.870   4.506
  687SOL    HW2 2961   0.418   0.847   4.518
  688SOL     OW 2962   5.134   3.591   6.914
  688SOL    HW1 2963   5.084   3.638   6.841
  688SOL    HW2 2964   5.114   3.493   6.910
  689SOL     OW 2965   2.532   5.846   0.115
  689SOL    HW1 2966   2.501   5.823   0.208
  689SOL    HW2 2967   2.504   5.939   0.092
  690SOL     OW 2968   5.797   3.570   3.896
  690SOL    HW1 2969   5.734   3.593   3.971
  690SOL    HW2 2970   5.788   3.638   3.823
  691SOL     OW 2971   5.503   0.685   2.804
  691SOL    HW1 2972   5.476   0.645   2.717
  691SOL    HW2 2973   5.548   0.615   2.860
  692SOL     OW 2974   1.145   0.159   3.293
  692SOL    HW1 2975   1.179   0.161   3.199
  692SOL    HW2 2976   1.216   0.126   3.354
  693SOL     OW 2977   5.961   3.927   2.197
  693SOL    HW1 2978   6.057   3.913   2.172
  693SOL    HW2 2979   5.953   4.006   2.257
  694SOL     OW 2980   4.225   4.728   4.337
  694SOL    HW1 2981   4.160   4.742   4.412
  694SOL    HW2 2982   4.286   4.652   4.360
  695SOL     OW 2983   4.470   0.099   4.075
  695SOL    HW1 2984   4.410   0.069   4.149
  695SOL    HW2 2985   4.448   0.194   4.051
  696SOL     OW 2986   6.974   4.698   1.946
  696SOL    HW1 2987   6.971   4.787   1.992
  696SOL    HW2 2988   6.997   4.627   2.013
  697SOL     OW 2989   0.365   6.097   3.247
  697SOL    HW1 2990   0.279   6.049   3.234
  697SOL    HW2 2991   0.425   6.043   3.307
  698SOL     OW 2992   5.802   6.190   5.615
  698SOL    HW1 2993   5.771   6.101   5.649
  698SOL    HW2 2994   5.778   6.199   5.518
  699SOL     OW 2995   3.991   2.889   0.611
  699SOL    HW1 2996   4.068   2.918   0.668
  699SOL    HW2 2997   3.953   2.968   0.564
  700SOL     OW 2998   3.551   6.470   5.544
  700SOL    HW1 2999   3.620   6.541   5.557
  700SOL    HW2 3000   3.461   6.506   5.568
  701SOL     OW 3001   4.569   4.448   1.721
  701SOL    HW1 3002   4.634   4.405   1.657
  701SOL    HW2 3003   4.504   4.379   1.753
  702SOL     OW 3004   4.050   0.818   4.927
  702SOL    HW1 3005   4.139   0.853   4.957
  702SOL    HW2 3006   4.053   0.801   4.828
  703SOL     OW 3007   3.583   2.814   0.861
  703SOL    HW1 3008   3.573   2.805   0.762
  703SOL    HW2 3009   3.676   2.786   0.887
  704SOL     OW 3010   4.110   1.845   0.176
  704SOL    HW1 3011   4.156   1.812   0.094
  704SOL    HW2 3012   4.055   1.926   0.153
  705SOL     OW 3013   0.030   6.802   5.932
  705SOL    HW1 3014   0.039   6.824   5.835
  705SOL    HW2 3015   6.974   6.739   5.945
  706SOL     OW 3016   3.841   0.429   4.932
  706SOL    HW1 3017   3.756   0.387   4.963
  706SOL    HW2 3018   3.880   0.485   5.006
  707SOL     OW 3019   3.332   5.001   4.207
  707SOL    HW1 3020   3.322   4.983   4.305
  707SOL    HW2 3021   3.244   4.984   4.162
  708SOL     OW 3022   2.671   6.245   4.127
  708SOL    HW1 3023   2.743   6.185   4.162
  708SOL    HW2 3024   2.704   6.292   4.045
  709SOL     OW 3025   2.172   6.742   1.673
  709SOL    HW1 3026   2.226   6.788   1.603
  709SOL    HW2 3027   2.170   6.799   1.756
  710SOL     OW 3028   4.596   2.679   2.580
  710SOL    HW1 3029   4.630   2.770   2.601
  710SOL    HW2 3030   4.601   2.663   2.481
  711SOL     OW 3031   6.821   1.116   0.833
  711SOL    HW1 3032   6.857   1.097   0.924
  711SOL    HW2 3033   6.868   1.059   0.765
  712SOL     OW 3034   4.537   4.637   0.055
  712SOL    HW1 3035   4.633   4.667   0.054
  712SOL    HW2 3036   4.478   4.712   0.025
  713SOL     OW 3037   3.918   2.950   5.681
  713SOL    HW1 3038   3.933   2.921   5.775
  713SOL    HW2 3039   4.005   2.946   5.631
  714SOL     OW 3040   4.152   6.593   2.996
  714SOL    HW1 3041   4.098   6.639   2.926
  714SOL    HW2 3042   4.106   6.602   3.085
  715SOL     OW 3043   6.098   4.095   5.926
  715SOL    HW1 3044   6.027   4.060   5.864
  715SOL    HW2 3045   6.115   4.192   5.905
  716SOL     OW 3046   3.279   1.454   3.204
  716SOL    HW1 3047   3.298   1.514   3.282
  716SOL    HW2 3048   3.262   1.510   3.123
  717SOL     OW 3049   5.765   4.739   3.378
  717SOL    HW1 3050   5.825   4.733   3.457
  717SOL    HW2 3051   5.669   4.741   3.408
  718SOL     OW 3052   6.687   1.859   5.483
  718SOL    HW1 3053   6.720   1.952   5.496
  718SOL    HW2 3054   6.765   1.797   5.474
  719SOL     OW 3055   4.659   5.363   2.213
  719SOL    HW1 3056   4.687   5.282   2.265
  719SOL    HW2 3057   4.569   5.393   2.242
  720SOL     OW 3058   2.908   1.766   1.183
  720SOL    HW1 3059   2.937   1.782   1.278
  720SOL    HW2 3060   2.810   1.746   1.182
  721SOL     OW 3061   6.927   2.608   2.542
  721SOL    HW1 3062   6.918   2.707   2.552
  721SOL    HW2 3063   6.901   2.564   2.628
  722SOL     OW 3064   5.565   6.046   2.094
  722SOL    HW1 3065   5.528   6.043   2.187
  722SOL    HW2 3066   5.585   6.140   2.069
  723SOL     OW 3067   2.450   0.392   4.854
  723SOL    HW1 3068   2.364   0.397   4.905
  723SOL    HW2 3069   2.523   0.435   4.907
  724SOL     OW 3070   1.314   2.802   4.537
  724SOL    HW1 3071   1.349   2.802   4.631
  724SOL    HW2 3072   1.378   2.755   4.477
  725SOL     OW 3073   1.564   4.301   3.323
  725SOL    HW1 3074   1.509   4.338   3.248
  725SOL    HW2 3075   1.576   4.203   3.310
  726SOL     OW 3076   2.559   3.554   0.377
  726SOL    HW1 3077   2.542   3.643   0.334
  726SOL    HW2 3078   2.658   3.540   0.386
  727SOL     OW 3079   3.823   5.270   4.950
  727SOL    HW1 3080   3.791   5.275   5.044
  727SOL    HW2 3081   3.923   5.264   4.949
  728SOL     OW 3082   6.300   3.745   3.444
  728SOL    HW1 3083   6.267   3.839   3.457
  728SOL    HW2 3084   6.248   3.683   3.503
  729SOL     OW 3085   0.845   4.928   0.528
  729SOL    HW1 3086   0.799   4.905   0.613
  729SOL    HW2 3087   0.809   4.871   0.454
  730SOL     OW 3088   3.849   1.401   3.063
  730SOL    HW1 3089   3.890   1.344   3.133
  730SOL    HW2 3090   3.761   1.362   3.036
  731SOL     OW 3091   4.956   4.411   4.752
  731SOL    HW1 3092   4.960   4.354   4.670
  731SOL    HW2 3093   5.019   4.375   4.821
  732SOL     OW 3094   4.536   0.966   4.544
  732SOL    HW1 3095   4.561   0.911   4.464
  732SOL    HW2 3096   4.447   0.936   4.578
  733SOL     OW 3097   0.656   4.912   4.569
  733SOL    HW1 3098   0.603   4.992   4.539
  733SOL    HW2 3099   0.627   4.832   4.517
  734SOL     OW 3100   6.089   5.840   3.439
  734SOL    HW1 3101   6.084   5.934   3.475
  734SOL    HW2 3102   6.079   5.843   3.339
  735SOL     OW 3103   4.432   0.604   2.832
  735SOL    HW1 3104   4.435   0.687   2.888
  735SOL    HW2 3105   4.458   0.525   2.889
  736SOL     OW 3106   2.079   1.486   3.131
  736SOL    HW1 3107   2.040   1.575   3.107
  736SOL    HW2 3108   2.145   1.459   3.060
  737SOL     OW 3109   3.581   1.268   6.316
  737SOL    HW1 3110   3.487   1.236   6.305
  737SOL    HW2 3111   3.639   1.228   6.244
  738SOL     OW 3112   1.248   5.538   0.433
  738SOL    HW1 3113   1.226   5.465   0.497
  738SOL    HW2 3114   1.186   5.534   0.355
  739SOL     OW 3115   1.464   0.511   2.888
  739SOL    HW1 3116   1.562   0.522   2.871
  739SOL    HW2 3117   1.413   0.555   2.814
  740SOL     OW 3118   4.543   2.530   2.789
  740SOL    HW1 3119   4.564   2.564   2.698
  740SOL    HW2 3120   4.601   2.451   2.809
  741SOL     OW 3121   3.229   1.397   2.242
  741SOL    HW1 3122   3.207   1.399   2.340
  741SOL    HW2 3123   3.200   1.482   2.200
  742SOL     OW 3124   2.188   0.561   2.431
  742SOL    HW1 3125   2.149   0.653   2.426
  742SOL    HW2 3126   2.144   0.502   2.364
  743SOL     OW 3127   6.865   6.643   2.435
  743SOL    HW1 3128   6.906   6.562   2.476
  743SOL    HW2 3129   6.793   6.678   2.496
  744SOL     OW 3130   5.430   1.179   1.191
  744SOL    HW1 3131   5.430   1.245   1.266
  744SOL    HW2 3132   5.508   1.197   1.131
  745SOL     OW 3133   1.317   6.951   5.611
  745SOL    HW1 3134   1.325   0.011   5.551
  745SOL    HW2 3135   1.222   6.938   5.637
  746SOL     OW 3136   6.421   5.838   4.875
  746SOL    HW1 3137   6.346   5.823   4.940
  746SOL    HW2 3138   6.385   5.833   4.782
  747SOL     OW 3139   3.812   5.177   2.575
  747SOL    HW1 3140   3.887   5.110   2.580
  747SOL    HW2 3141   3.728   5.131   2.546
  748SOL     OW 3142   6.254   4.668   3.029
  748SOL    HW1 3143   6.168   4.617   3.039
  748SOL    HW2 3144   6.236   4.753   2.980
  749SOL     OW 3145   4.650   4.310   4.629
  749SOL    HW1 3146   4.617   4.376   4.697
  749SOL    HW2 3147   4.613   4.333   4.539
  750SOL     OW 3148   2.846   2.037   2.895
  750SOL    HW1 3149   2.888   1.949   2.877
  750SOL    HW2 3150   2.748   2.026   2.908
  751SOL     OW 3151   4.199   0.207   0.476
  751SOL    HW1 3152   4.145   0.163   0.548
  751SOL    HW2 3153   4.157   0.188   0.387
  752SOL     OW 3154   3.032   3.332   3.907
  752SOL    HW1 3155   3.040   3.290   3.998
  752SOL    HW2 3156   3.054   3.264   3.837
  753SOL     OW 3157   3.625   3.748   3.735
  753SOL    HW1 3158   3.684   3.742   3.654
  753SOL    HW2 3159   3.667   3.697   3.810
  754SOL     OW 3160   4.833   1.186   5.923
  754SOL    HW1 3161   4.895   1.227   5.989
  754SOL    HW2 3162   4.880   1.177   5.835
  755SOL     OW 3163   4.758   4.090   5.050
  755SOL    HW1 3164   4.708   4.177   5.053
  755SOL    HW2 3165   4.749   4.043   5.137
  756SOL     OW 3166   3.210   5.422   6.028
  756SOL    HW1 3167   3.182   5.395   5.935
  756SOL    HW2 3168   3.179   5.353   6.093
  757SOL     OW 3169   0.952   6.558   1.605
  757SOL    HW1 3170   0.999   6.624   1.662
  757SOL    HW2 3171   1.007   6.539   1.523
  758SOL     OW 3172   3.580   1.256   5.249
  758SOL    HW1 3173   3.584   1.296   5.157
  758SOL    HW2 3174   3.485   1.241   5.275
  759SOL     OW 3175   6.893   2.662   3.676
  759SOL    HW1 3176   6.893   2.680   3.578
  759SOL    HW2 3177   6.799   2.651   3.708
  760SOL     OW 3178   6.951   5.807   4.533
  760SOL    HW1 3179   6.953   5.713   4.569
  760SOL    HW2 3180   0.005   5.817   4.465
  761SOL     OW 3181   4.961   4.526   6.194
  761SOL    HW1 3182   5.053   4.530   6.154
  761SOL    HW2 3183   4.950   4.440   6.242
  762SOL     OW 3184   4.078   5.969   3.492
  762SOL    HW1 3185   3.986   5.997   3.518
  762SOL    HW2 3186   4.144   6.038   3.524
  763SOL     OW 3187   5.630   1.567   0.462
  763SOL    HW1 3188   5.697   1.574   0.388
  763SOL    HW2 3189   5.673   1.529   0.543
  764SOL     OW 3190   4.960   6.458   4.291
  764SOL    HW1 3191   5.051   6.417   4.303
  764SOL    HW2 3192   4.891   6.395   4.327
  765SOL     OW 3193   5.680   5.764   0.061
  765SOL    HW1 3194   5.752   5.831   0.041
  765SOL    HW2 3195   5.600   5.811   0.097
  766SOL     OW 3196   2.431   2.002   3.702
  766SOL    HW1 3197   2.495   2.056   3.756
  766SOL    HW2 3198   2.400   2.056   3.624
  767SOL     OW 3199   6.693   6.437   3.403
  767SOL    HW1 3200   6.714   6.379   3.481
  767SOL    HW2 3201   6.602   6.476   3.413
  768SOL     OW 3202   3.067   6.086   1.652
  768SOL    HW1 3203   2.974   6.056   1.631
  768SOL    HW2 3204   3.091   6.162   1.591
  769SOL     OW 3205   3.830   1.888   5.325
  769SOL    HW1 3206   3.927   1.880   5.345
  769SOL    HW2 3207   3.779   1.903   5.410
  770SOL     OW 3208   0.911   4.572   6.250
  770SOL    HW1 3209   0.922   4.496   6.185
  770SOL    HW2 3210   0.995   4.626   6.252
  771SOL     OW 3211   1.681   4.884   2.729
  771SOL    HW1 3212   1.642   4.895   2.637
  771SOL    HW2 3213   1.722   4.971   2.758
  772SOL     OW 3214   6.501   5.001   0.249
  772SOL    HW1 3215   6.445   4.984   0.168
  772SOL    HW2 3216   6.442   5.032   0.324
  773SOL     OW 3217   1.471   4.957   4.183
  773SOL    HW1 3218   1.489   4.974   4.086
  773SOL    HW2 3219   1.396   4.891   4.192
  774SOL     OW 3220   1.707   2.256   3.510
  774SOL    HW1 3221   1.775   2.301   3.453
  774SOL    HW2 3222   1.727   2.274   3.606
  775SOL     OW 3223   1.100   4.889   2.369
  775SOL    HW1 3224   1.087   4.864   2.465
  775SOL    HW2 3225   1.194   4.868   2.341
  776SOL     OW 3226   2.341   4.785   0.306
  776SOL    HW1 3227   2.382   4.745   0.224
  776SOL    HW2 3228   2.346   4.885   0.300
  777SOL     OW 3229   1.735   3.376   6.529
  777SOL    HW1 3230   1.750   3.453   6.590
  777SOL    HW2 3231   1.820   3.323   6.521
  778SOL     OW 3232   3.775   5.701   6.648
  778SOL    HW1 3233   3.796   5.605   6.666
  778SOL    HW2 3234   3.689   5.725   6.693
  779SOL     OW 3235   5.934   1.784   3.208
  779SOL    HW1 3236   5.942   1.713   3.277
  779SOL    HW2 3237   5.838   1.796   3.184
  780SOL     OW 3238   5.702   1.608   5.044
  780SOL    HW1 3239   5.723   1.530   4.985
  780SOL    HW2 3240   5.785   1.638   5.090
  781SOL     OW 3241   6.899   5.089   6.504
  781SOL    HW1 3242   6.860   5.068   6.414
  781SOL    HW2 3243   6.854   5.034   6.574
  782SOL     OW 3244   2.428   4.091   5.543
  782SOL    HW1 3245   2.355   4.102   5.611
  782SOL    HW2 3246   2.391   4.044   5.463
  783SOL     OW 3247   0.209   5.066   6.150
  783SOL    HW1 3248   0.273   5.019   6.210
  783SOL    HW2 3249   0.238   5.056   6.055
  784SOL     OW 3250   1.710   5.884   6.194
  784SOL    HW1 3251   1.694   5.834   6.109
  784SOL    HW2 3252   1.652   5.966   6.196
  785SOL     OW 3253   0.504   6.998   3.952
  785SOL    HW1 3254   0.558   6.949   3.884
  785SOL    HW2 3255   0.481   6.936   4.027
  786SOL     OW 3256   6.087   1.723   5.077
  786SOL    HW1 3257   6.000   1.728   5.125
  786SOL    HW2 3258   6.159   1.695   5.141
  787SOL     OW 3259   2.236   6.781   0.481
  787SOL    HW1 3260   2.152   6.742   0.444
  787SOL    HW2 3261   2.290   6.709   0.525
  788SOL     OW 3262   2.166   3.273   2.454
  788SOL    HW1 3263   2.149   3.366   2.486
  788SOL    HW2 3264   2.264   3.255   2.455
  789SOL     OW 3265   3.382   5.298   2.402
  789SOL    HW1 3266   3.294   5.262   2.371
  789SOL    HW2 3267   3.437   5.325   2.322
  790SOL     OW 3268   0.129   3.191   2.603
  790SOL    HW1 3269   0.133   3.104   2.652
  790SOL    HW2 3270   0.098   3.175   2.509
  791SOL     OW 3271   3.541   0.726   3.957
  791SOL    HW1 3272   3.559   0.718   3.859
  791SOL    HW2 3273   3.465   0.789   3.972
  792SOL     OW 3274   3.000   0.995   0.651
  792SOL    HW1 3275   3.051   1.071   0.691
  792SOL    HW2 3276   2.946   0.951   0.722
  793SOL     OW 3277   2.234   5.930   4.654
  793SOL    HW1 3278   2.301   5.855   4.656
  793SOL    HW2 3279   2.183   5.927   4.568
  794SOL     OW 3280   3.588   3.528   2.326
  794SOL    HW1 3281   3.637   3.441   2.330
  794SOL    HW2 3282   3.501   3.515   2.278
  795SOL     OW 3283   4.197   6.761   5.957
  795SOL    HW1 3284   4.209   6.825   5.881
  795SOL    HW2 3285   4.235   6.801   6.041
  796SOL     OW 3286   1.046   2.519   6.331
  796SOL    HW1 3287   1.113   2.587   6.301
  796SOL    HW2 3288   0.965   2.565   6.367
  797SOL     OW 3289   3.156   6.648   0.585
  797SOL    HW1 3290   3.229   6.711   0.558
  797SOL    HW2 3291   3.089   6.697   0.641
  798SOL     OW 3292   5.012   3.957   1.769
  798SOL    HW1 3293   4.959   3.943   1.853
  798SOL    HW2 3294   5.108   3.938   1.787
  799SOL     OW 3295   3.774   3.327   4.708
  799SOL    HW1 3296   3.805   3.379   4.787
  799SOL    HW2 3297   3.761   3.388   4.630
  800SOL     OW 3298   5.344   2.876   3.258
  800SOL    HW1 3299   5.287   2.928   3.194
  800SOL    HW2 3300   5.374   2.791   3.214
  801SOL     OW 3301   1.801   5.094   0.024
  801SOL    HW1 3302   1.861   5.017   0.046
  801SOL    HW2 3303   1.850   5.180   0.040
  802SOL     OW 3304   4.116   2.628   5.838
  802SOL    HW1 3305   4.165   2.626   5.752
  802SOL    HW2 3306   4.100   2.723   5.865
  803SOL     OW 3307   3.175   2.185   3.190
  803SOL    HW1 3308   3.110   2.251   3.153
  803SOL    HW2 3309   3.177   2.193   3.290
  804SOL     OW 3310   4.341   6.918   2.973
  804SOL    HW1 3311   4.387   6.909   2.884
  804SOL    HW2 3312   4.244   6.895   2.963
  805SOL     OW 3313   3.430   1.680   3.707
  805SOL    HW1 3314   3.471   1.691   3.616
  805SOL    HW2 3315   3.427   1.769   3.752
  806SOL     OW 3316   4.600   6.379   5.712
  806SOL    HW1 3317   4.531   6.423   5.769
  806SOL    HW2 3318   4.682   6.360   5.767
  807SOL     OW 3319   1.114   6.369   6.118
  807SOL    HW1 3320   1.108   6.306   6.195
  807SOL    HW2 3321   1.209   6.394   6.102
  808SOL     OW 3322   5.305   2.089   6.027
  808SOL    HW1 3323   5.309   2.063   6.124
  808SOL    HW2 3324   5.221   2.140   6.010
  809SOL     OW 3325   2.676   6.173   5.838
  809SOL    HW1 3326   2.610   6.244   5.859
  809SOL    HW2 3327   2.630   6.097   5.792
  810SOL     OW 3328   3.942   3.840   6.519
  810SOL    HW1 3329   3.984   3.916   6.569
  810SOL    HW2 3330   3.934   3.865   6.422
  811SOL     OW 3331   5.486   5.061   5.408
  811SOL    HW1 3332   5.539   5.111   5.339
  811SOL    HW2 3333   5.391   5.091   5.404
  812SOL     OW 3334   1.257   2.349   0.750
  812SOL    HW1 3335   1.173   2.344   0.805
  812SOL    HW2 3336   1.330   2.391   0.804
  813SOL     OW 3337   2.807   1.920   4.688
  813SOL    HW1 3338   2.802   1.959   4.780
  813SOL    HW2 3339   2.903   1.902   4.665
  814SOL     OW 3340   0.482   4.714   1.180
  814SOL    HW1 3341   0.503   4.720   1.277
  814SOL    HW2 3342   0.460   4.620   1.156
  815SOL     OW 3343   4.422   0.762   3.802
  815SOL    HW1 3344   4.450   0.696   3.873
  815SOL    HW2 3345   4.408   0.713   3.716
  816SOL     OW 3346   4.825   3.581   6.458
  816SOL    HW1 3347   4.838   3.540   6.368
  816SOL    HW2 3348   4.787   3.512   6.520
  817SOL     OW 3349   0.044   5.476   0.226
  817SOL    HW1 3350   0.089   5.441   0.308
  817SOL    HW2 3351   6.976   5.429   0.215
  818SOL     OW 3352   6.796   1.058   5.294
  818SOL    HW1 3353   6.729   0.992   5.327
  818SOL    HW2 3354   6.763   1.100   5.209
  819SOL     OW 3355   5.921   3.622   1.993
  819SOL    HW1 3356   5.878   3.709   2.017
  819SOL    HW2 3357   5.887   3.591   1.905
  820SOL     OW 3358   2.423   2.257   5.239
  820SOL    HW1 3359   2.381   2.195   5.174
  820SOL    HW2 3360   2.399   2.351   5.216
  821SOL     OW 3361   5.213   3.280   5.987
  821SOL    HW1 3362   5.306   3.306   6.016
  821SOL    HW2 3363   5.209   3.279   5.887
  822SOL     OW 3364   6.611   4.506   3.549
  822SOL    HW1 3365   6.671   4.444   3.498
  822SOL    HW2 3366   6.552   4.453   3.609
  823SOL     OW 3367   1.700   2.780   4.159
  823SOL    HW1 3368   1.717   2.816   4.067
  823SOL    HW2 3369   1.648   2.847   4.211
  824SOL     OW 3370   5.418   0.459   6.490
  824SOL    HW1 3371   5.325   0.496   6.499
  824SOL    HW2 3372   5.458   0.449   6.581
  825SOL     OW 3373   6.324   5.795   1.443
  825SOL    HW1 3374   6.405   5.793   1.385
  825SOL    HW2 3375   6.334   5.867   1.511
  826SOL     OW 3376   3.863   2.349   0.353
  826SOL    HW1 3377   3.946   2.380   0.307
  826SOL    HW2 3378   3.808   2.428   0.379
  827SOL     OW 3379   3.706   3.178   5.002
  827SOL    HW1 3380   3.698   3.089   4.958
  827SOL    HW2 3381   3.800   3.191   5.034
  828SOL     OW 3382   0.484   6.425   6.135
  828SOL    HW1 3383   0.484   6.354   6.065
  828SOL    HW2 3384   0.432   6.504   6.101
  829SOL     OW 3385   3.820   3.317   1.523
  829SOL    HW1 3386   3.760   3.382   1.477
  829SOL    HW2 3387   3.896   3.366   1.566
  830SOL     OW 3388   0.263   3.193   6.052
  830SOL    HW1 3389   0.185   3.234   6.100
  830SOL    HW2 3390   0.290   3.109   6.099
  831SOL     OW 3391   5.819   1.635   2.857
  831SOL    HW1 3392   5.722   1.659   2.852
  831SOL    HW2 3393   5.834   1.578   2.938
  832SOL     OW 3394   3.088   2.138   4.789
  832SOL    HW1 3395   3.111   2.195   4.868
  832SOL    HW2 3396   3.006   2.173   4.745
  833SOL     OW 3397   3.544   3.280   6.422
  833SOL    HW1 3398   3.588   3.224   6.493
  833SOL    HW2 3399   3.455   3.311   6.456
  834SOL     OW 3400   6.196   3.578   1.124
  834SOL    HW1 3401   6.235   3.608   1.037
  834SOL    HW2 3402   6.118   3.636   1.147
  835SOL     OW 3403   6.211   6.494   5.117
  835SOL    HW1 3404   6.240   6.589   5.124
  835SOL    HW2 3405   6.125   6.481   5.167
  836SOL     OW 3406   6.120   0.133   4.135
  836SOL    HW1 3407   6.168   0.180   4.061
  836SOL    HW2 3408   6.112   0.036   4.114
  837SOL     OW 3409   0.905   0.333   6.641
  837SOL    HW1 3410   0.967   0.298   6.711
  837SOL    HW2 3411   0.831   0.267   6.625
  838SOL     OW 3412   0.960   5.858   3.380
  838SOL    HW1 3413   0.877   5.802   3.367
  838SOL    HW2 3414   1.041   5.803   3.359
  839SOL     OW 3415   1.534   2.174   6.835
  839SOL    HW1 3416   1.610   2.121   6.797
  839SOL    HW2 3417   1.562   2.218   6.920
  840SOL     OW 3418   4.869   5.128   0.423
  840SOL    HW1 3419   4.908   5.074   0.497
  840SOL    HW2 3420   4.817   5.205   0.461
  841SOL     OW 3421   2.591   4.793   6.918
  841SOL    HW1 3422   2.620   4.711   6.868
  841SOL    HW2 3423   2.665   4.861   6.915
  842SOL     OW 3424   4.378   6.656   1.172
  842SOL    HW1 3425   4.320   6.596   1.116
  842SOL    HW2 3426   4.324   6.694   1.247
  843SOL     OW 3427   1.754   7.019   2.340
  843SOL    HW1 3428   1.839   7.003   2.391
  843SOL    HW2 3429   1.675   6.998   2.398
  844SOL     OW 3430   6.847   6.956   1.271
  844SOL    HW1 3431   6.870   6.883   1.335
  844SOL    HW2 3432   6.755   6.941   1.234
  845SOL     OW 3433   4.425   1.096   1.604
  845SOL    HW1 3434   4.506   1.136   1.562
  845SOL    HW2 3435   4.343   1.137   1.564
  846SOL     OW 3436   1.529   0.940   0.783
  846SOL    HW1 3437   1.535   1.028   0.737
  846SOL    HW2 3438   1.584   0.942   0.867
  847SOL     OW 3439   2.871   3.427   1.446
  847SOL    HW1 3440   2.819   3.445   1.530
  847SOL    HW2 3441   2.847   3.494   1.376
  848SOL     OW 3442   6.431   5.827   0.971
  848SOL    HW1 3443   6.342   5.868   0.949
  848SOL    HW2 3444   6.491   5.834   0.891
  849SOL     OW 3445   5.375   3.584   5.950
  849SOL    HW1 3446   5.440   3.523   5.996
  849SOL    HW2 3447   5.388   3.579   5.851
  850SOL     OW 3448   2.385   1.094   4.652
  850SOL    HW1 3449   2.414   1.149   4.730
  850SOL    HW2 3450   2.285   1.099   4.643
  851SOL     OW 3451   4.696   2.713   6.350
  851SOL    HW1 3452   4.634   2.736   6.275
  851SOL    HW2 3453   4.688   2.616   6.372
  852SOL     OW 3454   0.083   5.212   1.076
  852SOL    HW1 3455   0.111   5.132   1.129
  852SOL    HW2 3456   0.083   5.292   1.135
  853SOL     OW 3457   3.847   2.730   0.886
  853SOL    HW1 3458   3.913   2.803   0.870
  853SOL    HW2 3459   3.857   2.660   0.815
  854SOL     OW 3460   6.938   0.562   6.551
  854SOL    HW1 3461   6.934   0.653   6.592
  854SOL    HW2 3462   0.005   0.518   6.575
  855SOL     OW 3463   4.614   2.303   6.945
  855SOL    HW1 3464   4.661   2.275   6.861
  855SOL    HW2 3465   4.659   2.260   0.004
  856SOL     OW 3466   1.693   5.779   1.609
  856SOL    HW1 3467   1.763   5.745   1.547
  856SOL    HW2 3468   1.609   5.726   1.597
  857SOL     OW 3469   0.028   6.386   5.151
  857SOL    HW1 3470   6.966   6.328   5.151
  857SOL    HW2 3471   0.076   6.378   5.239
  858SOL     OW 3472   3.086   4.532   0.538
  858SOL    HW1 3473   3.012   4.517   0.473
  858SOL    HW2 3474   3.094   4.630   0.557
  859SOL     OW 3475   4.906   5.782   5.571
  859SOL    HW1 3476   4.916   5.847   5.495
  859SOL    HW2 3477   4.815   5.790   5.611
  860SOL     OW 3478   4.879   3.069   0.352
  860SOL    HW1 3479   4.873   2.995   0.419
  860SOL    HW2 3480   4.975   3.083   0.328
  861SOL     OW 3481   0.840   5.785   2.802
  861SOL    HW1 3482   0.802   5.702   2.842
  861SOL    HW2 3483   0.887   5.837   2.873
  862SOL     OW 3484   1.104   4.622   3.954
  862SOL    HW1 3485   1.063   4.578   3.874
  862SOL    HW2 3486   1.105   4.558   4.030
  863SOL     OW 3487   5.218   0.433   1.513
  863SOL    HW1 3488   5.243   0.442   1.417
  863SOL    HW2 3489   5.172   0.516   1.544
  864SOL     OW 3490   6.048   4.300   3.853
  864SOL    HW1 3491   6.144   4.315   3.876
  864SOL    HW2 3492   5.989   4.337   3.924
  865SOL     OW 3493   1.671   5.062   4.973
  865SOL    HW1 3494   1.657   5.131   4.902
  865SOL    HW2 3495   1.767   5.035   4.975
  866SOL     OW 3496   3.694   6.583   1.060
  866SOL    HW1 3497   3.651   6.510   1.112
  866SOL    HW2 3498   3.631   6.613   0.987
  867SOL     OW 3499   5.873   3.881   5.074
  867SOL    HW1 3500   5.964   3.860   5.110
  867SOL    HW2 3501   5.881   3.913   4.980
  868SOL     OW 3502   0.433   1.300   2.142
  868SOL    HW1 3503   0.491   1.364   2.191
  868SOL    HW2 3504   0.478   1.271   2.058
  869SOL     OW 3505   0.815   2.978   2.046
  869SOL    HW1 3506   0.861   3.021   1.968
  869SOL    HW2 3507   0.774   3.048   2.103
  870SOL     OW 3508   3.717   4.608   1.641
  870SOL    HW1 3509   3.664   4.635   1.722
  870SOL    HW2 3510   3.744   4.690   1.590
  871SOL     OW 3511   4.600   1.724   3.845
  871SOL    HW1 3512   4.690   1.731   3.888
  871SOL    HW2 3513   4.574   1.813   3.807
  872SOL     OW 3514   1.711   2.583   5.447
  872SOL    HW1 3515   1.716   2.547   5.540
  872SOL    HW2 3516   1.800   2.575   5.403
  873SOL     OW 3517   3.677   0.287   6.625
  873SOL    HW1 3518   3.662   0.237   6.710
  873SOL    HW2 3519   3.771   0.272   6.594
  874SOL     OW 3520   5.762   3.820   2.562
  874SOL    HW1 3521   5.797   3.728   2.579
  874SOL    HW2 3522   5.703   3.819   2.480
  875SOL     OW 3523   5.592   5.363   1.992
  875SOL    HW1 3524   5.677   5.401   1.956
  875SOL    HW2 3525   5.550   5.304   1.923
  876SOL     OW 3526   6.329   1.270   6.358
  876SOL    HW1 3527   6.343   1.355   6.409
  876SOL    HW2 3528   6.377   1.276   6.270
  877SOL     OW 3529   1.240   3.272   6.518
  877SOL    HW1 3530   1.202   3.289   6.427
  877SOL    HW2 3531   1.165   3.256   6.583
  878SOL     OW 3532   4.467   6.344   4.639
  878SOL    HW1 3533   4.507   6.410   4.576
  878SOL    HW2 3534   4.470   6.380   4.732
  879SOL     OW 3535   5.934   0.096   6.369
  879SOL    HW1 3536   5.862   0.113   6.302
  879SOL    HW2 3537   5.894   0.062   6.454
  880SOL     OW 3538   3.604   2.937   2.974
  880SOL    HW1 3539   3.692   2.941   2.927
  880SOL    HW2 3540   3.534   2.905   2.910
  881SOL     OW 3541   4.781   2.057   0.798
  881SOL    HW1 3542   4.764   2.155   0.803
  881SOL    HW2 3543   4.765   2.025   0.704
  882SOL     OW 3544   1.507   2.770   3.361
  882SOL    HW1 3545   1.465   2.708   3.427
  882SOL    HW2 3546   1.601   2.740   3.342
  883SOL     OW 3547   2.199   6.481   2.602
  883SOL    HW1 3548   2.184   6.420   2.680
  883SOL    HW2 3549   2.139   6.454   2.527
  884SOL     OW 3550   2.408   3.336   5.976
  884SOL    HW1 3551   2.477   3.368   5.911
  884SOL    HW2 3552   2.331   3.296   5.927
  885SOL     OW 3553   4.243   3.381   6.538
  885SOL    HW1 3554   4.204   3.384   6.630
  885SOL    HW2 3555   4.249   3.285   6.508
  886SOL     OW 3556   3.492   1.672   6.250
  886SOL    HW1 3557   3.395   1.691   6.265
  886SOL    HW2 3558   3.544   1.758   6.256
  887SOL     OW 3559   3.976   1.081   5.050
  887SOL    HW1 3560   3.904   1.091   5.120
  887SOL    HW2 3561   3.961   0.997   4.999
  888SOL     OW 3562   0.718   6.894   2.312
  888SOL    HW1 3563   0.757   6.973   2.359
  888SOL    HW2 3564   0.717   6.910   2.213
  889SOL     OW 3565   0.311   3.786   1.031
  889SOL    HW1 3566   0.389   3.773   1.093
  889SOL    HW2 3567   0.302   3.882   1.008
  890SOL     OW 3568   2.472   6.104   4.738
  890SOL    HW1 3569   2.381   6.064   4.746
  890SOL    HW2 3570   2.532   6.067   4.809
  891SOL     OW 3571   4.693   4.438   2.298
  891SOL    HW1 3572   4.648   4.527   2.300
  891SOL    HW2 3573   4.749   4.430   2.215
  892SOL     OW 3574   2.150   4.375   1.433
  892SOL    HW1 3575   2.228   4.330   1.477
  892SOL    HW2 3576   2.117   4.318   1.358
  893SOL     OW 3577   1.639   5.349   2.510
  893SOL    HW1 3578   1.623   5.371   2.413
  893SOL    HW2 3579   1.640   5.433   2.564
  894SOL     OW 3580   0.781   4.581   1.325
  894SOL    HW1 3581   0.839   4.573   1.406
  894SOL    HW2 3582   0.703   4.639   1.346
  895SOL     OW 3583   6.682   5.791   4.565
  895SOL    HW1 3584   6.685   5.721   4.636
  895SOL    HW2 3585   6.772   5.834   4.556
  896SOL     OW 3586   6.885   0.764   6.210
  896SOL    HW1 3587   6.887   0.673   6.169
  896SOL    HW2 3588   6.977   0.804   6.210
  897SOL     OW 3589   5.555   1.236   0.595
  897SOL    HW1 3590   5.497   1.245   0.514
  897SOL    HW2 3591   5.609   1.319   0.606
  898SOL     OW 3592   4.017   1.690   3.453
  898SOL    HW1 3593   3.963   1.693   3.369
  898SOL    HW2 3594   4.088   1.620   3.445
  899SOL     OW 3595   6.816   0.022   0.104
  899SOL    HW1 3596   6.767   7.016   0.187
  899SOL    HW2 3597   6.912   7.017   0.113
  900SOL     OW 3598   5.407   5.090   6.016
  900SOL    HW1 3599   5.337   5.142   5.968
  900SOL    HW2 3600   5.374   4.997   6.033
  901SOL     OW 3601   1.473   0.729   3.108
  901SOL    HW1 3602   1.508   0.813   3.066
  901SOL    HW2 3603   1.503   0.650   3.053
  902SOL     OW 3604   0.064   3.158   2.319
  902SOL    HW1 3605   7.000   3.153   2.263
  902SOL    HW2 3606   0.110   3.070   2.317
  903SOL     OW 3607   6.536   0.995   0.349
  903SOL    HW1 3608   6.559   0.927   0.279
  903SOL    HW2 3609   6.511   0.949   0.434
  904SOL     OW 3610   2.786   1.379   3.366
  904SOL    HW1 3611   2.730   1.364   3.284
  904SOL    HW2 3612   2.726   1.407   3.442
  905SOL     OW 3613   5.842   2.281   6.116
  905SOL    HW1 3614   5.932   2.259   6.079
  905SOL    HW2 3615   5.848   2.294   6.215
  906SOL     OW 3616   6.139   3.306   1.097
  906SOL    HW1 3617   6.139   3.405   1.114
  906SOL    HW2 3618   6.144   3.290   0.999
  907SOL     OW 3619   5.699   4.566   6.994
  907SOL    HW1 3620   5.707   4.470   0.002
  907SOL    HW2 3621   5.790   4.603   6.975
  908SOL     OW 3622   0.297   3.844   3.201
  908SOL    HW1 3623   0.224   3.827   3.267
  908SOL    HW2 3624   0.299   3.941   3.178
  909SOL     OW 3625   5.231   4.550   6.054
  909SOL    HW1 3626   5.220   4.540   5.955
  909SOL    HW2 3627   5.323   4.523   6.081
  910SOL     OW 3628   3.043   4.847   0.360
  910SOL    HW1 3629   3.033   4.804   0.270
  910SOL    HW2 3630   3.038   4.946   0.351
  911SOL     OW 3631   1.385   4.456   6.360
  911SOL    HW1 3632   1.447   4.526   6.394
  911SOL    HW2 3633   1.432   4.401   6.290
  912SOL     OW 3634   5.095   1.573   5.605
  912SOL    HW1 3635   5.102   1.661   5.651
  912SOL    HW2 3636   5.140   1.578   5.516
  913SOL     OW 3637   5.088   5.604   3.211
  913SOL    HW1 3638   5.085   5.509   3.243
  913SOL    HW2 3639   5.177   5.644   3.233
  914SOL     OW 3640   2.667   6.533   5.563
  914SOL    HW1 3641   2.749   6.583   5.588
  914SOL    HW2 3642   2.648   6.547   5.466
  915SOL     OW 3643   5.846   5.293   2.124
  915SOL    HW1 3644   5.904   5.374   2.110
  915SOL    HW2 3645   5.753   5.313   2.094
  916SOL     OW 3646   0.861   3.887   3.287
  916SOL    HW1 3647   0.952   3.881   3.330
  916SOL    HW2 3648   0.796   3.834   3.342
  917SOL     OW 3649   0.765   6.836   6.507
  917SOL    HW1 3650   0.794   6.741   6.514
  917SOL    HW2 3651   0.831   6.894   6.555
  918SOL     OW 3652   3.398   6.075   6.302
  918SOL    HW1 3653   3.303   6.046   6.300
  918SOL    HW2 3654   3.453   6.014   6.246
  919SOL     OW 3655   4.454   0.178   5.911
  919SOL    HW1 3656   4.436   0.260   5.966
  919SOL    HW2 3657   4.552   0.160   5.910
  920SOL     OW 3658   3.078   4.605   1.610
  920SOL    HW1 3659   3.027   4.560   1.684
  920SOL    HW2 3660   3.016   4.666   1.560
  921SOL     OW 3661   4.667   5.507   5.300
  921SOL    HW1 3662   4.766   5.512   5.307
  921SOL    HW2 3663   4.625   5.570   5.365
  922SOL     OW 3664   3.286   4.098   3.083
  922SOL    HW1 3665   3.319   4.151   3.162
  922SOL    HW2 3666   3.285   4.001   3.107
  923SOL     OW 3667   2.666   3.971   5.544
  923SOL    HW1 3668   2.687   3.975   5.447
  923SOL    HW2 3669   2.573   4.005   5.559
  924SOL     OW 3670   1.081   2.810   1.135
  924SOL    HW1 3671   1.169   2.778   1.100
  924SOL    HW2 3672   1.034   2.863   1.064
  925SOL     OW 3673   0.584   1.398   0.052
  925SOL    HW1 3674   0.643   1.360   0.123
  925SOL    HW2 3675   0.524   1.468   0.092
  926SOL     OW 3676   1.968   2.266   1.258
  926SOL    HW1 3677   2.033   2.239   1.329
  926SOL    HW2 3678   1.965   2.366   1.252
  927SOL     OW 3679   6.931   3.399   5.128
  927SOL    HW1 3680   6.993   3.476   5.121
  927SOL    HW2 3681   6.930   3.366   5.223
  928SOL     OW 3682   3.154   4.961   6.118
  928SOL    HW1 3683   3.159   5.033   6.187
  928SOL    HW2 3684   3.182   4.874   6.158
  929SOL     OW 3685   1.093   1.975   4.998
  929SOL    HW1 3686   1.092   1.905   5.069
  929SOL    HW2 3687   1.131   1.937   4.914
  930SOL     OW 3688   5.941   5.115   5.154
  930SOL    HW1 3689   6.000   5.175   5.208
  930SOL    HW2 3690   5.993   5.076   5.078
  931SOL     OW 3691   6.200   0.500   3.679
  931SOL    HW1 3692   6.256   0.581   3.694
  931SOL    HW2 3693   6.146   0.481   3.761
  932SOL     OW 3694   4.259   6.975   3.672
  932SOL    HW1 3695   4.233   0.046   3.705
  932SOL    HW2 3696   4.319   6.984   3.593
  933SOL     OW 3697   1.128   6.061   1.886
  933SOL    HW1 3698   1.038   6.017   1.878
  933SOL    HW2 3699   1.161   6.086   1.795
  934SOL     OW 3700   2.192   3.067   0.748
  934SOL    HW1 3701   2.263   3.006   0.784
  934SOL    HW2 3702   2.104   3.042   0.789
  935SOL     OW 3703   5.560   2.774   5.475
  935SOL    HW1 3704   5.495   2.715   5.522
  935SOL    HW2 3705   5.647   2.727   5.465
  936SOL     OW 3706   1.752   1.108   6.117
  936SOL    HW1 3707   1.792   1.096   6.208
  936SOL    HW2 3708   1.784   1.193   6.076
  937SOL     OW 3709   3.312   2.455   6.353
  937SOL    HW1 3710   3.225   2.463   6.400
  937SOL    HW2 3711   3.335   2.542   6.309
  938SOL     OW 3712   4.884   6.407   4.927
  938SOL    HW1 3713   4.793   6.383   4.960
  938SOL    HW2 3714   4.932   6.324   4.898
  939SOL     OW 3715   1.802   0.180   4.557
  939SOL    HW1 3716   1.830   0.271   4.526
  939SOL    HW2 3717   1.878   0.137   4.607
  940SOL     OW 3718   1.913   5.487   0.839
  940SOL    HW1 3719   1.845   5.502   0.767
  940SOL    HW2 3720   1.999   5.459   0.797
  941SOL     OW 3721   3.958   6.663   1.104
  941SOL    HW1 3722   3.893   6.672   1.028
  941SOL    HW2 3723   3.931   6.587   1.163
  942SOL     OW 3724   6.612   5.202   6.916
  942SOL    HW1 3725   6.541   5.271   6.929
  942SOL    HW2 3726   6.631   5.158   7.004
  943SOL     OW 3727   3.596   6.378   1.202
  943SOL    HW1 3728   3.499   6.368   1.180
  943SOL    HW2 3729   3.626   6.298   1.255
  944SOL     OW 3730   6.342   6.207   3.378
  944SOL    HW1 3731   6.338   6.116   3.335
  944SOL    HW2 3732   6.313   6.276   3.311
  945SOL     OW 3733   0.511   5.236   6.896
  945SOL    HW1 3734   0.497   5.199   6.988
  945SOL    HW2 3735   0.425   5.236   6.847
  946SOL     OW 3736   5.534   1.987   3.790
  946SOL    HW1 3737   5.524   1.940   3.703
  946SOL    HW2 3738   5.456   1.965   3.849
  947SOL     OW 3739   3.442   4.120   2.559
  947SOL    HW1 3740   3.417   4.150   2.651
  947SOL    HW2 3741   3.540   4.099   2.556
  948SOL     OW 3742   3.336   1.660   4.030
  948SOL    HW1 3743   3.311   1.597   3.956
  948SOL    HW2 3744   3.406   1.723   3.997
  949SOL     OW 3745   2.418   6.951   5.361
  949SOL    HW1 3746   2.517   6.951   5.347
  949SOL    HW2 3747   2.383   6.859   5.344
  950SOL     OW 3748   0.182   6.841   1.463
  950SOL    HW1 3749   0.229   6.808   1.545
  950SOL    HW2 3750   0.086   6.858   1.484
  951SOL     OW 3751   1.287   0.127   3.037
  951SOL    HW1 3752   1.309   0.224   3.029
  951SOL    HW2 3753   1.365   0.073   3.005
  952SOL     OW 3754   3.145   1.784   2.638
  952SOL    HW1 3755   3.241   1.810   2.638
  952SOL    HW2 3756   3.115   1.767   2.543
  953SOL     OW 3757   1.097   6.100   5.705
  953SOL    HW1 3758   1.048   6.154   5.637
  953SOL    HW2 3759   1.042   6.094   5.788
  954SOL     OW 3760   4.441   6.514   2.505
  954SOL    HW1 3761   4.451   6.421   2.539
  954SOL    HW2 3762   4.373   6.515   2.431
  955SOL     OW 3763   3.236   4.460   1.433
  955SOL    HW1 3764   3.317   4.438   1.487
  955SOL    HW2 3765   3.177   4.521   1.486
  956SOL     OW 3766   3.457   0.328   0.669
  956SOL    HW1 3767   3.513   0.259   0.714
  956SOL    HW2 3768   3.516   0.393   0.621
  957SOL     OW 3769   6.118   6.991   2.942
  957SOL    HW1 3770   6.134   0.005   3.035
  957SOL    HW2 3771   6.147   6.895   2.936
  958SOL     OW 3772   5.536   5.510   1.693
  958SOL    HW1 3773   5.465   5.533   1.626
  958SOL    HW2 3774   5.540   5.580   1.763
  959SOL     OW 3775   4.666   6.893   2.105
  959SOL    HW1 3776   4.697   6.976   2.151
  959SOL    HW2 3777   4.670   6.816   2.170
  960SOL     OW 3778   1.044   6.510   5.667
  960SOL    HW1 3779   1.017   6.548   5.578
  960SOL    HW2 3780   0.986   6.432   5.688
  961SOL     OW 3781   3.917   1.002   3.644
  961SOL    HW1 3782   3.902   0.945   3.564
  961SOL    HW2 3783   4.015   1.020   3.655
  962SOL     OW 3784   6.932   0.425   4.858
  962SOL    HW1 3785   6.915   0.351   4.794
  962SOL    HW2 3786   6.846   0.449   4.904
  963SOL     OW 3787   5.607   2.558   1.325
  963SOL    HW1 3788   5.603   2.657   1.337
  963SOL    HW2 3789   5.623   2.537   1.228
  964SOL     OW 3790   3.721   6.522   5.195
  964SOL    HW1 3791   3.803   6.571   5.224
  964SOL    HW2 3792   3.744   6.427   5.174
  965SOL     OW 3793   4.745   1.531   4.556
  965SOL    HW1 3794   4.683   1.603   4.525
  965SOL    HW2 3795   4.709   1.442   4.529
  966SOL     OW 3796   5.095   0.932   3.267
  966SOL    HW1 3797   5.193   0.929   3.250
  966SOL    HW2 3798   5.073   1.008   3.327
  967SOL     OW 3799   3.925   5.437   5.881
  967SOL    HW1 3800   3.897   5.532   5.892
  967SOL    HW2 3801   3.932   5.414   5.784
  968SOL     OW 3802   4.499   0.400   1.642
  968SOL    HW1 3803   4.458   0.452   1.567
  968SOL    HW2 3804   4.570   0.339   1.605
  969SOL     OW 3805   2.984   3.661   6.824
  969SOL    HW1 3806   3.050   3.713   6.769
  969SOL    HW2 3807   2.943   3.590   6.768
  970SOL     OW 3808   4.443   6.046   5.234
  970SOL    HW1 3809   4.490   6.112   5.293
  970SOL    HW2 3810   4.348   6.074   5.220
  971SOL     OW 3811   4.923   3.223   3.657
  971SOL    HW1 3812   4.928   3.287   3.580
  971SOL    HW2 3813   5.011   3.221   3.704
  972SOL     OW 3814   0.392   1.750   0.819
  972SOL    HW1 3815   0.372   1.674   0.757
  972SOL    HW2 3816   0.483   1.737   0.859
  973SOL     OW 3817   6.563   2.486   4.846
  973SOL    HW1 3818   6.619   2.429   4.906
  973SOL    HW2 3819   6.614   2.569   4.823
  974SOL     OW 3820   1.561   3.358   2.033
  974SOL    HW1 3821   1.579   3.455   2.019
  974SOL    HW2 3822   1.645   3.306   2.019
  975SOL     OW 3823   3.265   0.780   2.029
  975SOL    HW1 3824   3.343   0.739   2.077
  975SOL    HW2 3825   3.296   0.859   1.977
  976SOL     OW 3826   0.216   2.879   3.993
  976SOL    HW1 3827   0.132   2.838   3.958
  976SOL    HW2 3828   0.292   2.857   3.932
  977SOL     OW 3829   6.704   1.398   1.752
  977SOL    HW1 3830   6.633   1.328   1.748
  977SOL    HW2 3831   6.666   1.481   1.793
  978SOL     OW 3832   5.613   2.010   0.643
  978SOL    HW1 3833   5.642   1.977   0.553
  978SOL    HW2 3834   5.544   2.081   0.631
  979SOL     OW 3835   0.368   5.003   6.529
  979SOL    HW1 3836   0.413   4.914   6.538
  979SOL    HW2 3837   0.346   5.018   6.433
  980SOL     OW 3838   4.853   1.720   3.926
  980SOL    HW1 3839   4.910   1.648   3.886
  980SOL    HW2 3840   4.900   1.762   4.004
  981SOL     OW 3841   0.552   6.134   5.983
  981SOL    HW1 3842   0.485   6.061   5.978
  981SOL    HW2 3843   0.607   6.124   6.067
  982SOL     OW 3844   0.261   0.944   6.444
  982SOL    HW1 3845   0.341   0.967   6.499
  982SOL    HW2 3846   0.181   0.992   6.480
  983SOL     OW 3847   6.920   3.736   2.358
  983SOL    HW1 3848   6.899   3.833   2.372
  983SOL    HW2 3849   6.836   3.686   2.340
  984SOL     OW 3850   0.413   3.776   4.111
  984SOL    HW1 3851   0.497   3.762   4.162
  984SOL    HW2 3852   0.424   3.742   4.018
  985SOL     OW 3853   5.642   4.807   5.678
  985SOL    HW1 3854   5.691   4.745   5.738
  985SOL    HW2 3855   5.544   4.786   5.682
  986SOL     OW 3856   4.020   5.697   2.003
  986SOL    HW1 3857   3.922   5.681   2.010
  986SOL    HW2 3858   4.037   5.778   1.947
  987SOL     OW 3859   4.392   4.595   4.465
  987SOL    HW1 3860   4.377   4.626   4.559
  987SOL    HW2 3861   4.431   4.503   4.466
  988SOL     OW 3862   3.077   4.892   2.333
  988SOL    HW1 3863   2.994   4.844   2.362
  988SOL    HW2 3864   3.118   4.844   2.255
  989SOL     OW 3865   0.513   2.201   1.615
  989SOL    HW1 3866   0.570   2.198   1.533
  989SOL    HW2 3867   0.421   2.229   1.590
  990SOL     OW 3868   3.434   0.035   5.144
  990SOL    HW1 3869   3.402   7.008   5.227
  990SOL    HW2 3870   3.528   0.007   5.125
  991SOL     OW 3871   1.222   6.296   4.247
  991SOL    HW1 3872   1.223   6.196   4.248
  991SOL    HW2 3873   1.269   6.331   4.328
  992SOL     OW 3874   6.572   3.584   0.975
  992SOL    HW1 3875   6.598   3.527   0.897
  992SOL    HW2 3876   6.535   3.525   1.047
  993SOL     OW 3877   2.110   4.995   0.084
  993SOL    HW1 3878   2.113   5.093   0.065
  993SOL    HW2 3879   2.196   4.953   0.057
  994SOL     OW 3880   3.136   0.124   1.261
  994SOL    HW1 3881   3.196   0.128   1.181
  994SOL    HW2 3882   3.191   0.130   1.344
  995SOL     OW 3883   5.256   4.181   5.028
  995SOL    HW1 3884   5.159   4.169   5.010
  995SOL    HW2 3885   5.280   4.136   5.114
  996SOL     OW 3886   3.926   6.691   5.317
  996SOL    HW1 3887   3.898   6.762   5.381
  996SOL    HW2 3888   3.955   6.732   5.231
  997SOL     OW 3889   1.316   6.106   3.334
  997SOL    HW1 3890   1.290   6.048   3.411
  997SOL    HW2 3891   1.235   6.150   3.295
  998SOL     OW 3892   4.544   0.021   0.122
  998SOL    HW1 3893   4.487   0.033   0.041
  998SOL    HW2 3894   4.501   6.974   0.184
  999SOL     OW 3895   5.873   3.180   2.364
  999SOL    HW1 3896   5.965   3.142   2.377
  999SOL    HW2 3897   5.864   3.215   2.271
 1000SOL     OW 3898   6.248   1.601   1.990
 1000SOL    HW1 3899   6.214   1.683   2.037
 1000SOL    HW2 3900   6.248   1.524   2.053
 1001SOL     OW 3901   2.474   6.750   2.969
 1001SOL    HW1 3902   2.383   6.710   2.979
 1001SOL    HW2 3903   2.482   6.792   2.878
 1002SOL     OW 3904   4.338   2.417   0.099
 1002SOL    HW1 3905   4.262   2.385   0.042
 1002SOL    HW2 3906   4.382   2.338   0.143
 1003SOL     OW 3907   1.090   1.571   3.844
 1003SOL    HW1 3908   1.077   1.475   3.816
 1003SOL    HW2 3909   1.060   1.582   3.939
 1004SOL     OW 3910   4.613   1.491   4.914
 1004SOL    HW1 3911   4.575   1.559   4.851
 1004SOL    HW2 3912   4.538   1.442   4.959
 1005SOL     OW 3913   0.842   5.957   1.933
 1005SOL    HW1 3914   0.861   5.861   1.914
 1005SOL    HW2 3915   0.826   5.969   2.031
 1006SOL     OW 3916   1.644   4.439   1.314
 1006SOL    HW1 3917   1.684   4.426   1.404
 1006SOL    HW2 3918   1.564   4.379   1.304
 1007SOL     OW 3919   4.628   1.051   6.333
 1007SOL    HW1 3920   4.549   0.993   6.351
 1007SOL    HW2 3921   4.628   1.080   6.237
 1008SOL     OW 3922   0.171   4.216   4.693
 1008SOL    HW1 3923   0.243   4.158   4.654
 1008SOL    HW2 3924   0.212   4.282   4.756
 1009SOL     OW 3925   6.354   6.164   6.648
 1009SOL    HW1 3926   6.427   6.104   6.683
 1009SOL    HW2 3927   6.395   6.249   6.614
 1010SOL     OW 3928   3.369   4.095   0.264
 1010SOL    HW1 3929   3.280   4.139   0.276
 1010SOL    HW2 3930   3.433   4.131   0.332
 1011SOL     OW 3931   6.918   5.391   2.374
 1011SOL    HW1 3932   6.867   5.477   2.379
 1011SOL    HW2 3933   7.013   5.410   2.347
 1012SOL     OW 3934   5.126   6.318   3.360
 1012SOL    HW1 3935   5.207   6.275   3.320
 1012SOL    HW2 3936   5.048   6.306   3.298
 1013SOL     OW 3937   0.715   1.225   6.339
 1013SOL    HW1 3938   0.670   1.178   6.264
 1013SOL    HW2 3939   0.786   1.166   6.378
 1014SOL     OW 3940   0.826   4.558   4.412
 1014SOL    HW1 3941   0.809   4.517   4.501
 1014SOL    HW2 3942   0.922   4.585   4.405
 1015SOL     OW 3943   3.288   6.041   6.758
 1015SOL    HW1 3944   3.290   6.139   6.742
 1015SOL    HW2 3945   3.193   6.009   6.758
 1016SOL     OW 3946   6.922   4.906   0.337
 1016SOL    HW1 3947   6.978   4.856   0.271
 1016SOL    HW2 3948   6.837   4.855   0.352
 1017SOL     OW 3949   1.725   0.448   2.324
 1017SOL    HW1 3950   1.642   0.424   2.273
 1017SOL    HW2 3951   1.699   0.486   2.413
 1018SOL     OW 3952   5.677   5.936   5.716
 1018SOL    HW1 3953   5.723   5.852   5.687
 1018SOL    HW2 3954   5.678   5.942   5.815
 1019SOL     OW 3955   6.500   3.679   1.587
 1019SOL    HW1 3956   6.448   3.669   1.672
 1019SOL    HW2 3957   6.562   3.756   1.594
 1020SOL     OW 3958   5.228   1.090   1.055
 1020SOL    HW1 3959   5.300   1.114   1.120
 1020SOL    HW2 3960   5.261   1.105   0.962
 1021SOL     OW 3961   1.352   6.812   0.547
 1021SOL    HW1 3962   1.305   6.733   0.585
 1021SOL    HW2 3963   1.333   6.892   0.603
 1022SOL     OW 3964   1.946   5.105   6.211
 1022SOL    HW1 3965   1.854   5.072   6.235
 1022SOL    HW2 3966   1.942   5.203   6.193
 1023SOL     OW 3967   0.891   1.944   2.024
 1023SOL    HW1 3968   0.929   1.933   2.116
 1023SOL    HW2 3969   0.812   2.005   2.028
 1024SOL     OW 3970   1.794   2.794   4.449
 1024SOL    HW1 3971   1.758   2.885   4.427
 1024SOL    HW2 3972   1.865   2.769   4.383
 1025SOL     OW 3973   4.798   4.201   0.919
 1025SOL    HW1 3974   4.728   4.213   0.849
 1025SOL    HW2 3975   4.815   4.288   0.965
 1026SOL     OW 3976   3.409   2.719   1.839
 1026SOL    HW1 3977   3.413   2.638   1.781
 1026SOL    HW2 3978   3.477   2.786   1.809
 1027SOL     OW 3979   6.252   0.377   0.225
 1027SOL    HW1 3980   6.231   0.364   0.322
 1027SOL    HW2 3981   6.175   0.346   0.170
 1028SOL     OW 3982   0.831   5.370   3.239
 1028SOL    HW1 3983   0.755   5.375   3.304
 1028SOL    HW2 3984   0.918   5.376   3.289
 1029SOL     OW 3985   1.275   0.575   5.135
 1029SOL    HW1 3986   1.371   0.550   5.147
 1029SOL    HW2 3987   1.223   0.494   5.106
 1030SOL     OW 3988   4.073   3.642   1.229
 1030SOL    HW1 3989   4.007   3.644   1.304
 1030SOL    HW2 3990   4.144   3.710   1.245
 1031SOL     OW 3991   4.158   2.717   0.367
 1031SOL    HW1 3992   4.151   2.659   0.448
 1031SOL    HW2 3993   4.206   2.802   0.391
 1032SOL     OW 3994   1.192   0.917   1.548
 1032SOL    HW1 3995   1.098   0.890   1.528
 1032SOL    HW2 3996   1.196   1.014   1.568
 1033SOL     OW 3997   6.387   0.192   1.990
 1033SOL    HW1 3998   6.374   0.145   1.903
 1033SOL    HW2 3999   6.390   0.291   1.974
 1034SOL     OW 4000   2.177   0.794   5.589
 1034SOL    HW1 4001   2.145   0.765   5.679
 1034SOL    HW2 4002   2.226   0.880   5.597
 1035SOL     OW 4003   1.725   0.381   0.005
 1035SOL    HW1 4004   1.666   0.303   0.026
 1035SOL    HW2 4005   1.781   0.359   6.944
 1036SOL     OW 4006   5.483   1.049   2.649
 1036SOL    HW1 4007   5.385   1.029   2.646
 1036SOL    HW2 4008   5.519   1.052   2.556
 1037SOL     OW 4009   0.755   4.138   2.992
 1037SOL    HW1 4010   0.747   4.039   2.981
 1037SOL    HW2 4011   0.750   4.183   2.903
 1038SOL     OW 4012   1.810   6.682   6.704
 1038SOL    HW1 4013   1.739   6.734   6.657
 1038SOL    HW2 4014   1.792   6.681   6.802
 1039SOL     OW 4015   2.885   3.694   2.757
 1039SOL    HW1 4016   2.853   3.781   2.720
 1039SOL    HW2 4017   2.890   3.698   2.856
 1040SOL     OW 4018   3.538   1.511   2.736
 1040SOL    HW1 4019   3.542   1.462   2.649
 1040SOL    HW2 4020   3.462   1.476   2.790
 1041SOL     OW 4021   6.992   6.992   6.783
 1041SOL    HW1 4022   6.908   7.015   6.833
 1041SOL    HW2 4023   0.049   6.988   6.847
 1042SOL     OW 4024   5.524   3.386   3.867
 1042SOL    HW1 4025   5.529   3.389   3.767
 1042SOL    HW2 4026   5.606   3.430   3.905
 1043SOL     OW 4027   2.358   2.264   3.467
 1043SOL    HW1 4028   2.359   2.321   3.549
 1043SOL    HW2 4029   2.302   2.308   3.397
 1044SOL     OW 4030   5.279   4.687   2.388
 1044SOL    HW1 4031   5.366   4.678   2.339
 1044SOL    HW2 4032   5.292   4.747   2.467
 1045SOL     OW 4033   1.917   0.249   2.418
 1045SOL    HW1 4034   1.868   0.246   2.505
 1045SOL    HW2 4035   1.851   0.257   2.343
 1046SOL     OW 4036   3.647   2.431   0.950
 1046SOL    HW1 4037   3.657   2.408   1.047
 1046SOL    HW2 4038   3.562   2.481   0.936
 1047SOL     OW 4039   3.864   0.460   3.340
 1047SOL    HW1 4040   3.798   0.400   3.385
 1047SOL    HW2 4041   3.898   0.527   3.406
 1048SOL     OW 4042   0.032   0.052   2.505
 1048SOL    HW1 4043   0.010   6.975   2.498
 1048SOL    HW2 4044   0.003   0.087   2.595
 1049SOL     OW 4045   3.287   6.652   0.322
 1049SOL    HW1 4046   3.386   6.649   0.335
 1049SOL    HW2 4047   3.264   6.735   0.271
 1050SOL     OW 4048   2.102   1.972   4.287
 1050SOL    HW1 4049   2.161   1.983   4.367
 1050SOL    HW2 4050   2.054   1.884   4.293
 1051SOL     OW 4051   1.620   2.226   5.331
 1051SOL    HW1 4052   1.717   2.250   5.324
 1051SOL    HW2 4053   1.583   2.261   5.418
 1052SOL     OW 4054   4.738   2.424   6.094
 1052SOL    HW1 4055   4.821   2.472   6.068
 1052SOL    HW2 4056   4.750   2.383   6.185
 1053SOL     OW 4057   4.605   2.515   4.287
 1053SOL    HW1 4058   4.666   2.437   4.280
 1053SOL    HW2 4059   4.541   2.501   4.363
 1054SOL     OW 4060   4.968   5.321   6.747
 1054SOL    HW1 4061   4.950   5.356   6.656
 1054SOL    HW2 4062   4.887   5.333   6.804
 1055SOL     OW 4063   5.367   5.659   5.888
 1055SOL    HW1 4064   5.272   5.663   5.919
 1055SOL    HW2 4065   5.379   5.577   5.831
 1056SOL     OW 4066   3.670   3.751   7.003
 1056SOL    HW1 4067   3.749   3.779   0.037
 1056SOL    HW2 4068   3.586   3.766   0.036
 1057SOL     OW 4069   2.911   3.787   6.410
 1057SOL    HW1 4070   2.829   3.793   6.467
 1057SOL    HW2 4071   2.991   3.770   6.467
 1058SOL     OW 4072   2.944   2.121   1.647
 1058SOL    HW1 4073   2.962   2.023   1.636
 1058SOL    HW2 4074   3.011   2.173   1.594
 1059SOL     OW 4075   2.576   6.087   2.757
 1059SOL    HW1 4076   2.617   6.034   2.683
 1059SOL    HW2 4077   2.551   6.177   2.723
 1060SOL     OW 4078   6.562   0.078   5.336
 1060SOL    HW1 4079   6.517   0.125   5.260
 1060SOL    HW2 4080   6.612   0.145   5.392
 1061SOL     OW 4081   0.250   3.870   6.553
 1061SOL    HW1 4082   0.348   3.856   6.567
 1061SOL    HW2 4083   0.199   3.793   6.592
 1062SOL     OW 4084   4.018   4.660   5.639
 1062SOL    HW1 4085   4.102   4.610   5.655
 1062SOL    HW2 4086   4.033   4.729   5.568
 1063SOL     OW 4087   2.691   6.603   3.997
 1063SOL    HW1 4088   2.668   6.511   3.967
 1063SOL    HW2 4089   2.752   6.645   3.930
 1064SOL     OW 4090   0.868   4.358   0.951
 1064SOL    HW1 4091   0.930   4.424   0.909
 1064SOL    HW2 4092   0.812   4.315   0.881
 1065SOL     OW 4093   5.884   1.053   5.435
 1065SOL    HW1 4094   5.879   0.970   5.379
 1065SOL    HW2 4095   5.980   1.080   5.445
 1066SOL     OW 4096   4.240   6.130   0.981
 1066SOL    HW1 4097   4.257   6.047   0.927
 1066SOL    HW2 4098   4.302   6.132   1.060
 1067SOL     OW 4099   3.560   1.343   0.541
 1067SOL    HW1 4100   3.466   1.336   0.509
 1067SOL    HW2 4101   3.595   1.251   0.561
 1068SOL     OW 4102   5.937   2.852   2.302
 1068SOL    HW1 4103   5.994   2.886   2.376
 1068SOL    HW2 4104   5.984   2.864   2.215
 1069SOL     OW 4105   0.195   2.111   2.568
 1069SOL    HW1 4106   0.250   2.047   2.621
 1069SOL    HW2 4107   0.237   2.125   2.479
 1070SOL     OW 4108   1.261   0.505   2.369
 1070SOL    HW1 4109   1.258   0.406   2.384
 1070SOL    HW2 4110   1.169   0.543   2.376
 1071SOL     OW 4111   0.564   2.728   5.822
 1071SOL    HW1 4112   0.592   2.787   5.746
 1071SOL    HW2 4113   0.492   2.666   5.791
 1072SOL     OW 4114   2.029   1.645   1.789
 1072SOL    HW1 4115   2.057   1.741   1.780
 1072SOL    HW2 4116   1.949   1.628   1.732
 1073SOL     OW 4117   5.222   1.923   2.691
 1073SOL    HW1 4118   5.200   1.847   2.630
 1073SOL    HW2 4119   5.312   1.960   2.667
 1074SOL     OW 4120   3.491   5.978   1.737
 1074SOL    HW1 4121   3.403   5.949   1.774
 1074SOL    HW2 4122   3.564   5.961   1.804
 1075SOL     OW 4123   0.004   3.595   4.640
 1075SOL    HW1 4124   0.010   3.505   4.683
 1075SOL    HW2 4125   0.012   3.666   4.711
 1076SOL     OW 4126   2.670   4.278   5.564
 1076SOL    HW1 4127   2.626   4.189   5.575
 1076SOL    HW2 4128   2.693   4.316   5.654
 1077SOL     OW 4129   6.844   6.592   0.489
 1077SOL    HW1 4130   6.884   6.508   0.453
 1077SOL    HW2 4131   6.883   6.671   0.441
 1078SOL     OW 4132   5.373   0.036   4.241
 1078SOL    HW1 4133   5.416   0.028   4.151
 1078SOL    HW2 4134   5.325   6.971   4.262
 1079SOL     OW 4135   1.029   5.623   1.464
 1079SOL    HW1 4136   1.023   5.583   1.372
 1079SOL    HW2 4137   1.005   5.720   1.459
 1080SOL     OW 4138   4.981   5.867   0.330
 1080SOL    HW1 4139   4.901   5.844   0.386
 1080SOL    HW2 4140   5.054   5.903   0.389
 1081SOL     OW 4141   6.961   6.715   3.384
 1081SOL    HW1 4142   6.920   6.738   3.296
 1081SOL    HW2 4143   7.018   6.791   3.415
 1082SOL     OW 4144   4.593   6.912   6.779
 1082SOL    HW1 4145   4.497   6.887   6.785
 1082SOL    HW2 4146   4.650   6.830   6.784
 1083SOL     OW 4147   6.566   3.902   2.464
 1083SOL    HW1 4148   6.660   3.935   2.464
 1083SOL    HW2 4149   6.508   3.967   2.515
 1084SOL     OW 4150   3.956   0.451   5.529
 1084SOL    HW1 4151   3.942   0.515   5.453
 1084SOL    HW2 4152   3.872   0.445   5.583
 1085SOL     OW 4153   1.655   3.426   4.961
 1085SOL    HW1 4154   1.689   3.373   4.884
 1085SOL    HW2 4155   1.574   3.382   4.999
 1086SOL     OW 4156   5.515   4.632   2.239
 1086SOL    HW1 4157   5.545   4.717   2.195
 1086SOL    HW2 4158   5.594   4.572   2.251
 1087SOL     OW 4159   3.738   0.430   5.692
 1087SOL    HW1 4160   3.740   0.480   5.779
 1087SOL    HW2 4161   3.783   0.341   5.703
 1088SOL     OW 4162   6.152   5.802   4.073
 1088SOL    HW1 4163   6.139   5.792   4.172
 1088SOL    HW2 4164   6.107   5.726   4.026
 1089SOL     OW 4165   5.623   5.211   4.225
 1089SOL    HW1 4166   5.578   5.128   4.196
 1089SOL    HW2 4167   5.722   5.195   4.234
 1090SOL     OW 4168   6.110   2.802   4.961
 1090SOL    HW1 4169   6.186   2.784   5.024
 1090SOL    HW2 4170   6.024   2.787   5.009
 1091SOL     OW 4171   1.821   3.357   3.547
 1091SOL    HW1 4172   1.912   3.320   3.531
 1091SOL    HW2 4173   1.758   3.282   3.568
 1092SOL     OW 4174   1.121   6.054   0.021
 1092SOL    HW1 4175   1.149   6.088   6.951
 1092SOL    HW2 4176   1.025   6.027   0.017
 1093SOL     OW 4177   1.738   0.597   2.837
 1093SOL    HW1 4178   1.726   0.603   2.738
 1093SOL    HW2 4179   1.827   0.556   2.857
 1094SOL     OW 4180   0.457   6.759   3.435
 1094SOL    HW1 4181   0.386   6.726   3.372
 1094SOL    HW2 4182   0.438   6.854   3.460
 1095SOL     OW 4183   6.114   4.511   1.046
 1095SOL    HW1 4184   6.145   4.489   1.139
 1095SOL    HW2 4185   6.161   4.593   1.014
 1096SOL     OW 4186   2.145   6.204   2.174
 1096SOL    HW1 4187   2.065   6.155   2.139
 1096SOL    HW2 4188   2.193   6.146   2.239
 1097SOL     OW 4189   3.305   6.053   4.810
 1097SOL    HW1 4190   3.355   6.110   4.875
 1097SOL    HW2 4191   3.370   6.010   4.747
 1098SOL     OW 4192   6.658   4.399   6.671
 1098SOL    HW1 4193   6.707   4.318   6.704
 1098SOL    HW2 4194   6.720   4.454   6.615
 1099SOL     OW 4195   5.552   0.215   0.056
 1099SOL    HW1 4196   5.542   0.314   0.047
 1099SOL    HW2 4197   5.590   0.178   6.991
 1100SOL     OW 4198   4.864   1.182   4.291
 1100SOL    HW1 4199   4.896   1.211   4.381
 1100SOL    HW2 4200   4.781   1.128   4.301
 1101SOL     OW 4201   4.729   2.887   7.001
 1101SOL    HW1 4202   4.684   2.820   6.942
 1101SOL    HW2 4203   4.680   2.974   6.994
 1102SOL     OW 4204   3.507   1.059   4.808
 1102SOL    HW1 4205   3.477   0.981   4.862
 1102SOL    HW2 4206   3.448   1.138   4.827
 1103SOL     OW 4207   3.526   6.877   0.793
 1103SOL    HW1 4208   3.558   6.805   0.732
 1103SOL    HW2 4209   3.558   6.858   0.886
 1104SOL     OW 4210   6.516   1.440   3.282
 1104SOL    HW1 4211   6.436   1.406   3.232
 1104SOL    HW2 4212   6.555   1.365   3.336
 1105SOL     OW 4213   4.629   0.498   5.792
 1105SOL    HW1 4214   4.608   0.547   5.877
 1105SOL    HW2 4215   4.690   0.421   5.812
 1106SOL     OW 4216   6.219   1.366   2.139
 1106SOL    HW1 4217   6.166   1.358   2.223
 1106SOL    HW2 4218   6.200   1.288   2.080
 1107SOL     OW 4219   1.647   2.328   6.544
 1107SOL    HW1 4220   1.673   2.250   6.600
 1107SOL    HW2 4221   1.620   2.404   6.604
 1108SOL     OW 4222   1.938   1.571   2.805
 1108SOL    HW1 4223   1.915   1.636   2.732
 1108SOL    HW2 4224   2.006   1.612   2.866
 1109SOL     OW 4225   5.004   1.804   5.174
 1109SOL    HW1 4226   5.023   1.830   5.269
 1109SOL    HW2 4227   4.952   1.878   5.129
 1110SOL     OW 4228   1.386   0.584   2.601
 1110SOL    HW1 4229   1.331   0.550   2.525
 1110SOL    HW2 4230   1.330   0.644   2.658
 1111SOL     OW 4231   5.515   3.067   6.252
 1111SOL    HW1 4232   5.580   3.005   6.296
 1111SOL    HW2 4233   5.529   3.066   6.153
 1112SOL     OW 4234   5.677   0.498   2.577
 1112SOL    HW1 4235   5.578   0.511   2.571
 1112SOL    HW2 4236   5.708   0.512   2.671
 1113SOL     OW 4237   0.161   1.750   2.723
 1113SOL    HW1 4238   0.102   1.779   2.647
 1113SOL    HW2 4239   0.138   1.803   2.805
 1114SOL     OW 4240   3.458   3.131   4.463
 1114SOL    HW1 4241   3.477   3.183   4.379
 1114SOL    HW2 4242   3.383   3.175   4.513
 1115SOL     OW 4243   2.300   5.303   6.274
 1115SOL    HW1 4244   2.263   5.222   6.229
 1115SOL    HW2 4245   2.326   5.281   6.368
 1116SOL     OW 4246   4.447   7.009   0.547
 1116SOL    HW1 4247   4.433   0.016   0.643
 1116SOL    HW2 4248   4.470   0.071   0.493
 1117SOL     OW 4249   2.060   2.561   1.536
 1117SOL    HW1 4250   2.066   2.547   1.437
 1117SOL    HW2 4251   1.964   2.565   1.563
 1118SOL     OW 4252   4.638   6.529   6.971
 1118SOL    HW1 4253   4.719   6.587   6.977
 1118SOL    HW2 4254   4.617   6.510   6.875
 1119SOL     OW 4255   2.698   5.963   3.957
 1119SOL    HW1 4256   2.641   5.968   4.039
 1119SOL    HW2 4257   2.646   5.996   3.878
 1120SOL     OW 4258   0.600   3.394   1.478
 1120SOL    HW1 4259   0.570   3.455   1.551
 1120SOL    HW2 4260   0.598   3.442   1.391
 1121SOL     OW 4261   5.453   4.284   5.745
 1121SOL    HW1 4262   5.504   4.367   5.766
 1121SOL    HW2 4263   5.512   4.219   5.697
 1122SOL     OW 4264   6.045   0.518   2.212
 1122SOL    HW1 4265   6.008   0.485   2.299
 1122SOL    HW2 4266   6.082   0.610   2.224
 1123SOL     OW 4267   3.400   1.514   4.830
 1123SOL    HW1 4268   3.467   1.500   4.903
 1123SOL    HW2 4269   3.404   1.610   4.800
 1124SOL     OW 4270   2.507   2.610   3.271
 1124SOL    HW1 4271   2.547   2.522   3.246
 1124SOL    HW2 4272   2.451   2.599   3.353
 1125SOL     OW 4273   1.078   3.434   4.340
 1125SOL    HW1 4274   1.010   3.442   4.267
 1125SOL    HW2 4275   1.164   3.475   4.309
 1126SOL     OW 4276   4.661   4.238   3.788
 1126SOL    HW1 4277   4.601   4.313   3.817
 1126SOL    HW2 4278   4.755   4.271   3.781
 1127SOL     OW 4279   6.174   6.772   1.099
 1127SOL    HW1 4280   6.155   6.675   1.085
 1127SOL    HW2 4281   6.100   6.827   1.062
 1128SOL     OW 4282   3.576   1.830   4.985
 1128SOL    HW1 4283   3.508   1.893   4.948
 1128SOL    HW2 4284   3.667   1.867   4.970
 1129SOL     OW 4285   1.257   1.133   0.156
 1129SOL    HW1 4286   1.231   1.210   0.214
 1129SOL    HW2 4287   1.284   1.167   0.066
 1130SOL     OW 4288   2.120   5.640   1.156
 1130SOL    HW1 4289   2.092   5.550   1.190
 1130SOL    HW2 4290   2.045   5.706   1.168
 1131SOL     OW 4291   1.522   5.340   3.746
 1131SOL    HW1 4292   1.583   5.412   3.781
 1131SOL    HW2 4293   1.431   5.351   3.786
 1132SOL     OW 4294   1.597   2.117   3.019
 1132SOL    HW1 4295   1.682   2.115   2.966
 1132SOL    HW2 4296   1.615   2.087   3.113
 1133SOL     OW 4297   1.583   6.340   6.636
 1133SOL    HW1 4298   1.661   6.342   6.575
 1133SOL    HW2 4299   1.611   6.305   6.726
 1134SOL     OW 4300   4.250   5.955   0.675
 1134SOL    HW1 4301   4.289   5.917   0.591
 1134SOL    HW2 4302   4.243   5.883   0.744
 1135SOL     OW 4303   1.926   6.953   3.077
 1135SOL    HW1 4304   1.909   6.856   3.087
 1135SOL    HW2 4305   1.893   6.985   2.988
 1136SOL     OW 4306   1.645   4.655   2.861
 1136SOL    HW1 4307   1.682   4.732   2.809
 1136SOL    HW2 4308   1.546   4.653   2.851
 1137SOL     OW 4309   1.070   5.348   4.358
 1137SOL    HW1 4310   1.126   5.274   4.396
 1137SOL    HW2 4311   1.018   5.392   4.431
 1138SOL     OW 4312   2.396   4.325   4.303
 1138SOL    HW1 4313   2.309   4.297   4.346
 1138SOL    HW2 4314   2.464   4.343   4.375
 1139SOL     OW 4315   3.451   5.591   4.989
 1139SOL    HW1 4316   3.473   5.555   4.898
 1139SOL    HW2 4317   3.353   5.609   4.994
 1140SOL     OW 4318   2.054   2.521   1.264
 1140SOL    HW1 4319   1.966   2.538   1.221
 1140SOL    HW2 4320   2.122   2.584   1.226
 1141SOL     OW 4321   6.434   4.761   5.735
 1141SOL    HW1 4322   6.335   4.779   5.731
 1141SOL    HW2 4323   6.469   4.785   5.826
 1142SOL     OW 4324   0.576   5.400   2.859
 1142SOL    HW1 4325   0.493   5.456   2.865
 1142SOL    HW2 4326   0.554   5.311   2.819
 1143SOL     OW 4327   6.797   4.635   1.711
 1143SOL    HW1 4328   6.871   4.589   1.661
 1143SOL    HW2 4329   6.834   4.680   1.792
 1144SOL     OW 4330   4.943   4.962   6.969
 1144SOL    HW1 4331   4.993   4.993   0.030
 1144SOL    HW2 4332   5.006   4.914   6.907
 1145SOL     OW 4333   5.962   6.976   0.631
 1145SOL    HW1 4334   5.874   6.979   0.678
 1145SOL    HW2 4335   5.948   6.955   0.534
 1146SOL     OW 4336   1.883   0.361   1.447
 1146SOL    HW1 4337   1.941   0.393   1.372
 1146SOL    HW2 4338   1.877   0.431   1.517
 1147SOL     OW 4339   1.285   6.367   0.612
 1147SOL    HW1 4340   1.234   6.368   0.526
 1147SOL    HW2 4341   1.267   6.282   0.660
 1148SOL     OW 4342   3.495   6.139   1.969
 1148SOL    HW1 4343   3.408   6.111   1.929
 1148SOL    HW2 4344   3.491   6.128   2.068
 1149SOL     OW 4345   5.667   1.845   1.250
 1149SOL    HW1 4346   5.751   1.830   1.301
 1149SOL    HW2 4347   5.614   1.760   1.244
 1150SOL     OW 4348   1.582   1.863   1.082
 1150SOL    HW1 4349   1.518   1.875   1.006
 1150SOL    HW2 4350   1.596   1.950   1.128
 1151SOL     OW 4351   5.791   5.545   4.576
 1151SOL    HW1 4352   5.817   5.517   4.483
 1151SOL    HW2 4353   5.761   5.641   4.574
 1152SOL     OW 4354   2.901   6.270   5.698
 1152SOL    HW1 4355   2.979   6.242   5.754
 1152SOL    HW2 4356   2.816   6.247   5.745
 1153SOL     OW 4357   5.481   6.859   1.179
 1153SOL    HW1 4358   5.420   6.915   1.236
 1153SOL    HW2 4359   5.530   6.917   1.114
 1154SOL     OW 4360   2.071   3.417   1.092
 1154SOL    HW1 4361   2.036   3.385   1.005
 1154SOL    HW2 4362   2.163   3.380   1.107
 1155SOL     OW 4363   3.650   5.904   4.260
 1155SOL    HW1 4364   3.712   5.848   4.315
 1155SOL    HW2 4365   3.606   5.847   4.191
 1156SOL     OW 4366   2.784   0.890   1.413
 1156SOL    HW1 4367   2.721   0.967   1.413
 1156SOL    HW2 4368   2.734   0.804   1.402
 1157SOL     OW 4369   2.181   2.154   0.609
 1157SOL    HW1 4370   2.139   2.161   0.700
 1157SOL    HW2 4371   2.139   2.078   0.559
 1158SOL     OW 4372   5.712   4.268   3.967
 1158SOL    HW1 4373   5.796   4.294   4.014
 1158SOL    HW2 4374   5.642   4.246   4.035
 1159SOL     OW 4375   5.762   4.725   0.555
 1159SOL    HW1 4376   5.841   4.752   0.610
 1159SOL    HW2 4377   5.705   4.662   0.608
 1160SOL     OW 4378   4.457   1.841   1.134
 1160SOL    HW1 4379   4.498   1.932   1.129
 1160SOL    HW2 4380   4.358   1.848   1.128
 1161SOL     OW 4381   0.463   5.125   0.774
 1161SOL    HW1 4382   0.490   5.031   0.796
 1161SOL    HW2 4383   0.451   5.134   0.675
 1162SOL     OW 4384   2.168   2.744   4.678
 1162SOL    HW1 4385   2.206   2.832   4.704
 1162SOL    HW2 4386   2.137   2.694   4.759
 1163SOL     OW 4387   4.920   1.776   2.211
 1163SOL    HW1 4388   4.905   1.702   2.146
 1163SOL    HW2 4389   4.875   1.752   2.298
 1164SOL     OW 4390   4.332   2.196   5.589
 1164SOL    HW1 4391   4.261   2.188   5.658
 1164SOL    HW2 4392   4.403   2.127   5.606
 1165SOL     OW 4393   3.932   0.033   2.992
 1165SOL    HW1 4394   3.945   0.044   2.894
 1165SOL    HW2 4395   3.937   0.122   3.037
 1166SOL     OW 4396   3.621   4.173   6.586
 1166SOL    HW1 4397   3.612   4.272   6.590
 1166SOL    HW2 4398   3.664   4.140   6.671
 1167SOL     OW 4399   5.559   4.048   3.312
 1167SOL    HW1 4400   5.557   4.079   3.217
 1167SOL    HW2 4401   5.474   4.076   3.358
 1168SOL     OW 4402   0.590   6.826   0.564
 1168SOL    HW1 4403   0.640   6.908   0.538
 1168SOL    HW2 4404   0.653   6.761   0.608
 1169SOL     OW 4405   5.195   2.267   5.344
 1169SOL    HW1 4406   5.279   2.272   5.397
 1169SOL    HW2 4407   5.191   2.181   5.294
 1170SOL     OW 4408   4.877   4.649   2.645
 1170SOL    HW1 4409   4.780   4.622   2.650
 1170SOL    HW2 4410   4.934   4.574   2.680
 1171SOL     OW 4411   0.171   6.428   0.437
 1171SOL    HW1 4412   0.251   6.412   0.379
 1171SOL    HW2 4413   0.089   6.397   0.389
 1172SOL     OW 4414   5.761   3.260   6.971
 1172SOL    HW1 4415   5.672   3.303   6.955
 1172SOL    HW2 4416   5.774   3.246   0.050
 1173SOL     OW 4417   4.583   2.725   1.478
 1173SOL    HW1 4418   4.599   2.810   1.528
 1173SOL    HW2 4419   4.551   2.654   1.540
 1174SOL     OW 4420   2.455   5.011   0.502
 1174SOL    HW1 4421   2.408   5.057   0.426
 1174SOL    HW2 4422   2.530   4.955   0.467
 1175SOL     OW 4423   3.239   4.110   3.740
 1175SOL    HW1 4424   3.187   4.030   3.708
 1175SOL    HW2 4425   3.233   4.182   3.671
 1176SOL     OW 4426   5.324   3.496   0.521
 1176SOL    HW1 4427   5.347   3.547   0.438
 1176SOL    HW2 4428   5.368   3.539   0.600
 1177SOL     OW 4429   0.824   1.526   4.759
 1177SOL    HW1 4430   0.861   1.585   4.830
 1177SOL    HW2 4431   0.728   1.505   4.779
 1178SOL     OW 4432   4.346   6.454   7.010
 1178SOL    HW1 4433   4.282   6.480   0.063
 1178SOL    HW2 4434   4.439   6.479   0.017
 1179SOL     OW 4435   0.363   5.812   0.496
 1179SOL    HW1 4436   0.412   5.736   0.452
 1179SOL    HW2 4437   0.407   5.834   0.583
 1180SOL     OW 4438   3.573   6.373   0.464
 1180SOL    HW1 4439   3.541   6.284   0.498
 1180SOL    HW2 4440   3.643   6.358   0.395
 1181SOL     OW 4441   5.944   6.024   6.579
 1181SOL    HW1 4442   5.866   6.087   6.586
 1181SOL    HW2 4443   6.004   6.036   6.658
 1182SOL     OW 4444   4.877   3.687   4.291
 1182SOL    HW1 4445   4.819   3.616   4.331
 1182SOL    HW2 4446   4.942   3.719   4.360
 1183SOL     OW 4447   1.888   4.418   0.292
 1183SOL    HW1 4448   1.905   4.467   0.378
 1183SOL    HW2 4449   1.947   4.338   0.288
 1184SOL     OW 4450   0.458   1.462   5.550
 1184SOL    HW1 4451   0.553   1.432   5.556
 1184SOL    HW2 4452   0.416   1.426   5.467
 1185SOL     OW 4453   6.684   1.802   6.399
 1185SOL    HW1 4454   6.708   1.724   6.342
 1185SOL    HW2 4455   6.658   1.879   6.342
 1186SOL     OW 4456   4.870   6.662   4.506
 1186SOL    HW1 4457   4.827   6.729   4.444
 1186SOL    HW2 4458   4.916   6.591   4.452
 1187SOL     OW 4459   6.352   2.399   6.720
 1187SOL    HW1 4460   6.295   2.452   6.657
 1187SOL    HW2 4461   6.447   2.428   6.712
 1188SOL     OW 4462   4.257   2.032   6.509
 1188SOL    HW1 4463   4.303   2.021   6.421
 1188SOL    HW2 4464   4.208   2.119   6.511
 1189SOL     OW 4465   6.054   3.688   3.648
 1189SOL    HW1 4466   5.957   3.712   3.654
 1189SOL    HW2 4467   6.102   3.723   3.729
 1190SOL     OW 4468   3.030   0.336   3.570
 1190SOL    HW1 4469   2.954   0.382   3.617
 1190SOL    HW2 4470   3.098   0.306   3.637
 1191SOL     OW 4471   3.251   0.031   3.026
 1191SOL    HW1 4472   3.325   6.993   3.059
 1191SOL    HW2 4473   3.289   0.113   2.983
 1192SOL     OW 4474   5.887   5.812   3.814
 1192SOL    HW1 4475   5.792   5.796   3.837
 1192SOL    HW2 4476   5.905   5.777   3.722
 1193SOL     OW 4477   6.493   6.291   4.824
 1193SOL    HW1 4478   6.505   6.381   4.866
 1193SOL    HW2 4479   6.395   6.268   4.821
 1194SOL     OW 4480   3.730   0.432   0.798
 1194SOL    HW1 4481   3.788   0.399   0.873
 1194SOL    HW2 4482   3.712   0.357   0.735
 1195SOL     OW 4483   5.056   2.442   2.794
 1195SOL    HW1 4484   5.064   2.408   2.700
 1195SOL    HW2 4485   5.084   2.538   2.797
 1196SOL     OW 4486   0.338   6.767   5.010
 1196SOL    HW1 4487   0.396   6.686   5.018
 1196SOL    HW2 4488   0.351   6.808   4.919
 1197SOL     OW 4489   2.445   6.354   6.734
 1197SOL    HW1 4490   2.437   6.451   6.709
 1197SOL    HW2 4491   2.539   6.335   6.763
 1198SOL     OW 4492   1.444   2.384   0.208
 1198SOL    HW1 4493   1.356   2.375   0.255
 1198SOL    HW2 4494   1.429   2.384   0.109
 1199SOL     OW 4495   5.732   4.115   2.666
 1199SOL    HW1 4496   5.675   4.100   2.747
 1199SOL    HW2 4497   5.721   4.038   2.603
 1200SOL     OW 4498   3.030   3.988   2.289
 1200SOL    HW1 4499   2.954   3.925   2.304
 1200SOL    HW2 4500   3.116   3.940   2.299
 1201SOL     OW 4501   1.535   2.030   5.142
 1201SOL    HW1 4502   1.612   2.035   5.079
 1201SOL    HW2 4503   1.562   2.070   5.230
 1202SOL     OW 4504   0.902   6.123   5.150
 1202SOL    HW1 4505   0.952   6.201   5.187
 1202SOL    HW2 4506   0.965   6.051   5.124
 1203SOL     OW 4507   4.092   5.645   5.191
 1203SOL    HW1 4508   4.162   5.701   5.148
 1203SOL    HW2 4509   4.010   5.700   5.209
 1204SOL     OW 4510   1.978   6.932   2.479
 1204SOL    HW1 4511   2.071   6.970   2.479
 1204SOL    HW2 4512   1.951   6.912   2.573
 1205SOL     OW 4513   6.070   3.417   2.523
 1205SOL    HW1 4514   6.009   3.459   2.456
 1205SOL    HW2 4515   6.023   3.408   2.611
 1206SOL     OW 4516   2.911   3.651   4.403
 1206SOL    HW1 4517   2.967   3.733   4.388
 1206SOL    HW2 4518   2.863   3.628   4.319
 1207SOL     OW 4519   0.794   5.528   2.963
 1207SOL    HW1 4520   0.712   5.489   2.921
 1207SOL    HW2 4521   0.780   5.538   3.061
 1208SOL     OW 4522   3.296   2.871   6.601
 1208SOL    HW1 4523   3.245   2.791   6.631
 1208SOL    HW2 4524   3.393   2.858   6.620
 1209SOL     OW 4525   3.875   6.637   5.648
 1209SOL    HW1 4526   3.937   6.573   5.694
 1209SOL    HW2 4527   3.904   6.647   5.553
 1210SOL     OW 4528   2.882   1.043   2.726
 1210SOL    HW1 4529   2.838   1.095   2.799
 1210SOL    HW2 4530   2.981   1.061   2.726
 1211SOL     OW 4531   0.951   2.871   0.717
 1211SOL    HW1 4532   1.021   2.917   0.772
 1211SOL    HW2 4533   0.909   2.798   0.772
 1212SOL     OW 4534   0.944   6.738   0.327
 1212SOL    HW1 4535   0.985   6.713   0.239
 1212SOL    HW2 4536   0.874   6.670   0.351
 1213SOL     OW 4537   5.987   2.959   1.733
 1213SOL    HW1 4538   6.074   3.006   1.723
 1213SOL    HW2 4539   5.984   2.912   1.822
 1214SOL     OW 4540   0.359   2.422   2.472
 1214SOL    HW1 4541   0.275   2.383   2.434
 1214SOL    HW2 4542   0.427   2.430   2.399
 1215SOL     OW 4543   1.971   5.744   3.051
 1215SOL    HW1 4544   2.039   5.730   2.978
 1215SOL    HW2 4545   1.951   5.842   3.058
 1216SOL     OW 4546   4.522   0.045   1.340
 1216SOL    HW1 4547   4.501   0.120   1.277
 1216SOL    HW2 4548   4.448   0.038   1.407
 1217SOL     OW 4549   2.870   4.250   6.938
 1217SOL    HW1 4550   2.823   4.256   0.006
 1217SOL    HW2 4551   2.902   4.156   6.923
 1218SOL     OW 4552   2.355   4.978   3.991
 1218SOL    HW1 4553   2.359   4.880   3.973
 1218SOL    HW2 4554   2.334   4.993   4.088
 1219SOL     OW 4555   3.659   5.184   2.030
 1219SOL    HW1 4556   3.612   5.116   1.972
 1219SOL    HW2 4557   3.742   5.215   1.984
 1220SOL     OW 4558   0.352   5.090   2.306
 1220SOL    HW1 4559   0.450   5.076   2.290
 1220SOL    HW2 4560   0.337   5.183   2.340
 1221SOL     OW 4561   4.763   4.306   6.879
 1221SOL    HW1 4562   4.747   4.385   6.821
 1221SOL    HW2 4563   4.721   4.225   6.837
 1222SOL     OW 4564   6.969   1.040   6.474
 1222SOL    HW1 4565   7.007   1.124   6.434
 1222SOL    HW2 4566   6.925   0.987   6.402
 1223SOL     OW 4567   3.953   6.152   1.165
 1223SOL    HW1 4568   3.937   6.071   1.108
 1223SOL    HW2 4569   3.970   6.230   1.106
 1224SOL     OW 4570   3.368   1.095   1.387
 1224SOL    HW1 4571   3.413   1.183   1.400
 1224SOL    HW2 4572   3.286   1.091   1.444
 1225SOL     OW 4573   3.425   4.351   6.047
 1225SOL    HW1 4574   3.424   4.306   6.136
 1225SOL    HW2 4575   3.498   4.312   5.991
 1226SOL     OW 4576   2.127   5.359   0.700
 1226SOL    HW1 4577   2.195   5.289   0.679
 1226SOL    HW2 4578   2.163   5.449   0.675
 1227SOL     OW 4579   1.856   4.535   5.761
 1227SOL    HW1 4580   1.783   4.583   5.809
 1227SOL    HW2 4581   1.866   4.443   5.798
 1228SOL     OW 4582   3.912   2.322   6.938
 1228SOL    HW1 4583   3.899   2.384   7.015
 1228SOL    HW2 4584   3.944   2.234   6.972
 1229SOL     OW 4585   3.011   4.015   6.938
 1229SOL    HW1 4586   3.065   4.058   7.011
 1229SOL    HW2 4587   2.999   3.918   6.958
 1230SOL     OW 4588   4.174   0.438   3.895
 1230SOL    HW1 4589   4.161   0.484   3.807
 1230SOL    HW2 4590   4.109   0.473   3.962
 1231SOL     OW 4591   0.724   3.574   3.547
 1231SOL    HW1 4592   0.721   3.599   3.450
 1231SOL    HW2 4593   0.772   3.487   3.557
 1232SOL     OW 4594   1.697   2.650   2.401
 1232SOL    HW1 4595   1.740   2.593   2.330
 1232SOL    HW2 4596   1.674   2.593   2.480
 1233SOL     OW 4597   0.763   2.239   4.439
 1233SOL    HW1 4598   0.672   2.213   4.469
 1233SOL    HW2 4599   0.827   2.164   4.458
 1234SOL     OW 4600   6.443   4.628   4.403
 1234SOL    HW1 4601   6.346   4.636   4.423
 1234SOL    HW2 4602   6.458   4.554   4.338
 1235SOL     OW 4603   6.760   5.444   3.577
 1235SOL    HW1 4604   6.776   5.528   3.629
 1235SOL    HW2 4605   6.719   5.467   3.488
 1236SOL     OW 4606   5.755   0.601   6.639
 1236SOL    HW1 4607   5.769   0.601   6.540
 1236SOL    HW2 4608   5.825   0.658   6.682
 1237SOL     OW 4609   1.979   4.545   6.461
 1237SOL    HW1 4610   1.997   4.516   6.555
 1237SOL    HW2 4611   1.882   4.536   6.441
 1238SOL     OW 4612   1.786   1.534   1.294
 1238SOL    HW1 4613   1.884   1.536   1.311
 1238SOL    HW2 4614   1.769   1.541   1.196
 1239SOL     OW 4615   0.945   7.011   5.774
 1239SOL    HW1 4616   0.851   6.979   5.775
 1239SOL    HW2 4617   0.946   0.092   5.777
 1240SOL     OW 4618   5.824   5.414   0.735
 1240SOL    HW1 4619   5.749   5.405   0.800
 1240SOL    HW2 4620   5.831   5.508   0.703
 1241SOL     OW 4621   0.578   1.967   4.193
 1241SOL    HW1 4622   0.513   2.030   4.234
 1241SOL    HW2 4623   0.586   1.986   4.095
 1242SOL     OW 4624   1.870   2.439   6.801
 1242SOL    HW1 4625   1.943   2.484   6.750
 1242SOL    HW2 4626   1.909   2.381   6.872
 1243SOL     OW 4627   3.193   5.027   5.219
 1243SOL    HW1 4628   3.184   4.936   5.178
 1243SOL    HW2 4629   3.165   5.096   5.153
 1244SOL     OW 4630   0.600   1.723   3.157
 1244SOL    HW1 4631   0.645   1.798   3.109
 1244SOL    HW2 4632   0.508   1.710   3.120
 1245SOL     OW 4633   3.129   2.928   5.155
 1245SOL    HW1 4634   3.060   2.891   5.216
 1245SOL    HW2 4635   3.100   3.018   5.121
 1246SOL     OW 4636   1.230   6.449   2.022
 1246SOL    HW1 4637   1.217   6.352   2.042
 1246SOL    HW2 4638   1.303   6.486   2.079
 1247SOL     OW 4639   1.070   6.191   6.311
 1247SOL    HW1 4640   0.990   6.234   6.354
 1247SOL    HW2 4641   1.124   6.145   6.381
 1248SOL     OW 4642   1.954   0.004   4.062
 1248SOL    HW1 4643   2.030   0.049   4.013
 1248SOL    HW2 4644   1.873   0.003   4.003
 1249SOL     OW 4645   6.434   3.058   3.272
 1249SOL    HW1 4646   6.365   3.008   3.220
 1249SOL    HW2 4647   6.390   3.129   3.327
 1250SOL     OW 4648   0.035   3.180   4.546
 1250SOL    HW1 4649   6.965   3.208   4.510
 1250SOL    HW2 4650   0.107   3.213   4.485
 1251SOL     OW 4651   3.257   0.787   6.392
 1251SOL    HW1 4652   3.221   0.826   6.306
 1251SOL    HW2 4653   3.305   0.701   6.372
 1252SOL     OW 4654   3.843   3.815   0.414
 1252SOL    HW1 4655   3.785   3.895   0.398
 1252SOL    HW2 4656   3.873   3.778   0.326
 1253SOL     OW 4657   4.905   1.293   3.002
 1253SOL    HW1 4658   4.842   1.243   3.062
 1253SOL    HW2 4659   4.869   1.292   2.908
 1254SOL     OW 4660   5.528   1.039   3.688
 1254SOL    HW1 4661   5.622   1.072   3.698
 1254SOL    HW2 4662   5.479   1.099   3.624
 1255SOL     OW 4663   5.728   0.537   2.181
 1255SOL    HW1 4664   5.814   0.518   2.227
 1255SOL    HW2 4665   5.710   0.467   2.112
 1256SOL     OW 4666   5.283   3.314   3.366
 1256SOL    HW1 4667   5.252   3.256   3.291
 1256SOL    HW2 4668   5.315   3.257   3.441
 1257SOL     OW 4669   5.905   1.156   3.998
 1257SOL    HW1 4670   5.876   1.086   4.063
 1257SOL    HW2 4671   5.837   1.230   3.996
 1258SOL     OW 4672   0.058   5.223   4.003
 1258SOL    HW1 4673   0.024   5.216   3.909
 1258SOL    HW2 4674   0.137   5.163   4.014
 1259SOL     OW 4675   5.450   2.068   4.680
 1259SOL    HW1 4676   5.423   1.989   4.736
 1259SOL    HW2 4677   5.426   2.152   4.727
 1260SOL     OW 4678   0.444   1.795   4.619
 1260SOL    HW1 4679   0.487   1.806   4.709
 1260SOL    HW2 4680   0.511   1.763   4.553
 1261SOL     OW 4681   6.772   3.297   1.049
 1261SOL    HW1 4682   6.679   3.263   1.062
 1261SOL    HW2 4683   6.834   3.220   1.030
 1262SOL     OW 4684   5.215   6.242   2.093
 1262SOL    HW1 4685   5.262   6.154   2.100
 1262SOL    HW2 4686   5.267   6.311   2.144
 1263SOL     OW 4687   1.165   2.081   2.906
 1263SOL    HW1 4688   1.245   2.043   2.860
 1263SOL    HW2 4689   1.175   2.180   2.914
 1264SOL     OW 4690   0.952   3.163   5.213
 1264SOL    HW1 4691   1.035   3.109   5.223
 1264SOL    HW2 4692   0.886   3.112   5.157
 1265SOL     OW 4693   6.627   0.717   5.843
 1265SOL    HW1 4694   6.684   0.762   5.775
 1265SOL    HW2 4695   6.635   0.764   5.931
 1266SOL     OW 4696   3.582   1.521   5.631
 1266SOL    HW1 4697   3.531   1.514   5.545
 1266SOL    HW2 4698   3.645   1.598   5.626
 1267SOL     OW 4699   3.097   1.166   2.200
 1267SOL    HW1 4700   3.113   1.130   2.108
 1267SOL    HW2 4701   3.128   1.261   2.205
 1268SOL     OW 4702   4.317   2.303   5.314
 1268SOL    HW1 4703   4.305   2.235   5.387
 1268SOL    HW2 4704   4.238   2.365   5.313
 1269SOL     OW 4705   5.630   2.051   3.403
 1269SOL    HW1 4706   5.723   2.063   3.438
 1269SOL    HW2 4707   5.589   1.969   3.443
 1270SOL     OW 4708   5.958   5.389   3.621
 1270SOL    HW1 4709   6.038   5.332   3.640
 1270SOL    HW2 4710   5.884   5.332   3.585
 1271SOL     OW 4711   1.414   0.157   2.162
 1271SOL    HW1 4712   1.453   0.248   2.170
 1271SOL    HW2 4713   1.378   0.144   2.069
 1272SOL     OW 4714   6.677   2.077   0.411
 1272SOL    HW1 4715   6.709   2.132   0.488
 1272SOL    HW2 4716   6.709   1.983   0.422
 1273SOL     OW 4717   2.295   4.264   5.307
 1273SOL    HW1 4718   2.266   4.355   5.336
 1273SOL    HW2 4719   2.392   4.251   5.331
 1274SOL     OW 4720   6.977   4.670   4.516
 1274SOL    HW1 4721   6.912   4.595   4.531
 1274SOL    HW2 4722   0.004   4.690   4.602
 1275SOL     OW 4723   1.691   1.154   2.809
 1275SOL    HW1 4724   1.762   1.215   2.843
 1275SOL    HW2 4725   1.718   1.118   2.719
 1276SOL     OW 4726   5.719   4.192   3.678
 1276SOL    HW1 4727   5.673   4.252   3.612
 1276SOL    HW2 4728   5.685   4.211   3.770
 1277SOL     OW 4729   1.502   6.299   6.304
 1277SOL    HW1 4730   1.433   6.365   6.334
 1277SOL    HW2 4731   1.586   6.311   6.357
 1278SOL     OW 4732   0.259   6.403   2.762
 1278SOL    HW1 4733   0.301   6.492   2.744
 1278SOL    HW2 4734   0.235   6.360   2.674
 1279SOL     OW 4735   3.174   3.043   0.587
 1279SOL    HW1 4736   3.203   3.118   0.527
 1279SOL    HW2 4737   3.167   3.076   0.681
 1280SOL     OW 4738   2.813   2.188   3.418
 1280SOL    HW1 4739   2.885   2.204   3.351
 1280SOL    HW2 4740   2.728   2.230   3.386
 1281SOL     OW 4741   5.519   6.013   5.503
 1281SOL    HW1 4742   5.437   5.956   5.503
 1281SOL    HW2 4743   5.574   5.993   5.584
 1282SOL     OW 4744   1.226   2.483   1.169
 1282SOL    HW1 4745   1.260   2.512   1.258
 1282SOL    HW2 4746   1.190   2.391   1.175
 1283SOL     OW 4747   1.411   0.702   4.103
 1283SOL    HW1 4748   1.412   0.664   4.195
 1283SOL    HW2 4749   1.383   0.632   4.038
 1284SOL     OW 4750   3.883   2.326   1.713
 1284SOL    HW1 4751   3.795   2.324   1.761
 1284SOL    HW2 4752   3.913   2.421   1.702
 1285SOL     OW 4753   4.116   1.336   4.720
 1285SOL    HW1 4754   4.021   1.306   4.714
 1285SOL    HW2 4755   4.123   1.431   4.688
 1286SOL     OW 4756   4.960   1.159   2.184
 1286SOL    HW1 4757   5.018   1.130   2.107
 1286SOL    HW2 4758   4.865   1.164   2.153
 1287SOL     OW 4759   5.294   4.979   6.672
 1287SOL    HW1 4760   5.392   4.998   6.679
 1287SOL    HW2 4761   5.265   4.988   6.577
 1288SOL     OW 4762   4.654   4.599   6.039
 1288SOL    HW1 4763   4.662   4.501   6.022
 1288SOL    HW2 4764   4.676   4.618   6.135
 1289SOL     OW 4765   1.202   6.633   0.702
 1289SOL    HW1 4766   1.212   6.638   0.802
 1289SOL    HW2 4767   1.228   6.542   0.670
 1290SOL     OW 4768   1.165   6.655   4.133
 1290SOL    HW1 4769   1.171   6.687   4.228
 1290SOL    HW2 4770   1.238   6.589   4.115
 1291SOL     OW 4771   5.461   5.516   3.220
 1291SOL    HW1 4772   5.407   5.432   3.216
 1291SOL    HW2 4773   5.417   5.581   3.282
 1292SOL     OW 4774   0.156   6.776   2.916
 1292SOL    HW1 4775   0.229   6.782   2.848
 1292SOL    HW2 4776   0.186   6.820   3.001
 1293SOL     OW 4777   5.064   0.165   0.708
 1293SOL    HW1 4778   5.008   0.248   0.710
 1293SOL    HW2 4779   5.005   0.085   0.711
 1294SOL     OW 4780   2.238   4.480   5.470
 1294SOL    HW1 4781   2.173   4.441   5.535
 1294SOL    HW2 4782   2.327   4.493   5.514
 1295SOL     OW 4783   0.068   4.766   0.172
 1295SOL    HW1 4784   0.146   4.829   0.166
 1295SOL    HW2 4785   0.102   4.671   0.174
 1296SOL     OW 4786   3.938   0.839   5.863
 1296SOL    HW1 4787   3.972   0.748   5.839
 1296SOL    HW2 4788   3.891   0.879   5.784
 1297SOL     OW 4789   6.371   6.791   6.824
 1297SOL    HW1 4790   6.333   6.768   6.913
 1297SOL    HW2 4791   6.471   6.787   6.828
 1298SOL     OW 4792   4.956   0.308   3.278
 1298SOL    HW1 4793   5.017   0.357   3.216
 1298SOL    HW2 4794   4.949   0.358   3.364
 1299SOL     OW 4795   1.006   4.891   4.985
 1299SOL    HW1 4796   1.075   4.963   4.977
 1299SOL    HW2 4797   0.946   4.893   4.905
 1300SOL     OW 4798   1.454   5.477   6.997
 1300SOL    HW1 4799   1.529   5.542   6.988
 1300SOL    HW2 4800   1.415   5.457   6.907
 1301SOL     OW 4801   6.341   1.632   6.707
 1301SOL    HW1 4802   6.418   1.630   6.770
 1301SOL    HW2 4803   6.285   1.713   6.724
 1302SOL     OW 4804   6.456   6.763   4.829
 1302SOL    HW1 4805   6.487   6.730   4.918
 1302SOL    HW2 4806   6.527   6.746   4.761
 1303SOL     OW 4807   2.993   6.774   1.519
 1303SOL    HW1 4808   2.976   6.784   1.421
 1303SOL    HW2 4809   3.080   6.729   1.535
 1304SOL     OW 4810   6.765   0.676   0.430
 1304SOL    HW1 4811   6.857   0.695   0.464
 1304SOL    HW2 4812   6.745   0.579   0.439
 1305SOL     OW 4813   4.162   3.980   5.878
 1305SOL    HW1 4814   4.129   3.887   5.863
 1305SOL    HW2 4815   4.116   4.042   5.815
 1306SOL     OW 4816   2.478   6.378   4.285
 1306SOL    HW1 4817   2.543   6.358   4.211
 1306SOL    HW2 4818   2.470   6.298   4.345
 1307SOL     OW 4819   2.051   3.646   3.520
 1307SOL    HW1 4820   2.108   3.727   3.506
 1307SOL    HW2 4821   2.016   3.615   3.431
 1308SOL     OW 4822   0.858   3.752   6.154
 1308SOL    HW1 4823   0.769   3.712   6.171
 1308SOL    HW2 4824   0.924   3.680   6.132
 1309SOL     OW 4825   6.017   4.035   6.543
 1309SOL    HW1 4826   6.021   4.015   6.641
 1309SOL    HW2 4827   5.966   4.120   6.528
 1310SOL     OW 4828   2.201   2.854   3.515
 1310SOL    HW1 4829   2.190   2.945   3.474
 1310SOL    HW2 4830   2.211   2.864   3.614
 1311SOL     OW 4831   6.058   5.350   0.315
 1311SOL    HW1 4832   6.108   5.289   0.255
 1311SOL    HW2 4833   5.994   5.405   0.261
 1312SOL     OW 4834   2.334   1.235   6.498
 1312SOL    HW1 4835   2.382   1.294   6.563
 1312SOL    HW2 4836   2.286   1.162   6.547
 1313SOL     OW 4837   5.140   4.737   3.012
 1313SOL    HW1 4838   5.055   4.713   3.058
 1313SOL    HW2 4839   5.132   4.828   2.972
 1314SOL     OW 4840   2.611   1.556   3.809
 1314SOL    HW1 4841   2.628   1.648   3.772
 1314SOL    HW2 4842   2.625   1.488   3.737
 1315SOL     OW 4843   5.683   0.928   3.439
 1315SOL    HW1 4844   5.626   0.946   3.519
 1315SOL    HW2 4845   5.633   0.871   3.374
 1316SOL     OW 4846   5.248   0.451   6.263
 1316SOL    HW1 4847   5.294   0.451   6.352
 1316SOL    HW2 4848   5.202   0.364   6.249
 1317SOL     OW 4849   4.052   3.104   4.116
 1317SOL    HW1 4850   3.954   3.102   4.095
 1317SOL    HW2 4851   4.067   3.065   4.207
 1318SOL     OW 4852   1.957   1.103   6.632
 1318SOL    HW1 4853   1.908   1.049   6.701
 1318SOL    HW2 4854   2.043   1.057   6.610
 1319SOL     OW 4855   6.704   1.796   0.497
 1319SOL    HW1 4856   6.646   1.741   0.436
 1319SOL    HW2 4857   6.677   1.779   0.592
 1320SOL     OW 4858   2.652   2.909   5.972
 1320SOL    HW1 4859   2.620   2.969   6.046
 1320SOL    HW2 4860   2.576   2.891   5.909
 1321SOL     OW 4861   0.181   2.825   1.391
 1321SOL    HW1 4862   0.233   2.869   1.464
 1321SOL    HW2 4863   0.241   2.808   1.313
 1322SOL     OW 4864   2.509   2.959   0.416
 1322SOL    HW1 4865   2.419   2.933   0.450
 1322SOL    HW2 4866   2.568   2.983   0.493
 1323SOL     OW 4867   4.616   0.429   1.024
 1323SOL    HW1 4868   4.626   0.332   1.003
 1323SOL    HW2 4869   4.660   0.484   0.954
 1324SOL     OW 4870   2.218   3.808   6.083
 1324SOL    HW1 4871   2.275   3.806   6.001
 1324SOL    HW2 4872   2.275   3.820   6.164
 1325SOL     OW 4873   4.107   5.504   4.511
 1325SOL    HW1 4874   4.011   5.503   4.541
 1325SOL    HW2 4875   4.161   5.441   4.567
 1326SOL     OW 4876   3.895   1.056   4.663
 1326SOL    HW1 4877   3.986   1.061   4.622
 1326SOL    HW2 4878   3.843   1.138   4.640
 1327SOL     OW 4879   5.251   5.781   2.085
 1327SOL    HW1 4880   5.312   5.757   2.160
 1327SOL    HW2 4881   5.162   5.738   2.099
 1328SOL     OW 4882   1.499   2.006   5.519
 1328SOL    HW1 4883   1.512   2.104   5.532
 1328SOL    HW2 4884   1.408   1.980   5.550
 1329SOL     OW 4885   1.338   3.417   4.096
 1329SOL    HW1 4886   1.414   3.352   4.109
 1329SOL    HW2 4887   1.261   3.370   4.052
 1330SOL     OW 4888   6.760   3.413   2.476
 1330SOL    HW1 4889   6.692   3.341   2.461
 1330SOL    HW2 4890   6.818   3.388   2.554
 1331SOL     OW 4891   3.464   1.773   2.632
 1331SOL    HW1 4892   3.491   1.679   2.656
 1331SOL    HW2 4893   3.517   1.804   2.554
 1332SOL     OW 4894   2.263   6.172   6.634
 1332SOL    HW1 4895   2.340   6.236   6.640
 1332SOL    HW2 4896   2.282   6.106   6.560
 1333SOL     OW 4897   3.830   3.823   2.544
 1333SOL    HW1 4898   3.736   3.843   2.519
 1333SOL    HW2 4899   3.832   3.773   2.630
 1334SOL     OW 4900   0.005   4.188   1.211
 1334SOL    HW1 4901   0.079   4.153   1.153
 1334SOL    HW2 4902   0.044   4.238   1.288
 1335SOL     OW 4903   0.165   3.549   2.857
 1335SOL    HW1 4904   0.251   3.526   2.904
 1335SOL    HW2 4905   0.089   3.503   2.902
 1336SOL     OW 4906   2.233   6.206   5.957
 1336SOL    HW1 4907   2.219   6.300   5.927
 1336SOL    HW2 4908   2.257   6.149   5.879
 1337SOL     OW 4909   0.560   6.751   2.048
 1337SOL    HW1 4910   0.616   6.746   1.966
 1337SOL    HW2 4911   0.588   6.679   2.112
 1338SOL     OW 4912   0.275   4.101   5.001
 1338SOL    HW1 4913   0.188   4.149   5.010
 1338SOL    HW2 4914   0.349   4.158   5.039
 1339SOL     OW 4915   5.350   1.196   0.129
 1339SOL    HW1 4916   5.274   1.244   0.084
 1339SOL    HW2 4917   5.435   1.219   0.082
 1340SOL     OW 4918   2.493   2.811   1.010
 1340SOL    HW1 4919   2.528   2.738   0.952
 1340SOL    HW2 4920   2.450   2.771   1.091
 1341SOL     OW 4921   5.645   5.957   6.487
 1341SOL    HW1 4922   5.625   5.937   6.391
 1341SOL    HW2 4923   5.607   5.884   6.544
 1342SOL     OW 4924   1.781   5.957   1.813
 1342SOL    HW1 4925   1.779   5.918   1.905
 1342SOL    HW2 4926   1.776   5.883   1.746
 1343SOL     OW 4927   5.025   5.979   2.957
 1343SOL    HW1 4928   4.999   6.034   2.878
 1343SOL    HW2 4929   4.973   6.009   3.037
 1344SOL     OW 4930   1.100   0.648   3.611
 1344SOL    HW1 4931   1.053   0.642   3.524
 1344SOL    HW2 4932   1.102   0.558   3.655
 1345SOL     OW 4933   1.386   6.802   5.397
 1345SOL    HW1 4934   1.365   6.847   5.484
 1345SOL    HW2 4935   1.483   6.777   5.396
 1346SOL     OW 4936   2.814   5.697   3.906
 1346SOL    HW1 4937   2.913   5.712   3.900
 1346SOL    HW2 4938   2.767   5.784   3.913
 1347SOL     OW 4939   0.960   0.870   6.613
 1347SOL    HW1 4940   0.979   0.943   6.547
 1347SOL    HW2 4941   1.001   0.785   6.580
 1348SOL     OW 4942   1.704   6.855   4.886
 1348SOL    HW1 4943   1.612   6.821   4.904
 1348SOL    HW2 4944   1.726   6.843   4.789
 1349SOL     OW 4945   5.397   3.736   4.260
 1349SOL    HW1 4946   5.355   3.645   4.256
 1349SOL    HW2 4947   5.445   3.755   4.174
 1350SOL     OW 4948   5.282   4.595   6.471
 1350SOL    HW1 4949   5.217   4.522   6.449
 1350SOL    HW2 4950   5.237   4.684   6.461
 1351SOL     OW 4951   6.846   3.087   6.693
 1351SOL    HW1 4952   6.898   3.091   6.778
 1351SOL    HW2 4953   6.783   3.009   6.696
 1352SOL     OW 4954   6.775   0.910   3.230
 1352SOL    HW1 4955   6.721   0.897   3.313
 1352SOL    HW2 4956   6.738   0.989   3.179
 1353SOL     OW 4957   6.723   2.741   6.241
 1353SOL    HW1 4958   6.781   2.793   6.305
 1353SOL    HW2 4959   6.781   2.680   6.187
 1354SOL     OW 4960   4.733   4.897   2.854
 1354SOL    HW1 4961   4.743   4.997   2.849
 1354SOL    HW2 4962   4.748   4.866   2.948
 1355SOL     OW 4963   3.873   3.521   4.859
 1355SOL    HW1 4964   3.923   3.519   4.773
 1355SOL    HW2 4965   3.883   3.612   4.902
 1356SOL     OW 4966   3.062   3.349   6.733
 1356SOL    HW1 4967   3.024   3.354   6.641
 1356SOL    HW2 4968   3.141   3.288   6.732
 1357SOL     OW 4969   0.496   3.365   5.631
 1357SOL    HW1 4970   0.509   3.387   5.534
 1357SOL    HW2 4971   0.417   3.415   5.667
 1358SOL     OW 4972   2.260   6.904   6.392
 1358SOL    HW1 4973   2.182   6.877   6.448
 1358SOL    HW2 4974   2.299   6.989   6.427
 1359SOL     OW 4975   6.127   5.093   0.169
 1359SOL    HW1 4976   6.183   5.036   0.109
 1359SOL    HW2 4977   6.034   5.097   0.134
 1360SOL     OW 4978   2.469   1.736   5.788
 1360SOL    HW1 4979   2.546   1.738   5.852
 1360SOL    HW2 4980   2.468   1.649   5.740
 1361SOL     OW 4981   6.062   4.961   4.964
 1361SOL    HW1 4982   6.140   5.010   4.925
 1361SOL    HW2 4983   6.094   4.882   5.015
 1362SOL     OW 4984   3.322   3.838   3.861
 1362SOL    HW1 4985   3.323   3.928   3.904
 1362SOL    HW2 4986   3.416   3.805   3.852
 1363SOL     OW 4987   0.265   6.563   3.620
 1363SOL    HW1 4988   0.236   6.467   3.615
 1363SOL    HW2 4989   0.254   6.605   3.530
 1364SOL     OW 4990   3.665   4.566   0.015
 1364SOL    HW1 4991   3.731   4.491   0.022
 1364SOL    HW2 4992   3.579   4.538   0.056
 1365SOL     OW 4993   5.585   2.372   6.022
 1365SOL    HW1 4994   5.567   2.376   5.924
 1365SOL    HW2 4995   5.678   2.337   6.037
 1366SOL     OW 4996   1.799   0.700   4.769
 1366SOL    HW1 4997   1.776   0.791   4.802
 1366SOL    HW2 4998   1.817   0.639   4.846
 1367SOL     OW 4999   2.308   1.562   2.073
 1367SOL    HW1 5000   2.330   1.484   2.015
 1367SOL    HW2 5001   2.325   1.647   2.023
 1368SOL     OW 5002   6.267   0.708   3.489
 1368SOL    HW1 5003   6.228   0.627   3.533
 1368SOL    HW2 5004   6.313   0.681   3.405
 1369SOL     OW 5005   0.170   0.563   2.720
 1369SOL    HW1 5006   0.184   0.478   2.770
 1369SOL    HW2 5007   0.165   0.543   2.622
 1370SOL     OW 5008   1.238   1.034   2.960
 1370SOL    HW1 5009   1.240   1.050   2.861
 1370SOL    HW2 5010   1.205   0.941   2.978
 1371SOL     OW 5011   2.880   0.313   5.780
 1371SOL    HW1 5012   2.975   0.298   5.808
 1371SOL    HW2 5013   2.824   0.235   5.809
 1372SOL     OW 5014   3.029   2.005   1.331
 1372SOL    HW1 5015   3.063   1.979   1.421
 1372SOL    HW2 5016   3.098   1.984   1.262
 1373SOL     OW 5017   1.684   5.395   6.383
 1373SOL    HW1 5018   1.734   5.309   6.369
 1373SOL    HW2 5019   1.715   5.462   6.315
 1374SOL     OW 5020   5.810   3.529   4.942
 1374SOL    HW1 5021   5.750   3.466   4.991
 1374SOL    HW2 5022   5.757   3.580   4.874
 1375SOL     OW 5023   1.422   4.366   4.202
 1375SOL    HW1 5024   1.475   4.451   4.203
 1375SOL    HW2 5025   1.441   4.317   4.117
 1376SOL     OW 5026   4.964   0.335   2.198
 1376SOL    HW1 5027   5.006   0.416   2.157
 1376SOL    HW2 5028   5.023   0.300   2.270
 1377SOL     OW 5029   0.025   4.196   5.038
 1377SOL    HW1 5030   6.973   4.245   4.988
 1377SOL    HW2 5031   0.032   4.232   5.131
 1378SOL     OW 5032   2.035   1.659   0.263
 1378SOL    HW1 5033   2.054   1.671   0.166
 1378SOL    HW2 5034   1.997   1.568   0.279
 1379SOL     OW 5035   4.528   5.227   1.860
 1379SOL    HW1 5036   4.455   5.285   1.897
 1379SOL    HW2 5037   4.616   5.272   1.874
 1380SOL     OW 5038   6.297   5.171   3.053
 1380SOL    HW1 5039   6.212   5.166   3.105
 1380SOL    HW2 5040   6.374   5.154   3.115
 1381SOL     OW 5041   4.219   6.668   2.662
 1381SOL    HW1 5042   4.308   6.624   2.650
 1381SOL    HW2 5043   4.148   6.598   2.673
 1382SOL     OW 5044   0.050   4.112   0.539
 1382SOL    HW1 5045   0.138   4.108   0.493
 1382SOL    HW2 5046   7.000   4.145   0.475
 1383SOL     OW 5047   3.075   0.092   0.719
 1383SOL    HW1 5048   3.052   0.165   0.783
 1383SOL    HW2 5049   3.133   0.129   0.646
 1384SOL     OW 5050   1.304   1.221   2.329
 1384SOL    HW1 5051   1.324   1.147   2.394
 1384SOL    HW2 5052   1.371   1.218   2.254
 1385SOL     OW 5053   5.000   3.419   4.157
 1385SOL    HW1 5054   4.993   3.425   4.257
 1385SOL    HW2 5055   5.040   3.504   4.122
 1386SOL     OW 5056   2.694   2.428   3.022
 1386SOL    HW1 5057   2.613   2.486   3.009
 1386SOL    HW2 5058   2.741   2.454   3.106
 1387SOL     OW 5059   3.210   0.485   3.954
 1387SOL    HW1 5060   3.259   0.561   3.912
 1387SOL    HW2 5061   3.112   0.503   3.952
 1388SOL     OW 5062   4.763   2.342   3.587
 1388SOL    HW1 5063   4.695   2.381   3.648
 1388SOL    HW2 5064   4.846   2.320   3.639
 1389SOL     OW 5065   6.573   0.572   4.382
 1389SOL    HW1 5066   6.505   0.595   4.452
 1389SOL    HW2 5067   6.530   0.574   4.291
 1390SOL     OW 5068   5.294   2.093   2.242
 1390SOL    HW1 5069   5.227   2.046   2.185
 1390SOL    HW2 5070   5.319   2.180   2.199
 1391SOL     OW 5071   5.973   0.857   5.247
 1391SOL    HW1 5072   5.968   0.757   5.259
 1391SOL    HW2 5073   6.068   0.885   5.242
 1392SOL     OW 5074   3.161   0.133   4.780
 1392SOL    HW1 5075   3.157   0.148   4.879
 1392SOL    HW2 5076   3.245   0.085   4.757
 1393SOL     OW 5077   5.023   6.750   6.827
 1393SOL    HW1 5078   5.094   6.806   6.867
 1393SOL    HW2 5079   5.057   6.708   6.743
 1394SOL     OW 5080   4.159   1.064   4.578
 1394SOL    HW1 5081   4.183   1.066   4.481
 1394SOL    HW2 5082   4.170   1.156   4.616
 1395SOL     OW 5083   0.620   4.931   2.310
 1395SOL    HW1 5084   0.590   4.916   2.404
 1395SOL    HW2 5085   0.704   4.881   2.293
 1396SOL     OW 5086   1.292   1.857   3.424
 1396SOL    HW1 5087   1.347   1.875   3.342
 1396SOL    HW2 5088   1.278   1.759   3.434
 1397SOL     OW 5089   2.458   4.496   5.611
 1397SOL    HW1 5090   2.466   4.431   5.687
 1397SOL    HW2 5091   2.546   4.500   5.563
 1398SOL     OW 5092   3.237   6.973   6.103
 1398SOL    HW1 5093   3.264   6.890   6.153
 1398SOL    HW2 5094   3.260   6.962   6.006
 1399SOL     OW 5095   3.787   6.987   0.100
 1399SOL    HW1 5096   3.760   6.950   0.189
 1399SOL    HW2 5097   3.814   6.911   0.041
 1400SOL     OW 5098   0.619   1.961   5.667
 1400SOL    HW1 5099   0.543   2.015   5.701
 1400SOL    HW2 5100   0.590   1.865   5.658
 1401SOL     OW 5101   4.213   6.809   2.148
 1401SOL    HW1 5102   4.262   6.893   2.125
 1401SOL    HW2 5103   4.180   6.815   2.243
 1402SOL     OW 5104   4.887   3.694   2.088
 1402SOL    HW1 5105   4.861   3.785   2.056
 1402SOL    HW2 5106   4.943   3.703   2.171
 1403SOL     OW 5107   3.179   2.632   6.724
 1403SOL    HW1 5108   3.099   2.669   6.770
 1403SOL    HW2 5109   3.161   2.537   6.696
 1404SOL     OW 5110   3.686   6.089   6.604
 1404SOL    HW1 5111   3.608   6.151   6.608
 1404SOL    HW2 5112   3.660   6.006   6.555
 1405SOL     OW 5113   1.182   4.563   6.575
 1405SOL    HW1 5114   1.240   4.626   6.523
 1405SOL    HW2 5115   1.150   4.490   6.515
 1406SOL     OW 5116   1.673   2.492   0.315
 1406SOL    HW1 5117   1.713   2.441   0.392
 1406SOL    HW2 5118   1.602   2.436   0.272
 1407SOL     OW 5119   6.719   2.727   1.247
 1407SOL    HW1 5120   6.625   2.758   1.264
 1407SOL    HW2 5121   6.783   2.796   1.280
 1408SOL     OW 5122   5.755   6.012   1.209
 1408SOL    HW1 5123   5.742   6.026   1.307
 1408SOL    HW2 5124   5.849   6.035   1.184
 1409SOL     OW 5125   6.139   2.112   5.844
 1409SOL    HW1 5126   6.109   2.138   5.752
 1409SOL    HW2 5127   6.183   2.191   5.888
 1410SOL     OW 5128   3.351   0.679   0.622
 1410SOL    HW1 5129   3.391   0.675   0.530
 1410SOL    HW2 5130   3.421   0.654   0.689
 1411SOL     OW 5131   2.956   6.940   0.147
 1411SOL    HW1 5132   3.007   0.001   0.178
 1411SOL    HW2 5133   2.859   6.963   0.139
 1412SOL     OW 5134   2.115   1.354   6.360
 1412SOL    HW1 5135   2.180   1.307   6.419
 1412SOL    HW2 5136   2.113   1.452   6.384
 1413SOL     OW 5137   2.094   1.521   4.998
 1413SOL    HW1 5138   2.077   1.489   4.904
 1413SOL    HW2 5139   2.101   1.443   5.059
 1414SOL     OW 5140   0.302   5.284   2.658
 1414SOL    HW1 5141   0.217   5.325   2.690
 1414SOL    HW2 5142   0.332   5.330   2.574
 1415SOL     OW 5143   3.546   1.684   5.200
 1415SOL    HW1 5144   3.561   1.743   5.121
 1415SOL    HW2 5145   3.590   1.725   5.280
 1416SOL     OW 5146   4.205   0.555   5.216
 1416SOL    HW1 5147   4.291   0.551   5.166
 1416SOL    HW2 5148   4.190   0.647   5.251
 1417SOL     OW 5149   3.796   4.085   4.372
 1417SOL    HW1 5150   3.854   4.163   4.351
 1417SOL    HW2 5151   3.720   4.082   4.307
 1418SOL     OW 5152   3.209   3.761   5.214
 1418SOL    HW1 5153   3.273   3.829   5.178
 1418SOL    HW2 5154   3.147   3.732   5.141
 1419SOL     OW 5155   0.585   5.291   1.892
 1419SOL    HW1 5156   0.634   5.221   1.944
 1419SOL    HW2 5157   0.504   5.319   1.942
 1420SOL     OW 5158   2.358   6.831   3.746
 1420SOL    HW1 5159   2.410   6.892   3.687
 1420SOL    HW2 5160   2.378   6.736   3.723
 1421SOL     OW 5161   1.627   5.437   0.417
 1421SOL    HW1 5162   1.659   5.343   0.428
 1421SOL    HW2 5163   1.628   5.483   0.506
 1422SOL     OW 5164   1.546   3.806   6.903
 1422SOL    HW1 5165   1.489   3.884   6.877
 1422SOL    HW2 5166   1.624   3.800   6.841
 1423SOL     OW 5167   5.212   1.040   4.860
 1423SOL    HW1 5168   5.235   1.067   4.954
 1423SOL    HW2 5169   5.229   0.943   4.848
 1424SOL     OW 5170   6.623   3.873   1.840
 1424SOL    HW1 5171   6.610   3.964   1.802
 1424SOL    HW2 5172   6.541   3.818   1.824
 1425SOL     OW 5173   6.247   6.431   3.231
 1425SOL    HW1 5174   6.220   6.418   3.135
 1425SOL    HW2 5175   6.178   6.486   3.278
 1426SOL     OW 5176   3.911   0.740   1.068
 1426SOL    HW1 5177   3.923   0.654   1.118
 1426SOL    HW2 5178   3.815   0.767   1.072
 1427SOL     OW 5179   1.395   1.235   3.798
 1427SOL    HW1 5180   1.471   1.170   3.801
 1427SOL    HW2 5181   1.341   1.220   3.715
 1428SOL     OW 5182   2.170   4.044   3.964
 1428SOL    HW1 5183   2.158   3.958   4.013
 1428SOL    HW2 5184   2.211   4.112   4.024
 1429SOL     OW 5185   5.833   0.496   1.231
 1429SOL    HW1 5186   5.863   0.584   1.194
 1429SOL    HW2 5187   5.881   0.477   1.316
 1430SOL     OW 5188   2.088   3.984   4.311
 1430SOL    HW1 5189   2.174   4.033   4.321
 1430SOL    HW2 5190   2.097   3.912   4.242
 1431SOL     OW 5191   3.558   1.770   0.655
 1431SOL    HW1 5192   3.609   1.685   0.640
 1431SOL    HW2 5193   3.603   1.823   0.728
 1432SOL     OW 5194   3.184   0.283   2.390
 1432SOL    HW1 5195   3.186   0.382   2.375
 1432SOL    HW2 5196   3.195   0.236   2.302
 1433SOL     OW 5197   3.533   1.476   3.841
 1433SOL    HW1 5198   3.498   1.547   3.781
 1433SOL    HW2 5199   3.519   1.503   3.936
 1434SOL     OW 5200   6.096   3.818   0.961
 1434SOL    HW1 5201   6.044   3.870   0.893
 1434SOL    HW2 5202   6.190   3.805   0.930
 1435SOL     OW 5203   0.052   6.481   4.234
 1435SOL    HW1 5204   7.017   6.553   4.191
 1435SOL    HW2 5205   7.019   6.439   4.308
 1436SOL     OW 5206   5.848   0.715   0.101
 1436SOL    HW1 5207   5.940   0.688   0.075
 1436SOL    HW2 5208   5.829   0.807   0.066
 1437SOL     OW 5209   4.205   0.729   0.197
 1437SOL    HW1 5210   4.302   0.703   0.200
 1437SOL    HW2 5211   4.195   0.823   0.227
 1438SOL     OW 5212   2.817   6.765   3.321
 1438SOL    HW1 5213   2.721   6.739   3.310
 1438SOL    HW2 5214   2.874   6.682   3.322
 1439SOL     OW 5215   6.670   5.189   4.831
 1439SOL    HW1 5216   6.599   5.241   4.785
 1439SOL    HW2 5217   6.628   5.120   4.891
 1440SOL     OW 5218   3.520   3.021   2.645
 1440SOL    HW1 5219   3.474   3.108   2.666
 1440SOL    HW2 5220   3.504   2.956   2.720
 1441SOL     OW 5221   0.493   2.226   6.346
 1441SOL    HW1 5222   0.545   2.296   6.395
 1441SOL    HW2 5223   0.425   2.269   6.287
 1442SOL     OW 5224   5.530   6.002   0.097
 1442SOL    HW1 5225   5.562   6.046   0.181
 1442SOL    HW2 5226   5.594   6.021   0.023
 1443SOL     OW 5227   1.812   3.148   4.195
 1443SOL    HW1 5228   1.890   3.096   4.229
 1443SOL    HW2 5229   1.732   3.131   4.252
 1444SOL     OW 5230   4.519   6.649   4.814
 1444SOL    HW1 5231   4.538   6.654   4.716
 1444SOL    HW2 5232   4.570   6.721   4.862
 1445SOL     OW 5233   0.052   2.157   0.441
 1445SOL    HW1 5234   0.077   2.219   0.367
 1445SOL    HW2 5235   0.011   2.074   0.403
 1446SOL     OW 5236   3.026   5.891   2.385
 1446SOL    HW1 5237   3.003   5.796   2.406
 1446SOL    HW2 5238   2.963   5.953   2.432
 1447SOL     OW 5239   6.537   0.825   4.823
 1447SOL    HW1 5240   6.510   0.889   4.752
 1447SOL    HW2 5241   6.618   0.774   4.793
 1448SOL     OW 5242   5.181   1.417   0.490
 1448SOL    HW1 5243   5.196   1.512   0.463
 1448SOL    HW2 5244   5.142   1.367   0.413
 1449SOL     OW 5245   4.805   5.787   0.533
 1449SOL    HW1 5246   4.784   5.823   0.624
 1449SOL    HW2 5247   4.742   5.712   0.512
 1450SOL     OW 5248   5.587   1.470   3.695
 1450SOL    HW1 5249   5.547   1.550   3.740
 1450SOL    HW2 5250   5.593   1.395   3.761
 1451SOL     OW 5251   0.056   6.795   2.442
 1451SOL    HW1 5252   0.098   6.756   2.359
 1451SOL    HW2 5253   6.992   6.744   2.463
 1452SOL     OW 5254   1.874   0.333   5.993
 1452SOL    HW1 5255   1.880   0.236   6.016
 1452SOL    HW2 5256   1.843   0.384   6.072
 1453SOL     OW 5257   5.951   4.361   4.102
 1453SOL    HW1 5258   6.003   4.278   4.124
 1453SOL    HW2 5259   5.893   4.385   4.180
 1454SOL     OW 5260   5.912   4.397   1.545
 1454SOL    HW1 5261   5.996   4.383   1.598
 1454SOL    HW2 5262   5.917   4.486   1.499
 1455SOL     OW 5263   1.866   1.758   2.157
 1455SOL    HW1 5264   1.934   1.821   2.195
 1455SOL    HW2 5265   1.831   1.699   2.230
 1456SOL     OW 5266   5.348   5.035   4.885
 1456SOL    HW1 5267   5.253   5.065   4.885
 1456SOL    HW2 5268   5.362   4.968   4.958
 1457SOL     OW 5269   2.137   1.696   4.304
 1457SOL    HW1 5270   2.122   1.628   4.232
 1457SOL    HW2 5271   2.079   1.676   4.382
 1458SOL     OW 5272   6.831   5.331   0.211
 1458SOL    HW1 5273   6.784   5.249   0.179
 1458SOL    HW2 5274   6.816   5.342   0.309
 1459SOL     OW 5275   3.114   7.013   1.657
 1459SOL    HW1 5276   3.060   0.048   1.721
 1459SOL    HW2 5277   3.056   6.942   1.618
 1460SOL     OW 5278   0.611   1.592   6.548
 1460SOL    HW1 5279   0.576   1.534   6.622
 1460SOL    HW2 5280   0.710   1.584   6.544
 1461SOL     OW 5281   4.970   4.044   2.704
 1461SOL    HW1 5282   4.917   4.050   2.788
 1461SOL    HW2 5283   4.918   3.991   2.636
 1462SOL     OW 5284   5.654   0.279   5.544
 1462SOL    HW1 5285   5.608   0.259   5.457
 1462SOL    HW2 5286   5.743   0.320   5.527
 1463SOL     OW 5287   1.017   2.435   5.798
 1463SOL    HW1 5288   1.028   2.383   5.883
 1463SOL    HW2 5289   0.920   2.438   5.773
 1464SOL     OW 5290   0.803   0.773   1.078
 1464SOL    HW1 5291   0.717   0.747   1.034
 1464SOL    HW2 5292   0.878   0.721   1.039
 1465SOL     OW 5293   2.112   1.191   3.781
 1465SOL    HW1 5294   2.046   1.122   3.751
 1465SOL    HW2 5295   2.072   1.282   3.770
 1466SOL     OW 5296   5.736   5.807   4.539
 1466SOL    HW1 5297   5.790   5.852   4.467
 1466SOL    HW2 5298   5.658   5.864   4.563
 1467SOL     OW 5299   0.703   4.400   4.621
 1467SOL    HW1 5300   0.672   4.310   4.650
 1467SOL    HW2 5301   0.631   4.444   4.567
 1468SOL     OW 5302   4.441   0.176   2.376
 1468SOL    HW1 5303   4.488   0.091   2.396
 1468SOL    HW2 5304   4.464   0.245   2.445
 1469SOL     OW 5305   6.469   0.401   2.267
 1469SOL    HW1 5306   6.503   0.393   2.360
 1469SOL    HW2 5307   6.415   0.320   2.244
 1470SOL     OW 5308   0.213   0.476   2.474
 1470SOL    HW1 5309   0.208   0.383   2.439
 1470SOL    HW2 5310   0.162   0.538   2.414
 1471SOL     OW 5311   6.167   1.065   1.165
 1471SOL    HW1 5312   6.205   1.139   1.221
 1471SOL    HW2 5313   6.107   1.007   1.221
 1472SOL     OW 5314   4.494   5.083   4.601
 1472SOL    HW1 5315   4.429   5.077   4.677
 1472SOL    HW2 5316   4.452   5.046   4.519
 1473SOL     OW 5317   0.247   3.145   4.087
 1473SOL    HW1 5318   0.346   3.151   4.100
 1473SOL    HW2 5319   0.222   3.051   4.061
 1474SOL     OW 5320   4.947   6.101   2.723
 1474SOL    HW1 5321   4.972   6.062   2.634
 1474SOL    HW2 5322   4.891   6.183   2.709
 1475SOL     OW 5323   6.441   6.855   2.986
 1475SOL    HW1 5324   6.461   6.831   3.081
 1475SOL    HW2 5325   6.377   6.790   2.947
 1476SOL     OW 5326   1.046   2.237   0.894
 1476SOL    HW1 5327   1.008   2.146   0.875
 1476SOL    HW2 5328   1.092   2.236   0.983
 1477SOL     OW 5329   2.445   6.373   4.666
 1477SOL    HW1 5330   2.486   6.289   4.702
 1477SOL    HW2 5331   2.358   6.350   4.620
 1478SOL     OW 5332   0.309   4.203   1.147
 1478SOL    HW1 5333   0.318   4.300   1.172
 1478SOL    HW2 5334   0.400   4.165   1.131
 1479SOL     OW 5335   1.061   4.922   0.228
 1479SOL    HW1 5336   1.013   4.988   0.171
 1479SOL    HW2 5337   1.108   4.970   0.302
 1480SOL     OW 5338   3.355   0.707   6.849
 1480SOL    HW1 5339   3.279   0.718   6.786
 1480SOL    HW2 5340   3.327   0.648   6.925
 1481SOL     OW 5341   0.175   3.008   0.897
 1481SOL    HW1 5342   0.132   3.097   0.888
 1481SOL    HW2 5343   0.274   3.018   0.890
 1482SOL     OW 5344   5.726   0.608   5.848
 1482SOL    HW1 5345   5.808   0.585   5.795
 1482SOL    HW2 5346   5.746   0.601   5.946
 1483SOL     OW 5347   0.278   2.707   1.098
 1483SOL    HW1 5348   0.362   2.759   1.114
 1483SOL    HW2 5349   0.207   2.769   1.066
 1484SOL     OW 5350   6.167   7.000   3.423
 1484SOL    HW1 5351   6.080   6.978   3.379
 1484SOL    HW2 5352   6.151   0.048   3.495
 1485SOL     OW 5353   5.691   3.505   4.326
 1485SOL    HW1 5354   5.617   3.490   4.392
 1485SOL    HW2 5355   5.758   3.568   4.366
 1486SOL     OW 5356   4.919   2.916   1.588
 1486SOL    HW1 5357   4.996   2.889   1.645
 1486SOL    HW2 5358   4.946   2.915   1.492
 1487SOL     OW 5359   0.761   6.785   5.574
 1487SOL    HW1 5360   0.672   6.757   5.538
 1487SOL    HW2 5361   0.750   6.817   5.669
 1488SOL     OW 5362   4.628   2.169   3.958
 1488SOL    HW1 5363   4.668   2.259   3.944
 1488SOL    HW2 5364   4.528   2.176   3.962
 1489SOL     OW 5365   3.463   5.083   4.912
 1489SOL    HW1 5366   3.475   5.108   5.008
 1489SOL    HW2 5367   3.551   5.057   4.873
 1490SOL     OW 5368   2.884   3.104   0.453
 1490SOL    HW1 5369   2.976   3.071   0.432
 1490SOL    HW2 5370   2.887   3.161   0.535
 1491SOL     OW 5371   1.226   1.979   3.923
 1491SOL    HW1 5372   1.127   1.965   3.929
 1491SOL    HW2 5373   1.262   1.928   3.845
 1492SOL     OW 5374   6.831   2.022   1.470
 1492SOL    HW1 5375   6.757   2.073   1.425
 1492SOL    HW2 5376   6.801   1.929   1.488
 1493SOL     OW 5377   6.654   3.188   5.231
 1493SOL    HW1 5378   6.750   3.163   5.243
 1493SOL    HW2 5379   6.603   3.169   5.315
 1494SOL     OW 5380   5.171   1.865   3.911
 1494SOL    HW1 5381   5.189   1.929   3.985
 1494SOL    HW2 5382   5.105   1.906   3.847
 1495SOL     OW 5383   1.688   3.703   1.346
 1495SOL    HW1 5384   1.669   3.658   1.434
 1495SOL    HW2 5385   1.775   3.751   1.352
 1496SOL     OW 5386   0.453   0.399   2.627
 1496SOL    HW1 5387   0.426   0.307   2.653
 1496SOL    HW2 5388   0.372   0.452   2.602
 1497SOL     OW 5389   5.552   4.554   5.822
 1497SOL    HW1 5390   5.509   4.602   5.745
 1497SOL    HW2 5391   5.648   4.583   5.829
 1498SOL     OW 5392   3.373   5.483   6.964
 1498SOL    HW1 5393   3.304   5.541   6.921
 1498SOL    HW2 5394   3.392   5.404   6.905
 1499SOL     OW 5395   1.748   4.166   4.075
 1499SOL    HW1 5396   1.660   4.137   4.039
 1499SOL    HW2 5397   1.757   4.265   4.068
 1500SOL     OW 5398   4.152   5.973   5.543
 1500SOL    HW1 5399   4.204   6.029   5.606
 1500SOL    HW2 5400   4.179   5.994   5.449
 1501SOL     OW 5401   3.678   0.531   1.266
 1501SOL    HW1 5402   3.751   0.519   1.198
 1501SOL    HW2 5403   3.600   0.475   1.242
 1502SOL     OW 5404   0.177   0.871   6.822
 1502SOL    HW1 5405   0.134   0.947   6.774
 1502SOL    HW2 5406   0.106   0.811   6.858
 1503SOL     OW 5407   3.687   3.614   5.115
 1503SOL    HW1 5408   3.668   3.524   5.152
 1503SOL    HW2 5409   3.626   3.631   5.037
 1504SOL     OW 5410   3.122   0.013   3.457
 1504SOL    HW1 5411   3.034   0.048   3.487
 1504SOL    HW2 5412   3.164   6.979   3.530
 1505SOL     OW 5413   5.625   6.545   3.279
 1505SOL    HW1 5414   5.568   6.477   3.323
 1505SOL    HW2 5415   5.567   6.614   3.235
 1506SOL     OW 5416   6.939   6.813   4.271
 1506SOL    HW1 5417   6.998   6.762   4.334
 1506SOL    HW2 5418   6.937   6.909   4.298
 1507SOL     OW 5419   1.991   1.863   6.579
 1507SOL    HW1 5420   1.933   1.789   6.614
 1507SOL    HW2 5421   1.933   1.937   6.544
 1508SOL     OW 5422   4.376   6.594   0.682
 1508SOL    HW1 5423   4.391   6.498   0.707
 1508SOL    HW2 5424   4.457   6.647   0.704
 1509SOL     OW 5425   5.270   1.790   6.763
 1509SOL    HW1 5426   5.213   1.782   6.845
 1509SOL    HW2 5427   5.366   1.793   6.789
 1510SOL     OW 5428   6.519   1.518   1.924
 1510SOL    HW1 5429   6.558   1.602   1.963
 1510SOL    HW2 5430   6.419   1.522   1.928
 1511SOL     OW 5431   0.382   2.471   0.771
 1511SOL    HW1 5432   0.440   2.435   0.844
 1511SOL    HW2 5433   0.287   2.446   0.788
 1512SOL     OW 5434   0.357   0.742   2.717
 1512SOL    HW1 5435   0.412   0.738   2.800
 1512SOL    HW2 5436   0.280   0.678   2.726
 1513SOL     OW 5437   2.473   0.695   2.810
 1513SOL    HW1 5438   2.550   0.634   2.829
 1513SOL    HW2 5439   2.482   0.777   2.866
 1514SOL     OW 5440   4.760   0.274   5.865
 1514SOL    HW1 5441   4.856   0.287   5.889
 1514SOL    HW2 5442   4.711   0.239   5.945
 1515SOL     OW 5443   5.532   5.233   5.636
 1515SOL    HW1 5444   5.485   5.204   5.552
 1515SOL    HW2 5445   5.629   5.248   5.616
 1516SOL     OW 5446   5.880   1.766   2.516
 1516SOL    HW1 5447   5.863   1.789   2.420
 1516SOL    HW2 5448   5.950   1.695   2.522
 1517SOL     OW 5449   3.438   4.979   1.631
 1517SOL    HW1 5450   3.508   5.019   1.571
 1517SOL    HW2 5451   3.442   4.880   1.626
 1518SOL     OW 5452   1.094   4.920   1.172
 1518SOL    HW1 5453   1.006   4.876   1.154
 1518SOL    HW2 5454   1.150   4.859   1.228
 1519SOL     OW 5455   0.646   4.359   1.229
 1519SOL    HW1 5456   0.709   4.296   1.185
 1519SOL    HW2 5457   0.696   4.420   1.290
 1520SOL     OW 5458   1.585   4.175   2.923
 1520SOL    HW1 5459   1.660   4.109   2.917
 1520SOL    HW2 5460   1.617   4.266   2.896
 1521SOL     OW 5461   1.997   5.855   5.503
 1521SOL    HW1 5462   1.929   5.913   5.458
 1521SOL    HW2 5463   2.015   5.774   5.446
 1522SOL     OW 5464   1.631   2.201   5.937
 1522SOL    HW1 5465   1.679   2.161   5.859
 1522SOL    HW2 5466   1.676   2.287   5.963
 1523SOL     OW 5467   5.710   0.921   1.519
 1523SOL    HW1 5468   5.672   0.946   1.430
 1523SOL    HW2 5469   5.671   0.981   1.589
 1524SOL     OW 5470   0.752   1.827   0.796
 1524SOL    HW1 5471   0.761   1.744   0.741
 1524SOL    HW2 5472   0.758   1.804   0.893
 1525SOL     OW 5473   5.466   1.428   5.024
 1525SOL    HW1 5474   5.543   1.491   5.022
 1525SOL    HW2 5475   5.427   1.425   5.115
 1526SOL     OW 5476   5.237   2.507   0.767
 1526SOL    HW1 5477   5.245   2.434   0.835
 1526SOL    HW2 5478   5.188   2.584   0.807
 1527SOL     OW 5479   2.139   0.271   5.170
 1527SOL    HW1 5480   2.163   0.184   5.127
 1527SOL    HW2 5481   2.192   0.345   5.127
 1528SOL     OW 5482   4.713   5.882   3.212
 1528SOL    HW1 5483   4.703   5.970   3.167
 1528SOL    HW2 5484   4.730   5.896   3.309
 1529SOL     OW 5485   1.677   6.789   5.378
 1529SOL    HW1 5486   1.760   6.793   5.322
 1529SOL    HW2 5487   1.701   6.759   5.471
 1530SOL     OW 5488   3.653   6.692   1.558
 1530SOL    HW1 5489   3.707   6.683   1.474
 1530SOL    HW2 5490   3.583   6.762   1.546
 1531SOL     OW 5491   5.595   1.415   6.765
 1531SOL    HW1 5492   5.594   1.369   6.676
 1531SOL    HW2 5493   5.674   1.475   6.771
 1532SOL     OW 5494   3.040   1.108   5.189
 1532SOL    HW1 5495   2.992   1.173   5.248
 1532SOL    HW2 5496   3.035   1.141   5.094
 1533SOL     OW 5497   4.624   3.220   0.807
 1533SOL    HW1 5498   4.530   3.254   0.811
 1533SOL    HW2 5499   4.623   3.122   0.786
 1534SOL     OW 5500   6.753   0.413   0.474
 1534SOL    HW1 5501   6.703   0.336   0.434
 1534SOL    HW2 5502   6.774   0.392   0.569
 1535SOL     OW 5503   4.556   4.405   4.382
 1535SOL    HW1 5504   4.538   4.479   4.317
 1535SOL    HW2 5505   4.616   4.338   4.340
 1536SOL     OW 5506   2.870   6.291   3.216
 1536SOL    HW1 5507   2.937   6.224   3.183
 1536SOL    HW2 5508   2.838   6.347   3.140
 1537SOL     OW 5509   1.610   5.776   4.446
 1537SOL    HW1 5510   1.521   5.784   4.402
 1537SOL    HW2 5511   1.667   5.711   4.394
 1538SOL     OW 5512   3.329   5.923   0.027
 1538SOL    HW1 5513   3.355   5.941   6.951
 1538SOL    HW2 5514   3.386   5.978   0.088
 1539SOL     OW 5515   2.574   6.797   2.187
 1539SOL    HW1 5516   2.531   6.746   2.262
 1539SOL    HW2 5517   2.628   6.734   2.131
 1540SOL     OW 5518   6.367   0.594   5.838
 1540SOL    HW1 5519   6.317   0.627   5.918
 1540SOL    HW2 5520   6.450   0.648   5.826
 1541SOL     OW 5521   5.464   2.036   1.900
 1541SOL    HW1 5522   5.508   1.992   1.979
 1541SOL    HW2 5523   5.426   2.124   1.928
 1542SOL     OW 5524   6.869   5.125   1.462
 1542SOL    HW1 5525   6.922   5.047   1.494
 1542SOL    HW2 5526   6.777   5.094   1.435
 1543SOL     OW 5527   3.300   3.322   2.652
 1543SOL    HW1 5528   3.288   3.316   2.553
 1543SOL    HW2 5529   3.234   3.262   2.697
 1544SOL     OW 5530   3.344   3.259   1.655
 1544SOL    HW1 5531   3.340   3.339   1.596
 1544SOL    HW2 5532   3.427   3.262   1.711
 1545SOL     OW 5533   0.565   6.306   5.756
 1545SOL    HW1 5534   0.573   6.252   5.839
 1545SOL    HW2 5535   0.479   6.358   5.758
 1546SOL     OW 5536   0.558   6.511   0.842
 1546SOL    HW1 5537   0.586   6.490   0.935
 1546SOL    HW2 5538   0.470   6.558   0.843
 1547SOL     OW 5539   2.917   6.467   0.601
 1547SOL    HW1 5540   2.921   6.403   0.525
 1547SOL    HW2 5541   2.995   6.530   0.596
 1548SOL     OW 5542   6.322   4.115   3.270
 1548SOL    HW1 5543   6.305   4.073   3.181
 1548SOL    HW2 5544   6.287   4.054   3.342
 1549SOL     OW 5545   5.931   1.908   1.086
 1549SOL    HW1 5546   5.846   1.874   1.047
 1549SOL    HW2 5547   5.988   1.947   1.013
 1550SOL     OW 5548   2.643   5.196   2.118
 1550SOL    HW1 5549   2.641   5.266   2.189
 1550SOL    HW2 5550   2.730   5.147   2.122
 1551SOL     OW 5551   1.245   2.155   1.690
 1551SOL    HW1 5552   1.292   2.097   1.757
 1551SOL    HW2 5553   1.146   2.139   1.697
 1552SOL     OW 5554   1.652   6.220   2.218
 1552SOL    HW1 5555   1.725   6.256   2.160
 1552SOL    HW2 5556   1.576   6.285   2.220
 1553SOL     OW 5557   5.864   1.874   5.483
 1553SOL    HW1 5558   5.921   1.850   5.562
 1553SOL    HW2 5559   5.768   1.861   5.506
 1554SOL     OW 5560   2.764   3.302   0.304
 1554SOL    HW1 5561   2.802   3.215   0.336
 1554SOL    HW2 5562   2.718   3.288   0.216
 1555SOL     OW 5563   4.754   1.699   1.092
 1555SOL    HW1 5564   4.800   1.680   1.178
 1555SOL    HW2 5565   4.677   1.637   1.080
 1556SOL     OW 5566   2.676   2.319   0.657
 1556SOL    HW1 5567   2.704   2.328   0.753
 1556SOL    HW2 5568   2.703   2.229   0.623
 1557SOL     OW 5569   2.445   2.345   1.371
 1557SOL    HW1 5570   2.531   2.296   1.353
 1557SOL    HW2 5571   2.459   2.443   1.356
 1558SOL     OW 5572   4.977   2.502   0.311
 1558SOL    HW1 5573   5.035   2.577   0.281
 1558SOL    HW2 5574   4.980   2.428   0.244
 1559SOL     OW 5575   2.201   6.303   4.202
 1559SOL    HW1 5576   2.155   6.377   4.153
 1559SOL    HW2 5577   2.296   6.328   4.219
 1560SOL     OW 5578   4.753   3.622   1.399
 1560SOL    HW1 5579   4.738   3.664   1.489
 1560SOL    HW2 5580   4.794   3.532   1.411
 1561SOL     OW 5581   6.087   6.516   1.024
 1561SOL    HW1 5582   6.064   6.533   0.928
 1561SOL    HW2 5583   6.010   6.471   1.069
 1562SOL     OW 5584   2.737   0.173   2.910
 1562SOL    HW1 5585   2.682   0.090   2.900
 1562SOL    HW2 5586   2.834   0.148   2.918
 1563SOL     OW 5587   2.284   4.135   3.398
 1563SOL    HW1 5588   2.309   4.185   3.481
 1563SOL    HW2 5589   2.235   4.196   3.336
 1564SOL     OW 5590   2.034   1.746   3.026
 1564SOL    HW1 5591   1.969   1.813   2.988
 1564SOL    HW2 5592   2.097   1.792   3.088
 1565SOL     OW 5593   5.474   1.579   5.583
 1565SOL    HW1 5594   5.390   1.565   5.532
 1565SOL    HW2 5595   5.464   1.540   5.675
 1566SOL     OW 5596   1.016   3.449   3.813
 1566SOL    HW1 5597   1.025   3.392   3.732
 1566SOL    HW2 5598   1.051   3.540   3.795
 1567SOL     OW 5599   5.712   1.129   4.552
 1567SOL    HW1 5600   5.770   1.184   4.492
 1567SOL    HW2 5601   5.697   1.039   4.509
 1568SOL     OW 5602   1.656   4.708   0.875
 1568SOL    HW1 5603   1.576   4.758   0.906
 1568SOL    HW2 5604   1.727   4.711   0.946
 1569SOL     OW 5605   2.209   1.150   2.287
 1569SOL    HW1 5606   2.232   1.117   2.378
 1569SOL    HW2 5607   2.208   1.250   2.287
 1570SOL     OW 5608   2.866   5.584   6.261
 1570SOL    HW1 5609   2.799   5.642   6.214
 1570SOL    HW2 5610   2.865   5.493   6.221
 1571SOL     OW 5611   1.078   1.267   4.243
 1571SOL    HW1 5612   1.042   1.299   4.156
 1571SOL    HW2 5613   1.177   1.254   4.236
 1572SOL     OW 5614   2.403   5.423   3.509
 1572SOL    HW1 5615   2.470   5.348   3.510
 1572SOL    HW2 5616   2.402   5.465   3.418
 1573SOL     OW 5617   5.480   5.565   0.020
 1573SOL    HW1 5618   5.414   5.639   0.034
 1573SOL    HW2 5619   5.572   5.603   0.016
 1574SOL     OW 5620   0.340   2.793   3.201
 1574SOL    HW1 5621   0.312   2.826   3.291
 1574SOL    HW2 5622   0.414   2.726   3.211
 1575SOL     OW 5623   6.853   2.078   0.042
 1575SOL    HW1 5624   6.865   1.981   0.064
 1575SOL    HW2 5625   6.937   2.114   0.002
 1576SOL     OW 5626   0.685   6.105   2.801
 1576SOL    HW1 5627   0.645   6.196   2.807
 1576SOL    HW2 5628   0.646   6.047   2.872
 1577SOL     OW 5629   4.198   6.026   4.067
 1577SOL    HW1 5630   4.206   5.995   3.972
 1577SOL    HW2 5631   4.247   6.113   4.078
 1578SOL     OW 5632   5.442   1.912   1.670
 1578SOL    HW1 5633   5.495   1.957   1.597
 1578SOL    HW2 5634   5.448   1.967   1.754
 1579SOL     OW 5635   1.646   3.708   2.750
 1579SOL    HW1 5636   1.705   3.685   2.673
 1579SOL    HW2 5637   1.551   3.715   2.718
 1580SOL     OW 5638   3.219   3.615   4.074
 1580SOL    HW1 5639   3.228   3.552   3.996
 1580SOL    HW2 5640   3.276   3.696   4.058
 1581SOL     OW 5641   5.326   3.942   5.221
 1581SOL    HW1 5642   5.233   3.907   5.215
 1581SOL    HW2 5643   5.347   3.965   5.316
 1582SOL     OW 5644   3.914   5.878   3.984
 1582SOL    HW1 5645   3.818   5.890   4.007
 1582SOL    HW2 5646   3.963   5.964   4.000
 1583SOL     OW 5647   0.540   5.565   4.772
 1583SOL    HW1 5648   0.465   5.549   4.837
 1583SOL    HW2 5649   0.616   5.610   4.819
 1584SOL     OW 5650   0.438   4.522   0.089
 1584SOL    HW1 5651   0.502   4.591   0.124
 1584SOL    HW2 5652   0.377   4.564   0.021
 1585SOL     OW 5653   4.327   6.634   4.050
 1585SOL    HW1 5654   4.271   6.674   3.978
 1585SOL    HW2 5655   4.421   6.668   4.043
 1586SOL     OW 5656   2.837   5.944   3.617
 1586SOL    HW1 5657   2.886   6.031   3.620
 1586SOL    HW2 5658   2.749   5.953   3.665
 1587SOL     OW 5659   4.492   0.089   6.590
 1587SOL    HW1 5660   4.538   0.016   6.640
 1587SOL    HW2 5661   4.396   0.064   6.575
 1588SOL     OW 5662   6.363   1.670   4.142
 1588SOL    HW1 5663   6.354   1.639   4.236
 1588SOL    HW2 5664   6.300   1.747   4.126
 1589SOL     OW 5665   0.275   1.175   3.877
 1589SOL    HW1 5666   0.246   1.255   3.825
 1589SOL    HW2 5667   0.195   1.130   3.917
 1590SOL     OW 5668   5.633   0.344   3.603
 1590SOL    HW1 5669   5.673   0.281   3.536
 1590SOL    HW2 5670   5.668   0.436   3.587
 1591SOL     OW 5671   0.256   5.327   0.838
 1591SOL    HW1 5672   0.204   5.278   0.909
 1591SOL    HW2 5673   0.304   5.260   0.781
 1592SOL     OW 5674   6.796   4.459   4.529
 1592SOL    HW1 5675   6.858   4.397   4.577
 1592SOL    HW2 5676   6.703   4.422   4.532
 1593SOL     OW 5677   3.980   5.244   1.344
 1593SOL    HW1 5678   3.992   5.169   1.280
 1593SOL    HW2 5679   4.068   5.266   1.387
 1594SOL     OW 5680   5.344   0.639   3.119
 1594SOL    HW1 5681   5.292   0.690   3.051
 1594SOL    HW2 5682   5.441   0.657   3.106
 1595SOL     OW 5683   6.646   3.989   0.453
 1595SOL    HW1 5684   6.554   4.018   0.424
 1595SOL    HW2 5685   6.690   4.064   0.502
 1596SOL     OW 5686   5.190   4.284   4.068
 1596SOL    HW1 5687   5.107   4.341   4.067
 1596SOL    HW2 5688   5.245   4.307   4.148
 1597SOL     OW 5689   4.390   6.864   0.930
 1597SOL    HW1 5690   4.381   6.800   1.006
 1597SOL    HW2 5691   4.478   6.850   0.885
 1598SOL     OW 5692   0.743   5.864   6.011
 1598SOL    HW1 5693   0.764   5.921   6.091
 1598SOL    HW2 5694   0.652   5.823   6.023
 1599SOL     OW 5695   5.049   5.046   4.225
 1599SOL    HW1 5696   4.953   5.060   4.201
 1599SOL    HW2 5697   5.056   4.992   4.308
 1600SOL     OW 5698   5.325   1.151   1.583
 1600SOL    HW1 5699   5.259   1.226   1.584
 1600SOL    HW2 5700   5.335   1.116   1.490
 1601SOL     OW 5701   6.121   0.574   4.923
 1601SOL    HW1 5702   6.050   0.634   4.887
 1601SOL    HW2 5703   6.110   0.482   4.885
 1602SOL     OW 5704   3.477   5.926   3.505
 1602SOL    HW1 5705   3.538   5.931   3.426
 1602SOL    HW2 5706   3.523   5.879   3.580
 1603SOL     OW 5707   3.248   5.893   1.336
 1603SOL    HW1 5708   3.241   5.845   1.424
 1603SOL    HW2 5709   3.221   5.830   1.262
 1604SOL     OW 5710   4.459   5.472   1.622
 1604SOL    HW1 5711   4.385   5.489   1.687
 1604SOL    HW2 5712   4.546   5.470   1.672
 1605SOL     OW 5713   4.009   4.905   0.226
 1605SOL    HW1 5714   4.021   5.004   0.231
 1605SOL    HW2 5715   4.088   4.859   0.266
 1606SOL     OW 5716   4.772   5.822   4.881
 1606SOL    HW1 5717   4.807   5.877   4.805
 1606SOL    HW2 5718   4.706   5.756   4.846
 1607SOL     OW 5719   4.843   4.084   4.003
 1607SOL    HW1 5720   4.853   3.985   4.006
 1607SOL    HW2 5721   4.751   4.107   3.972
 1608SOL     OW 5722   6.479   3.182   2.834
 1608SOL    HW1 5723   6.529   3.194   2.920
 1608SOL    HW2 5724   6.463   3.271   2.791
 1609SOL     OW 5725   1.550   0.219   0.946
 1609SOL    HW1 5726   1.615   0.148   0.918
 1609SOL    HW2 5727   1.529   0.278   0.868
 1610SOL     OW 5728   5.762   5.469   1.391
 1610SOL    HW1 5729   5.723   5.453   1.300
 1610SOL    HW2 5730   5.711   5.415   1.458
 1611SOL     OW 5731   0.019   4.816   6.478
 1611SOL    HW1 5732   0.070   4.761   6.545
 1611SOL    HW2 5733   0.006   4.908   6.515
 1612SOL     OW 5734   5.343   0.886   2.303
 1612SOL    HW1 5735   5.407   0.821   2.262
 1612SOL    HW2 5736   5.273   0.836   2.354
 1613SOL     OW 5737   0.254   6.114   2.826
 1613SOL    HW1 5738   0.182   6.138   2.760
 1613SOL    HW2 5739   0.306   6.196   2.850
 1614SOL     OW 5740   6.063   1.158   5.952
 1614SOL    HW1 5741   6.089   1.127   6.044
 1614SOL    HW2 5742   6.087   1.254   5.941
 1615SOL     OW 5743   6.464   3.169   5.749
 1615SOL    HW1 5744   6.385   3.229   5.744
 1615SOL    HW2 5745   6.449   3.099   5.820
 1616SOL     OW 5746   1.190   1.597   3.468
 1616SOL    HW1 5747   1.110   1.623   3.522
 1616SOL    HW2 5748   1.199   1.497   3.469
 1617SOL     OW 5749   0.095   6.058   4.260
 1617SOL    HW1 5750   0.117   6.093   4.351
 1617SOL    HW2 5751   0.174   6.067   4.200
 1618SOL     OW 5752   2.879   5.433   2.850
 1618SOL    HW1 5753   2.886   5.343   2.893
 1618SOL    HW2 5754   2.905   5.504   2.916
 1619SOL     OW 5755   0.647   3.553   6.135
 1619SOL    HW1 5756   0.726   3.523   6.082
 1619SOL    HW2 5757   0.563   3.519   6.092
 1620SOL     OW 5758   2.556   0.153   4.750
 1620SOL    HW1 5759   2.511   0.242   4.739
 1620SOL    HW2 5760   2.491   0.080   4.734
 1621SOL     OW 5761   5.978   4.762   0.729
 1621SOL    HW1 5762   6.050   4.743   0.662
 1621SOL    HW2 5763   5.970   4.684   0.792
 1622SOL     OW 5764   6.565   3.277   3.087
 1622SOL    HW1 5765   6.488   3.341   3.082
 1622SOL    HW2 5766   6.544   3.206   3.154
 1623SOL     OW 5767   0.538   2.250   3.996
 1623SOL    HW1 5768   0.607   2.285   4.060
 1623SOL    HW2 5769   0.572   2.167   3.953
 1624SOL     OW 5770   4.290   3.183   0.473
 1624SOL    HW1 5771   4.356   3.257   0.482
 1624SOL    HW2 5772   4.283   3.133   0.559
 1625SOL     OW 5773   1.021   6.318   0.206
 1625SOL    HW1 5774   1.056   6.233   0.168
 1625SOL    HW2 5775   0.960   6.362   0.140
 1626SOL     OW 5776   2.590   1.721   1.780
 1626SOL    HW1 5777   2.616   1.792   1.715
 1626SOL    HW2 5778   2.636   1.736   1.867
 1627SOL     OW 5779   4.538   0.989   5.567
 1627SOL    HW1 5780   4.531   0.982   5.468
 1627SOL    HW2 5781   4.616   0.934   5.598
 1628SOL     OW 5782   5.652   5.653   1.107
 1628SOL    HW1 5783   5.580   5.698   1.159
 1628SOL    HW2 5784   5.681   5.712   1.032
 1629SOL     OW 5785   1.696   6.334   2.837
 1629SOL    HW1 5786   1.606   6.373   2.854
 1629SOL    HW2 5787   1.695   6.284   2.750
 1630SOL     OW 5788   0.448   4.957   6.269
 1630SOL    HW1 5789   0.442   4.858   6.253
 1630SOL    HW2 5790   0.535   4.978   6.314
 1631SOL     OW 5791   5.228   4.393   6.869
 1631SOL    HW1 5792   5.219   4.472   6.929
 1631SOL    HW2 5793   5.209   4.310   6.921
 1632SOL     OW 5794   6.165   5.740   2.325
 1632SOL    HW1 5795   6.185   5.771   2.418
 1632SOL    HW2 5796   6.142   5.642   2.327
 1633SOL     OW 5797   0.036   3.754   4.853
 1633SOL    HW1 5798   7.016   3.821   4.915
 1633SOL    HW2 5799   0.128   3.783   4.827
 1634SOL     OW 5800   1.223   4.020   6.050
 1634SOL    HW1 5801   1.225   4.062   5.960
 1634SOL    HW2 5802   1.315   4.020   6.089
 1635SOL     OW 5803   2.526   1.228   3.922
 1635SOL    HW1 5804   2.454   1.286   3.885
 1635SOL    HW2 5805   2.496   1.190   4.010
 1636SOL     OW 5806   6.896   6.188   1.668
 1636SOL    HW1 5807   6.956   6.200   1.748
 1636SOL    HW2 5808   6.869   6.278   1.634
 1637SOL     OW 5809   1.171   1.277   1.810
 1637SOL    HW1 5810   1.162   1.213   1.887
 1637SOL    HW2 5811   1.212   1.362   1.843
 1638SOL     OW 5812   5.257   2.155   3.420
 1638SOL    HW1 5813   5.182   2.144   3.485
 1638SOL    HW2 5814   5.323   2.081   3.433
 1639SOL     OW 5815   5.266   2.014   1.031
 1639SOL    HW1 5816   5.185   2.058   1.070
 1639SOL    HW2 5817   5.346   2.038   1.085
 1640SOL     OW 5818   6.213   1.124   6.549
 1640SOL    HW1 5819   6.277   1.177   6.494
 1640SOL    HW2 5820   6.204   1.032   6.509
 1641SOL     OW 5821   5.797   1.484   2.205
 1641SOL    HW1 5822   5.786   1.430   2.121
 1641SOL    HW2 5823   5.786   1.424   2.284
 1642SOL     OW 5824   0.019   3.105   6.478
 1642SOL    HW1 5825   6.988   3.103   6.564
 1642SOL    HW2 5826   7.015   3.187   6.426
 1643SOL     OW 5827   2.132   5.475   4.551
 1643SOL    HW1 5828   2.072   5.479   4.470
 1643SOL    HW2 5829   2.224   5.502   4.525
 1644SOL     OW 5830   5.799   1.728   0.929
 1644SOL    HW1 5831   5.838   1.753   0.841
 1644SOL    HW2 5832   5.704   1.759   0.933
 1645SOL     OW 5833   2.528   0.902   3.962
 1645SOL    HW1 5834   2.621   0.916   3.996
 1645SOL    HW2 5835   2.463   0.932   4.031
 1646SOL     OW 5836   6.742   5.688   1.800
 1646SOL    HW1 5837   6.824   5.643   1.766
 1646SOL    HW2 5838   6.737   5.781   1.764
 1647SOL     OW 5839   6.764   3.707   5.394
 1647SOL    HW1 5840   6.697   3.658   5.451
 1647SOL    HW2 5841   6.733   3.705   5.299
 1648SOL     OW 5842   5.893   6.141   2.168
 1648SOL    HW1 5843   5.964   6.161   2.101
 1648SOL    HW2 5844   5.808   6.118   2.120
 1649SOL     OW 5845   3.853   0.854   3.253
 1649SOL    HW1 5846   3.782   0.925   3.257
 1649SOL    HW2 5847   3.813   0.769   3.218
 1650SOL     OW 5848   2.466   2.068   4.850
 1650SOL    HW1 5849   2.446   2.156   4.807
 1650SOL    HW2 5850   2.505   2.006   4.783
 1651SOL     OW 5851   1.581   2.510   3.902
 1651SOL    HW1 5852   1.562   2.501   4.000
 1651SOL    HW2 5853   1.499   2.544   3.855
 1652SOL     OW 5854   0.121   4.140   1.632
 1652SOL    HW1 5855   0.134   4.045   1.602
 1652SOL    HW2 5856   0.025   4.155   1.656
 1653SOL     OW 5857   6.256   4.200   1.959
 1653SOL    HW1 5858   6.168   4.221   1.916
 1653SOL    HW2 5859   6.246   4.118   2.016
 1654SOL     OW 5860   6.660   3.487   1.980
 1654SOL    HW1 5861   6.743   3.479   2.035
 1654SOL    HW2 5862   6.669   3.433   1.897
 1655SOL     OW 5863   6.906   0.510   5.599
 1655SOL    HW1 5864   6.954   0.550   5.520
 1655SOL    HW2 5865   6.907   0.575   5.674
 1656SOL     OW 5866   1.881   4.328   2.995
 1656SOL    HW1 5867   1.819   4.359   2.923
 1656SOL    HW2 5868   1.964   4.383   2.993
 1657SOL     OW 5869   0.804   1.478   6.202
 1657SOL    HW1 5870   0.808   1.387   6.244
 1657SOL    HW2 5871   0.781   1.545   6.273
 1658SOL     OW 5872   4.944   0.429   5.568
 1658SOL    HW1 5873   4.988   0.488   5.636
 1658SOL    HW2 5874   4.847   0.419   5.590
 1659SOL     OW 5875   2.751   0.935   6.508
 1659SOL    HW1 5876   2.674   0.996   6.489
 1659SOL    HW2 5877   2.836   0.978   6.478
 1660SOL     OW 5878   2.674   1.385   1.583
 1660SOL    HW1 5879   2.738   1.366   1.509
 1660SOL    HW2 5880   2.681   1.314   1.653
 1661SOL     OW 5881   4.701   5.081   3.284
 1661SOL    HW1 5882   4.618   5.120   3.244
 1661SOL    HW2 5883   4.740   5.014   3.221
 1662SOL     OW 5884   0.404   1.769   3.646
 1662SOL    HW1 5885   0.354   1.749   3.561
 1662SOL    HW2 5886   0.363   1.848   3.691
 1663SOL     OW 5887   6.504   3.922   1.215
 1663SOL    HW1 5888   6.600   3.945   1.201
 1663SOL    HW2 5889   6.497   3.837   1.267
 1664SOL     OW 5890   1.421   1.403   6.446
 1664SOL    HW1 5891   1.492   1.364   6.505
 1664SOL    HW2 5892   1.464   1.456   6.372
 1665SOL     OW 5893   1.834   4.037   0.301
 1665SOL    HW1 5894   1.862   3.947   0.267
 1665SOL    HW2 5895   1.741   4.031   0.336
 1666SOL     OW 5896   5.581   6.297   5.440
 1666SOL    HW1 5897   5.556   6.201   5.448
 1666SOL    HW2 5898   5.557   6.345   5.524
 1667SOL     OW 5899   6.534   5.322   0.932
 1667SOL    HW1 5900   6.571   5.355   1.020
 1667SOL    HW2 5901   6.593   5.353   0.858
 1668SOL     OW 5902   6.765   3.142   1.989
 1668SOL    HW1 5903   6.709   3.218   2.022
 1668SOL    HW2 5904   6.795   3.161   1.895
 1669SOL     OW 5905   6.344   2.827   5.178
 1669SOL    HW1 5906   6.386   2.840   5.268
 1669SOL    HW2 5907   6.414   2.829   5.107
 1670SOL     OW 5908   3.016   4.339   5.326
 1670SOL    HW1 5909   2.973   4.415   5.278
 1670SOL    HW2 5910   2.991   4.253   5.280
 1671SOL     OW 5911   5.753   2.352   0.667
 1671SOL    HW1 5912   5.740   2.358   0.568
 1671SOL    HW2 5913   5.710   2.430   0.712
 1672SOL     OW 5914   0.697   1.764   1.049
 1672SOL    HW1 5915   0.598   1.756   1.061
 1672SOL    HW2 5916   0.743   1.754   1.138
 1673SOL     OW 5917   0.711   0.383   6.352
 1673SOL    HW1 5918   0.703   0.444   6.431
 1673SOL    HW2 5919   0.660   0.422   6.275
 1674SOL     OW 5920   4.715   2.908   3.314
 1674SOL    HW1 5921   4.711   2.958   3.228
 1674SOL    HW2 5922   4.809   2.910   3.349
 1675SOL     OW 5923   5.192   0.806   1.963
 1675SOL    HW1 5924   5.205   0.852   1.875
 1675SOL    HW2 5925   5.210   0.870   2.037
 1676SOL     OW 5926   1.321   2.231   3.908
 1676SOL    HW1 5927   1.271   2.255   3.825
 1676SOL    HW2 5928   1.303   2.136   3.932
 1677SOL     OW 5929   3.126   3.978   1.577
 1677SOL    HW1 5930   3.127   4.057   1.515
 1677SOL    HW2 5931   3.051   3.988   1.642
 1678SOL     OW 5932   6.809   0.327   0.713
 1678SOL    HW1 5933   6.753   0.310   0.794
 1678SOL    HW2 5934   6.878   0.396   0.734
 1679SOL     OW 5935   6.209   2.071   0.098
 1679SOL    HW1 5936   6.264   2.063   0.181
 1679SOL    HW2 5937   6.119   2.108   0.120
 1680SOL     OW 5938   5.427   1.935   3.124
 1680SOL    HW1 5939   5.335   1.971   3.109
 1680SOL    HW2 5940   5.493   1.987   3.070
 1681SOL     OW 5941   4.354   6.292   3.711
 1681SOL    HW1 5942   4.445   6.334   3.722
 1681SOL    HW2 5943   4.317   6.315   3.621
 1682SOL     OW 5944   4.292   1.711   5.295
 1682SOL    HW1 5945   4.342   1.767   5.230
 1682SOL    HW2 5946   4.352   1.686   5.371
 1683SOL     OW 5947   0.826   3.801   3.674
 1683SOL    HW1 5948   0.772   3.731   3.626
 1683SOL    HW2 5949   0.879   3.853   3.607
 1684SOL     OW 5950   3.377   5.662   1.037
 1684SOL    HW1 5951   3.302   5.712   0.992
 1684SOL    HW2 5952   3.387   5.573   0.994
 1685SOL     OW 5953   0.012   2.122   5.603
 1685SOL    HW1 5954   7.000   2.092   5.693
 1685SOL    HW2 5955   0.028   2.042   5.545
 1686SOL     OW 5956   3.412   6.111   1.206
 1686SOL    HW1 5957   3.501   6.141   1.239
 1686SOL    HW2 5958   3.375   6.042   1.268
 1687SOL     OW 5959   4.656   4.075   0.382
 1687SOL    HW1 5960   4.564   4.111   0.396
 1687SOL    HW2 5961   4.722   4.130   0.434
 1688SOL     OW 5962   3.064   0.313   2.892
 1688SOL    HW1 5963   3.004   0.355   2.824
 1688SOL    HW2 5964   3.026   0.326   2.983
 1689SOL     OW 5965   4.211   0.688   1.740
 1689SOL    HW1 5966   4.206   0.748   1.820
 1689SOL    HW2 5967   4.119   0.672   1.704
 1690SOL     OW 5968   0.022   4.592   4.187
 1690SOL    HW1 5969   0.069   4.663   4.239
 1690SOL    HW2 5970   6.964   4.632   4.137
 1691SOL     OW 5971   4.480   3.007   5.362
 1691SOL    HW1 5972   4.555   3.067   5.391
 1691SOL    HW2 5973   4.513   2.913   5.356
 1692SOL     OW 5974   5.566   5.281   2.828
 1692SOL    HW1 5975   5.601   5.198   2.784
 1692SOL    HW2 5976   5.640   5.327   2.877
 1693SOL     OW 5977   6.068   0.420   5.920
 1693SOL    HW1 5978   6.022   0.406   6.008
 1693SOL    HW2 5979   6.119   0.505   5.923
 1694SOL     OW 5980   4.453   1.302   6.764
 1694SOL    HW1 5981   4.371   1.273   6.713
 1694SOL    HW2 5982   4.529   1.240   6.743
 1695SOL     OW 5983   4.974   0.536   5.019
 1695SOL    HW1 5984   4.947   0.629   5.043
 1695SOL    HW2 5985   4.895   0.476   5.025
 1696SOL     OW 5986   5.263   6.828   0.842
 1696SOL    HW1 5987   5.308   6.890   0.777
 1696SOL    HW2 5988   5.332   6.771   0.887
 1697SOL     OW 5989   4.006   3.813   1.935
 1697SOL    HW1 5990   4.003   3.853   2.027
 1697SOL    HW2 5991   3.915   3.779   1.910
 1698SOL     OW 5992   4.892   1.486   1.549
 1698SOL    HW1 5993   4.973   1.541   1.568
 1698SOL    HW2 5994   4.840   1.472   1.634
 1699SOL     OW 5995   1.953   0.707   1.106
 1699SOL    HW1 5996   1.901   0.715   1.191
 1699SOL    HW2 5997   1.924   0.625   1.057
 1700SOL     OW 5998   6.063   3.121   3.075
 1700SOL    HW1 5999   6.128   3.047   3.094
 1700SOL    HW2 6000   6.051   3.131   2.977
 1701SOL     OW 6001   1.231   5.310   5.395
 1701SOL    HW1 6002   1.259   5.240   5.330
 1701SOL    HW2 6003   1.288   5.304   5.477
 1702SOL     OW 6004   2.322   2.579   7.014
 1702SOL    HW1 6005   2.305   2.533   0.082
 1702SOL    HW2 6006   2.356   2.513   6.948
 1703SOL     OW 6007   1.305   1.580   1.782
 1703SOL    HW1 6008   1.361   1.621   1.854
 1703SOL    HW2 6009   1.345   1.492   1.754
 1704SOL     OW 6010   2.904   3.093   6.866
 1704SOL    HW1 6011   2.859   3.183   6.869
 1704SOL    HW2 6012   2.927   3.071   6.772
 1705SOL     OW 6013   5.788   3.080   1.154
 1705SOL    HW1 6014   5.855   3.146   1.190
 1705SOL    HW2 6015   5.708   3.079   1.214
 1706SOL     OW 6016   6.011   0.603   5.701
 1706SOL    HW1 6017   6.084   0.672   5.694
 1706SOL    HW2 6018   6.025   0.547   5.782
 1707SOL     OW 6019   2.822   1.503   2.248
 1707SOL    HW1 6020   2.809   1.407   2.224
 1707SOL    HW2 6021   2.734   1.551   2.246
 1708SOL     OW 6022   2.879   4.896   1.950
 1708SOL    HW1 6023   2.870   4.797   1.953
 1708SOL    HW2 6024   2.847   4.930   1.862
 1709SOL     OW 6025   6.063   4.728   2.584
 1709SOL    HW1 6026   6.106   4.785   2.654
 1709SOL    HW2 6027   5.989   4.778   2.540
 1710SOL     OW 6028   4.805   2.779   2.059
 1710SOL    HW1 6029   4.783   2.874   2.038
 1710SOL    HW2 6030   4.845   2.736   1.978
 1711SOL     OW 6031   4.054   5.185   0.252
 1711SOL    HW1 6032   4.013   5.264   0.298
 1711SOL    HW2 6033   4.109   5.216   0.175
 1712SOL     OW 6034   0.096   2.401   2.456
 1712SOL    HW1 6035   0.088   2.392   2.357
 1712SOL    HW2 6036   0.012   2.442   2.493
 1713SOL     OW 6037   2.897   1.438   2.526
 1713SOL    HW1 6038   2.866   1.476   2.439
 1713SOL    HW2 6039   2.847   1.355   2.546
 1714SOL     OW 6040   3.524   4.852   1.010
 1714SOL    HW1 6041   3.561   4.932   0.964
 1714SOL    HW2 6042   3.536   4.772   0.952
 1715SOL     OW 6043   1.346   5.998   0.506
 1715SOL    HW1 6044   1.331   6.001   0.407
 1715SOL    HW2 6045   1.352   5.903   0.535
 1716SOL     OW 6046   5.426   1.405   2.828
 1716SOL    HW1 6047   5.431   1.443   2.735
 1716SOL    HW2 6048   5.343   1.439   2.873
 1717SOL     OW 6049   3.680   6.486   4.108
 1717SOL    HW1 6050   3.633   6.537   4.037
 1717SOL    HW2 6051   3.738   6.548   4.162
 1718SOL     OW 6052   1.591   3.890   1.879
 1718SOL    HW1 6053   1.649   3.951   1.933
 1718SOL    HW2 6054   1.626   3.885   1.785
 1719SOL     OW 6055   1.707   4.747   3.702
 1719SOL    HW1 6056   1.750   4.838   3.698
 1719SOL    HW2 6057   1.756   4.685   3.640
 1720SOL     OW 6058   1.331   2.865   5.738
 1720SOL    HW1 6059   1.240   2.828   5.755
 1720SOL    HW2 6060   1.400   2.794   5.754
 1721SOL     OW 6061   2.102   2.382   0.172
 1721SOL    HW1 6062   2.033   2.454   0.159
 1721SOL    HW2 6063   2.160   2.405   0.250
 1722SOL     OW 6064   3.710   2.125   2.719
 1722SOL    HW1 6065   3.753   2.175   2.644
 1722SOL    HW2 6066   3.612   2.113   2.699
 1723SOL     OW 6067   6.613   5.359   1.192
 1723SOL    HW1 6068   6.673   5.389   1.267
 1723SOL    HW2 6069   6.533   5.314   1.231
 1724SOL     OW 6070   6.203   3.961   1.416
 1724SOL    HW1 6071   6.301   3.976   1.401
 1724SOL    HW2 6072   6.170   3.894   1.350
 1725SOL     OW 6073   1.724   6.780   4.588
 1725SOL    HW1 6074   1.719   6.681   4.597
 1725SOL    HW2 6075   1.817   6.807   4.564
 1726SOL     OW 6076   5.605   4.705   3.133
 1726SOL    HW1 6077   5.647   4.709   3.223
 1726SOL    HW2 6078   5.533   4.636   3.133
 1727SOL     OW 6079   2.851   3.642   3.390
 1727SOL    HW1 6080   2.899   3.713   3.339
 1727SOL    HW2 6081   2.884   3.552   3.361
 1728SOL     OW 6082   5.352   1.972   4.370
 1728SOL    HW1 6083   5.363   1.983   4.469
 1728SOL    HW2 6084   5.424   2.021   4.322
 1729SOL     OW 6085   1.505   3.730   3.337
 1729SOL    HW1 6086   1.502   3.736   3.238
 1729SOL    HW2 6087   1.590   3.687   3.366
 1730SOL     OW 6088   2.489   0.831   4.711
 1730SOL    HW1 6089   2.461   0.925   4.690
 1730SOL    HW2 6090   2.532   0.791   4.630
 1731SOL     OW 6091   6.078   4.824   3.558
 1731SOL    HW1 6092   6.159   4.801   3.611
 1731SOL    HW2 6093   5.997   4.814   3.616
 1732SOL     OW 6094   4.087   3.376   5.156
 1732SOL    HW1 6095   4.081   3.467   5.196
 1732SOL    HW2 6096   4.114   3.384   5.060
 1733SOL     OW 6097   1.434   1.910   6.989
 1733SOL    HW1 6098   1.446   1.835   6.924
 1733SOL    HW2 6099   1.449   1.998   6.943
 1734SOL     OW 6100   1.107   4.468   2.676
 1734SOL    HW1 6101   1.203   4.444   2.691
 1734SOL    HW2 6102   1.097   4.512   2.587
 1735SOL     OW 6103   3.480   5.409   5.999
 1735SOL    HW1 6104   3.383   5.390   6.011
 1735SOL    HW2 6105   3.518   5.349   5.929
 1736SOL     OW 6106   4.496   1.832   5.155
 1736SOL    HW1 6107   4.481   1.842   5.057
 1736SOL    HW2 6108   4.507   1.922   5.197
 1737SOL     OW 6109   2.565   0.776   0.111
 1737SOL    HW1 6110   2.588   0.707   0.042
 1737SOL    HW2 6111   2.579   0.867   0.073
 1738SOL     OW 6112   1.464   4.131   1.984
 1738SOL    HW1 6113   1.503   4.056   1.930
 1738SOL    HW2 6114   1.500   4.127   2.078
 1739SOL     OW 6115   4.456   5.633   2.798
 1739SOL    HW1 6116   4.498   5.722   2.812
 1739SOL    HW2 6117   4.526   5.562   2.793
 1740SOL     OW 6118   6.601   2.339   4.486
 1740SOL    HW1 6119   6.617   2.263   4.549
 1740SOL    HW2 6120   6.633   2.314   4.395
 1741SOL     OW 6121   1.227   3.095   4.265
 1741SOL    HW1 6122   1.319   3.097   4.305
 1741SOL    HW2 6123   1.168   3.034   4.318
 1742SOL     OW 6124   5.807   7.009   6.604
 1742SOL    HW1 6125   5.877   6.965   6.661
 1742SOL    HW2 6126   5.802   0.086   6.627
 1743SOL     OW 6127   0.546   1.674   1.871
 1743SOL    HW1 6128   0.646   1.674   1.858
 1743SOL    HW2 6129   0.507   1.752   1.823
 1744SOL     OW 6130   3.177   1.921   5.101
 1744SOL    HW1 6131   3.253   1.983   5.081
 1744SOL    HW2 6132   3.207   1.827   5.089
 1745SOL     OW 6133   6.333   7.010   1.040
 1745SOL    HW1 6134   6.280   6.925   1.048
 1745SOL    HW2 6135   6.324   0.027   0.947
 1746SOL     OW 6136   2.366   5.375   2.584
 1746SOL    HW1 6137   2.459   5.366   2.620
 1746SOL    HW2 6138   2.336   5.288   2.545
 1747SOL     OW 6139   2.885   6.773   1.768
 1747SOL    HW1 6140   2.919   6.789   1.676
 1747SOL    HW2 6141   2.807   6.834   1.787
 1748SOL     OW 6142   7.011   1.563   3.743
 1748SOL    HW1 6143   6.916   1.572   3.774
 1748SOL    HW2 6144   0.031   1.653   3.729
 1749SOL     OW 6145   6.467   5.760   2.327
 1749SOL    HW1 6146   6.371   5.766   2.355
 1749SOL    HW2 6147   6.473   5.760   2.227
 1750SOL     OW 6148   2.385   1.378   0.961
 1750SOL    HW1 6149   2.480   1.345   0.961
 1750SOL    HW2 6150   2.345   1.364   1.051
 1751SOL     OW 6151   6.496   4.268   4.882
 1751SOL    HW1 6152   6.403   4.232   4.891
 1751SOL    HW2 6153   6.538   4.232   4.799
 1752SOL     OW 6154   5.721   0.510   2.860
 1752SOL    HW1 6155   5.710   0.429   2.917
 1752SOL    HW2 6156   5.789   0.571   2.901
 1753SOL     OW 6157   6.819   1.400   0.979
 1753SOL    HW1 6158   6.728   1.397   1.021
 1753SOL    HW2 6159   6.816   1.353   0.892
 1754SOL     OW 6160   1.869   4.599   3.562
 1754SOL    HW1 6161   1.831   4.640   3.479
 1754SOL    HW2 6162   1.889   4.502   3.545
 1755SOL     OW 6163   5.659   6.710   5.341
 1755SOL    HW1 6164   5.689   6.716   5.436
 1755SOL    HW2 6165   5.559   6.708   5.337
 1756SOL     OW 6166   4.530   5.211   1.331
 1756SOL    HW1 6167   4.541   5.310   1.338
 1756SOL    HW2 6168   4.504   5.174   1.420
 1757SOL     OW 6169   2.909   5.165   4.925
 1757SOL    HW1 6170   2.841   5.214   4.980
 1757SOL    HW2 6171   2.882   5.070   4.914
 1758SOL     OW 6172   0.503   6.373   4.103
 1758SOL    HW1 6173   0.427   6.379   4.168
 1758SOL    HW2 6174   0.585   6.342   4.150
 1759SOL     OW 6175   1.994   5.028   5.942
 1759SOL    HW1 6176   2.085   5.035   5.901
 1759SOL    HW2 6177   1.998   5.056   6.038
 1760SOL     OW 6178   5.732   1.347   4.085
 1760SOL    HW1 6179   5.671   1.310   4.015
 1760SOL    HW2 6180   5.677   1.387   4.159
 1761SOL     OW 6181   5.195   2.240   3.812
 1761SOL    HW1 6182   5.105   2.258   3.773
 1761SOL    HW2 6183   5.264   2.297   3.767
 1762SOL     OW 6184   0.977   1.663   5.375
 1762SOL    HW1 6185   0.883   1.694   5.359
 1762SOL    HW2 6186   1.040   1.723   5.327
 1763SOL     OW 6187   1.487   5.116   3.950
 1763SOL    HW1 6188   1.574   5.135   3.907
 1763SOL    HW2 6189   1.422   5.189   3.929
 1764SOL     OW 6190   0.404   5.346   3.582
 1764SOL    HW1 6191   0.375   5.399   3.503
 1764SOL    HW2 6192   0.378   5.251   3.570
 1765SOL     OW 6193   5.316   3.935   2.109
 1765SOL    HW1 6194   5.246   3.996   2.147
 1765SOL    HW2 6195   5.276   3.845   2.091
 1766SOL     OW 6196   3.889   4.867   3.403
 1766SOL    HW1 6197   3.944   4.950   3.393
 1766SOL    HW2 6198   3.803   4.878   3.353
 1767SOL     OW 6199   1.881   4.147   1.737
 1767SOL    HW1 6200   1.890   4.077   1.808
 1767SOL    HW2 6201   1.884   4.237   1.779
 1768SOL     OW 6202   3.503   5.208   2.867
 1768SOL    HW1 6203   3.550   5.153   2.797
 1768SOL    HW2 6204   3.411   5.171   2.882
 1769SOL     OW 6205   5.424   0.327   0.731
 1769SOL    HW1 6206   5.396   0.412   0.775
 1769SOL    HW2 6207   5.377   0.250   0.775
 1770SOL     OW 6208   2.044   4.181   0.297
 1770SOL    HW1 6209   2.086   4.152   0.382
 1770SOL    HW2 6210   1.958   4.133   0.283
 1771SOL     OW 6211   1.416   3.312   6.145
 1771SOL    HW1 6212   1.488   3.350   6.203
 1771SOL    HW2 6213   1.453   3.239   6.089
 1772SOL     OW 6214   3.185   5.297   1.856
 1772SOL    HW1 6215   3.189   5.372   1.922
 1772SOL    HW2 6216   3.243   5.222   1.887
 1773SOL     OW 6217   2.094   6.141   4.781
 1773SOL    HW1 6218   2.086   6.121   4.879
 1773SOL    HW2 6219   2.150   6.070   4.737
 1774SOL     OW 6220   5.489   5.070   1.400
 1774SOL    HW1 6221   5.563   5.103   1.342
 1774SOL    HW2 6222   5.526   5.029   1.483
 1775SOL     OW 6223   2.078   6.741   1.181
 1775SOL    HW1 6224   2.010   6.677   1.217
 1775SOL    HW2 6225   2.070   6.829   1.228
 1776SOL     OW 6226   5.171   3.364   5.694
 1776SOL    HW1 6227   5.123   3.448   5.669
 1776SOL    HW2 6228   5.253   3.355   5.637
 1777SOL     OW 6229   4.744   4.626   6.307
 1777SOL    HW1 6230   4.834   4.605   6.270
 1777SOL    HW2 6231   4.725   4.568   6.387
 1778SOL     OW 6232   6.850   0.377   2.972
 1778SOL    HW1 6233   6.865   0.475   2.983
 1778SOL    HW2 6234   6.768   0.362   2.917
 1779SOL     OW 6235   6.938   6.920   4.778
 1779SOL    HW1 6236   6.993   6.911   4.861
 1779SOL    HW2 6237   6.859   6.859   4.784
 1780SOL     OW 6238   2.704   6.871   5.038
 1780SOL    HW1 6239   2.612   6.834   5.048
 1780SOL    HW2 6240   2.752   6.821   4.966
 1781SOL     OW 6241   4.173   1.069   5.434
 1781SOL    HW1 6242   4.211   1.138   5.373
 1781SOL    HW2 6243   4.236   1.053   5.510
 1782SOL     OW 6244   5.325   0.289   2.640
 1782SOL    HW1 6245   5.375   0.255   2.560
 1782SOL    HW2 6246   5.301   0.213   2.699
 1783SOL     OW 6247   1.807   3.448   0.155
 1783SOL    HW1 6248   1.748   3.473   0.079
 1783SOL    HW2 6249   1.773   3.363   0.196
 1784SOL     OW 6250   1.960   5.976   1.372
 1784SOL    HW1 6251   1.981   5.985   1.469
 1784SOL    HW2 6252   1.916   6.060   1.340
 1785SOL     OW 6253   2.348   4.975   5.005
 1785SOL    HW1 6254   2.329   4.890   4.956
 1785SOL    HW2 6255   2.271   4.997   5.065
 1786SOL     OW 6256   0.556   5.646   2.438
 1786SOL    HW1 6257   0.596   5.714   2.500
 1786SOL    HW2 6258   0.627   5.610   2.378
 1787SOL     OW 6259   2.788   2.430   6.301
 1787SOL    HW1 6260   2.809   2.524   6.276
 1787SOL    HW2 6261   2.690   2.415   6.295
 1788SOL     OW 6262   3.772   4.083   0.423
 1788SOL    HW1 6263   3.786   4.129   0.336
 1788SOL    HW2 6264   3.789   4.147   0.498
 1789SOL     OW 6265   6.228   2.919   3.138
 1789SOL    HW1 6266   6.305   2.879   3.088
 1789SOL    HW2 6267   6.166   2.847   3.167
 1790SOL     OW 6268   2.550   2.315   4.750
 1790SOL    HW1 6269   2.584   2.398   4.705
 1790SOL    HW2 6270   2.545   2.241   4.684
 1791SOL     OW 6271   6.025   0.425   3.504
 1791SOL    HW1 6272   6.099   0.435   3.571
 1791SOL    HW2 6273   6.059   0.451   3.413
 1792SOL     OW 6274   7.003   2.873   6.072
 1792SOL    HW1 6275   7.019   2.951   6.011
 1792SOL    HW2 6276   0.045   2.878   6.150
 1793SOL     OW 6277   0.197   1.636   4.719
 1793SOL    HW1 6278   0.264   1.651   4.647
 1793SOL    HW2 6279   0.218   1.551   4.767
 1794SOL     OW 6280   6.911   2.101   6.476
 1794SOL    HW1 6281   6.900   2.017   6.423
 1794SOL    HW2 6282   6.856   2.095   6.559
 1795SOL     OW 6283   6.089   4.412   0.645
 1795SOL    HW1 6284   6.117   4.503   0.613
 1795SOL    HW2 6285   6.163   4.373   0.699
 1796SOL     OW 6286   5.948   0.297   6.865
 1796SOL    HW1 6287   5.896   0.262   6.787
 1796SOL    HW2 6288   5.899   0.374   6.906
 1797SOL     OW 6289   3.074   6.121   5.857
 1797SOL    HW1 6290   3.107   6.209   5.890
 1797SOL    HW2 6291   2.992   6.095   5.909
 1798SOL     OW 6292   2.646   3.998   6.846
 1798SOL    HW1 6293   2.685   3.943   6.773
 1798SOL    HW2 6294   2.670   4.094   6.832
 1799SOL     OW 6295   3.992   1.734   1.577
 1799SOL    HW1 6296   3.896   1.747   1.599
 1799SOL    HW2 6297   4.040   1.699   1.657
 1800SOL     OW 6298   5.799   2.358   5.790
 1800SOL    HW1 6299   5.790   2.260   5.772
 1800SOL    HW2 6300   5.880   2.374   5.847
 1801SOL     OW 6301   0.656   2.114   2.012
 1801SOL    HW1 6302   0.664   2.088   1.916
 1801SOL    HW2 6303   0.561   2.102   2.042
 1802SOL     OW 6304   6.206   4.535   4.791
 1802SOL    HW1 6305   6.131   4.490   4.838
 1802SOL    HW2 6306   6.174   4.622   4.753
 1803SOL     OW 6307   6.391   7.007   3.810
 1803SOL    HW1 6308   6.344   6.925   3.777
 1803SOL    HW2 6309   6.419   6.993   3.904
 1804SOL     OW 6310   1.238   2.999   6.433
 1804SOL    HW1 6311   1.228   3.094   6.461
 1804SOL    HW2 6312   1.253   2.942   6.515
 1805SOL     OW 6313   6.352   5.149   5.847
 1805SOL    HW1 6314   6.267   5.113   5.811
 1805SOL    HW2 6315   6.429   5.116   5.791
 1806SOL     OW 6316   0.558   1.241   1.926
 1806SOL    HW1 6317   0.572   1.149   1.890
 1806SOL    HW2 6318   0.554   1.306   1.850
 1807SOL     OW 6319   6.364   2.928   2.444
 1807SOL    HW1 6320   6.442   2.942   2.506
 1807SOL    HW2 6321   6.350   2.830   2.429
 1808SOL     OW 6322   6.356   0.638   0.243
 1808SOL    HW1 6323   6.307   0.551   0.248
 1808SOL    HW2 6324   6.291   0.713   0.234
 1809SOL     OW 6325   4.114   0.275   4.713
 1809SOL    HW1 6326   4.094   0.266   4.615
 1809SOL    HW2 6327   4.045   0.226   4.765
 1810SOL     OW 6328   1.420   1.362   4.593
 1810SOL    HW1 6329   1.462   1.321   4.674
 1810SOL    HW2 6330   1.373   1.447   4.619
 1811SOL     OW 6331   3.507   5.475   1.748
 1811SOL    HW1 6332   3.428   5.498   1.692
 1811SOL    HW2 6333   3.591   5.490   1.696
 1812SOL     OW 6334   4.052   0.921   6.926
 1812SOL    HW1 6335   4.114   0.992   6.893
 1812SOL    HW2 6336   3.976   0.963   6.974
 1813SOL     OW 6337   6.020   3.770   1.622
 1813SOL    HW1 6338   5.968   3.690   1.651
 1813SOL    HW2 6339   6.099   3.741   1.567
 1814SOL     OW 6340   6.533   5.897   1.221
 1814SOL    HW1 6341   6.503   5.854   1.135
 1814SOL    HW2 6342   6.581   5.982   1.200
 1815SOL     OW 6343   6.378   5.190   1.280
 1815SOL    HW1 6344   6.410   5.253   1.350
 1815SOL    HW2 6345   6.292   5.223   1.241
 1816SOL     OW 6346   3.586   4.923   4.394
 1816SOL    HW1 6347   3.649   4.894   4.466
 1816SOL    HW2 6348   3.493   4.892   4.416
 1817SOL     OW 6349   6.208   2.709   4.180
 1817SOL    HW1 6350   6.299   2.750   4.184
 1817SOL    HW2 6351   6.158   2.731   4.264
 1818SOL     OW 6352   2.335   2.055   0.225
 1818SOL    HW1 6353   2.243   2.069   0.190
 1818SOL    HW2 6354   2.399   2.110   0.172
 1819SOL     OW 6355   0.599   3.252   0.641
 1819SOL    HW1 6356   0.656   3.181   0.683
 1819SOL    HW2 6357   0.641   3.283   0.556
 1820SOL     OW 6358   3.608   6.571   4.926
 1820SOL    HW1 6359   3.665   6.592   4.845
 1820SOL    HW2 6360   3.667   6.561   5.006
 1821SOL     OW 6361   4.296   1.061   2.726
 1821SOL    HW1 6362   4.332   1.000   2.656
 1821SOL    HW2 6363   4.370   1.117   2.764
 1822SOL     OW 6364   2.095   4.432   5.041
 1822SOL    HW1 6365   2.051   4.411   4.954
 1822SOL    HW2 6366   2.093   4.352   5.100
 1823SOL     OW 6367   4.461   6.877   4.471
 1823SOL    HW1 6368   4.445   6.779   4.483
 1823SOL    HW2 6369   4.539   6.904   4.528
 1824SOL     OW 6370   4.574   2.750   1.833
 1824SOL    HW1 6371   4.580   2.845   1.862
 1824SOL    HW2 6372   4.494   2.738   1.774
 1825SOL     OW 6373   1.331   3.614   0.436
 1825SOL    HW1 6374   1.408   3.676   0.424
 1825SOL    HW2 6375   1.258   3.639   0.372
 1826SOL     OW 6376   4.029   3.233   6.891
 1826SOL    HW1 6377   4.054   3.166   6.821
 1826SOL    HW2 6378   4.092   3.310   6.888
 1827SOL     OW 6379   5.352   4.669   0.934
 1827SOL    HW1 6380   5.377   4.701   0.842
 1827SOL    HW2 6381   5.348   4.569   0.934
 1828SOL     OW 6382   2.730   5.389   5.007
 1828SOL    HW1 6383   2.669   5.312   4.986
 1828SOL    HW2 6384   2.676   5.465   5.044
 1829SOL     OW 6385   2.063   6.369   2.382
 1829SOL    HW1 6386   2.060   6.310   2.463
 1829SOL    HW2 6387   2.073   6.312   2.300
 1830SOL     OW 6388   4.329   1.330   0.013
 1830SOL    HW1 6389   4.279   1.417   0.018
 1830SOL    HW2 6390   4.371   1.321   6.943
 1831SOL     OW 6391   4.005   4.442   6.745
 1831SOL    HW1 6392   3.939   4.509   6.776
 1831SOL    HW2 6393   3.979   4.351   6.776
 1832SOL     OW 6394   1.998   2.526   5.408
 1832SOL    HW1 6395   2.053   2.609   5.400
 1832SOL    HW2 6396   2.049   2.457   5.460
 1833SOL     OW 6397   5.800   1.845   0.145
 1833SOL    HW1 6398   5.869   1.858   0.074
 1833SOL    HW2 6399   5.714   1.887   0.116
 1834SOL     OW 6400   1.909   3.687   6.568
 1834SOL    HW1 6401   1.976   3.761   6.564
 1834SOL    HW2 6402   1.902   3.653   6.662
 1835SOL     OW 6403   6.179   0.175   6.842
 1835SOL    HW1 6404   6.094   0.216   6.874
 1835SOL    HW2 6405   6.223   0.237   6.777
 1836SOL     OW 6406   6.053   1.344   4.768
 1836SOL    HW1 6407   6.069   1.398   4.686
 1836SOL    HW2 6408   6.045   1.247   4.743
 1837SOL     OW 6409   1.125   1.748   1.242
 1837SOL    HW1 6410   1.208   1.719   1.290
 1837SOL    HW2 6411   1.046   1.703   1.284
 1838SOL     OW 6412   5.175   0.381   0.168
 1838SOL    HW1 6413   5.146   0.334   0.251
 1838SOL    HW2 6414   5.123   0.465   0.158
 1839SOL     OW 6415   0.131   2.203   6.557
 1839SOL    HW1 6416   0.155   2.150   6.638
 1839SOL    HW2 6417   0.043   2.172   6.522
 1840SOL     OW 6418   2.506   6.782   5.713
 1840SOL    HW1 6419   2.460   6.703   5.672
 1840SOL    HW2 6420   2.494   6.862   5.654
 1841SOL     OW 6421   2.652   6.962   1.825
 1841SOL    HW1 6422   2.656   6.996   1.919
 1841SOL    HW2 6423   2.645   0.020   1.762
 1842SOL     OW 6424   0.368   4.739   1.859
 1842SOL    HW1 6425   0.355   4.659   1.916
 1842SOL    HW2 6426   0.299   4.739   1.786
 1843SOL     OW 6427   3.589   0.622   6.732
 1843SOL    HW1 6428   3.574   0.557   6.657
 1843SOL    HW2 6429   3.503   0.635   6.781
 1844SOL     OW 6430   5.307   3.804   1.356
 1844SOL    HW1 6431   5.221   3.797   1.307
 1844SOL    HW2 6432   5.299   3.873   1.428
 1845SOL     OW 6433   0.718   2.486   4.741
 1845SOL    HW1 6434   0.757   2.511   4.652
 1845SOL    HW2 6435   0.744   2.554   4.809
 1846SOL     OW 6436   3.875   1.463   2.257
 1846SOL    HW1 6437   3.843   1.488   2.349
 1846SOL    HW2 6438   3.805   1.486   2.190
 1847SOL     OW 6439   3.018   5.874   6.555
 1847SOL    HW1 6440   3.000   5.916   6.644
 1847SOL    HW2 6441   3.060   5.784   6.568
 1848SOL     OW 6442   3.271   5.881   4.427
 1848SOL    HW1 6443   3.332   5.953   4.396
 1848SOL    HW2 6444   3.309   5.792   4.403
 1849SOL     OW 6445   4.688   2.692   2.283
 1849SOL    HW1 6446   4.756   2.731   2.221
 1849SOL    HW2 6447   4.646   2.612   2.240
 1850SOL     OW 6448   5.096   1.346   0.731
 1850SOL    HW1 6449   5.093   1.246   0.722
 1850SOL    HW2 6450   5.135   1.386   0.649
 1851SOL     OW 6451   1.176   4.919   3.695
 1851SOL    HW1 6452   1.158   5.001   3.641
 1851SOL    HW2 6453   1.102   4.906   3.761
 1852SOL     OW 6454   0.121   0.090   4.175
 1852SOL    HW1 6455   0.145   0.006   4.223
 1852SOL    HW2 6456   0.204   0.141   4.153
 1853SOL     OW 6457   1.278   2.157   5.107
 1853SOL    HW1 6458   1.224   2.076   5.086
 1853SOL    HW2 6459   1.374   2.132   5.117
 1854SOL     OW 6460   0.871   6.772   3.963
 1854SOL    HW1 6461   0.803   6.806   3.899
 1854SOL    HW2 6462   0.962   6.798   3.932
 1855SOL     OW 6463   6.711   1.171   5.069
 1855SOL    HW1 6464   6.707   1.268   5.093
 1855SOL    HW2 6465   6.748   1.162   4.977
 1856SOL     OW 6466   4.763   3.849   0.010
 1856SOL    HW1 6467   4.693   3.786   0.044
 1856SOL    HW2 6468   4.765   3.930   0.068
 1857SOL     OW 6469   4.832   0.499   6.753
 1857SOL    HW1 6470   4.818   0.482   6.851
 1857SOL    HW2 6471   4.897   0.575   6.742
 1858SOL     OW 6472   4.579   2.023   4.460
 1858SOL    HW1 6473   4.531   2.076   4.529
 1858SOL    HW2 6474   4.618   2.085   4.392
 1859SOL     OW 6475   6.172   6.081   2.834
 1859SOL    HW1 6476   6.092   6.124   2.792
 1859SOL    HW2 6477   6.145   6.000   2.885
 1860SOL     OW 6478   2.378   0.756   0.959
 1860SOL    HW1 6479   2.389   0.852   0.934
 1860SOL    HW2 6480   2.450   0.728   1.021
 1861SOL     OW 6481   6.705   6.894   5.618
 1861SOL    HW1 6482   6.745   6.818   5.566
 1861SOL    HW2 6483   6.771   6.969   5.622
 1862SOL     OW 6484   3.755   5.019   4.857
 1862SOL    HW1 6485   3.740   4.979   4.947
 1862SOL    HW2 6486   3.799   5.108   4.866
 1863SOL     OW 6487   0.214   0.945   1.160
 1863SOL    HW1 6488   0.241   1.005   1.236
 1863SOL    HW2 6489   0.294   0.922   1.106
 1864SOL     OW 6490   2.549   5.969   2.229
 1864SOL    HW1 6491   2.596   6.028   2.164
 1864SOL    HW2 6492   2.510   5.891   2.181
 1865SOL     OW 6493   6.271   2.630   5.912
 1865SOL    HW1 6494   6.360   2.585   5.921
 1865SOL    HW2 6495   6.257   2.693   5.988
 1866SOL     OW 6496   0.039   4.330   5.266
 1866SOL    HW1 6497   0.062   4.423   5.238
 1866SOL    HW2 6498   0.083   4.310   5.354
 1867SOL     OW 6499   1.536   0.404   0.740
 1867SOL    HW1 6500   1.614   0.465   0.754
 1867SOL    HW2 6501   1.471   0.446   0.677
 1868SOL     OW 6502   6.107   3.775   5.830
 1868SOL    HW1 6503   6.025   3.763   5.773
 1868SOL    HW2 6504   6.082   3.823   5.914
 1869SOL     OW 6505   5.248   1.093   5.136
 1869SOL    HW1 6506   5.318   1.028   5.166
 1869SOL    HW2 6507   5.161   1.072   5.179
 1870SOL     OW 6508   5.760   1.197   5.658
 1870SOL    HW1 6509   5.801   1.123   5.605
 1870SOL    HW2 6510   5.687   1.240   5.605
 1871SOL     OW 6511   2.736   4.654   0.183
 1871SOL    HW1 6512   2.641   4.623   0.171
 1871SOL    HW2 6513   2.777   4.605   0.259
 1872SOL     OW 6514   2.436   3.446   6.942
 1872SOL    HW1 6515   2.391   3.464   6.855
 1872SOL    HW2 6516   2.378   3.481   7.016
 1873SOL     OW 6517   5.952   1.167   1.884
 1873SOL    HW1 6518   5.896   1.088   1.860
 1873SOL    HW2 6519   6.043   1.137   1.913
 1874SOL     OW 6520   2.355   4.943   6.994
 1874SOL    HW1 6521   2.435   4.884   6.985
 1874SOL    HW2 6522   2.385   5.039   6.998
 1875SOL     OW 6523   0.933   5.828   2.525
 1875SOL    HW1 6524   0.906   5.805   2.619
 1875SOL    HW2 6525   0.879   5.906   2.493
 1876SOL     OW 6526   0.731   5.222   5.307
 1876SOL    HW1 6527   0.784   5.153   5.259
 1876SOL    HW2 6528   0.763   5.229   5.402
 1877SOL     OW 6529   0.254   1.051   3.566
 1877SOL    HW1 6530   0.325   1.115   3.537
 1877SOL    HW2 6531   0.176   1.102   3.603
 1878SOL     OW 6532   5.868   3.982   4.439
 1878SOL    HW1 6533   5.868   3.899   4.494
 1878SOL    HW2 6534   5.850   3.959   4.343
 1879SOL     OW 6535   3.973   6.406   5.066
 1879SOL    HW1 6536   3.899   6.340   5.078
 1879SOL    HW2 6537   3.940   6.482   5.009
 1880SOL     OW 6538   1.677   3.766   4.321
 1880SOL    HW1 6539   1.742   3.690   4.321
 1880SOL    HW2 6540   1.720   3.848   4.283
 1881SOL     OW 6541   2.931   2.251   3.076
 1881SOL    HW1 6542   2.877   2.330   3.046
 1881SOL    HW2 6543   2.924   2.178   3.009
 1882SOL     OW 6544   4.333   6.841   6.767
 1882SOL    HW1 6545   4.260   6.858   6.833
 1882SOL    HW2 6546   4.314   6.756   6.718
 1883SOL     OW 6547   2.060   3.567   3.223
 1883SOL    HW1 6548   2.073   3.479   3.178
 1883SOL    HW2 6549   2.138   3.626   3.206
 1884SOL     OW 6550   4.839   0.966   0.096
 1884SOL    HW1 6551   4.759   1.006   0.052
 1884SOL    HW2 6552   4.812   0.885   0.148
 1885SOL     OW 6553   0.036   1.551   0.981
 1885SOL    HW1 6554   0.027   1.603   1.066
 1885SOL    HW2 6555   6.971   1.499   0.964
 1886SOL     OW 6556   3.639   3.080   4.661
 1886SOL    HW1 6557   3.571   3.071   4.588
 1886SOL    HW2 6558   3.656   3.177   4.678
 1887SOL     OW 6559   0.787   5.812   5.735
 1887SOL    HW1 6560   0.750   5.719   5.735
 1887SOL    HW2 6561   0.781   5.851   5.827
 1888SOL     OW 6562   2.188   1.852   5.666
 1888SOL    HW1 6563   2.252   1.779   5.692
 1888SOL    HW2 6564   2.197   1.871   5.569
 1889SOL     OW 6565   3.775   4.244   0.044
 1889SOL    HW1 6566   3.714   4.293   0.106
 1889SOL    HW2 6567   3.726   4.223   6.979
 1890SOL     OW 6568   6.041   6.650   6.568
 1890SOL    HW1 6569   6.038   6.562   6.519
 1890SOL    HW2 6570   6.092   6.717   6.513
 1891SOL     OW 6571   5.137   3.320   6.927
 1891SOL    HW1 6572   5.202   3.339   6.853
 1891SOL    HW2 6573   5.132   3.221   6.941
 1892SOL     OW 6574   3.575   0.967   3.248
 1892SOL    HW1 6575   3.494   0.992   3.300
 1892SOL    HW2 6576   3.553   0.895   3.183
 1893SOL     OW 6577   2.667   2.472   6.976
 1893SOL    HW1 6578   2.669   2.568   6.947
 1893SOL    HW2 6579   2.708   2.463   0.047
 1894SOL     OW 6580   5.309   3.077   1.139
 1894SOL    HW1 6581   5.307   2.981   1.166
 1894SOL    HW2 6582   5.237   3.127   1.189
 1895SOL     OW 6583   4.262   5.821   3.317
 1895SOL    HW1 6584   4.220   5.871   3.393
 1895SOL    HW2 6585   4.334   5.761   3.353
 1896SOL     OW 6586   0.122   1.544   4.406
 1896SOL    HW1 6587   0.055   1.571   4.475
 1896SOL    HW2 6588   0.091   1.460   4.361
 1897SOL     OW 6589   5.274   5.093   3.173
 1897SOL    HW1 6590   5.205   5.077   3.244
 1897SOL    HW2 6591   5.235   5.151   3.101
 1898SOL     OW 6592   4.958   6.139   0.654
 1898SOL    HW1 6593   4.879   6.095   0.697
 1898SOL    HW2 6594   4.926   6.203   0.585
 1899SOL     OW 6595   1.606   3.257   4.047
 1899SOL    HW1 6596   1.687   3.211   4.084
 1899SOL    HW2 6597   1.624   3.355   4.041
 1900SOL     OW 6598   2.758   6.065   1.699
 1900SOL    HW1 6599   2.741   6.152   1.652
 1900SOL    HW2 6600   2.765   6.081   1.797
 1901SOL     OW 6601   0.538   1.700   6.311
 1901SOL    HW1 6602   0.579   1.643   6.382
 1901SOL    HW2 6603   0.545   1.796   6.338
 1902SOL     OW 6604   1.557   2.537   4.644
 1902SOL    HW1 6605   1.489   2.468   4.669
 1902SOL    HW2 6606   1.526   2.627   4.675
 1903SOL     OW 6607   6.918   6.083   3.789
 1903SOL    HW1 6608   6.987   6.019   3.825
 1903SOL    HW2 6609   6.892   6.147   3.861
 1904SOL     OW 6610   0.337   0.443   4.140
 1904SOL    HW1 6611   0.368   0.476   4.229
 1904SOL    HW2 6612   0.243   0.474   4.124
 1905SOL     OW 6613   5.835   2.819   6.147
 1905SOL    HW1 6614   5.756   2.823   6.086
 1905SOL    HW2 6615   5.820   2.879   6.225
 1906SOL     OW 6616   2.060   5.997   5.722
 1906SOL    HW1 6617   2.040   5.955   5.634
 1906SOL    HW2 6618   2.155   5.978   5.748
 1907SOL     OW 6619   4.314   6.797   3.228
 1907SOL    HW1 6620   4.331   6.826   3.134
 1907SOL    HW2 6621   4.216   6.781   3.241
 1908SOL     OW 6622   5.315   4.382   0.935
 1908SOL    HW1 6623   5.254   4.400   1.011
 1908SOL    HW2 6624   5.403   4.349   0.970
 1909SOL     OW 6625   5.222   5.368   3.631
 1909SOL    HW1 6626   5.184   5.289   3.583
 1909SOL    HW2 6627   5.286   5.336   3.702
 1910SOL     OW 6628   5.562   3.566   4.087
 1910SOL    HW1 6629   5.595   3.547   4.180
 1910SOL    HW2 6630   5.468   3.533   4.078
 1911SOL     OW 6631   0.854   2.544   5.515
 1911SOL    HW1 6632   0.800   2.623   5.487
 1911SOL    HW2 6633   0.793   2.474   5.553
 1912SOL     OW 6634   3.488   0.476   2.319
 1912SOL    HW1 6635   3.565   0.417   2.346
 1912SOL    HW2 6636   3.514   0.572   2.331
 1913SOL     OW 6637   2.961   4.042   6.669
 1913SOL    HW1 6638   2.985   4.027   6.765
 1913SOL    HW2 6639   2.912   3.962   6.635
 1914SOL     OW 6640   4.184   1.569   5.084
 1914SOL    HW1 6641   4.223   1.602   5.169
 1914SOL    HW2 6642   4.116   1.499   5.104
 1915SOL     OW 6643   2.727   6.373   5.289
 1915SOL    HW1 6644   2.784   6.451   5.315
 1915SOL    HW2 6645   2.638   6.406   5.256
 1916SOL     OW 6646   3.690   6.396   2.793
 1916SOL    HW1 6647   3.701   6.336   2.714
 1916SOL    HW2 6648   3.613   6.365   2.848
 1917SOL     OW 6649   3.855   3.937   3.246
 1917SOL    HW1 6650   3.895   3.988   3.322
 1917SOL    HW2 6651   3.924   3.878   3.205
 1918SOL     OW 6652   0.968   6.650   6.211
 1918SOL    HW1 6653   1.039   6.611   6.269
 1918SOL    HW2 6654   0.904   6.579   6.184
 1919SOL     OW 6655   5.464   0.683   2.164
 1919SOL    HW1 6656   5.474   0.700   2.066
 1919SOL    HW2 6657   5.526   0.610   2.192
 1920SOL     OW 6658   6.117   6.709   4.466
 1920SOL    HW1 6659   6.050   6.644   4.501
 1920SOL    HW2 6660   6.205   6.662   4.454
 1921SOL     OW 6661   2.585   6.637   6.591
 1921SOL    HW1 6662   2.515   6.684   6.537
 1921SOL    HW2 6663   2.674   6.681   6.576
 1922SOL     OW 6664   3.606   4.874   6.719
 1922SOL    HW1 6665   3.553   4.793   6.744
 1922SOL    HW2 6666   3.543   4.945   6.686
 1923SOL     OW 6667   1.693   3.126   1.114
 1923SOL    HW1 6668   1.750   3.141   1.195
 1923SOL    HW2 6669   1.723   3.044   1.067
 1924SOL     OW 6670   0.752   4.046   1.806
 1924SOL    HW1 6671   0.756   4.136   1.762
 1924SOL    HW2 6672   0.845   4.010   1.815
 1925SOL     OW 6673   3.424   4.491   0.410
 1925SOL    HW1 6674   3.446   4.401   0.448
 1925SOL    HW2 6675   3.407   4.555   0.484
 1926SOL     OW 6676   0.179   0.448   3.230
 1926SOL    HW1 6677   0.185   0.387   3.308
 1926SOL    HW2 6678   0.266   0.450   3.181
 1927SOL     OW 6679   5.403   3.209   1.776
 1927SOL    HW1 6680   5.338   3.253   1.714
 1927SOL    HW2 6681   5.408   3.261   1.862
 1928SOL     OW 6682   0.286   5.438   4.873
 1928SOL    HW1 6683   0.254   5.432   4.779
 1928SOL    HW2 6684   0.273   5.349   4.918
 1929SOL     OW 6685   1.458   4.690   3.441
 1929SOL    HW1 6686   1.550   4.728   3.447
 1929SOL    HW2 6687   1.453   4.604   3.491
 1930SOL     OW 6688   6.346   5.667   5.990
 1930SOL    HW1 6689   6.394   5.703   6.070
 1930SOL    HW2 6690   6.410   5.615   5.934
 1931SOL     OW 6691   2.121   2.515   3.030
 1931SOL    HW1 6692   2.184   2.500   2.954
 1931SOL    HW2 6693   2.081   2.607   3.022
 1932SOL     OW 6694   6.072   3.265   2.079
 1932SOL    HW1 6695   6.081   3.330   2.154
 1932SOL    HW2 6696   5.975   3.253   2.057
 1933SOL     OW 6697   2.089   5.196   0.376
 1933SOL    HW1 6698   2.119   5.257   0.450
 1933SOL    HW2 6699   2.090   5.102   0.407
 1934SOL     OW 6700   0.036   6.198   3.102
 1934SOL    HW1 6701   7.008   6.279   3.138
 1934SOL    HW2 6702   0.019   6.191   3.004
 1935SOL     OW 6703   0.940   1.648   2.335
 1935SOL    HW1 6704   0.973   1.739   2.309
 1935SOL    HW2 6705   0.879   1.656   2.414
 1936SOL     OW 6706   0.427   5.935   5.034
 1936SOL    HW1 6707   0.516   5.924   5.078
 1936SOL    HW2 6708   0.433   5.904   4.939
 1937SOL     OW 6709   4.609   1.723   3.505
 1937SOL    HW1 6710   4.596   1.758   3.598
 1937SOL    HW2 6711   4.533   1.752   3.448
 1938SOL     OW 6712   4.787   0.128   3.598
 1938SOL    HW1 6713   4.733   0.203   3.636
 1938SOL    HW2 6714   4.756   0.109   3.505
 1939SOL     OW 6715   2.707   0.952   4.290
 1939SOL    HW1 6716   2.707   0.868   4.344
 1939SOL    HW2 6717   2.613   0.982   4.276
 1940SOL     OW 6718   6.426   0.111   6.910
 1940SOL    HW1 6719   6.482   0.167   6.849
 1940SOL    HW2 6720   6.331   0.113   6.878
 1941SOL     OW 6721   4.286   4.999   2.744
 1941SOL    HW1 6722   4.295   5.008   2.843
 1941SOL    HW2 6723   4.376   4.987   2.703
 1942SOL     OW 6724   0.241   3.451   2.598
 1942SOL    HW1 6725   0.209   3.502   2.678
 1942SOL    HW2 6726   0.218   3.354   2.610
 1943SOL     OW 6727   3.485   5.265   3.409
 1943SOL    HW1 6728   3.483   5.253   3.310
 1943SOL    HW2 6729   3.448   5.355   3.433
 1944SOL     OW 6730   6.401   6.388   1.614
 1944SOL    HW1 6731   6.381   6.485   1.601
 1944SOL    HW2 6732   6.337   6.333   1.560
 1945SOL     OW 6733   2.909   5.344   2.376
 1945SOL    HW1 6734   2.980   5.305   2.317
 1945SOL    HW2 6735   2.847   5.271   2.405
 1946SOL     OW 6736   1.339   6.509   6.621
 1946SOL    HW1 6737   1.279   6.476   6.694
 1946SOL    HW2 6738   1.417   6.448   6.612
 1947SOL     OW 6739   4.319   1.105   3.651
 1947SOL    HW1 6740   4.361   1.119   3.741
 1947SOL    HW2 6741   4.255   1.180   3.632
 1948SOL     OW 6742   6.520   2.843   4.988
 1948SOL    HW1 6743   6.485   2.935   5.007
 1948SOL    HW2 6744   6.533   2.831   4.890
 1949SOL     OW 6745   4.642   3.402   0.114
 1949SOL    HW1 6746   4.652   3.307   0.143
 1949SOL    HW2 6747   4.559   3.412   0.060
 1950SOL     OW 6748   2.355   4.822   0.747
 1950SOL    HW1 6749   2.291   4.830   0.671
 1950SOL    HW2 6750   2.389   4.913   0.771
 1951SOL     OW 6751   5.791   2.987   6.344
 1951SOL    HW1 6752   5.786   2.958   6.439
 1951SOL    HW2 6753   5.838   3.076   6.339
 1952SOL     OW 6754   2.963   3.430   3.291
 1952SOL    HW1 6755   2.986   3.363   3.220
 1952SOL    HW2 6756   2.941   3.383   3.376
 1953SOL     OW 6757   0.495   2.198   4.568
 1953SOL    HW1 6758   0.438   2.269   4.526
 1953SOL    HW2 6759   0.448   2.110   4.561
 1954SOL     OW 6760   2.258   2.509   4.205
 1954SOL    HW1 6761   2.214   2.526   4.117
 1954SOL    HW2 6762   2.227   2.421   4.241
 1955SOL     OW 6763   6.458   5.537   2.834
 1955SOL    HW1 6764   6.489   5.482   2.757
 1955SOL    HW2 6765   6.383   5.491   2.881
 1956SOL     OW 6766   3.675   5.902   3.296
 1956SOL    HW1 6767   3.649   5.861   3.208
 1956SOL    HW2 6768   3.768   5.874   3.320
 1957SOL     OW 6769   2.336   6.103   5.720
 1957SOL    HW1 6770   2.418   6.150   5.687
 1957SOL    HW2 6771   2.336   6.009   5.688
 1958SOL     OW 6772   4.283   3.641   6.088
 1958SOL    HW1 6773   4.311   3.641   5.992
 1958SOL    HW2 6774   4.265   3.548   6.118
 1959SOL     OW 6775   2.798   0.431   0.917
 1959SOL    HW1 6776   2.747   0.379   0.985
 1959SOL    HW2 6777   2.745   0.437   0.832
 1960SOL     OW 6778   5.139   5.375   3.001
 1960SOL    HW1 6779   5.147   5.469   2.966
 1960SOL    HW2 6780   5.115   5.378   3.098
 1961SOL     OW 6781   5.617   4.235   4.906
 1961SOL    HW1 6782   5.634   4.333   4.915
 1961SOL    HW2 6783   5.580   4.199   4.992
 1962SOL     OW 6784   0.764   6.540   3.797
 1962SOL    HW1 6785   0.682   6.591   3.821
 1962SOL    HW2 6786   0.817   6.521   3.879
 1963SOL     OW 6787   2.540   1.227   3.506
 1963SOL    HW1 6788   2.526   1.129   3.517
 1963SOL    HW2 6789   2.597   1.262   3.580
 1964SOL     OW 6790   6.703   2.622   2.046
 1964SOL    HW1 6791   6.660   2.712   2.031
 1964SOL    HW2 6792   6.744   2.620   2.137
 1965SOL     OW 6793   1.895   0.034   3.322
 1965SOL    HW1 6794   1.910   7.012   3.233
 1965SOL    HW2 6795   1.875   6.982   3.389
 1966SOL     OW 6796   6.728   6.496   0.031
 1966SOL    HW1 6797   6.704   6.557   6.974
 1966SOL    HW2 6798   6.767   6.411   7.014
 1967SOL     OW 6799   6.183   2.489   4.978
 1967SOL    HW1 6800   6.217   2.553   4.910
 1967SOL    HW2 6801   6.159   2.539   5.062
 1968SOL     OW 6802   4.438   5.643   4.406
 1968SOL    HW1 6803   4.345   5.611   4.387
 1968SOL    HW2 6804   4.492   5.567   4.443
 1969SOL     OW 6805   6.167   0.646   1.716
 1969SOL    HW1 6806   6.073   0.652   1.747
 1969SOL    HW2 6807   6.187   0.552   1.689
 1970SOL     OW 6808   2.192   1.898   4.844
 1970SOL    HW1 6809   2.239   1.963   4.783
 1970SOL    HW2 6810   2.093   1.910   4.836
 1971SOL     OW 6811   0.417   1.330   6.377
 1971SOL    HW1 6812   0.482   1.285   6.316
 1971SOL    HW2 6813   0.359   1.392   6.324
 1972SOL     OW 6814   1.083   6.807   3.607
 1972SOL    HW1 6815   1.097   6.811   3.706
 1972SOL    HW2 6816   0.989   6.778   3.587
 1973SOL     OW 6817   3.471   3.232   0.172
 1973SOL    HW1 6818   3.457   3.133   0.166
 1973SOL    HW2 6819   3.389   3.275   0.209
 1974SOL     OW 6820   5.966   6.222   4.425
 1974SOL    HW1 6821   5.972   6.202   4.328
 1974SOL    HW2 6822   6.057   6.247   4.460
 1975SOL     OW 6823   2.402   6.906   4.001
 1975SOL    HW1 6824   2.387   6.885   3.905
 1975SOL    HW2 6825   2.496   6.938   4.014
 1976SOL     OW 6826   6.160   4.718   6.045
 1976SOL    HW1 6827   6.193   4.784   6.113
 1976SOL    HW2 6828   6.070   4.684   6.073
 1977SOL     OW 6829   3.377   2.067   4.995
 1977SOL    HW1 6830   3.321   2.145   5.021
 1977SOL    HW2 6831   3.401   2.074   4.898
 1978SOL     OW 6832   0.150   2.497   4.863
 1978SOL    HW1 6833   0.136   2.591   4.832
 1978SOL    HW2 6834   0.226   2.455   4.813
 1979SOL     OW 6835   6.844   4.275   2.782
 1979SOL    HW1 6836   6.935   4.278   2.740
 1979SOL    HW2 6837   6.844   4.328   2.867
 1980SOL     OW 6838   2.261   0.463   3.173
 1980SOL    HW1 6839   2.299   0.371   3.183
 1980SOL    HW2 6840   2.332   0.530   3.191
 1981SOL     OW 6841   5.653   3.466   2.144
 1981SOL    HW1 6842   5.588   3.410   2.093
 1981SOL    HW2 6843   5.744   3.454   2.105
 1982SOL     OW 6844   0.036   6.756   5.379
 1982SOL    HW1 6845   0.113   6.801   5.335
 1982SOL    HW2 6846   0.055   6.658   5.389
 1983SOL     OW 6847   0.961   5.006   1.722
 1983SOL    HW1 6848   0.975   4.933   1.655
 1983SOL    HW2 6849   0.943   5.092   1.674
 1984SOL     OW 6850   4.265   0.792   5.871
 1984SOL    HW1 6851   4.165   0.798   5.878
 1984SOL    HW2 6852   4.289   0.712   5.816
 1985SOL     OW 6853   1.027   5.487   1.903
 1985SOL    HW1 6854   1.115   5.442   1.917
 1985SOL    HW2 6855   0.971   5.432   1.841
 1986SOL     OW 6856   6.280   2.317   0.931
 1986SOL    HW1 6857   6.328   2.405   0.929
 1986SOL    HW2 6858   6.313   2.263   1.008
 1987SOL     OW 6859   2.335   3.519   0.158
 1987SOL    HW1 6860   2.237   3.528   0.175
 1987SOL    HW2 6861   2.375   3.458   0.226
 1988SOL     OW 6862   5.005   2.701   1.050
 1988SOL    HW1 6863   4.947   2.625   1.080
 1988SOL    HW2 6864   4.961   2.788   1.072
 1989SOL     OW 6865   2.596   2.344   3.327
 1989SOL    HW1 6866   2.537   2.285   3.274
 1989SOL    HW2 6867   2.550   2.370   3.412
 1990SOL     OW 6868   1.003   0.551   2.979
 1990SOL    HW1 6869   1.021   0.490   3.056
 1990SOL    HW2 6870   0.998   0.498   2.895
 1991SOL     OW 6871   4.742   5.802   2.627
 1991SOL    HW1 6872   4.707   5.892   2.601
 1991SOL    HW2 6873   4.799   5.810   2.709
 1992SOL     OW 6874   2.035   5.676   5.272
 1992SOL    HW1 6875   2.126   5.637   5.256
 1992SOL    HW2 6876   1.991   5.694   5.183
 1993SOL     OW 6877   3.274   2.984   4.049
 1993SOL    HW1 6878   3.290   2.954   3.955
 1993SOL    HW2 6879   3.240   3.078   4.048
 1994SOL     OW 6880   6.406   1.972   1.350
 1994SOL    HW1 6881   6.415   1.995   1.447
 1994SOL    HW2 6882   6.313   1.992   1.319
 1995SOL     OW 6883   4.151   2.455   1.453
 1995SOL    HW1 6884   4.214   2.391   1.497
 1995SOL    HW2 6885   4.121   2.524   1.518
 1996SOL     OW 6886   2.206   4.950   5.724
 1996SOL    HW1 6887   2.263   5.024   5.688
 1996SOL    HW2 6888   2.261   4.866   5.728
 1997SOL     OW 6889   5.501   6.233   4.453
 1997SOL    HW1 6890   5.587   6.272   4.420
 1997SOL    HW2 6891   5.425   6.292   4.426
 1998SOL     OW 6892   3.194   5.028   4.913
 1998SOL    HW1 6893   3.285   5.056   4.944
 1998SOL    HW2 6894   3.170   4.940   4.954
 1999SOL     OW 6895   3.297   1.851   1.973
 1999SOL    HW1 6896   3.323   1.756   1.958
 1999SOL    HW2 6897   3.374   1.911   1.951
 2000SOL     OW 6898   2.593   1.555   5.217
 2000SOL    HW1 6899   2.682   1.589   5.248
 2000SOL    HW2 6900   2.521   1.620   5.243
 2001SOL     OW 6901   2.117   3.049   0.209
 2001SOL    HW1 6902   2.056   3.117   0.170
 2001SOL    HW2 6903   2.201   3.044   0.156
 2002SOL     OW 6904   1.558   4.804   4.930
 2002SOL    HW1 6905   1.461   4.786   4.951
 2002SOL    HW2 6906   1.588   4.885   4.980
 2003SOL     OW 6907   6.491   3.689   3.247
 2003SOL    HW1 6908   6.425   3.713   3.318
 2003SOL    HW2 6909   6.564   3.757   3.245
 2004SOL     OW 6910   3.237   0.059   6.830
 2004SOL    HW1 6911   3.176   0.015   6.896
 2004SOL    HW2 6912   3.218   0.158   6.829
 2005SOL     OW 6913   2.691   6.865   5.337
 2005SOL    HW1 6914   2.724   6.830   5.250
 2005SOL    HW2 6915   2.733   6.814   5.412
 2006SOL     OW 6916   4.652   0.109   2.900
 2006SOL    HW1 6917   4.718   0.089   2.827
 2006SOL    HW2 6918   4.650   0.032   2.964
 2007SOL     OW 6919   0.084   5.444   6.973
 2007SOL    HW1 6920   0.068   5.480   0.045
 2007SOL    HW2 6921   7.018   5.409   6.934
 2008SOL     OW 6922   0.366   5.936   5.954
 2008SOL    HW1 6923   0.408   5.861   6.006
 2008SOL    HW2 6924   0.269   5.917   5.942
 2009SOL     OW 6925   1.365   0.660   0.086
 2009SOL    HW1 6926   1.379   0.681   7.009
 2009SOL    HW2 6927   1.299   0.724   0.125
 2010SOL     OW 6928   2.562   1.066   1.126
 2010SOL    HW1 6929   2.560   0.973   1.089
 2010SOL    HW2 6930   2.561   1.062   1.226
 2011SOL     OW 6931   6.577   1.326   4.519
 2011SOL    HW1 6932   6.677   1.328   4.525
 2011SOL    HW2 6933   6.538   1.355   4.607
 2012SOL     OW 6934   6.739   3.790   1.616
 2012SOL    HW1 6935   6.728   3.832   1.707
 2012SOL    HW2 6936   6.836   3.777   1.597
 2013SOL     OW 6937   3.720   2.605   1.699
 2013SOL    HW1 6938   3.654   2.550   1.752
 2013SOL    HW2 6939   3.674   2.686   1.663
 2014SOL     OW 6940   3.174   5.383   3.600
 2014SOL    HW1 6941   3.094   5.434   3.634
 2014SOL    HW2 6942   3.257   5.432   3.625
 2015SOL     OW 6943   2.744   5.373   0.202
 2015SOL    HW1 6944   2.823   5.433   0.193
 2015SOL    HW2 6945   2.762   5.304   0.272
 2016SOL     OW 6946   6.441   5.503   5.177
 2016SOL    HW1 6947   6.379   5.568   5.222
 2016SOL    HW2 6948   6.416   5.495   5.080
 2017SOL     OW 6949   1.440   5.111   1.565
 2017SOL    HW1 6950   1.346   5.133   1.539
 2017SOL    HW2 6951   1.457   5.014   1.550
 2018SOL     OW 6952   0.348   4.515   5.387
 2018SOL    HW1 6953   0.281   4.581   5.354
 2018SOL    HW2 6954   0.303   4.448   5.446
 2019SOL     OW 6955   4.856   0.553   2.703
 2019SOL    HW1 6956   4.896   0.643   2.691
 2019SOL    HW2 6957   4.891   0.491   2.633
 2020SOL     OW 6958   2.490   5.242   3.169
 2020SOL    HW1 6959   2.438   5.164   3.134
 2020SOL    HW2 6960   2.516   5.226   3.264
 2021SOL     OW 6961   1.741   5.881   2.153
 2021SOL    HW1 6962   1.722   5.875   2.251
 2021SOL    HW2 6963   1.669   5.832   2.102
 2022SOL     OW 6964   3.802   5.585   1.379
 2022SOL    HW1 6965   3.807   5.672   1.330
 2022SOL    HW2 6966   3.817   5.510   1.314
 2023SOL     OW 6967   6.520   2.509   5.906
 2023SOL    HW1 6968   6.533   2.531   5.809
 2023SOL    HW2 6969   6.609   2.485   5.946
 2024SOL     OW 6970   5.211   0.229   3.593
 2024SOL    HW1 6971   5.225   0.147   3.648
 2024SOL    HW2 6972   5.169   0.204   3.505
 2025SOL     OW 6973   6.006   0.919   1.367
 2025SOL    HW1 6974   5.925   0.952   1.319
 2025SOL    HW2 6975   5.984   0.903   1.463
 2026SOL     OW 6976   1.891   1.979   4.944
 2026SOL    HW1 6977   1.888   1.897   4.886
 2026SOL    HW2 6978   1.803   1.990   4.990
 2027SOL     OW 6979   6.724   6.918   2.402
 2027SOL    HW1 6980   6.743   6.849   2.471
 2027SOL    HW2 6981   6.647   6.975   2.431
 2028SOL     OW 6982   4.040   4.122   5.689
 2028SOL    HW1 6983   3.961   4.071   5.657
 2028SOL    HW2 6984   4.022   4.220   5.682
 2029SOL     OW 6985   2.268   0.605   0.062
 2029SOL    HW1 6986   2.324   0.639   0.138
 2029SOL    HW2 6987   2.173   0.637   0.073
 2030SOL     OW 6988   2.250   2.970   2.562
 2030SOL    HW1 6989   2.281   2.876   2.551
 2030SOL    HW2 6990   2.217   2.984   2.656
 2031SOL     OW 6991   5.683   6.826   2.407
 2031SOL    HW1 6992   5.680   6.862   2.500
 2031SOL    HW2 6993   5.702   6.900   2.343
 2032SOL     OW 6994   4.401   6.291   2.256
 2032SOL    HW1 6995   4.397   6.388   2.277
 2032SOL    HW2 6996   4.384   6.238   2.339
 2033SOL     OW 6997   0.279   4.868   6.808
 2033SOL    HW1 6998   0.323   4.851   6.720
 2033SOL    HW2 6999   0.201   4.930   6.795
 2034SOL     OW 7000   2.163   5.329   4.190
 2034SOL    HW1 7001   2.176   5.237   4.227
 2034SOL    HW2 7002   2.251   5.375   4.182
 2035SOL     OW 7003   0.364   1.756   3.356
 2035SOL    HW1 7004   0.391   1.725   3.265
 2035SOL    HW2 7005   0.399   1.849   3.371
 2036SOL     OW 7006   0.678   4.868   1.007
 2036SOL    HW1 7007   0.759   4.810   1.023
 2036SOL    HW2 7008   0.603   4.836   1.064
 2037SOL     OW 7009   0.578   2.907   6.644
 2037SOL    HW1 7010   0.578   2.820   6.694
 2037SOL    HW2 7011   0.621   2.977   6.701
 2038SOL     OW 7012   1.558   0.102   4.720
 2038SOL    HW1 7013   1.542   0.170   4.649
 2038SOL    HW2 7014   1.635   0.131   4.777
 2039SOL     OW 7015   1.136   5.294   2.187
 2039SOL    HW1 7016   1.113   5.341   2.273
 2039SOL    HW2 7017   1.087   5.207   2.182
 2040SOL     OW 7018   3.884   2.981   4.716
 2040SOL    HW1 7019   3.894   2.882   4.716
 2040SOL    HW2 7020   3.788   3.005   4.699
 2041SOL     OW 7021   5.126   2.962   6.862
 2041SOL    HW1 7022   5.156   2.867   6.853
 2041SOL    HW2 7023   5.076   2.990   6.781
 2042SOL     OW 7024   3.194   6.396   0.292
 2042SOL    HW1 7025   3.213   6.366   0.199
 2042SOL    HW2 7026   3.215   6.493   0.301
 2043SOL     OW 7027   4.898   5.700   2.406
 2043SOL    HW1 7028   4.819   5.717   2.466
 2043SOL    HW2 7029   4.873   5.632   2.337
 2044SOL     OW 7030   6.705   0.564   2.632
 2044SOL    HW1 7031   6.754   0.647   2.605
 2044SOL    HW2 7032   6.607   0.584   2.638
 2045SOL     OW 7033   3.243   6.885   5.821
 2045SOL    HW1 7034   3.227   6.787   5.827
 2045SOL    HW2 7035   3.244   6.913   5.726
 2046SOL     OW 7036   5.884   6.987   5.874
 2046SOL    HW1 7037   5.876   7.000   5.775
 2046SOL    HW2 7038   5.876   0.056   5.919
 2047SOL     OW 7039   5.100   3.138   0.163
 2047SOL    HW1 7040   5.165   3.101   0.229
 2047SOL    HW2 7041   5.049   3.063   0.121
 2048SOL     OW 7042   4.557   6.286   5.374
 2048SOL    HW1 7043   4.636   6.346   5.363
 2048SOL    HW2 7044   4.489   6.330   5.432
 2049SOL     OW 7045   5.418   5.459   6.439
 2049SOL    HW1 7046   5.341   5.398   6.459
 2049SOL    HW2 7047   5.498   5.429   6.491
 2050SOL     OW 7048   5.679   1.170   3.103
 2050SOL    HW1 7049   5.596   1.204   3.147
 2050SOL    HW2 7050   5.743   1.137   3.172
 2051SOL     OW 7051   2.991   6.051   1.059
 2051SOL    HW1 7052   2.975   6.073   1.155
 2051SOL    HW2 7053   2.904   6.053   1.009
 2052SOL     OW 7054   1.785   2.864   1.087
 2052SOL    HW1 7055   1.814   2.783   1.139
 2052SOL    HW2 7056   1.709   2.839   1.027
 2053SOL     OW 7057   4.508   0.867   0.620
 2053SOL    HW1 7058   4.528   0.887   0.715
 2053SOL    HW2 7059   4.445   0.935   0.584
 2054SOL     OW 7060   0.765   3.198   1.335
 2054SOL    HW1 7061   0.864   3.204   1.343
 2054SOL    HW2 7062   0.723   3.237   1.417
 2055SOL     OW 7063   6.465   0.902   3.597
 2055SOL    HW1 7064   6.411   0.960   3.538
 2055SOL    HW2 7065   6.407   0.832   3.638
 2056SOL     OW 7066   0.276   6.338   2.484
 2056SOL    HW1 7067   0.323   6.397   2.418
 2056SOL    HW2 7068   0.179   6.335   2.462
 2057SOL     OW 7069   4.805   2.956   4.341
 2057SOL    HW1 7070   4.828   2.873   4.289
 2057SOL    HW2 7071   4.712   2.984   4.319
 2058SOL     OW 7072   0.998   1.171   1.125
 2058SOL    HW1 7073   1.038   1.117   1.199
 2058SOL    HW2 7074   0.957   1.109   1.057
 2059SOL     OW 7075   1.659   0.896   0.110
 2059SOL    HW1 7076   1.687   0.875   0.204
 2059SOL    HW2 7077   1.632   0.811   0.065
 2060SOL     OW 7078   0.540   4.891   3.183
 2060SOL    HW1 7079   0.501   4.979   3.158
 2060SOL    HW2 7080   0.472   4.819   3.169
 2061SOL     OW 7081   1.491   0.234   0.381
 2061SOL    HW1 7082   1.500   0.305   0.312
 2061SOL    HW2 7083   1.569   0.238   0.443
 2062SOL     OW 7084   3.764   0.279   4.045
 2062SOL    HW1 7085   3.781   0.190   4.002
 2062SOL    HW2 7086   3.694   0.269   4.116
 2063SOL     OW 7087   2.278   2.721   1.457
 2063SOL    HW1 7088   2.199   2.675   1.499
 2063SOL    HW2 7089   2.321   2.781   1.525
 2064SOL     OW 7090   0.988   1.968   0.813
 2064SOL    HW1 7091   1.039   1.907   0.875
 2064SOL    HW2 7092   0.898   1.929   0.796
 2065SOL     OW 7093   0.288   2.824   2.934
 2065SOL    HW1 7094   0.311   2.816   3.031
 2065SOL    HW2 7095   0.215   2.761   2.912
 2066SOL     OW 7096   0.846   6.325   3.384
 2066SOL    HW1 7097   0.806   6.394   3.444
 2066SOL    HW2 7098   0.785   6.309   3.307
 2067SOL     OW 7099   7.013   0.523   0.733
 2067SOL    HW1 7100   6.968   0.602   0.691
 2067SOL    HW2 7101   0.079   0.504   0.685
 2068SOL     OW 7102   2.330   2.485   5.196
 2068SOL    HW1 7103   2.298   2.475   5.102
 2068SOL    HW2 7104   2.359   2.580   5.211
 2069SOL     OW 7105   1.530   2.216   1.864
 2069SOL    HW1 7106   1.530   2.140   1.929
 2069SOL    HW2 7107   1.616   2.218   1.814
 2070SOL     OW 7108   6.983   1.730   2.283
 2070SOL    HW1 7109   6.948   1.820   2.255
 2070SOL    HW2 7110   0.061   1.724   2.263
 2071SOL     OW 7111   2.303   5.818   5.677
 2071SOL    HW1 7112   2.354   5.768   5.607
 2071SOL    HW2 7113   2.231   5.758   5.715
 2072SOL     OW 7114   5.254   4.963   2.490
 2072SOL    HW1 7115   5.255   4.941   2.392
 2072SOL    HW2 7116   5.172   4.923   2.532
 2073SOL     OW 7117   3.246   6.569   5.166
 2073SOL    HW1 7118   3.224   6.482   5.212
 2073SOL    HW2 7119   3.272   6.551   5.072
 2074SOL     OW 7120   5.660   1.817   3.131
 2074SOL    HW1 7121   5.571   1.850   3.160
 2074SOL    HW2 7122   5.659   1.796   3.034
 2075SOL     OW 7123   3.893   3.252   6.415
 2075SOL    HW1 7124   3.846   3.182   6.469
 2075SOL    HW2 7125   3.925   3.325   6.475
 2076SOL     OW 7126   5.024   6.583   0.238
 2076SOL    HW1 7127   5.069   6.495   0.222
 2076SOL    HW2 7128   4.986   6.617   0.152
 2077SOL     OW 7129   4.317   0.862   4.632
 2077SOL    HW1 7130   4.279   0.771   4.649
 2077SOL    HW2 7131   4.244   0.923   4.602
 2078SOL     OW 7132   4.306   6.029   3.646
 2078SOL    HW1 7133   4.308   6.124   3.677
 2078SOL    HW2 7134   4.327   5.968   3.722
 2079SOL     OW 7135   5.675   0.267   4.102
 2079SOL    HW1 7136   5.734   0.192   4.133
 2079SOL    HW2 7137   5.687   0.346   4.161
 2080SOL     OW 7138   2.894   1.973   3.237
 2080SOL    HW1 7139   2.856   2.050   3.184
 2080SOL    HW2 7140   2.842   1.963   3.322
 2081SOL     OW 7141   1.371   5.668   3.914
 2081SOL    HW1 7142   1.271   5.674   3.923
 2081SOL    HW2 7143   1.398   5.572   3.914
 2082SOL     OW 7144   4.977   1.103   2.455
 2082SOL    HW1 7145   4.959   1.162   2.377
 2082SOL    HW2 7146   5.073   1.111   2.481
 2083SOL     OW 7147   3.732   4.526   6.071
 2083SOL    HW1 7148   3.806   4.593   6.062
 2083SOL    HW2 7149   3.645   4.569   6.047
 2084SOL     OW 7150   0.289   2.511   2.891
 2084SOL    HW1 7151   0.381   2.539   2.918
 2084SOL    HW2 7152   0.279   2.412   2.903
 2085SOL     OW 7153   5.986   6.655   0.204
 2085SOL    HW1 7154   5.940   6.731   0.250
 2085SOL    HW2 7155   5.987   6.575   0.265
 2086SOL     OW 7156   3.673   5.522   6.961
 2086SOL    HW1 7157   3.578   5.499   6.984
 2086SOL    HW2 7158   3.682   5.621   6.953
 2087SOL     OW 7159   5.995   6.095   3.154
 2087SOL    HW1 7160   6.053   6.038   3.096
 2087SOL    HW2 7161   5.900   6.085   3.126
 2088SOL     OW 7162   2.282   6.499   1.469
 2088SOL    HW1 7163   2.337   6.444   1.531
 2088SOL    HW2 7164   2.213   6.549   1.521
 2089SOL     OW 7165   2.596   1.137   6.400
 2089SOL    HW1 7166   2.599   1.091   6.311
 2089SOL    HW2 7167   2.504   1.173   6.416
 2090SOL     OW 7168   3.068   3.945   3.580
 2090SOL    HW1 7169   3.126   3.866   3.559
 2090SOL    HW2 7170   2.976   3.913   3.601
 2091SOL     OW 7171   2.334   4.249   1.601
 2091SOL    HW1 7172   2.274   4.182   1.643
 2091SOL    HW2 7173   2.430   4.221   1.615
 2092SOL     OW 7174   6.301   0.248   0.764
 2092SOL    HW1 7175   6.353   0.291   0.690
 2092SOL    HW2 7176   6.283   0.152   0.741
 2093SOL     OW 7177   1.750   1.290   1.675
 2093SOL    HW1 7178   1.733   1.270   1.578
 2093SOL    HW2 7179   1.831   1.239   1.705
 2094SOL     OW 7180   6.918   0.381   2.150
 2094SOL    HW1 7181   7.018   0.384   2.151
 2094SOL    HW2 7182   6.888   0.289   2.126
 2095SOL     OW 7183   6.300   4.417   5.171
 2095SOL    HW1 7184   6.272   4.441   5.264
 2095SOL    HW2 7185   6.239   4.460   5.105
 2096SOL     OW 7186   4.942   4.311   3.820
 2096SOL    HW1 7187   4.993   4.327   3.736
 2096SOL    HW2 7188   4.967   4.221   3.857
 2097SOL     OW 7189   6.444   3.499   5.781
 2097SOL    HW1 7190   6.350   3.494   5.748
 2097SOL    HW2 7191   6.457   3.435   5.857
 2098SOL     OW 7192   3.997   0.554   4.086
 2098SOL    HW1 7193   3.912   0.591   4.123
 2098SOL    HW2 7194   4.011   0.461   4.121
 2099SOL     OW 7195   2.338   1.750   3.524
 2099SOL    HW1 7196   2.387   1.834   3.500
 2099SOL    HW2 7197   2.303   1.757   3.617
 2100SOL     OW 7198   4.549   4.833   5.932
 2100SOL    HW1 7199   4.575   4.913   5.986
 2100SOL    HW2 7200   4.587   4.751   5.974
 2101SOL     OW 7201   5.926   6.794   1.706
 2101SOL    HW1 7202   5.898   6.790   1.611
 2101SOL    HW2 7203   5.865   6.736   1.761
 2102SOL     OW 7204   6.973   5.371   1.341
 2102SOL    HW1 7205   6.976   5.409   1.434
 2102SOL    HW2 7206   6.935   5.279   1.344
 2103SOL     OW 7207   3.122   3.754   6.586
 2103SOL    HW1 7208   3.166   3.678   6.538
 2103SOL    HW2 7209   3.186   3.830   6.595
 2104SOL     OW 7210   1.179   4.883   6.291
 2104SOL    HW1 7211   1.196   4.938   6.209
 2104SOL    HW2 7212   1.261   4.879   6.347
 2105SOL     OW 7213   6.397   5.789   2.767
 2105SOL    HW1 7214   6.440   5.869   2.810
 2105SOL    HW2 7215   6.429   5.706   2.813
 2106SOL     OW 7216   5.846   6.413   6.126
 2106SOL    HW1 7217   5.779   6.339   6.134
 2106SOL    HW2 7218   5.809   6.495   6.169
 2107SOL     OW 7219   2.720   5.159   0.383
 2107SOL    HW1 7220   2.671   5.184   0.466
 2107SOL    HW2 7221   2.695   5.066   0.355
 2108SOL     OW 7222   5.551   4.667   6.475
 2108SOL    HW1 7223   5.452   4.653   6.479
 2108SOL    HW2 7224   5.592   4.601   6.412
 2109SOL     OW 7225   5.219   5.604   2.846
 2109SOL    HW1 7226   5.301   5.561   2.809
 2109SOL    HW2 7227   5.184   5.671   2.780
 2110SOL     OW 7228   1.166   4.810   5.291
 2110SOL    HW1 7229   1.219   4.778   5.370
 2110SOL    HW2 7230   1.069   4.817   5.316
 2111SOL     OW 7231   1.740   2.039   6.736
 2111SOL    HW1 7232   1.803   2.087   6.674
 2111SOL    HW2 7233   1.789   2.010   6.818
 2112SOL     OW 7234   5.045   3.731   0.413
 2112SOL    HW1 7235   4.958   3.767   0.380
 2112SOL    HW2 7236   5.029   3.654   0.474
 2113SOL     OW 7237   6.775   1.041   3.523
 2113SOL    HW1 7238   6.861   1.012   3.481
 2113SOL    HW2 7239   6.793   1.077   3.614
 2114SOL     OW 7240   1.520   2.901   6.909
 2114SOL    HW1 7241   1.518   2.823   6.847
 2114SOL    HW2 7242   1.433   2.950   6.904
 2115SOL     OW 7243   4.138   5.296   1.952
 2115SOL    HW1 7244   4.041   5.285   1.928
 2115SOL    HW2 7245   4.144   5.350   2.036
 2116SOL     OW 7246   0.222   3.856   4.315
 2116SOL    HW1 7247   0.320   3.847   4.298
 2116SOL    HW2 7248   0.194   3.951   4.301
 2117SOL     OW 7249   6.401   5.828   5.716
 2117SOL    HW1 7250   6.464   5.868   5.783
 2117SOL    HW2 7251   6.399   5.885   5.634
 2118SOL     OW 7252   0.222   2.939   2.321
 2118SOL    HW1 7253   0.294   2.915   2.385
 2118SOL    HW2 7254   0.152   2.868   2.320
 2119SOL     OW 7255   4.154   6.503   0.150
 2119SOL    HW1 7256   4.191   6.448   0.225
 2119SOL    HW2 7257   4.170   6.600   0.169
 2120SOL     OW 7258   6.447   3.816   2.222
 2120SOL    HW1 7259   6.525   3.809   2.160
 2120SOL    HW2 7260   6.478   3.844   2.312
 2121SOL     OW 7261   0.646   3.994   5.227
 2121SOL    HW1 7262   0.566   4.030   5.276
 2121SOL    HW2 7263   0.692   3.926   5.284
 2122SOL     OW 7264   3.727   4.989   5.133
 2122SOL    HW1 7265   3.743   4.902   5.181
 2122SOL    HW2 7266   3.638   5.026   5.161
 2123SOL     OW 7267   3.911   5.775   3.376
 2123SOL    HW1 7268   3.933   5.678   3.389
 2123SOL    HW2 7269   3.988   5.830   3.405
 2124SOL     OW 7270   2.381   2.248   1.908
 2124SOL    HW1 7271   2.368   2.246   1.808
 2124SOL    HW2 7272   2.295   2.272   1.952
 2125SOL     OW 7273   4.771   5.954   0.148
 2125SOL    HW1 7274   4.848   5.894   0.171
 2125SOL    HW2 7275   4.725   5.982   0.232
 2126SOL     OW 7276   2.864   2.175   0.852
 2126SOL    HW1 7277   2.786   2.191   0.913
 2126SOL    HW2 7278   2.908   2.088   0.876
 2127SOL     OW 7279   5.275   2.628   4.292
 2127SOL    HW1 7280   5.227   2.715   4.284
 2127SOL    HW2 7281   5.362   2.642   4.339
 2128SOL     OW 7282   0.675   3.687   4.269
 2128SOL    HW1 7283   0.758   3.732   4.301
 2128SOL    HW2 7284   0.700   3.605   4.216
 2129SOL     OW 7285   4.502   2.251   4.962
 2129SOL    HW1 7286   4.418   2.273   4.913
 2129SOL    HW2 7287   4.572   2.222   4.897
 2130SOL     OW 7288   5.031   6.776   3.319
 2130SOL    HW1 7289   5.058   6.724   3.399
 2130SOL    HW2 7290   5.043   6.720   3.237
 2131SOL     OW 7291   4.973   1.560   6.909
 2131SOL    HW1 7292   5.032   1.621   6.962
 2131SOL    HW2 7293   5.030   1.503   6.850
 2132SOL     OW 7294   1.261   3.484   1.229
 2132SOL    HW1 7295   1.209   3.424   1.167
 2132SOL    HW2 7296   1.359   3.471   1.213
 2133SOL     OW 7297   2.364   3.864   6.295
 2133SOL    HW1 7298   2.398   3.946   6.248
 2133SOL    HW2 7299   2.357   3.882   6.393
 2134SOL     OW 7300   0.170   6.970   6.962
 2134SOL    HW1 7301   0.257   7.014   6.980
 2134SOL    HW2 7302   0.175   6.873   6.988
 2135SOL     OW 7303   6.451   5.337   5.618
 2135SOL    HW1 7304   6.476   5.325   5.713
 2135SOL    HW2 7305   6.380   5.271   5.593
 2136SOL     OW 7306   1.464   5.199   6.980
 2136SOL    HW1 7307   1.522   5.276   6.953
 2136SOL    HW2 7308   1.522   5.121   7.004
 2137SOL     OW 7309   1.544   6.657   3.423
 2137SOL    HW1 7310   1.548   6.596   3.344
 2137SOL    HW2 7311   1.469   6.721   3.412
 2138SOL     OW 7312   4.979   1.815   1.824
 2138SOL    HW1 7313   4.979   1.784   1.728
 2138SOL    HW2 7314   5.009   1.910   1.829
 2139SOL     OW 7315   2.640   5.971   5.637
 2139SOL    HW1 7316   2.579   5.972   5.558
 2139SOL    HW2 7317   2.641   5.879   5.676
 2140SOL     OW 7318   2.184   1.948   3.171
 2140SOL    HW1 7319   2.146   2.039   3.157
 2140SOL    HW2 7320   2.259   1.952   3.236
 2141SOL     OW 7321   6.914   3.343   2.737
 2141SOL    HW1 7322   6.929   3.401   2.817
 2141SOL    HW2 7323   7.002   3.314   2.700
 2142SOL     OW 7324   1.875   1.544   2.006
 2142SOL    HW1 7325   1.910   1.577   1.918
 2142SOL    HW2 7326   1.841   1.622   2.059
 2143SOL     OW 7327   6.532   5.583   5.803
 2143SOL    HW1 7328   6.475   5.664   5.788
 2143SOL    HW2 7329   6.602   5.578   5.732
 2144SOL     OW 7330   6.158   4.256   3.048
 2144SOL    HW1 7331   6.206   4.172   3.024
 2144SOL    HW2 7332   6.063   4.234   3.072
 2145SOL     OW 7333   3.256   1.630   3.411
 2145SOL    HW1 7334   3.268   1.728   3.423
 2145SOL    HW2 7335   3.159   1.607   3.417
 2146SOL     OW 7336   2.045   1.360   6.710
 2146SOL    HW1 7337   2.087   1.438   6.663
 2146SOL    HW2 7338   2.013   1.294   6.642
 2147SOL     OW 7339   6.265   0.239   5.502
 2147SOL    HW1 7340   6.252   0.143   5.481
 2147SOL    HW2 7341   6.278   0.250   5.601
 2148SOL     OW 7342   1.404   2.588   5.017
 2148SOL    HW1 7343   1.455   2.559   5.098
 2148SOL    HW2 7344   1.317   2.628   5.045
 2149SOL     OW 7345   0.570   6.798   0.034
 2149SOL    HW1 7346   0.477   6.784   0.068
 2149SOL    HW2 7347   0.568   6.859   6.974
 2150SOL     OW 7348   2.082   2.736   0.435
 2150SOL    HW1 7349   2.124   2.669   0.497
 2150SOL    HW2 7350   2.127   2.824   0.447
 2151SOL     OW 7351   1.033   5.066   6.471
 2151SOL    HW1 7352   1.109   5.129   6.461
 2151SOL    HW2 7353   1.048   4.985   6.414
 2152SOL     OW 7354   5.366   6.559   3.789
 2152SOL    HW1 7355   5.368   6.597   3.696
 2152SOL    HW2 7356   5.273   6.567   3.826
 2153SOL     OW 7357   4.737   0.032   4.150
 2153SOL    HW1 7358   4.646   0.036   4.109
 2153SOL    HW2 7359   4.797   0.096   4.104
 2154SOL     OW 7360   2.597   6.594   2.586
 2154SOL    HW1 7361   2.561   6.601   2.493
 2154SOL    HW2 7362   2.572   6.676   2.638
 2155SOL     OW 7363   5.193   0.660   0.567
 2155SOL    HW1 7364   5.162   0.586   0.507
 2155SOL    HW2 7365   5.115   0.715   0.595
 2156SOL     OW 7366   6.242   1.613   4.389
 2156SOL    HW1 7367   6.334   1.585   4.415
 2156SOL    HW2 7368   6.232   1.712   4.401
 2157SOL     OW 7369   4.587   6.432   3.758
 2157SOL    HW1 7370   4.627   6.468   3.842
 2157SOL    HW2 7371   4.660   6.418   3.690
 2158SOL     OW 7372   2.981   6.847   0.685
 2158SOL    HW1 7373   2.914   6.794   0.736
 2158SOL    HW2 7374   2.999   6.933   0.733
 2159SOL     OW 7375   0.244   1.769   5.497
 2159SOL    HW1 7376   0.237   1.676   5.461
 2159SOL    HW2 7377   0.271   1.831   5.423
 2160SOL     OW 7378   5.446   6.781   6.741
 2160SOL    HW1 7379   5.390   6.753   6.663
 2160SOL    HW2 7380   5.530   6.728   6.744
 2161SOL     OW 7381   1.234   3.793   0.935
 2161SOL    HW1 7382   1.319   3.756   0.972
 2161SOL    HW2 7383   1.255   3.875   0.881
 2162SOL     OW 7384   2.017   0.134   0.100
 2162SOL    HW1 7385   1.936   0.149   0.157
 2162SOL    HW2 7386   2.050   0.223   0.067
 2163SOL     OW 7387   0.819   2.997   4.484
 2163SOL    HW1 7388   0.797   3.032   4.575
 2163SOL    HW2 7389   0.916   2.975   4.478
 2164SOL     OW 7390   2.285   4.409   2.011
 2164SOL    HW1 7391   2.307   4.314   1.993
 2164SOL    HW2 7392   2.360   4.468   1.981
 2165SOL     OW 7393   6.414   1.852   5.604
 2165SOL    HW1 7394   6.391   1.944   5.573
 2165SOL    HW2 7395   6.511   1.834   5.587
 2166SOL     OW 7396   0.026   2.323   1.799
 2166SOL    HW1 7397   6.981   2.250   1.776
 2166SOL    HW2 7398   6.998   2.398   1.845
 2167SOL     OW 7399   1.246   2.396   2.597
 2167SOL    HW1 7400   1.174   2.460   2.621
 2167SOL    HW2 7401   1.323   2.406   2.660
 2168SOL     OW 7402   1.379   2.529   3.516
 2168SOL    HW1 7403   1.288   2.571   3.514
 2168SOL    HW2 7404   1.423   2.550   3.604
 2169SOL     OW 7405   6.853   6.994   0.892
 2169SOL    HW1 7406   6.928   6.957   0.947
 2169SOL    HW2 7407   6.772   6.936   0.903
 2170SOL     OW 7408   1.869   2.760   6.493
 2170SOL    HW1 7409   1.911   2.675   6.462
 2170SOL    HW2 7410   1.939   2.829   6.508
 2171SOL     OW 7411   6.745   6.383   1.192
 2171SOL    HW1 7412   6.823   6.444   1.192
 2171SOL    HW2 7413   6.703   6.382   1.282
 2172SOL     OW 7414   2.268   2.459   4.943
 2172SOL    HW1 7415   2.342   2.459   4.875
 2172SOL    HW2 7416   2.183   2.489   4.900
 2173SOL     OW 7417   4.405   0.552   5.022
 2173SOL    HW1 7418   4.501   0.544   4.997
 2173SOL    HW2 7419   4.367   0.635   4.981
 2174SOL     OW 7420   5.351   0.106   6.078
 2174SOL    HW1 7421   5.389   0.195   6.052
 2174SOL    HW2 7422   5.255   0.101   6.051
 2175SOL     OW 7423   3.386   2.939   5.643
 2175SOL    HW1 7424   3.347   2.938   5.550
 2175SOL    HW2 7425   3.484   2.918   5.637
 2176SOL     OW 7426   6.523   1.580   2.804
 2176SOL    HW1 7427   6.430   1.603   2.773
 2176SOL    HW2 7428   6.581   1.564   2.724
 2177SOL     OW 7429   0.590   1.113   5.254
 2177SOL    HW1 7430   0.615   1.150   5.343
 2177SOL    HW2 7431   0.559   1.019   5.263
 2178SOL     OW 7432   1.814   2.895   2.618
 2178SOL    HW1 7433   1.786   2.893   2.522
 2178SOL    HW2 7434   1.825   2.801   2.651
 2179SOL     OW 7435   1.769   4.075   6.809
 2179SOL    HW1 7436   1.846   4.117   6.762
 2179SOL    HW2 7437   1.739   3.994   6.758
 2180SOL     OW 7438   0.455   5.122   3.080
 2180SOL    HW1 7439   0.541   5.174   3.076
 2180SOL    HW2 7440   0.411   5.125   2.990
 2181SOL     OW 7441   4.303   4.637   3.683
 2181SOL    HW1 7442   4.228   4.586   3.641
 2181SOL    HW2 7443   4.274   4.730   3.702
 2182SOL     OW 7444   0.160   6.710   1.181
 2182SOL    HW1 7445   0.170   6.612   1.198
 2182SOL    HW2 7446   0.177   6.760   1.266
 2183SOL     OW 7447   3.795   3.312   6.724
 2183SOL    HW1 7448   3.877   3.306   6.781
 2183SOL    HW2 7449   3.723   3.360   6.774
 2184SOL     OW 7450   6.540   1.968   6.815
 2184SOL    HW1 7451   6.542   1.998   6.719
 2184SOL    HW2 7452   6.579   1.876   6.822
 2185SOL     OW 7453   0.749   0.845   6.372
 2185SOL    HW1 7454   0.750   0.783   6.450
 2185SOL    HW2 7455   0.655   0.868   6.349
 2186SOL     OW 7456   6.855   6.401   5.479
 2186SOL    HW1 7457   6.840   6.304   5.458
 2186SOL    HW2 7458   6.808   6.425   5.563
 2187SOL     OW 7459   6.009   4.197   1.802
 2187SOL    HW1 7460   6.022   4.098   1.798
 2187SOL    HW2 7461   5.923   4.218   1.848
 2188SOL     OW 7462   3.190   1.427   1.404
 2188SOL    HW1 7463   3.152   1.352   1.457
 2188SOL    HW2 7464   3.123   1.456   1.335
 2189SOL     OW 7465   2.152   0.821   2.399
 2189SOL    HW1 7466   2.092   0.839   2.477
 2189SOL    HW2 7467   2.111   0.860   2.316
 2190SOL     OW 7468   6.635   4.879   1.695
 2190SOL    HW1 7469   6.539   4.880   1.723
 2190SOL    HW2 7470   6.666   4.784   1.685
 2191SOL     OW 7471   3.476   6.912   6.706
 2191SOL    HW1 7472   3.422   6.992   6.731
 2191SOL    HW2 7473   3.447   6.833   6.760
 2192SOL     OW 7474   4.801   2.403   1.762
 2192SOL    HW1 7475   4.813   2.450   1.675
 2192SOL    HW2 7476   4.725   2.445   1.813
 2193SOL     OW 7477   1.790   0.511   5.305
 2193SOL    HW1 7478   1.878   0.556   5.295
 2193SOL    HW2 7479   1.732   0.562   5.369
 2194SOL     OW 7480   0.978   4.545   5.838
 2194SOL    HW1 7481   1.012   4.497   5.918
 2194SOL    HW2 7482   0.938   4.632   5.866
 2195SOL     OW 7483   0.173   4.292   5.515
 2195SOL    HW1 7484   0.100   4.339   5.565
 2195SOL    HW2 7485   0.210   4.219   5.571
 2196SOL     OW 7486   4.204   1.653   6.743
 2196SOL    HW1 7487   4.127   1.596   6.772
 2196SOL    HW2 7488   4.289   1.603   6.756
 2197SOL     OW 7489   4.255   5.319   6.622
 2197SOL    HW1 7490   4.220   5.409   6.595
 2197SOL    HW2 7491   4.241   5.254   6.548
 2198SOL     OW 7492   1.439   1.125   6.035
 2198SOL    HW1 7493   1.503   1.099   5.962
 2198SOL    HW2 7494   1.461   1.217   6.066
 2199SOL     OW 7495   4.184   6.750   3.818
 2199SOL    HW1 7496   4.264   6.712   3.771
 2199SOL    HW2 7497   4.165   6.841   3.782
 2200SOL     OW 7498   2.542   2.092   4.563
 2200SOL    HW1 7499   2.447   2.106   4.535
 2200SOL    HW2 7500   2.588   2.030   4.500
 2201SOL     OW 7501   6.098   3.321   4.944
 2201SOL    HW1 7502   6.144   3.305   5.031
 2201SOL    HW2 7503   6.004   3.350   4.960
 2202SOL     OW 7504   4.308   0.061   4.327
 2202SOL    HW1 7505   4.366   0.139   4.351
 2202SOL    HW2 7506   4.345   6.997   4.366
 2203SOL     OW 7507   2.158   6.311   1.323
 2203SOL    HW1 7508   2.197   6.384   1.380
 2203SOL    HW2 7509   2.154   6.341   1.228
 2204SOL     OW 7510   4.960   2.914   0.580
 2204SOL    HW1 7511   5.003   2.847   0.641
 2204SOL    HW2 7512   4.964   3.005   0.623
 2205SOL     OW 7513   4.803   5.756   1.079
 2205SOL    HW1 7514   4.901   5.771   1.083
 2205SOL    HW2 7515   4.784   5.664   1.045
 2206SOL     OW 7516   3.578   2.962   5.348
 2206SOL    HW1 7517   3.492   2.912   5.334
 2206SOL    HW2 7518   3.644   2.935   5.278
 2207SOL     OW 7519   4.427   4.834   1.586
 2207SOL    HW1 7520   4.511   4.794   1.623
 2207SOL    HW2 7521   4.427   4.827   1.487
 2208SOL     OW 7522   6.648   6.421   3.128
 2208SOL    HW1 7523   6.709   6.492   3.095
 2208SOL    HW2 7524   6.671   6.399   3.223
 2209SOL     OW 7525   2.587   5.596   3.729
 2209SOL    HW1 7526   2.576   5.496   3.724
 2209SOL    HW2 7527   2.661   5.618   3.793
 2210SOL     OW 7528   5.215   6.618   1.974
 2210SOL    HW1 7529   5.178   6.710   1.961
 2210SOL    HW2 7530   5.139   6.553   1.977
 2211SOL     OW 7531   1.609   0.704   1.703
 2211SOL    HW1 7532   1.528   0.670   1.654
 2211SOL    HW2 7533   1.624   0.799   1.679
 2212SOL     OW 7534   2.951   6.257   6.332
 2212SOL    HW1 7535   2.863   6.231   6.292
 2212SOL    HW2 7536   2.958   6.357   6.335
 2213SOL     OW 7537   3.078   1.356   4.515
 2213SOL    HW1 7538   3.036   1.446   4.532
 2213SOL    HW2 7539   3.177   1.363   4.526
 2214SOL     OW 7540   4.243   4.718   6.478
 2214SOL    HW1 7541   4.311   4.698   6.548
 2214SOL    HW2 7542   4.151   4.709   6.517
 2215SOL     OW 7543   6.053   5.546   6.232
 2215SOL    HW1 7544   6.150   5.523   6.246
 2215SOL    HW2 7545   6.031   5.629   6.284
 2216SOL     OW 7546   0.337   6.436   6.944
 2216SOL    HW1 7547   0.290   6.411   6.859
 2216SOL    HW2 7548   0.337   6.357   7.006
 2217SOL     OW 7549   3.884   1.295   3.316
 2217SOL    HW1 7550   3.828   1.218   3.347
 2217SOL    HW2 7551   3.917   1.345   3.396
 2218SOL     OW 7552   6.259   5.602   5.661
 2218SOL    HW1 7553   6.288   5.696   5.679
 2218SOL    HW2 7554   6.336   5.549   5.626
 2219SOL     OW 7555   5.430   2.173   0.405
 2219SOL    HW1 7556   5.420   2.105   0.332
 2219SOL    HW2 7557   5.496   2.243   0.377
 2220SOL     OW 7558   6.711   6.659   4.474
 2220SOL    HW1 7559   6.695   6.563   4.453
 2220SOL    HW2 7560   6.696   6.714   4.392
 2221SOL     OW 7561   4.900   0.222   4.019
 2221SOL    HW1 7562   4.905   0.229   3.920
 2221SOL    HW2 7563   4.941   0.303   4.061
 2222SOL     OW 7564   3.270   0.711   3.832
 2222SOL    HW1 7565   3.191   0.718   3.772
 2222SOL    HW2 7566   3.352   0.740   3.782
 2223SOL     OW 7567   0.869   6.998   5.383
 2223SOL    HW1 7568   0.855   6.959   5.474
 2223SOL    HW2 7569   0.829   0.070   5.380
 2224SOL     OW 7570   5.372   4.394   6.647
 2224SOL    HW1 7571   5.314   4.374   6.726
 2224SOL    HW2 7572   5.329   4.467   6.593
 2225SOL     OW 7573   6.443   0.378   0.557
 2225SOL    HW1 7574   6.479   0.332   0.476
 2225SOL    HW2 7575   6.448   0.477   0.544
 2226SOL     OW 7576   2.865   3.391   6.915
 2226SOL    HW1 7577   2.910   3.413   7.002
 2226SOL    HW2 7578   2.935   3.376   6.845
 2227SOL     OW 7579   4.342   1.451   1.720
 2227SOL    HW1 7580   4.266   1.411   1.772
 2227SOL    HW2 7581   4.311   1.474   1.628
 2228SOL     OW 7582   5.009   6.433   6.375
 2228SOL    HW1 7583   4.956   6.350   6.359
 2228SOL    HW2 7584   5.010   6.489   6.292
 2229SOL     OW 7585   3.126   3.093   4.330
 2229SOL    HW1 7586   3.152   3.019   4.268
 2229SOL    HW2 7587   3.037   3.130   4.303
 2230SOL     OW 7588   6.908   1.170   6.156
 2230SOL    HW1 7589   6.998   1.178   6.197
 2230SOL    HW2 7590   6.897   1.240   6.086
 2231SOL     OW 7591   1.141   0.044   6.173
 2231SOL    HW1 7592   1.143   6.972   6.134
 2231SOL    HW2 7593   1.221   0.095   6.143
 2232SOL     OW 7594   1.611   0.866   6.516
 2232SOL    HW1 7595   1.705   0.834   6.531
 2232SOL    HW2 7596   1.578   0.912   6.599
 2233SOL     OW 7597   2.749   6.014   1.426
 2233SOL    HW1 7598   2.649   6.003   1.426
 2233SOL    HW2 7599   2.783   6.008   1.520
 2234SOL     OW 7600   5.213   1.889   1.516
 2234SOL    HW1 7601   5.202   1.981   1.478
 2234SOL    HW2 7602   5.275   1.893   1.595
 2235SOL     OW 7603   0.985   2.261   3.295
 2235SOL    HW1 7604   1.076   2.230   3.320
 2235SOL    HW2 7605   0.989   2.355   3.261
 2236SOL     OW 7606   2.587   4.635   5.199
 2236SOL    HW1 7607   2.520   4.565   5.174
 2236SOL    HW2 7608   2.679   4.603   5.179
 2237SOL     OW 7609   5.928   6.776   6.270
 2237SOL    HW1 7610   5.906   6.840   6.344
 2237SOL    HW2 7611   5.847   6.724   6.245
 2238SOL     OW 7612   5.553   4.063   2.050
 2238SOL    HW1 7613   5.471   4.014   2.081
 2238SOL    HW2 7614   5.594   4.111   2.127
 2239SOL     OW 7615   3.635   0.318   3.106
 2239SOL    HW1 7616   3.622   0.342   3.009
 2239SOL    HW2 7617   3.726   0.277   3.118
 2240SOL     OW 7618   4.956   5.457   2.556
 2240SOL    HW1 7619   4.912   5.539   2.518
 2240SOL    HW2 7620   4.933   5.449   2.653
 2241SOL     OW 7621   0.932   2.111   3.067
 2241SOL    HW1 7622   1.018   2.061   3.062
 2241SOL    HW2 7623   0.930   2.166   3.151
 2242SOL     OW 7624   5.223   2.125   4.044
 2242SOL    HW1 7625   5.224   2.143   3.946
 2242SOL    HW2 7626   5.267   2.201   4.092
 2243SOL     OW 7627   2.667   0.605   0.300
 2243SOL    HW1 7628   2.627   0.514   0.288
 2243SOL    HW2 7629   2.621   0.670   0.240
 2244SOL     OW 7630   2.300   1.807   1.114
 2244SOL    HW1 7631   2.275   1.785   1.019
 2244SOL    HW2 7632   2.266   1.898   1.137
 2245SOL     OW 7633   6.861   1.032   0.554
 2245SOL    HW1 7634   6.798   1.015   0.478
 2245SOL    HW2 7635   6.941   1.083   0.520
 2246SOL     OW 7636   5.410   0.968   5.489
 2246SOL    HW1 7637   5.334   1.030   5.471
 2246SOL    HW2 7638   5.493   1.021   5.507
 2247SOL     OW 7639   3.685   3.525   1.857
 2247SOL    HW1 7640   3.765   3.516   1.916
 2247SOL    HW2 7641   3.614   3.578   1.905
 2248SOL     OW 7642   5.702   3.421   4.698
 2248SOL    HW1 7643   5.788   3.372   4.685
 2248SOL    HW2 7644   5.645   3.372   4.764
 2249SOL     OW 7645   2.379   6.004   3.423
 2249SOL    HW1 7646   2.401   6.098   3.448
 2249SOL    HW2 7647   2.281   5.997   3.403
 2250SOL     OW 7648   4.502   5.847   6.017
 2250SOL    HW1 7649   4.490   5.877   5.922
 2250SOL    HW2 7650   4.599   5.852   6.041
 2251SOL     OW 7651   3.767   6.678   4.668
 2251SOL    HW1 7652   3.766   6.611   4.594
 2251SOL    HW2 7653   3.716   6.760   4.639
 2252SOL     OW 7654   3.678   1.145   2.488
 2252SOL    HW1 7655   3.666   1.130   2.586
 2252SOL    HW2 7656   3.763   1.101   2.458
 2253SOL     OW 7657   1.488   2.693   1.654
 2253SOL    HW1 7658   1.408   2.728   1.703
 2253SOL    HW2 7659   1.465   2.678   1.558
 2254SOL     OW 7660   3.169   3.029   2.863
 2254SOL    HW1 7661   3.158   2.999   2.958
 2254SOL    HW2 7662   3.082   3.064   2.829
 2255SOL     OW 7663   1.297   2.188   6.197
 2255SOL    HW1 7664   1.301   2.150   6.289
 2255SOL    HW2 7665   1.203   2.187   6.164
 2256SOL     OW 7666   4.977   0.344   1.026
 2256SOL    HW1 7667   4.907   0.304   1.085
 2256SOL    HW2 7668   4.948   0.338   0.931
 2257SOL     OW 7669   0.266   0.670   6.485
 2257SOL    HW1 7670   0.242   0.766   6.498
 2257SOL    HW2 7671   0.187   0.613   6.510
 2258SOL     OW 7672   2.459   0.250   3.223
 2258SOL    HW1 7673   2.498   0.159   3.207
 2258SOL    HW2 7674   2.455   0.268   3.321
 2259SOL     OW 7675   5.940   0.418   5.496
 2259SOL    HW1 7676   6.026   0.370   5.478
 2259SOL    HW2 7677   5.957   0.494   5.559
 2260SOL     OW 7678   1.442   3.850   1.407
 2260SOL    HW1 7679   1.534   3.811   1.409
 2260SOL    HW2 7680   1.405   3.844   1.315
 2261SOL     OW 7681   4.788   4.540   6.728
 2261SOL    HW1 7682   4.842   4.615   6.690
 2261SOL    HW2 7683   4.719   4.512   6.662
 2262SOL     OW 7684   6.582   0.297   3.850
 2262SOL    HW1 7685   6.626   0.226   3.795
 2262SOL    HW2 7686   6.589   0.274   3.947
 2263SOL     OW 7687   2.468   4.462   6.679
 2263SOL    HW1 7688   2.416   4.397   6.623
 2263SOL    HW2 7689   2.548   4.415   6.717
 2264SOL     OW 7690   2.131   0.391   6.690
 2264SOL    HW1 7691   2.104   0.485   6.668
 2264SOL    HW2 7692   2.217   0.391   6.740
 2265SOL     OW 7693   0.555   6.379   3.583
 2265SOL    HW1 7694   0.557   6.348   3.678
 2265SOL    HW2 7695   0.616   6.457   3.572
 2266SOL     OW 7696   4.709   4.000   6.765
 2266SOL    HW1 7697   4.690   3.956   6.852
 2266SOL    HW2 7698   4.689   3.937   6.690
 2267SOL     OW 7699   5.524   2.940   4.803
 2267SOL    HW1 7700   5.453   2.974   4.741
 2267SOL    HW2 7701   5.597   3.008   4.810
 2268SOL     OW 7702   0.825   6.046   4.666
 2268SOL    HW1 7703   0.771   6.113   4.717
 2268SOL    HW2 7704   0.822   5.958   4.713
 2269SOL     OW 7705   1.869   2.314   5.263
 2269SOL    HW1 7706   1.818   2.349   5.185
 2269SOL    HW2 7707   1.922   2.389   5.304
 2270SOL     OW 7708   4.644   1.711   6.241
 2270SOL    HW1 7709   4.705   1.767   6.298
 2270SOL    HW2 7710   4.698   1.641   6.194
 2271SOL     OW 7711   3.862   5.776   5.278
 2271SOL    HW1 7712   3.765   5.779   5.252
 2271SOL    HW2 7713   3.870   5.744   5.372
 2272SOL     OW 7714   5.840   0.636   6.379
 2272SOL    HW1 7715   5.817   0.644   6.282
 2272SOL    HW2 7716   5.938   0.652   6.392
 2273SOL     OW 7717   1.277   2.288   4.163
 2273SOL    HW1 7718   1.314   2.270   4.072
 2273SOL    HW2 7719   1.315   2.373   4.199
 2274SOL     OW 7720   1.344   1.307   7.015
 2274SOL    HW1 7721   1.440   1.306   0.027
 2274SOL    HW2 7722   1.339   1.355   6.928
 2275SOL     OW 7723   5.605   3.496   3.187
 2275SOL    HW1 7724   5.643   3.558   3.256
 2275SOL    HW2 7725   5.631   3.402   3.209
 2276SOL     OW 7726   1.798   1.933   1.501
 2276SOL    HW1 7727   1.831   1.948   1.594
 2276SOL    HW2 7728   1.713   1.879   1.504
 2277SOL     OW 7729   3.783   2.892   3.189
 2277SOL    HW1 7730   3.854   2.949   3.147
 2277SOL    HW2 7731   3.705   2.886   3.127
 2278SOL     OW 7732   6.745   3.396   3.826
 2278SOL    HW1 7733   6.739   3.480   3.879
 2278SOL    HW2 7734   6.748   3.317   3.887
 2279SOL     OW 7735   0.615   5.134   5.724
 2279SOL    HW1 7736   0.664   5.190   5.658
 2279SOL    HW2 7737   0.674   5.114   5.802
 2280SOL     OW 7738   4.880   2.699   5.854
 2280SOL    HW1 7739   4.969   2.730   5.819
 2280SOL    HW2 7740   4.823   2.671   5.777
 2281SOL     OW 7741   4.966   6.816   2.332
 2281SOL    HW1 7742   4.992   6.849   2.241
 2281SOL    HW2 7743   5.000   6.722   2.344
 2282SOL     OW 7744   3.416   4.995   5.904
 2282SOL    HW1 7745   3.321   4.970   5.924
 2282SOL    HW2 7746   3.465   5.010   5.990
 2283SOL     OW 7747   0.062   1.036   5.122
 2283SOL    HW1 7748   0.085   1.107   5.190
 2283SOL    HW2 7749   6.987   1.007   5.135
 2284SOL     OW 7750   1.462   3.700   6.314
 2284SOL    HW1 7751   1.562   3.697   6.321
 2284SOL    HW2 7752   1.423   3.632   6.376
 2285SOL     OW 7753   1.477   5.107   6.463
 2285SOL    HW1 7754   1.546   5.095   6.392
 2285SOL    HW2 7755   1.512   5.170   6.532
 2286SOL     OW 7756   4.735   4.185   2.450
 2286SOL    HW1 7757   4.684   4.267   2.423
 2286SOL    HW2 7758   4.832   4.208   2.460
 2287SOL     OW 7759   1.611   1.233   4.140
 2287SOL    HW1 7760   1.605   1.133   4.130
 2287SOL    HW2 7761   1.707   1.260   4.138
 2288SOL     OW 7762   6.429   5.236   3.280
 2288SOL    HW1 7763   6.453   5.143   3.307
 2288SOL    HW2 7764   6.338   5.259   3.315
 2289SOL     OW 7765   0.248   4.965   0.185
 2289SOL    HW1 7766   0.171   5.028   0.180
 2289SOL    HW2 7767   0.333   5.014   0.161
 2290SOL     OW 7768   0.957   5.489   6.919
 2290SOL    HW1 7769   0.987   5.465   6.827
 2290SOL    HW2 7770   1.024   5.457   6.985
 2291SOL     OW 7771   1.732   1.681   6.758
 2291SOL    HW1 7772   1.690   1.732   6.683
 2291SOL    HW2 7773   1.729   1.583   6.737
 2292SOL     OW 7774   2.251   0.825   4.418
 2292SOL    HW1 7775   2.205   0.859   4.500
 2292SOL    HW2 7776   2.183   0.787   4.356
 2293SOL     OW 7777   5.225   4.109   3.019
 2293SOL    HW1 7778   5.222   4.038   3.089
 2293SOL    HW2 7779   5.198   4.197   3.060
 2294SOL     OW 7780   3.880   6.768   6.935
 2294SOL    HW1 7781   3.810   6.820   6.885
 2294SOL    HW2 7782   3.903   6.686   6.884
 2295SOL     OW 7783   1.095   0.687   2.134
 2295SOL    HW1 7784   1.034   0.759   2.099
 2295SOL    HW2 7785   1.063   0.656   2.223
 2296SOL     OW 7786   2.941   6.321   0.359
 2296SOL    HW1 7787   2.878   6.363   0.295
 2296SOL    HW2 7788   3.032   6.362   0.350
 2297SOL     OW 7789   4.072   6.270   6.428
 2297SOL    HW1 7790   4.167   6.240   6.418
 2297SOL    HW2 7791   4.036   6.238   6.516
 2298SOL     OW 7792   4.444   3.307   6.763
 2298SOL    HW1 7793   4.467   3.240   6.693
 2298SOL    HW2 7794   4.410   3.260   6.844
 2299SOL     OW 7795   4.428   0.215   1.140
 2299SOL    HW1 7796   4.491   0.293   1.136
 2299SOL    HW2 7797   4.415   0.178   1.049
 2300SOL     OW 7798   0.880   5.098   1.153
 2300SOL    HW1 7799   0.979   5.085   1.154
 2300SOL    HW2 7800   0.850   5.118   1.059
 2301SOL     OW 7801   3.561   3.273   1.845
 2301SOL    HW1 7802   3.644   3.217   1.844
 2301SOL    HW2 7803   3.585   3.369   1.826
 2302SOL     OW 7804   2.608   5.360   2.698
 2302SOL    HW1 7805   2.649   5.304   2.769
 2302SOL    HW2 7806   2.647   5.452   2.700
 2303SOL     OW 7807   0.204   3.428   6.466
 2303SOL    HW1 7808   0.298   3.454   6.487
 2303SOL    HW2 7809   0.141   3.496   6.505
 2304SOL     OW 7810   1.732   1.367   4.749
 2304SOL    HW1 7811   1.656   1.342   4.809
 2304SOL    HW2 7812   1.791   1.287   4.735
 2305SOL     OW 7813   4.200   4.955   1.801
 2305SOL    HW1 7814   4.173   5.046   1.833
 2305SOL    HW2 7815   4.171   4.943   1.706
 2306SOL     OW 7816   0.360   4.351   0.251
 2306SOL    HW1 7817   0.393   4.435   0.208
 2306SOL    HW2 7818   0.327   4.288   0.180
 2307SOL     OW 7819   0.162   0.844   3.109
 2307SOL    HW1 7820   0.133   0.750   3.094
 2307SOL    HW2 7821   0.209   0.852   3.197
 2308SOL     OW 7822   1.229   6.975   0.096
 2308SOL    HW1 7823   1.193   6.887   0.065
 2308SOL    HW2 7824   1.271   6.964   0.186
 2309SOL     OW 7825   2.322   4.944   6.525
 2309SOL    HW1 7826   2.277   4.876   6.584
 2309SOL    HW2 7827   2.275   4.946   6.436
 2310SOL     OW 7828   5.421   1.619   3.240
 2310SOL    HW1 7829   5.425   1.648   3.144
 2310SOL    HW2 7830   5.482   1.676   3.294
 2311SOL     OW 7831   2.552   0.133   2.676
 2311SOL    HW1 7832   2.640   0.161   2.712
 2311SOL    HW2 7833   2.519   0.202   2.611
 2312SOL     OW 7834   2.429   1.124   2.491
 2312SOL    HW1 7835   2.439   1.029   2.462
 2312SOL    HW2 7836   2.483   1.140   2.573
 2313SOL     OW 7837   4.913   4.525   1.766
 2313SOL    HW1 7838   4.938   4.448   1.708
 2313SOL    HW2 7839   4.878   4.599   1.709
 2314SOL     OW 7840   6.328   5.710   3.120
 2314SOL    HW1 7841   6.399   5.642   3.099
 2314SOL    HW2 7842   6.258   5.668   3.178
 2315SOL     OW 7843   4.962   6.510   5.163
 2315SOL    HW1 7844   4.922   6.488   5.074
 2315SOL    HW2 7845   5.007   6.429   5.201
 2316SOL     OW 7846   3.459   1.585   5.865
 2316SOL    HW1 7847   3.489   1.567   5.771
 2316SOL    HW2 7848   3.431   1.500   5.909
 2317SOL     OW 7849   6.949   5.003   2.522
 2317SOL    HW1 7850   0.021   4.985   2.486
 2317SOL    HW2 7851   6.923   4.930   2.585
 2318SOL     OW 7852   1.345   4.488   3.909
 2318SOL    HW1 7853   1.296   4.557   3.964
 2318SOL    HW2 7854   1.332   4.508   3.812
 2319SOL     OW 7855   2.408   5.842   2.862
 2319SOL    HW1 7856   2.400   5.876   2.955
 2319SOL    HW2 7857   2.454   5.911   2.805
 2320SOL     OW 7858   0.863   2.087   5.474
 2320SOL    HW1 7859   0.902   2.070   5.565
 2320SOL    HW2 7860   0.847   2.184   5.461
 2321SOL     OW 7861   2.084   5.145   5.094
 2321SOL    HW1 7862   2.067   5.148   4.996
 2321SOL    HW2 7863   2.038   5.065   5.134
 2322SOL     OW 7864   1.942   3.889   1.831
 2322SOL    HW1 7865   2.038   3.902   1.859
 2322SOL    HW2 7866   1.898   3.824   1.892
 2323SOL     OW 7867   2.815   5.815   0.562
 2323SOL    HW1 7868   2.734   5.798   0.618
 2323SOL    HW2 7869   2.800   5.779   0.470
 2324SOL     OW 7870   6.531   5.127   2.640
 2324SOL    HW1 7871   6.503   5.063   2.568
 2324SOL    HW2 7872   6.627   5.151   2.628
 2325SOL     OW 7873   6.594   4.590   2.940
 2325SOL    HW1 7874   6.509   4.536   2.938
 2325SOL    HW2 7875   6.605   4.638   2.853
 2326SOL     OW 7876   2.040   0.376   6.983
 2326SOL    HW1 7877   1.986   0.451   0.003
 2326SOL    HW2 7878   2.067   0.400   6.890
 2327SOL     OW 7879   6.355   6.421   1.989
 2327SOL    HW1 7880   6.433   6.359   1.993
 2327SOL    HW2 7881   6.307   6.409   1.902
 2328SOL     OW 7882   2.113   3.646   2.560
 2328SOL    HW1 7883   2.122   3.677   2.466
 2328SOL    HW2 7884   2.086   3.549   2.561
 2329SOL     OW 7885   0.506   4.697   2.782
 2329SOL    HW1 7886   0.508   4.656   2.873
 2329SOL    HW2 7887   0.509   4.624   2.713
 2330SOL     OW 7888   6.217   2.923   1.457
 2330SOL    HW1 7889   6.275   2.866   1.515
 2330SOL    HW2 7890   6.126   2.882   1.451
 2331SOL     OW 7891   5.055   5.734   1.376
 2331SOL    HW1 7892   4.976   5.673   1.384
 2331SOL    HW2 7893   5.072   5.754   1.279
 2332SOL     OW 7894   6.133   6.933   6.174
 2332SOL    HW1 7895   6.063   6.865   6.192
 2332SOL    HW2 7896   6.185   6.906   6.093
 2333SOL     OW 7897   1.389   4.596   2.770
 2333SOL    HW1 7898   1.339   4.671   2.728
 2333SOL    HW2 7899   1.446   4.550   2.701
 2334SOL     OW 7900   3.415   1.484   6.443
 2334SOL    HW1 7901   3.416   1.402   6.387
 2334SOL    HW2 7902   3.462   1.558   6.395
 2335SOL     OW 7903   6.727   1.183   3.762
 2335SOL    HW1 7904   6.650   1.226   3.714
 2335SOL    HW2 7905   6.691   1.123   3.834
 2336SOL     OW 7906   1.857   1.825   3.484
 2336SOL    HW1 7907   1.797   1.878   3.545
 2336SOL    HW2 7908   1.804   1.756   3.436
 2337SOL     OW 7909   3.963   0.925   1.834
 2337SOL    HW1 7910   3.951   1.018   1.800
 2337SOL    HW2 7911   3.972   0.862   1.757
 2338SOL     OW 7912   6.616   3.861   3.753
 2338SOL    HW1 7913   6.607   3.778   3.809
 2338SOL    HW2 7914   6.713   3.881   3.737
 2339SOL     OW 7915   3.370   2.855   2.817
 2339SOL    HW1 7916   3.337   2.761   2.826
 2339SOL    HW2 7917   3.294   2.918   2.832
 2340SOL     OW 7918   2.394   3.785   6.947
 2340SOL    HW1 7919   2.447   3.726   7.007
 2340SOL    HW2 7920   2.398   3.879   6.981
 2341SOL     OW 7921   2.838   4.792   4.124
 2341SOL    HW1 7922   2.777   4.755   4.194
 2341SOL    HW2 7923   2.797   4.778   4.033
 2342SOL     OW 7924   3.733   0.906   4.485
 2342SOL    HW1 7925   3.668   0.980   4.466
 2342SOL    HW2 7926   3.799   0.935   4.554
 2343SOL     OW 7927   0.192   0.172   1.024
 2343SOL    HW1 7928   0.275   0.144   1.072
 2343SOL    HW2 7929   0.122   0.101   1.033
 2344SOL     OW 7930   5.945   4.474   0.116
 2344SOL    HW1 7931   5.889   4.481   0.198
 2344SOL    HW2 7932   6.042   4.476   0.141
 2345SOL     OW 7933   3.536   6.506   4.596
 2345SOL    HW1 7934   3.602   6.459   4.654
 2345SOL    HW2 7935   3.488   6.439   4.538
 2346SOL     OW 7936   5.057   3.483   0.589
 2346SOL    HW1 7937   4.996   3.426   0.535
 2346SOL    HW2 7938   5.144   3.493   0.541
 2347SOL     OW 7939   1.464   1.094   1.707
 2347SOL    HW1 7940   1.452   1.193   1.711
 2347SOL    HW2 7941   1.556   1.073   1.673
 2348SOL     OW 7942   0.179   5.539   2.539
 2348SOL    HW1 7943   0.121   5.513   2.617
 2348SOL    HW2 7944   0.211   5.633   2.551
 2349SOL     OW 7945   0.922   4.387   4.992
 2349SOL    HW1 7946   0.979   4.436   5.058
 2349SOL    HW2 7947   0.832   4.429   4.989
 2350SOL     OW 7948   5.325   3.934   0.198
 2350SOL    HW1 7949   5.244   3.984   0.227
 2350SOL    HW2 7950   5.388   3.996   0.151
 2351SOL     OW 7951   2.426   6.015   1.791
 2351SOL    HW1 7952   2.507   6.000   1.847
 2351SOL    HW2 7953   2.345   5.984   1.840
 2352SOL     OW 7954   6.781   2.537   3.231
 2352SOL    HW1 7955   6.853   2.508   3.168
 2352SOL    HW2 7956   6.692   2.511   3.195
 2353SOL     OW 7957   3.108   5.538   4.041
 2353SOL    HW1 7958   3.132   5.448   4.079
 2353SOL    HW2 7959   3.066   5.594   4.112
 2354SOL     OW 7960   2.375   2.561   3.737
 2354SOL    HW1 7961   2.466   2.530   3.708
 2354SOL    HW2 7962   2.385   2.625   3.813
 2355SOL     OW 7963   2.436   5.477   4.495
 2355SOL    HW1 7964   2.496   5.406   4.459
 2355SOL    HW2 7965   2.452   5.562   4.445
 2356SOL     OW 7966   0.020   2.486   0.036
 2356SOL    HW1 7967   6.966   2.539   7.013
 2356SOL    HW2 7968   0.108   2.530   0.018
 2357SOL     OW 7969   2.143   6.846   2.799
 2357SOL    HW1 7970   2.164   6.800   2.713
 2357SOL    HW2 7971   2.160   6.944   2.789
 2358SOL     OW 7972   4.314   5.368   5.802
 2358SOL    HW1 7973   4.408   5.365   5.769
 2358SOL    HW2 7974   4.303   5.442   5.868
 2359SOL     OW 7975   1.881   0.516   4.954
 2359SOL    HW1 7976   1.978   0.495   4.940
 2359SOL    HW2 7977   1.858   0.504   5.050
 2360SOL     OW 7978   6.731   3.870   0.231
 2360SOL    HW1 7979   6.696   3.910   0.316
 2360SOL    HW2 7980   6.830   3.884   0.226
 2361SOL     OW 7981   3.886   1.270   0.441
 2361SOL    HW1 7982   3.846   1.295   0.353
 2361SOL    HW2 7983   3.815   1.268   0.511
 2362SOL     OW 7984   2.696   5.612   3.124
 2362SOL    HW1 7985   2.652   5.551   3.058
 2362SOL    HW2 7986   2.632   5.631   3.199
 2363SOL     OW 7987   4.157   0.866   3.802
 2363SOL    HW1 7988   4.253   0.844   3.785
 2363SOL    HW2 7989   4.102   0.783   3.795
 2364SOL     OW 7990   1.252   2.794   1.462
 2364SOL    HW1 7991   1.229   2.874   1.407
 2364SOL    HW2 7992   1.169   2.744   1.485
 2365SOL     OW 7993   4.915   1.895   0.332
 2365SOL    HW1 7994   4.946   1.979   0.287
 2365SOL    HW2 7995   4.880   1.918   0.423
 2366SOL     OW 7996   4.379   5.432   0.799
 2366SOL    HW1 7997   4.434   5.350   0.811
 2366SOL    HW2 7998   4.284   5.413   0.824
 2367SOL     OW 7999   2.012   3.503   6.127
 2367SOL    HW1 8000   2.044   3.544   6.041
 2367SOL    HW2 8001   1.952   3.426   6.106
 2368SOL     OW 8002   5.863   6.393   1.790
 2368SOL    HW1 8003   5.853   6.331   1.712
 2368SOL    HW2 8004   5.960   6.409   1.807
 2369SOL     OW 8005   2.497   1.540   3.092
 2369SOL    HW1 8006   2.553   1.615   3.057
 2369SOL    HW2 8007   2.486   1.551   3.191
 2370SOL     OW 8008   6.020   2.606   6.162
 2370SOL    HW1 8009   6.081   2.684   6.152
 2370SOL    HW2 8010   5.925   2.638   6.168
 2371SOL     OW 8011   1.939   6.195   1.812
 2371SOL    HW1 8012   1.875   6.128   1.775
 2371SOL    HW2 8013   2.026   6.189   1.762
 2372SOL     OW 8014   6.272   2.980   2.816
 2372SOL    HW1 8015   6.299   2.906   2.877
 2372SOL    HW2 8016   6.324   3.063   2.839
 2373SOL     OW 8017   2.358   3.591   6.419
 2373SOL    HW1 8018   2.397   3.539   6.343
 2373SOL    HW2 8019   2.307   3.669   6.383
 2374SOL     OW 8020   5.652   2.475   4.709
 2374SOL    HW1 8021   5.707   2.411   4.761
 2374SOL    HW2 8022   5.580   2.513   4.767
 2375SOL     OW 8023   1.545   6.895   5.784
 2375SOL    HW1 8024   1.586   6.821   5.732
 2375SOL    HW2 8025   1.458   6.921   5.743
 2376SOL     OW 8026   0.130   2.377   4.079
 2376SOL    HW1 8027   0.162   2.341   4.167
 2376SOL    HW2 8028   0.197   2.441   4.043
 2377SOL     OW 8029   3.329   2.971   3.765
 2377SOL    HW1 8030   3.317   3.070   3.755
 2377SOL    HW2 8031   3.423   2.946   3.741
 2378SOL     OW 8032   5.260   2.066   0.765
 2378SOL    HW1 8033   5.285   2.024   0.852
 2378SOL    HW2 8034   5.321   2.142   0.746
 2379SOL     OW 8035   6.809   6.837   6.357
 2379SOL    HW1 8036   6.722   6.788   6.346
 2379SOL    HW2 8037   6.854   6.806   6.440
 2380SOL     OW 8038   6.245   2.185   2.727
 2380SOL    HW1 8039   6.244   2.182   2.827
 2380SOL    HW2 8040   6.329   2.228   2.696
 2381SOL     OW 8041   1.989   6.156   2.546
 2381SOL    HW1 8042   2.010   6.064   2.515
 2381SOL    HW2 8043   2.048   6.179   2.624
 2382SOL     OW 8044   1.478   3.098   5.709
 2382SOL    HW1 8045   1.419   3.018   5.713
 2382SOL    HW2 8046   1.466   3.152   5.792
 2383SOL     OW 8047   5.968   5.558   2.106
 2383SOL    HW1 8048   5.944   5.651   2.078
 2383SOL    HW2 8049   6.007   5.559   2.198
 2384SOL     OW 8050   4.192   1.236   1.550
 2384SOL    HW1 8051   4.253   1.299   1.501
 2384SOL    HW2 8052   4.114   1.213   1.492
 2385SOL     OW 8053   1.397   2.432   6.947
 2385SOL    HW1 8054   1.354   2.360   6.891
 2385SOL    HW2 8055   1.472   2.473   6.895
 2386SOL     OW 8056   4.429   4.908   3.930
 2386SOL    HW1 8057   4.347   4.863   3.964
 2386SOL    HW2 8058   4.402   4.985   3.872
 2387SOL     OW 8059   1.146   1.667   2.913
 2387SOL    HW1 8060   1.209   1.672   2.991
 2387SOL    HW2 8061   1.194   1.627   2.835
 2388SOL     OW 8062   0.103   1.639   4.009
 2388SOL    HW1 8063   0.118   1.592   3.922
 2388SOL    HW2 8064   0.179   1.619   4.071
 2389SOL     OW 8065   3.516   6.368   2.443
 2389SOL    HW1 8066   3.510   6.321   2.531
 2389SOL    HW2 8067   3.599   6.423   2.440
 2390SOL     OW 8068   3.114   4.645   1.244
 2390SOL    HW1 8069   3.081   4.705   1.317
 2390SOL    HW2 8070   3.180   4.579   1.282
 2391SOL     OW 8071   4.289   5.292   4.577
 2391SOL    HW1 8072   4.305   5.350   4.657
 2391SOL    HW2 8073   4.365   5.302   4.513
 2392SOL     OW 8074   4.085   1.374   6.767
 2392SOL    HW1 8075   4.047   1.370   6.674
 2392SOL    HW2 8076   4.034   1.313   6.827
 2393SOL     OW 8077   3.498   5.120   5.166
 2393SOL    HW1 8078   3.522   5.205   5.212
 2393SOL    HW2 8079   3.412   5.085   5.203
 2394SOL     OW 8080   6.974   4.737   5.819
 2394SOL    HW1 8081   7.008   4.830   5.809
 2394SOL    HW2 8082   0.030   4.677   5.845
 2395SOL     OW 8083   4.471   6.434   6.662
 2395SOL    HW1 8084   4.560   6.453   6.621
 2395SOL    HW2 8085   4.479   6.352   6.720
 2396SOL     OW 8086   2.745   5.635   1.483
 2396SOL    HW1 8087   2.759   5.658   1.580
 2396SOL    HW2 8088   2.647   5.628   1.464
 2397SOL     OW 8089   0.548   3.382   4.356
 2397SOL    HW1 8090   0.632   3.371   4.409
 2397SOL    HW2 8091   0.477   3.423   4.414
 2398SOL     OW 8092   4.738   3.668   5.390
 2398SOL    HW1 8093   4.772   3.602   5.457
 2398SOL    HW2 8094   4.735   3.625   5.300
 2399SOL     OW 8095   4.517   2.523   1.636
 2399SOL    HW1 8096   4.508   2.539   1.734
 2399SOL    HW2 8097   4.444   2.462   1.606
 2400SOL     OW 8098   1.694   4.996   0.290
 2400SOL    HW1 8099   1.763   4.924   0.276
 2400SOL    HW2 8100   1.665   5.031   0.201
 2401SOL     OW 8101   6.281   5.849   6.664
 2401SOL    HW1 8102   6.358   5.866   6.725
 2401SOL    HW2 8103   6.311   5.794   6.587
 2402SOL     OW 8104   6.685   6.751   4.182
 2402SOL    HW1 8105   6.690   6.688   4.104
 2402SOL    HW2 8106   6.777   6.769   4.216
 2403SOL     OW 8107   1.061   1.138   3.957
 2403SOL    HW1 8108   1.138   1.193   3.990
 2403SOL    HW2 8109   1.080   1.041   3.972
 2404SOL     OW 8110   1.499   0.213   6.704
 2404SOL    HW1 8111   1.449   0.159   6.773
 2404SOL    HW2 8112   1.567   0.155   6.659
 2405SOL     OW 8113   2.900   4.722   1.455
 2405SOL    HW1 8114   2.871   4.789   1.387
 2405SOL    HW2 8115   2.821   4.667   1.483
 2406SOL     OW 8116   5.105   0.893   1.354
 2406SOL    HW1 8117   5.205   0.901   1.356
 2406SOL    HW2 8118   5.064   0.984   1.343
 2407SOL     OW 8119   5.202   7.017   3.736
 2407SOL    HW1 8120   5.147   6.960   3.674
 2407SOL    HW2 8121   5.177   6.998   3.830
 2408SOL     OW 8122   4.390   4.726   2.179
 2408SOL    HW1 8123   4.328   4.692   2.250
 2408SOL    HW2 8124   4.439   4.649   2.138
 2409SOL     OW 8125   0.990   4.396   0.677
 2409SOL    HW1 8126   1.018   4.301   0.669
 2409SOL    HW2 8127   0.891   4.402   0.690
 2410SOL     OW 8128   4.018   3.231   2.865
 2410SOL    HW1 8129   4.086   3.298   2.836
 2410SOL    HW2 8130   4.041   3.195   2.955
 2411SOL     OW 8131   3.830   0.465   4.648
 2411SOL    HW1 8132   3.777   0.548   4.625
 2411SOL    HW2 8133   3.824   0.448   4.746
 2412SOL     OW 8134   4.269   3.817   1.265
 2412SOL    HW1 8135   4.348   3.805   1.204
 2412SOL    HW2 8136   4.263   3.914   1.292
 2413SOL     OW 8137   3.921   0.262   3.148
 2413SOL    HW1 8138   3.933   0.194   3.220
 2413SOL    HW2 8139   3.919   0.354   3.188
 2414SOL     OW 8140   5.294   2.922   4.299
 2414SOL    HW1 8141   5.377   2.948   4.349
 2414SOL    HW2 8142   5.218   2.979   4.328
 2415SOL     OW 8143   4.082   0.380   3.550
 2415SOL    HW1 8144   4.067   0.456   3.612
 2415SOL    HW2 8145   4.123   0.414   3.465
 2416SOL     OW 8146   5.770   2.003   6.514
 2416SOL    HW1 8147   5.676   2.034   6.507
 2416SOL    HW2 8148   5.791   1.940   6.439
 2417SOL     OW 8149   3.481   4.007   5.239
 2417SOL    HW1 8150   3.435   4.059   5.312
 2417SOL    HW2 8151   3.534   3.933   5.280
 2418SOL     OW 8152   3.055   3.151   2.366
 2418SOL    HW1 8153   3.139   3.201   2.347
 2418SOL    HW2 8154   3.067   3.055   2.342
 2419SOL     OW 8155   6.817   0.384   3.575
 2419SOL    HW1 8156   6.759   0.439   3.635
 2419SOL    HW2 8157   6.797   0.406   3.479
 2420SOL     OW 8158   2.328   6.831   1.941
 2420SOL    HW1 8159   2.277   6.914   1.919
 2420SOL    HW2 8160   2.411   6.855   1.991
 2421SOL     OW 8161   3.713   2.072   2.997
 2421SOL    HW1 8162   3.795   2.122   3.025
 2421SOL    HW2 8163   3.692   2.093   2.902
 2422SOL     OW 8164   5.134   1.463   1.181
 2422SOL    HW1 8165   5.178   1.544   1.221
 2422SOL    HW2 8166   5.195   1.423   1.113
 2423SOL     OW 8167   1.596   5.077   2.498
 2423SOL    HW1 8168   1.610   5.175   2.512
 2423SOL    HW2 8169   1.501   5.060   2.472
 2424SOL     OW 8170   6.607   0.233   0.335
 2424SOL    HW1 8171   6.591   0.243   0.237
 2424SOL    HW2 8172   6.542   0.167   0.373
 2425SOL     OW 8173   6.930   6.996   4.494
 2425SOL    HW1 8174   6.911   6.975   4.590
 2425SOL    HW2 8175   6.884   0.063   4.470
 2426SOL     OW 8176   1.864   5.172   4.237
 2426SOL    HW1 8177   1.900   5.190   4.328
 2426SOL    HW2 8178   1.828   5.078   4.233
 2427SOL     OW 8179   6.466   0.479   5.533
 2427SOL    HW1 8180   6.436   0.416   5.604
 2427SOL    HW2 8181   6.538   0.436   5.479
 2428SOL     OW 8182   5.700   1.858   0.436
 2428SOL    HW1 8183   5.761   1.856   0.356
 2428SOL    HW2 8184   5.687   1.765   0.470
 2429SOL     OW 8185   4.548   4.883   2.670
 2429SOL    HW1 8186   4.589   4.846   2.587
 2429SOL    HW2 8187   4.613   4.876   2.746
 2430SOL     OW 8188   4.685   0.296   2.654
 2430SOL    HW1 8189   4.703   0.328   2.747
 2430SOL    HW2 8190   4.772   0.277   2.607
 2431SOL     OW 8191   4.154   6.787   2.420
 2431SOL    HW1 8192   4.110   6.876   2.429
 2431SOL    HW2 8193   4.160   6.743   2.509
 2432SOL     OW 8194   2.399   5.764   2.135
 2432SOL    HW1 8195   2.432   5.716   2.054
 2432SOL    HW2 8196   2.303   5.787   2.124
 2433SOL     OW 8197   5.159   6.719   0.617
 2433SOL    HW1 8198   5.207   6.731   0.704
 2433SOL    HW2 8199   5.066   6.688   0.634
 2434SOL     OW 8200   3.117   3.123   4.579
 2434SOL    HW1 8201   3.138   3.116   4.482
 2434SOL    HW2 8202   3.158   3.045   4.628
 2435SOL     OW 8203   5.689   6.004   5.997
 2435SOL    HW1 8204   5.708   5.911   6.028
 2435SOL    HW2 8205   5.773   6.045   5.961
 2436SOL     OW 8206   2.856   4.660   1.087
 2436SOL    HW1 8207   2.778   4.598   1.097
 2436SOL    HW2 8208   2.924   4.640   1.157
 2437SOL     OW 8209   0.048   0.665   5.862
 2437SOL    HW1 8210   0.004   0.753   5.847
 2437SOL    HW2 8211   7.013   0.611   5.926
 2438SOL     OW 8212   3.467   3.521   0.660
 2438SOL    HW1 8213   3.447   3.457   0.734
 2438SOL    HW2 8214   3.538   3.585   0.689
 2439SOL     OW 8215   5.900   4.412   6.051
 2439SOL    HW1 8216   5.884   4.333   6.110
 2439SOL    HW2 8217   5.890   4.496   6.105
 2440SOL     OW 8218   5.846   5.324   5.868
 2440SOL    HW1 8219   5.782   5.250   5.888
 2440SOL    HW2 8220   5.868   5.323   5.770
 2441SOL     OW 8221   6.610   2.230   0.783
 2441SOL    HW1 8222   6.690   2.185   0.743
 2441SOL    HW2 8223   6.600   2.202   0.878
 2442SOL     OW 8224   6.444   2.016   4.503
 2442SOL    HW1 8225   6.422   1.932   4.552
 2442SOL    HW2 8226   6.373   2.084   4.520
 2443SOL     OW 8227   2.801   4.750   5.802
 2443SOL    HW1 8228   2.809   4.654   5.776
 2443SOL    HW2 8229   2.866   4.805   5.748
 2444SOL     OW 8230   3.526   2.581   6.083
 2444SOL    HW1 8231   3.541   2.636   6.001
 2444SOL    HW2 8232   3.501   2.640   6.160
 2445SOL     OW 8233   1.286   0.190   0.981
 2445SOL    HW1 8234   1.384   0.213   0.985
 2445SOL    HW2 8235   1.233   0.269   1.012
 2446SOL     OW 8236   4.787   2.856   6.609
 2446SOL    HW1 8237   4.765   2.807   6.694
 2446SOL    HW2 8238   4.777   2.794   6.531
 2447SOL     OW 8239   1.005   3.765   6.486
 2447SOL    HW1 8240   1.024   3.719   6.400
 2447SOL    HW2 8241   1.090   3.776   6.538
 2448SOL     OW 8242   6.905   0.831   4.928
 2448SOL    HW1 8243   6.996   0.873   4.927
 2448SOL    HW2 8244   6.896   0.772   5.008
 2449SOL     OW 8245   6.871   3.033   5.487
 2449SOL    HW1 8246   6.817   3.022   5.571
 2449SOL    HW2 8247   6.866   2.949   5.434
 2450SOL     OW 8248   2.600   3.290   1.404
 2450SOL    HW1 8249   2.553   3.376   1.384
 2450SOL    HW2 8250   2.697   3.308   1.419
 2451SOL     OW 8251   1.807   6.071   3.759
 2451SOL    HW1 8252   1.876   6.077   3.831
 2451SOL    HW2 8253   1.722   6.037   3.798
 2452SOL     OW 8254   2.400   1.715   4.399
 2452SOL    HW1 8255   2.305   1.709   4.367
 2452SOL    HW2 8256   2.462   1.711   4.320
 2453SOL     OW 8257   7.010   4.202   0.788
 2453SOL    HW1 8258   0.009   4.156   0.701
 2453SOL    HW2 8259   6.911   4.216   0.797
 2454SOL     OW 8260   1.108   6.691   2.142
 2454SOL    HW1 8261   1.157   6.608   2.116
 2454SOL    HW2 8262   1.160   6.771   2.113
 2455SOL     OW 8263   5.622   3.751   1.424
 2455SOL    HW1 8264   5.612   3.714   1.516
 2455SOL    HW2 8265   5.696   3.817   1.423
 2456SOL     OW 8266   2.645   6.689   1.583
 2456SOL    HW1 8267   2.635   6.641   1.496
 2456SOL    HW2 8268   2.734   6.666   1.623
 2457SOL     OW 8269   5.270   5.615   0.771
 2457SOL    HW1 8270   5.256   5.582   0.865
 2457SOL    HW2 8271   5.181   5.634   0.730
 2458SOL     OW 8272   0.591   6.262   1.572
 2458SOL    HW1 8273   0.537   6.323   1.513
 2458SOL    HW2 8274   0.536   6.183   1.597
 2459SOL     OW 8275   1.642   1.811   0.190
 2459SOL    HW1 8276   1.697   1.753   0.130
 2459SOL    HW2 8277   1.583   1.870   0.135
 2460SOL     OW 8278   1.991   4.514   0.982
 2460SOL    HW1 8279   2.024   4.604   1.011
 2460SOL    HW2 8280   2.055   4.444   1.012
 2461SOL     OW 8281   4.345   1.375   3.228
 2461SOL    HW1 8282   4.287   1.433   3.172
 2461SOL    HW2 8283   4.430   1.423   3.249
 2462SOL     OW 8284   2.946   4.283   6.132
 2462SOL    HW1 8285   3.003   4.315   6.057
 2462SOL    HW2 8286   2.974   4.191   6.159
 2463SOL     OW 8287   0.990   3.402   5.375
 2463SOL    HW1 8288   0.964   3.311   5.343
 2463SOL    HW2 8289   0.947   3.420   5.464
 2464SOL     OW 8290   1.026   3.618   0.922
 2464SOL    HW1 8291   1.092   3.694   0.927
 2464SOL    HW2 8292   0.933   3.655   0.931
 2465SOL     OW 8293   6.087   3.829   2.903
 2465SOL    HW1 8294   5.996   3.869   2.912
 2465SOL    HW2 8295   6.093   3.777   2.819
 2466SOL     OW 8296   4.124   1.666   1.816
 2466SOL    HW1 8297   4.222   1.675   1.835
 2466SOL    HW2 8298   4.084   1.602   1.882
 2467SOL     OW 8299   0.862   1.261   4.423
 2467SOL    HW1 8300   0.833   1.167   4.442
 2467SOL    HW2 8301   0.938   1.260   4.359
 2468SOL     OW 8302   6.036   5.279   6.265
 2468SOL    HW1 8303   6.024   5.379   6.260
 2468SOL    HW2 8304   6.082   5.247   6.182
 2469SOL     OW 8305   2.627   2.154   5.834
 2469SOL    HW1 8306   2.639   2.251   5.856
 2469SOL    HW2 8307   2.550   2.118   5.887
 2470SOL     OW 8308   5.275   2.833   1.290
 2470SOL    HW1 8309   5.340   2.823   1.365
 2470SOL    HW2 8310   5.290   2.760   1.223
 2471SOL     OW 8311   0.043   1.339   3.073
 2471SOL    HW1 8312   6.979   1.354   3.126
 2471SOL    HW2 8313   0.020   1.317   2.979
 2472SOL     OW 8314   6.372   0.672   3.853
 2472SOL    HW1 8315   6.385   0.604   3.925
 2472SOL    HW2 8316   6.346   0.760   3.893
 2473SOL     OW 8317   0.660   5.716   4.989
 2473SOL    HW1 8318   0.656   5.627   5.036
 2473SOL    HW2 8319   0.687   5.786   5.055
 2474SOL     OW 8320   5.795   6.892   4.422
 2474SOL    HW1 8321   5.768   6.796   4.409
 2474SOL    HW2 8322   5.850   6.900   4.505
 2475SOL     OW 8323   3.601   2.815   6.510
 2475SOL    HW1 8324   3.628   2.909   6.489
 2475SOL    HW2 8325   3.650   2.751   6.451
 2476SOL     OW 8326   0.805   1.247   3.412
 2476SOL    HW1 8327   0.758   1.159   3.425
 2476SOL    HW2 8328   0.795   1.302   3.495
 2477SOL     OW 8329   4.542   4.532   2.007
 2477SOL    HW1 8330   4.546   4.432   2.005
 2477SOL    HW2 8331   4.503   4.565   1.922
 2478SOL     OW 8332   6.966   0.644   2.952
 2478SOL    HW1 8333   7.018   0.638   2.867
 2478SOL    HW2 8334   6.901   0.719   2.946
 2479SOL     OW 8335   1.375   3.064   0.423
 2479SOL    HW1 8336   1.406   3.012   0.503
 2479SOL    HW2 8337   1.276   3.059   0.416
 2480SOL     OW 8338   6.334   4.936   1.197
 2480SOL    HW1 8339   6.387   5.020   1.184
 2480SOL    HW2 8340   6.242   4.960   1.228
 2481SOL     OW 8341   4.207   4.642   2.350
 2481SOL    HW1 8342   4.112   4.650   2.321
 2481SOL    HW2 8343   4.231   4.720   2.407
 2482SOL     OW 8344   4.240   2.314   4.505
 2482SOL    HW1 8345   4.198   2.313   4.596
 2482SOL    HW2 8346   4.172   2.289   4.436
 2483SOL     OW 8347   0.948   3.344   0.246
 2483SOL    HW1 8348   0.967   3.419   0.309
 2483SOL    HW2 8349   0.921   3.381   0.157
 2484SOL     OW 8350   3.558   4.389   5.549
 2484SOL    HW1 8351   3.469   4.427   5.572
 2484SOL    HW2 8352   3.629   4.431   5.606
 2485SOL     OW 8353   0.589   4.755   0.156
 2485SOL    HW1 8354   0.592   4.785   0.061
 2485SOL    HW2 8355   0.676   4.777   0.201
 2486SOL     OW 8356   0.793   5.177   4.028
 2486SOL    HW1 8357   0.798   5.111   4.103
 2486SOL    HW2 8358   0.715   5.156   3.969
 2487SOL     OW 8359   2.656   1.320   1.161
 2487SOL    HW1 8360   2.707   1.356   1.083
 2487SOL    HW2 8361   2.618   1.231   1.139
 2488SOL     OW 8362   2.705   5.485   6.833
 2488SOL    HW1 8363   2.681   5.558   6.769
 2488SOL    HW2 8364   2.677   5.510   6.926
 2489SOL     OW 8365   6.411   5.750   4.411
 2489SOL    HW1 8366   6.425   5.744   4.510
 2489SOL    HW2 8367   6.388   5.659   4.375
 2490SOL     OW 8368   6.001   2.683   1.244
 2490SOL    HW1 8369   5.976   2.731   1.328
 2490SOL    HW2 8370   5.939   2.711   1.170
 2491SOL     OW 8371   6.508   4.176   2.916
 2491SOL    HW1 8372   6.586   4.156   2.858
 2491SOL    HW2 8373   6.476   4.269   2.897
 2492SOL     OW 8374   3.617   1.940   0.085
 2492SOL    HW1 8375   3.677   1.977   0.014
 2492SOL    HW2 8376   3.591   1.847   0.060
 2493SOL     OW 8377   6.961   0.931   5.818
 2493SOL    HW1 8378   6.891   0.968   5.757
 2493SOL    HW2 8379   0.018   0.994   5.824
 2494SOL     OW 8380   5.356   5.307   0.402
 2494SOL    HW1 8381   5.257   5.320   0.392
 2494SOL    HW2 8382   5.381   5.215   0.370
 2495SOL     OW 8383   6.939   1.163   2.183
 2495SOL    HW1 8384   0.014   1.141   2.206
 2495SOL    HW2 8385   6.935   1.200   2.091
 2496SOL     OW 8386   1.705   4.689   0.630
 2496SOL    HW1 8387   1.696   4.697   0.729
 2496SOL    HW2 8388   1.792   4.727   0.601
 2497SOL     OW 8389   6.021   1.354   6.407
 2497SOL    HW1 8390   5.945   1.356   6.341
 2497SOL    HW2 8391   6.094   1.296   6.371
 2498SOL     OW 8392   1.179   3.394   4.619
 2498SOL    HW1 8393   1.082   3.395   4.641
 2498SOL    HW2 8394   1.192   3.405   4.521
 2499SOL     OW 8395   5.202   0.416   6.811
 2499SOL    HW1 8396   5.189   0.369   6.898
 2499SOL    HW2 8397   5.283   0.380   6.766
 2500SOL     OW 8398   5.518   3.080   5.982
 2500SOL    HW1 8399   5.594   3.142   5.962
 2500SOL    HW2 8400   5.544   2.987   5.959
 2501SOL     OW 8401   6.264   4.800   0.984
 2501SOL    HW1 8402   6.347   4.777   0.935
 2501SOL    HW2 8403   6.287   4.852   1.066
 2502SOL     OW 8404   1.393   6.638   3.103
 2502SOL    HW1 8405   1.378   6.572   3.176
 2502SOL    HW2 8406   1.333   6.717   3.117
 2503SOL     OW 8407   5.643   6.013   3.457
 2503SOL    HW1 8408   5.562   5.995   3.402
 2503SOL    HW2 8409   5.720   5.960   3.422
 2504SOL     OW 8410   2.573   4.927   2.959
 2504SOL    HW1 8411   2.614   4.872   3.031
 2504SOL    HW2 8412   2.483   4.959   2.988
 2505SOL     OW 8413   5.019   3.817   4.496
 2505SOL    HW1 8414   4.995   3.873   4.575
 2505SOL    HW2 8415   5.086   3.865   4.439
 2506SOL     OW 8416   1.211   1.705   0.371
 2506SOL    HW1 8417   1.167   1.750   0.293
 2506SOL    HW2 8418   1.211   1.606   0.358
 2507SOL     OW 8419   0.128   5.921   0.588
 2507SOL    HW1 8420   0.069   5.842   0.572
 2507SOL    HW2 8421   0.220   5.901   0.554
 2508SOL     OW 8422   1.671   1.330   1.423
 2508SOL    HW1 8423   1.582   1.331   1.377
 2508SOL    HW2 8424   1.730   1.401   1.383
 2509SOL     OW 8425   6.003   6.856   4.059
 2509SOL    HW1 8426   5.960   6.915   3.991
 2509SOL    HW2 8427   5.952   6.770   4.065
 2510SOL     OW 8428   3.650   5.805   3.047
 2510SOL    HW1 8429   3.602   5.879   3.000
 2510SOL    HW2 8430   3.690   5.743   2.979
 2511SOL     OW 8431   0.794   4.935   4.208
 2511SOL    HW1 8432   0.885   4.909   4.240
 2511SOL    HW2 8433   0.730   4.934   4.285
 2512SOL     OW 8434   5.770   3.119   4.478
 2512SOL    HW1 8435   5.804   3.206   4.442
 2512SOL    HW2 8436   5.799   3.108   4.573
 2513SOL     OW 8437   0.515   4.948   1.545
 2513SOL    HW1 8438   0.424   4.976   1.513
 2513SOL    HW2 8439   0.526   4.973   1.641
 2514SOL     OW 8440   6.699   1.969   4.575
 2514SOL    HW1 8441   6.614   1.988   4.526
 2514SOL    HW2 8442   6.777   2.006   4.524
 2515SOL     OW 8443   0.760   4.699   6.454
 2515SOL    HW1 8444   0.846   4.668   6.415
 2515SOL    HW2 8445   0.684   4.665   6.399
 2516SOL     OW 8446   4.067   6.908   4.704
 2516SOL    HW1 8447   4.147   6.952   4.744
 2516SOL    HW2 8448   4.061   6.932   4.607
 2517SOL     OW 8449   2.797   5.789   0.256
 2517SOL    HW1 8450   2.718   5.763   0.202
 2517SOL    HW2 8451   2.870   5.720   0.244
 2518SOL     OW 8452   2.157   1.658   0.021
 2518SOL    HW1 8453   2.107   1.669   6.954
 2518SOL    HW2 8454   2.221   1.733   0.033
 2519SOL     OW 8455   6.293   4.329   4.641
 2519SOL    HW1 8456   6.276   4.333   4.543
 2519SOL    HW2 8457   6.281   4.420   4.681
 2520SOL     OW 8458   3.991   5.932   0.988
 2520SOL    HW1 8459   4.026   5.849   0.945
 2520SOL    HW2 8460   3.955   5.993   0.917
 2521SOL     OW 8461   5.766   6.696   5.630
 2521SOL    HW1 8462   5.865   6.681   5.630
 2521SOL    HW2 8463   5.728   6.666   5.717
 2522SOL     OW 8464   2.904   5.047   5.268
 2522SOL    HW1 8465   2.903   5.002   5.178
 2522SOL    HW2 8466   2.999   5.064   5.296
 2523SOL     OW 8467   0.891   2.095   0.021
 2523SOL    HW1 8468   0.846   2.052   6.963
 2523SOL    HW2 8469   0.896   2.030   0.097
 2524SOL     OW 8470   1.841   0.240   4.133
 2524SOL    HW1 8471   1.873   0.147   4.117
 2524SOL    HW2 8472   1.765   0.239   4.198
 2525SOL     OW 8473   2.831   4.777   2.421
 2525SOL    HW1 8474   2.781   4.731   2.348
 2525SOL    HW2 8475   2.796   4.870   2.432
 2526SOL     OW 8476   1.654   3.213   4.787
 2526SOL    HW1 8477   1.613   3.139   4.841
 2526SOL    HW2 8478   1.604   3.224   4.701
 2527SOL     OW 8479   6.989   6.845   3.997
 2527SOL    HW1 8480   6.964   6.823   4.092
 2527SOL    HW2 8481   6.954   6.773   3.937
 2528SOL     OW 8482   5.665   4.979   1.857
 2528SOL    HW1 8483   5.700   4.976   1.763
 2528SOL    HW2 8484   5.734   5.019   1.917
 2529SOL     OW 8485   5.132   4.750   4.583
 2529SOL    HW1 8486   5.228   4.721   4.580
 2529SOL    HW2 8487   5.098   4.766   4.491
 2530SOL     OW 8488   1.336   6.485   3.316
 2530SOL    HW1 8489   1.392   6.408   3.349
 2530SOL    HW2 8490   1.244   6.477   3.352
 2531SOL     OW 8491   5.520   2.761   6.344
 2531SOL    HW1 8492   5.442   2.794   6.290
 2531SOL    HW2 8493   5.552   2.674   6.308
 2532SOL     OW 8494   0.169   5.636   6.648
 2532SOL    HW1 8495   0.257   5.590   6.660
 2532SOL    HW2 8496   0.173   5.693   6.566
 2533SOL     OW 8497   5.176   0.768   4.264
 2533SOL    HW1 8498   5.197   0.791   4.169
 2533SOL    HW2 8499   5.260   0.770   4.318
 2534SOL     OW 8500   6.603   1.552   2.548
 2534SOL    HW1 8501   6.607   1.630   2.485
 2534SOL    HW2 8502   6.529   1.491   2.520
 2535SOL     OW 8503   3.164   1.342   1.727
 2535SOL    HW1 8504   3.107   1.415   1.764
 2535SOL    HW2 8505   3.235   1.381   1.669
 2536SOL     OW 8506   0.850   0.141   3.303
 2536SOL    HW1 8507   0.949   0.146   3.290
 2536SOL    HW2 8508   0.825   0.182   3.391
 2537SOL     OW 8509   1.952   6.028   2.068
 2537SOL    HW1 8510   1.920   6.046   1.975
 2537SOL    HW2 8511   1.879   5.985   2.121
 2538SOL     OW 8512   6.590   5.385   5.381
 2538SOL    HW1 8513   6.527   5.371   5.458
 2538SOL    HW2 8514   6.539   5.423   5.303
 2539SOL     OW 8515   1.056   0.102   5.191
 2539SOL    HW1 8516   1.140   0.078   5.239
 2539SOL    HW2 8517   0.977   0.078   5.247
 2540SOL     OW 8518   5.407   2.778   1.699
 2540SOL    HW1 8519   5.392   2.793   1.796
 2540SOL    HW2 8520   5.468   2.700   1.686
 2541SOL     OW 8521   1.957   0.782   0.281
 2541SOL    HW1 8522   1.941   0.709   0.348
 2541SOL    HW2 8523   1.953   0.871   0.326
 2542SOL     OW 8524   3.946   1.896   2.785
 2542SOL    HW1 8525   3.986   1.805   2.774
 2542SOL    HW2 8526   3.848   1.892   2.764
 2543SOL     OW 8527   5.666   6.218   5.030
 2543SOL    HW1 8528   5.619   6.132   5.047
 2543SOL    HW2 8529   5.710   6.249   5.114
 2544SOL     OW 8530   0.161   0.426   0.375
 2544SOL    HW1 8531   0.181   0.455   0.469
 2544SOL    HW2 8532   0.184   0.329   0.365
 2545SOL     OW 8533   0.534   1.599   0.344
 2545SOL    HW1 8534   0.450   1.629   0.299
 2545SOL    HW2 8535   0.586   1.678   0.375
 2546SOL     OW 8536   5.979   3.246   3.369
 2546SOL    HW1 8537   5.963   3.337   3.408
 2546SOL    HW2 8538   5.924   3.235   3.287
 2547SOL     OW 8539   5.891   3.987   0.809
 2547SOL    HW1 8540   5.884   4.087   0.809
 2547SOL    HW2 8541   5.817   3.949   0.863
 2548SOL     OW 8542   6.311   0.405   5.304
 2548SOL    HW1 8543   6.302   0.331   5.370
 2548SOL    HW2 8544   6.296   0.493   5.349
 2549SOL     OW 8545   2.689   4.286   6.750
 2549SOL    HW1 8546   2.717   4.233   6.670
 2549SOL    HW2 8547   2.768   4.304   6.808
 2550SOL     OW 8548   4.067   0.965   1.093
 2550SOL    HW1 8549   4.159   0.929   1.104
 2550SOL    HW2 8550   4.003   0.890   1.077
 2551SOL     OW 8551   2.743   4.880   1.273
 2551SOL    HW1 8552   2.794   4.834   1.201
 2551SOL    HW2 8553   2.659   4.918   1.235
 2552SOL     OW 8554   2.895   5.800   1.264
 2552SOL    HW1 8555   2.845   5.873   1.311
 2552SOL    HW2 8556   2.890   5.716   1.317
 2553SOL     OW 8557   4.411   2.084   1.436
 2553SOL    HW1 8558   4.388   2.047   1.346
 2553SOL    HW2 8559   4.435   2.008   1.497
 2554SOL     OW 8560   1.118   6.283   0.933
 2554SOL    HW1 8561   1.123   6.249   1.027
 2554SOL    HW2 8562   1.156   6.215   0.870
 2555SOL     OW 8563   0.565   6.263   4.558
 2555SOL    HW1 8564   0.484   6.274   4.500
 2555SOL    HW2 8565   0.536   6.245   4.652
 2556SOL     OW 8566   5.809   0.779   0.744
 2556SOL    HW1 8567   5.906   0.796   0.761
 2556SOL    HW2 8568   5.792   0.778   0.646
 2557SOL     OW 8569   2.560   1.483   6.981
 2557SOL    HW1 8570   2.630   1.412   6.996
 2557SOL    HW2 8571   2.579   1.561   0.020
 2558SOL     OW 8572   5.946   2.825   1.479
 2558SOL    HW1 8573   5.952   2.899   1.546
 2558SOL    HW2 8574   5.898   2.747   1.520
 2559SOL     OW 8575   6.744   5.795   3.269
 2559SOL    HW1 8576   6.695   5.817   3.184
 2559SOL    HW2 8577   6.688   5.822   3.347
 2560SOL     OW 8578   4.364   2.766   1.681
 2560SOL    HW1 8579   4.381   2.760   1.583
 2560SOL    HW2 8580   4.273   2.806   1.697
 2561SOL     OW 8581   3.653   0.663   4.581
 2561SOL    HW1 8582   3.581   0.656   4.650
 2561SOL    HW2 8583   3.657   0.756   4.545
 2562SOL     OW 8584   1.838   6.428   4.899
 2562SOL    HW1 8585   1.751   6.447   4.944
 2562SOL    HW2 8586   1.899   6.382   4.964
 2563SOL     OW 8587   4.656   2.562   0.000
 2563SOL    HW1 8588   4.664   2.468   6.988
 2563SOL    HW2 8589   4.657   2.564   0.100
 2564SOL     OW 8590   1.716   0.965   1.665
 2564SOL    HW1 8591   1.779   0.977   1.588
 2564SOL    HW2 8592   1.760   0.994   1.749
 2565SOL     OW 8593   6.673   0.237   0.944
 2565SOL    HW1 8594   6.608   0.215   1.017
 2565SOL    HW2 8595   6.713   0.152   0.909
 2566SOL     OW 8596   3.060   1.422   0.817
 2566SOL    HW1 8597   3.106   1.447   0.903
 2566SOL    HW2 8598   2.964   1.401   0.835
 2567SOL     OW 8599   2.141   0.912   5.900
 2567SOL    HW1 8600   2.237   0.892   5.884
 2567SOL    HW2 8601   2.112   0.987   5.840
 2568SOL     OW 8602   3.245   6.471   6.907
 2568SOL    HW1 8603   3.226   6.393   6.965
 2568SOL    HW2 8604   3.161   6.525   6.895
 2569SOL     OW 8605   2.673   6.240   6.864
 2569SOL    HW1 8606   2.744   6.200   6.923
 2569SOL    HW2 8607   2.683   6.340   6.864
 2570SOL     OW 8608   6.767   0.097   3.373
 2570SOL    HW1 8609   6.807   0.108   3.464
 2570SOL    HW2 8610   6.753   0.187   3.332
 2571SOL     OW 8611   3.528   3.752   2.496
 2571SOL    HW1 8612   3.473   3.715   2.570
 2571SOL    HW2 8613   3.553   3.679   2.433
 2572SOL     OW 8614   3.280   6.505   2.460
 2572SOL    HW1 8615   3.214   6.458   2.518
 2572SOL    HW2 8616   3.361   6.448   2.448
 2573SOL     OW 8617   6.163   0.591   2.688
 2573SOL    HW1 8618   6.113   0.640   2.616
 2573SOL    HW2 8619   6.165   0.646   2.771
 2574SOL     OW 8620   0.649   4.428   1.980
 2574SOL    HW1 8621   0.745   4.451   1.962
 2574SOL    HW2 8622   0.643   4.370   2.061
 2575SOL     OW 8623   4.536   3.407   5.354
 2575SOL    HW1 8624   4.583   3.446   5.275
 2575SOL    HW2 8625   4.585   3.325   5.384
 2576SOL     OW 8626   0.421   0.632   2.953
 2576SOL    HW1 8627   0.477   0.623   3.036
 2576SOL    HW2 8628   0.391   0.541   2.924
 2577SOL     OW 8629   1.386   4.498   0.682
 2577SOL    HW1 8630   1.438   4.510   0.598
 2577SOL    HW2 8631   1.422   4.420   0.734
 2578SOL     OW 8632   4.954   1.669   4.901
 2578SOL    HW1 8633   5.005   1.662   4.815
 2578SOL    HW2 8634   5.013   1.645   4.977
 2579SOL     OW 8635   0.345   1.991   6.457
 2579SOL    HW1 8636   0.346   2.038   6.546
 2579SOL    HW2 8637   0.391   2.047   6.389
 2580SOL     OW 8638   1.528   2.326   5.552
 2580SOL    HW1 8639   1.435   2.334   5.588
 2580SOL    HW2 8640   1.591   2.376   5.612
 2581SOL     OW 8641   4.279   6.448   4.253
 2581SOL    HW1 8642   4.287   6.517   4.181
 2581SOL    HW2 8643   4.210   6.380   4.227
 2582SOL     OW 8644   6.666   4.699   3.185
 2582SOL    HW1 8645   6.568   4.712   3.199
 2582SOL    HW2 8646   6.681   4.644   3.103
 2583SOL     OW 8647   2.588   0.993   6.966
 2583SOL    HW1 8648   2.635   1.081   6.966
 2583SOL    HW2 8649   2.619   0.939   6.889
 2584SOL     OW 8650   3.702   0.056   3.252
 2584SOL    HW1 8651   3.632   0.116   3.213
 2584SOL    HW2 8652   3.730   7.009   3.183
 2585SOL     OW 8653   3.668   0.793   2.946
 2585SOL    HW1 8654   3.737   0.818   2.878
 2585SOL    HW2 8655   3.699   0.712   2.997
 2586SOL     OW 8656   1.000   2.122   4.181
 2586SOL    HW1 8657   1.089   2.164   4.165
 2586SOL    HW2 8658   0.986   2.112   4.280
 2587SOL     OW 8659   6.446   4.343   3.683
 2587SOL    HW1 8660   6.436   4.244   3.688
 2587SOL    HW2 8661   6.357   4.385   3.663
 2588SOL     OW 8662   3.336   0.142   2.593
 2588SOL    HW1 8663   3.363   0.085   2.515
 2588SOL    HW2 8664   3.271   0.212   2.562
 2589SOL     OW 8665   4.363   6.599   1.966
 2589SOL    HW1 8666   4.369   6.500   1.982
 2589SOL    HW2 8667   4.315   6.643   2.041
 2590SOL     OW 8668   4.604   6.290   4.034
 2590SOL    HW1 8669   4.689   6.338   4.010
 2590SOL    HW2 8670   4.580   6.311   4.129
 2591SOL     OW 8671   5.745   0.740   1.096
 2591SOL    HW1 8672   5.842   0.752   1.076
 2591SOL    HW2 8673   5.697   0.710   1.013
 2592SOL     OW 8674   2.883   4.946   1.653
 2592SOL    HW1 8675   2.974   4.981   1.675
 2592SOL    HW2 8676   2.889   4.849   1.628
 2593SOL     OW 8677   2.188   0.118   3.967
 2593SOL    HW1 8678   2.229   0.197   4.013
 2593SOL    HW2 8679   2.261   0.059   3.931
 2594SOL     OW 8680   2.246   5.782   6.045
 2594SOL    HW1 8681   2.248   5.682   6.038
 2594SOL    HW2 8682   2.197   5.809   6.128
 2595SOL     OW 8683   6.951   3.120   5.119
 2595SOL    HW1 8684   6.952   3.219   5.104
 2595SOL    HW2 8685   6.914   3.074   5.038
 2596SOL     OW 8686   4.445   1.560   0.721
 2596SOL    HW1 8687   4.445   1.652   0.760
 2596SOL    HW2 8688   4.431   1.493   0.794
 2597SOL     OW 8689   2.501   2.294   6.352
 2597SOL    HW1 8690   2.462   2.207   6.382
 2597SOL    HW2 8691   2.511   2.355   6.430
 2598SOL     OW 8692   6.193   1.107   2.968
 2598SOL    HW1 8693   6.143   1.168   3.029
 2598SOL    HW2 8694   6.231   1.159   2.892
 2599SOL     OW 8695   4.852   5.549   5.917
 2599SOL    HW1 8696   4.902   5.474   5.961
 2599SOL    HW2 8697   4.908   5.590   5.846
 2600SOL     OW 8698   0.443   2.903   4.658
 2600SOL    HW1 8699   0.421   2.956   4.576
 2600SOL    HW2 8700   0.531   2.857   4.645
 2601SOL     OW 8701   4.487   4.314   5.335
 2601SOL    HW1 8702   4.436   4.355   5.259
 2601SOL    HW2 8703   4.469   4.365   5.419
 2602SOL     OW 8704   6.197   6.767   0.050
 2602SOL    HW1 8705   6.266   6.783   0.121
 2602SOL    HW2 8706   6.121   6.714   0.089
 2603SOL     OW 8707   1.817   1.709   0.003
 2603SOL    HW1 8708   1.819   1.618   0.047
 2603SOL    HW2 8709   1.787   1.699   6.928
 2604SOL     OW 8710   5.746   1.432   0.684
 2604SOL    HW1 8711   5.759   1.504   0.752
 2604SOL    HW2 8712   5.825   1.371   0.685
 2605SOL     OW 8713   5.588   2.451   5.476
 2605SOL    HW1 8714   5.538   2.466   5.390
 2605SOL    HW2 8715   5.642   2.368   5.468
 2606SOL     OW 8716   6.225   4.453   1.641
 2606SOL    HW1 8717   6.292   4.457   1.715
 2606SOL    HW2 8718   6.224   4.361   1.603
 2607SOL     OW 8719   0.293   0.895   3.344
 2607SOL    HW1 8720   0.255   0.907   3.436
 2607SOL    HW2 8721   0.393   0.894   3.349
 2608SOL     OW 8722   4.541   0.510   0.026
 2608SOL    HW1 8723   4.530   0.535   6.949
 2608SOL    HW2 8724   4.482   0.432   0.047
 2609SOL     OW 8725   0.740   4.258   3.715
 2609SOL    HW1 8726   0.834   4.258   3.681
 2609SOL    HW2 8727   0.712   4.164   3.734
 2610SOL     OW 8728   5.561   5.373   4.437
 2610SOL    HW1 8729   5.568   5.317   4.354
 2610SOL    HW2 8730   5.653   5.385   4.475
 2611SOL     OW 8731   2.712   6.672   1.949
 2611SOL    HW1 8732   2.635   6.653   1.888
 2611SOL    HW2 8733   2.797   6.675   1.897
 2612SOL     OW 8734   1.006   6.751   4.594
 2612SOL    HW1 8735   1.048   6.827   4.545
 2612SOL    HW2 8736   1.051   6.739   4.683
 2613SOL     OW 8737   4.193   1.882   6.875
 2613SOL    HW1 8738   4.201   1.806   6.812
 2613SOL    HW2 8739   4.215   1.967   6.828
 2614SOL     OW 8740   6.294   6.576   6.650
 2614SOL    HW1 8741   6.318   6.657   6.704
 2614SOL    HW2 8742   6.197   6.577   6.629
 2615SOL     OW 8743   0.288   3.961   1.275
 2615SOL    HW1 8744   0.259   4.033   1.212
 2615SOL    HW2 8745   0.366   3.994   1.329
 2616SOL     OW 8746   3.478   4.148   1.726
 2616SOL    HW1 8747   3.385   4.146   1.763
 2616SOL    HW2 8748   3.542   4.175   1.798
 2617SOL     OW 8749   3.034   6.837   1.237
 2617SOL    HW1 8750   3.054   6.932   1.258
 2617SOL    HW2 8751   3.096   6.805   1.165
 2618SOL     OW 8752   1.305   6.020   0.218
 2618SOL    HW1 8753   1.233   6.034   0.150
 2618SOL    HW2 8754   1.388   6.066   0.189
 2619SOL     OW 8755   6.182   1.132   2.013
 2619SOL    HW1 8756   6.134   1.063   2.067
 2619SOL    HW2 8757   6.241   1.087   1.946
 2620SOL     OW 8758   2.074   5.456   3.923
 2620SOL    HW1 8759   2.144   5.528   3.914
 2620SOL    HW2 8760   2.067   5.429   4.019
 2621SOL     OW 8761   1.756   5.539   4.351
 2621SOL    HW1 8762   1.856   5.542   4.359
 2621SOL    HW2 8763   1.731   5.519   4.256
 2622SOL     OW 8764   2.502   2.609   4.144
 2622SOL    HW1 8765   2.426   2.548   4.122
 2622SOL    HW2 8766   2.467   2.699   4.169
 2623SOL     OW 8767   3.061   0.061   5.456
 2623SOL    HW1 8768   3.110   0.148   5.449
 2623SOL    HW2 8769   3.021   0.053   5.547
 2624SOL     OW 8770   5.075   2.227   4.694
 2624SOL    HW1 8771   5.110   2.216   4.601
 2624SOL    HW2 8772   5.065   2.137   4.737
 2625SOL     OW 8773   2.448   6.900   5.953
 2625SOL    HW1 8774   2.474   6.861   5.864
 2625SOL    HW2 8775   2.401   6.987   5.938
 2626SOL     OW 8776   2.558   6.720   3.232
 2626SOL    HW1 8777   2.546   6.746   3.137
 2626SOL    HW2 8778   2.480   6.754   3.286
 2627SOL     OW 8779   0.903   0.636   4.775
 2627SOL    HW1 8780   0.838   0.710   4.790
 2627SOL    HW2 8781   0.990   0.658   4.818
 2628SOL     OW 8782   4.896   5.285   0.078
 2628SOL    HW1 8783   4.837   5.236   0.013
 2628SOL    HW2 8784   4.976   5.320   0.030
 2629SOL     OW 8785   2.827   3.511   1.918
 2629SOL    HW1 8786   2.866   3.555   1.998
 2629SOL    HW2 8787   2.888   3.525   1.839
 2630SOL     OW 8788   3.727   1.790   2.107
 2630SOL    HW1 8789   3.724   1.690   2.099
 2630SOL    HW2 8790   3.776   1.815   2.190
 2631SOL     OW 8791   3.178   6.707   4.031
 2631SOL    HW1 8792   3.271   6.739   4.010
 2631SOL    HW2 8793   3.154   6.631   3.972
 2632SOL     OW 8794   4.895   1.533   1.293
 2632SOL    HW1 8795   4.987   1.539   1.254
 2632SOL    HW2 8796   4.900   1.498   1.386
 2633SOL     OW 8797   0.403   2.366   0.118
 2633SOL    HW1 8798   0.482   2.365   0.180
 2633SOL    HW2 8799   0.435   2.364   0.023
 2634SOL     OW 8800   2.114   4.950   0.462
 2634SOL    HW1 8801   2.195   4.924   0.409
 2634SOL    HW2 8802   2.070   4.867   0.497
 2635SOL     OW 8803   6.765   4.265   3.576
 2635SOL    HW1 8804   6.748   4.211   3.659
 2635SOL    HW2 8805   6.837   4.332   3.593
 2636SOL     OW 8806   5.655   4.860   5.410
 2636SOL    HW1 8807   5.664   4.843   5.508
 2636SOL    HW2 8808   5.574   4.916   5.393
 2637SOL     OW 8809   5.212   5.216   2.122
 2637SOL    HW1 8810   5.312   5.213   2.128
 2637SOL    HW2 8811   5.175   5.124   2.132
 2638SOL     OW 8812   4.574   5.618   0.809
 2638SOL    HW1 8813   4.499   5.555   0.790
 2638SOL    HW2 8814   4.657   5.566   0.830
 2639SOL     OW 8815   6.631   0.783   0.226
 2639SOL    HW1 8816   6.698   0.747   0.291
 2639SOL    HW2 8817   6.549   0.726   0.229
 2640SOL     OW 8818   6.691   5.968   0.391
 2640SOL    HW1 8819   6.714   6.057   0.431
 2640SOL    HW2 8820   6.770   5.908   0.397
 2641SOL     OW 8821   0.028   5.684   1.072
 2641SOL    HW1 8822   0.037   5.772   1.118
 2641SOL    HW2 8823   0.015   5.699   0.974
 2642SOL     OW 8824   6.541   0.181   4.389
 2642SOL    HW1 8825   6.469   0.248   4.408
 2642SOL    HW2 8826   6.512   0.091   4.421
 2643SOL     OW 8827   1.926   0.618   2.229
 2643SOL    HW1 8828   1.849   0.562   2.260
 2643SOL    HW2 8829   2.010   0.564   2.234
 2644SOL     OW 8830   5.717   6.328   4.779
 2644SOL    HW1 8831   5.762   6.258   4.723
 2644SOL    HW2 8832   5.692   6.289   4.867
 2645SOL     OW 8833   5.296   5.709   6.428
 2645SOL    HW1 8834   5.267   5.721   6.524
 2645SOL    HW2 8835   5.344   5.622   6.419
 2646SOL     OW 8836   5.494   5.415   5.390
 2646SOL    HW1 8837   5.543   5.422   5.303
 2646SOL    HW2 8838   5.559   5.420   5.465
 2647SOL     OW 8839   3.501   4.247   0.499
 2647SOL    HW1 8840   3.587   4.231   0.548
 2647SOL    HW2 8841   3.426   4.203   0.549
 2648SOL     OW 8842   4.231   1.352   3.632
 2648SOL    HW1 8843   4.266   1.433   3.585
 2648SOL    HW2 8844   4.243   1.364   3.731
 2649SOL     OW 8845   3.021   3.914   5.011
 2649SOL    HW1 8846   3.023   3.823   5.052
 2649SOL    HW2 8847   3.114   3.941   4.986
 2650SOL     OW 8848   0.324   6.869   2.117
 2650SOL    HW1 8849   0.257   6.795   2.126
 2650SOL    HW2 8850   0.414   6.830   2.094
 2651SOL     OW 8851   1.342   6.919   2.660
 2651SOL    HW1 8852   1.409   6.860   2.616
 2651SOL    HW2 8853   1.277   6.864   2.712
 2652SOL     OW 8854   3.224   2.826   2.006
 2652SOL    HW1 8855   3.177   2.742   2.035
 2652SOL    HW2 8856   3.291   2.804   1.935
 2653SOL     OW 8857   6.176   6.768   1.359
 2653SOL    HW1 8858   6.190   6.768   1.260
 2653SOL    HW2 8859   6.078   6.774   1.379
 2654SOL     OW 8860   6.744   3.211   5.940
 2654SOL    HW1 8861   6.807   3.137   5.918
 2654SOL    HW2 8862   6.779   3.298   5.904
 2655SOL     OW 8863   5.763   4.742   4.025
 2655SOL    HW1 8864   5.746   4.671   4.093
 2655SOL    HW2 8865   5.711   4.723   3.942
 2656SOL     OW 8866   5.945   3.302   5.298
 2656SOL    HW1 8867   6.008   3.239   5.344
 2656SOL    HW2 8868   5.996   3.362   5.237
 2657SOL     OW 8869   4.090   1.959   5.653
 2657SOL    HW1 8870   4.147   1.907   5.716
 2657SOL    HW2 8871   4.013   2.000   5.704
 2658SOL     OW 8872   6.838   4.121   5.281
 2658SOL    HW1 8873   6.899   4.043   5.291
 2658SOL    HW2 8874   6.892   4.205   5.271
 2659SOL     OW 8875   6.448   1.295   3.639
 2659SOL    HW1 8876   6.372   1.231   3.646
 2659SOL    HW2 8877   6.419   1.385   3.669
 2660SOL     OW 8878   0.973   2.102   3.747
 2660SOL    HW1 8879   0.960   2.011   3.787
 2660SOL    HW2 8880   1.009   2.092   3.654
 2661SOL     OW 8881   3.360   6.683   3.717
 2661SOL    HW1 8882   3.281   6.741   3.699
 2661SOL    HW2 8883   3.444   6.732   3.692
 2662SOL     OW 8884   3.624   1.278   3.986
 2662SOL    HW1 8885   3.610   1.372   3.954
 2662SOL    HW2 8886   3.622   1.216   3.907
 2663SOL     OW 8887   0.686   3.845   2.933
 2663SOL    HW1 8888   0.761   3.786   2.902
 2663SOL    HW2 8889   0.659   3.817   3.025
 2664SOL     OW 8890   4.766   4.209   1.842
 2664SOL    HW1 8891   4.686   4.238   1.895
 2664SOL    HW2 8892   4.848   4.221   1.897
 2665SOL     OW 8893   4.419   0.884   5.232
 2665SOL    HW1 8894   4.500   0.934   5.262
 2665SOL    HW2 8895   4.431   0.854   5.137
 2666SOL     OW 8896   5.323   6.013   1.964
 2666SOL    HW1 8897   5.421   6.031   1.975
 2666SOL    HW2 8898   5.300   5.924   2.002
 2667SOL     OW 8899   1.803   4.747   2.451
 2667SOL    HW1 8900   1.707   4.754   2.424
 2667SOL    HW2 8901   1.860   4.745   2.369
 2668SOL     OW 8902   6.799   2.773   5.366
 2668SOL    HW1 8903   6.822   2.691   5.419
 2668SOL    HW2 8904   6.868   2.787   5.295
 2669SOL     OW 8905   3.714   6.072   4.836
 2669SOL    HW1 8906   3.713   6.064   4.936
 2669SOL    HW2 8907   3.788   6.015   4.799
 2670SOL     OW 8908   2.124   6.656   4.360
 2670SOL    HW1 8909   2.076   6.572   4.335
 2670SOL    HW2 8910   2.215   6.655   4.320
 2671SOL     OW 8911   3.048   3.852   0.146
 2671SOL    HW1 8912   3.136   3.895   0.124
 2671SOL    HW2 8913   3.064   3.769   0.200
 2672SOL     OW 8914   0.622   4.539   0.836
 2672SOL    HW1 8915   0.530   4.556   0.873
 2672SOL    HW2 8916   0.675   4.487   0.902
 2673SOL     OW 8917   3.992   1.876   3.065
 2673SOL    HW1 8918   3.958   1.789   3.100
 2673SOL    HW2 8919   3.956   1.892   2.973
 2674SOL     OW 8920   4.964   6.174   4.834
 2674SOL    HW1 8921   5.043   6.141   4.784
 2674SOL    HW2 8922   4.882   6.164   4.778
 2675SOL     OW 8923   0.326   5.121   5.710
 2675SOL    HW1 8924   0.279   5.166   5.785
 2675SOL    HW2 8925   0.417   5.092   5.739
 2676SOL     OW 8926   4.673   0.190   1.562
 2676SOL    HW1 8927   4.646   0.132   1.485
 2676SOL    HW2 8928   4.660   0.140   1.647
 2677SOL     OW 8929   2.381   4.771   1.960
 2677SOL    HW1 8930   2.433   4.686   1.956
 2677SOL    HW2 8931   2.442   4.846   1.986
 2678SOL     OW 8932   0.895   6.414   7.013
 2678SOL    HW1 8933   0.917   6.422   6.916
 2678SOL    HW2 8934   0.801   6.444   0.009
 2679SOL     OW 8935   2.045   5.420   1.485
 2679SOL    HW1 8936   1.980   5.365   1.537
 2679SOL    HW2 8937   2.037   5.399   1.388
 2680SOL     OW 8938   6.787   2.250   1.021
 2680SOL    HW1 8939   6.746   2.341   1.025
 2680SOL    HW2 8940   6.853   2.246   0.946
 2681SOL     OW 8941   1.772   2.233   1.711
 2681SOL    HW1 8942   1.846   2.166   1.714
 2681SOL    HW2 8943   1.732   2.235   1.619
 2682SOL     OW 8944   0.470   2.876   3.821
 2682SOL    HW1 8945   0.489   2.783   3.789
 2682SOL    HW2 8946   0.502   2.942   3.753
 2683SOL     OW 8947   1.968   7.016   0.710
 2683SOL    HW1 8948   1.925   6.972   0.631
 2683SOL    HW2 8949   1.898   0.015   0.779
 2684SOL     OW 8950   2.756   4.684   2.985
 2684SOL    HW1 8951   2.693   4.625   2.935
 2684SOL    HW2 8952   2.798   4.750   2.923
 2685SOL     OW 8953   5.207   4.175   5.653
 2685SOL    HW1 8954   5.302   4.201   5.671
 2685SOL    HW2 8955   5.164   4.143   5.737
 2686SOL     OW 8956   1.425   3.506   4.777
 2686SOL    HW1 8957   1.479   3.507   4.861
 2686SOL    HW2 8958   1.386   3.415   4.763
 2687SOL     OW 8959   4.502   5.143   3.132
 2687SOL    HW1 8960   4.453   5.080   3.071
 2687SOL    HW2 8961   4.497   5.235   3.095
 2688SOL     OW 8962   3.314   4.101   5.417
 2688SOL    HW1 8963   3.276   4.179   5.468
 2688SOL    HW2 8964   3.239   4.049   5.376
 2689SOL     OW 8965   6.020   1.768   3.833
 2689SOL    HW1 8966   6.078   1.797   3.909
 2689SOL    HW2 8967   5.987   1.849   3.784
 2690SOL     OW 8968   3.448   4.121   3.345
 2690SOL    HW1 8969   3.511   4.127   3.422
 2690SOL    HW2 8970   3.359   4.088   3.377
 2691SOL     OW 8971   0.984   6.053   1.112
 2691SOL    HW1 8972   1.065   6.076   1.165
 2691SOL    HW2 8973   1.009   5.992   1.037
 2692SOL     OW 8974   6.947   4.315   4.288
 2692SOL    HW1 8975   6.932   4.330   4.386
 2692SOL    HW2 8976   6.975   4.400   4.245
 2693SOL     OW 8977   2.156   3.776   2.809
 2693SOL    HW1 8978   2.159   3.742   2.715
 2693SOL    HW2 8979   2.170   3.875   2.809
 2694SOL     OW 8980   1.672   1.502   2.836
 2694SOL    HW1 8981   1.618   1.510   2.753
 2694SOL    HW2 8982   1.767   1.527   2.817
 2695SOL     OW 8983   3.940   2.157   2.003
 2695SOL    HW1 8984   3.989   2.182   1.920
 2695SOL    HW2 8985   3.846   2.192   1.999
 2696SOL     OW 8986   3.043   3.565   6.039
 2696SOL    HW1 8987   3.127   3.619   6.041
 2696SOL    HW2 8988   3.017   3.547   5.945
 2697SOL     OW 8989   2.383   0.891   5.027
 2697SOL    HW1 8990   2.320   0.830   5.075
 2697SOL    HW2 8991   2.440   0.836   4.965
 2698SOL     OW 8992   1.818   1.308   6.902
 2698SOL    HW1 8993   1.749   1.331   6.834
 2698SOL    HW2 8994   1.909   1.317   6.861
 2699SOL     OW 8995   1.375   4.863   3.898
 2699SOL    HW1 8996   1.371   4.962   3.905
 2699SOL    HW2 8997   1.313   4.832   3.826
 2700SOL     OW 8998   2.233   4.463   2.803
 2700SOL    HW1 8999   2.150   4.502   2.845
 2700SOL    HW2 9000   2.266   4.387   2.859
 2701SOL     OW 9001   1.859   0.844   5.503
 2701SOL    HW1 9002   1.899   0.798   5.582
 2701SOL    HW2 9003   1.768   0.877   5.526
 2702SOL     OW 9004   5.983   6.301   2.405
 2702SOL    HW1 9005   5.906   6.321   2.465
 2702SOL    HW2 9006   5.954   6.236   2.334
 2703SOL     OW 9007   2.127   2.589   2.578
 2703SOL    HW1 9008   2.224   2.614   2.573
 2703SOL    HW2 9009   2.075   2.645   2.513
 2704SOL     OW 9010   0.746   6.516   0.294
 2704SOL    HW1 9011   0.770   6.425   0.327
 2704SOL    HW2 9012   0.694   6.508   0.209
 2705SOL     OW 9013   0.506   3.071   2.602
 2705SOL    HW1 9014   0.468   2.985   2.567
 2705SOL    HW2 9015   0.598   3.055   2.637
 2706SOL     OW 9016   6.585   2.290   3.563
 2706SOL    HW1 9017   6.530   2.356   3.614
 2706SOL    HW2 9018   6.547   2.279   3.471
 2707SOL     OW 9019   3.663   1.083   0.254
 2707SOL    HW1 9020   3.612   1.020   0.312
 2707SOL    HW2 9021   3.604   1.160   0.228
 2708SOL     OW 9022   1.717   4.625   6.732
 2708SOL    HW1 9023   1.770   4.709   6.720
 2708SOL    HW2 9024   1.640   4.642   6.794
 2709SOL     OW 9025   3.928   0.173   1.893
 2709SOL    HW1 9026   4.005   0.233   1.871
 2709SOL    HW2 9027   3.939   0.137   1.985
 2710SOL     OW 9028   5.639   3.830   3.155
 2710SOL    HW1 9029   5.628   3.906   3.219
 2710SOL    HW2 9030   5.737   3.816   3.137
 2711SOL     OW 9031   0.555   6.453   1.767
 2711SOL    HW1 9032   0.553   6.395   1.848
 2711SOL    HW2 9033   0.565   6.396   1.685
 2712SOL     OW 9034   3.097   5.561   2.712
 2712SOL    HW1 9035   3.039   5.482   2.732
 2712SOL    HW2 9036   3.039   5.637   2.681
 2713SOL     OW 9037   2.039   2.863   5.618
 2713SOL    HW1 9038   2.036   2.962   5.609
 2713SOL    HW2 9039   2.062   2.822   5.529
 2714SOL     OW 9040   5.508   0.966   6.815
 2714SOL    HW1 9041   5.482   1.004   6.726
 2714SOL    HW2 9042   5.450   0.887   6.836
 2715SOL     OW 9043   5.620   0.406   0.333
 2715SOL    HW1 9044   5.554   0.422   0.407
 2715SOL    HW2 9045   5.641   0.493   0.288
 2716SOL     OW 9046   6.013   6.568   2.081
 2716SOL    HW1 9047   6.031   6.648   2.137
 2716SOL    HW2 9048   6.084   6.559   2.011
 2717SOL     OW 9049   0.535   0.106   3.303
 2717SOL    HW1 9050   0.634   0.094   3.303
 2717SOL    HW2 9051   0.504   0.136   3.213
 2718SOL     OW 9052   6.548   3.891   3.025
 2718SOL    HW1 9053   6.638   3.854   3.047
 2718SOL    HW2 9054   6.559   3.981   2.982
 2719SOL     OW 9055   4.727   4.386   3.035
 2719SOL    HW1 9056   4.678   4.340   2.961
 2719SOL    HW2 9057   4.664   4.449   3.081
 2720SOL     OW 9058   0.562   6.620   3.982
 2720SOL    HW1 9059   0.576   6.535   4.033
 2720SOL    HW2 9060   0.485   6.608   3.919
 2721SOL     OW 9061   5.288   6.223   2.899
 2721SOL    HW1 9062   5.333   6.181   2.820
 2721SOL    HW2 9063   5.203   6.174   2.918
 2722SOL     OW 9064   0.746   6.001   2.420
 2722SOL    HW1 9065   0.675   5.951   2.469
 2722SOL    HW2 9066   0.706   6.082   2.377
 2723SOL     OW 9067   2.108   2.212   4.143
 2723SOL    HW1 9068   2.115   2.117   4.175
 2723SOL    HW2 9069   2.017   2.228   4.105
 2724SOL     OW 9070   4.694   5.835   5.755
 2724SOL    HW1 9071   4.675   5.860   5.660
 2724SOL    HW2 9072   4.758   5.901   5.795
 2725SOL     OW 9073   2.113   5.062   2.404
 2725SOL    HW1 9074   2.023   5.059   2.448
 2725SOL    HW2 9075   2.112   5.004   2.323
 2726SOL     OW 9076   3.936   6.051   2.865
 2726SOL    HW1 9077   4.001   6.109   2.816
 2726SOL    HW2 9078   3.879   6.107   2.925
 2727SOL     OW 9079   2.315   5.544   3.784
 2727SOL    HW1 9080   2.332   5.461   3.730
 2727SOL    HW2 9081   2.383   5.613   3.759
 2728SOL     OW 9082   2.322   6.590   5.634
 2728SOL    HW1 9083   2.253   6.578   5.563
 2728SOL    HW2 9084   2.289   6.549   5.719
 2729SOL     OW 9085   0.121   4.055   2.532
 2729SOL    HW1 9086   0.124   4.142   2.581
 2729SOL    HW2 9087   0.205   4.003   2.551
 2730SOL     OW 9088   1.275   3.488   1.528
 2730SOL    HW1 9089   1.325   3.549   1.590
 2730SOL    HW2 9090   1.294   3.514   1.433
 2731SOL     OW 9091   1.954   3.214   0.059
 2731SOL    HW1 9092   1.966   3.278   7.003
 2731SOL    HW2 9093   1.864   3.172   0.053
 2732SOL     OW 9094   5.967   3.326   4.599
 2732SOL    HW1 9095   6.029   3.389   4.645
 2732SOL    HW2 9096   6.001   3.307   4.507
 2733SOL     OW 9097   2.335   0.263   6.900
 2733SOL    HW1 9098   2.240   0.270   6.929
 2733SOL    HW2 9099   2.366   0.352   6.866
 2734SOL     OW 9100   1.705   7.012   3.960
 2734SOL    HW1 9101   1.645   0.010   4.038
 2734SOL    HW2 9102   1.653   0.002   3.876
 2735SOL     OW 9103   1.530   5.525   1.539
 2735SOL    HW1 9104   1.539   5.443   1.596
 2735SOL    HW2 9105   1.434   5.553   1.534
 2736SOL     OW 9106   4.425   0.314   6.761
 2736SOL    HW1 9107   4.443   0.272   6.671
 2736SOL    HW2 9108   4.484   0.394   6.772
 2737SOL     OW 9109   4.324   4.076   5.346
 2737SOL    HW1 9110   4.405   4.109   5.297
 2737SOL    HW2 9111   4.321   4.117   5.437
 2738SOL     OW 9112   6.957   3.914   5.031
 2738SOL    HW1 9113   6.950   3.892   5.129
 2738SOL    HW2 9114   7.002   4.003   5.021
 2739SOL     OW 9115   4.701   3.819   6.514
 2739SOL    HW1 9116   4.625   3.792   6.573
 2739SOL    HW2 9117   4.758   3.739   6.495
 2740SOL     OW 9118   6.245   2.677   4.463
 2740SOL    HW1 9119   6.324   2.726   4.427
 2740SOL    HW2 9120   6.275   2.614   4.534
 2741SOL     OW 9121   2.147   3.479   5.882
 2741SOL    HW1 9122   2.163   3.382   5.865
 2741SOL    HW2 9123   2.235   3.526   5.894
 2742SOL     OW 9124   2.460   6.057   5.437
 2742SOL    HW1 9125   2.494   6.150   5.448
 2742SOL    HW2 9126   2.363   6.054   5.460
 2743SOL     OW 9127   5.637   3.830   6.015
 2743SOL    HW1 9128   5.666   3.845   6.110
 2743SOL    HW2 9129   5.557   3.887   5.995
 2744SOL     OW 9130   5.218   6.693   1.216
 2744SOL    HW1 9131   5.304   6.744   1.211
 2744SOL    HW2 9132   5.165   6.725   1.294
 2745SOL     OW 9133   3.149   5.516   2.008
 2745SOL    HW1 9134   3.147   5.592   1.943
 2745SOL    HW2 9135   3.219   5.532   2.077
 2746SOL     OW 9136   1.132   2.563   0.144
 2746SOL    HW1 9137   1.232   2.569   0.151
 2746SOL    HW2 9138   1.090   2.613   0.219
 2747SOL     OW 9139   4.832   6.463   3.942
 2747SOL    HW1 9140   4.890   6.520   4.000
 2747SOL    HW2 9141   4.862   6.472   3.847
 2748SOL     OW 9142   5.463   1.207   4.280
 2748SOL    HW1 9143   5.478   1.129   4.219
 2748SOL    HW2 9144   5.531   1.206   4.354
 2749SOL     OW 9145   5.566   5.171   3.103
 2749SOL    HW1 9146   5.566   5.075   3.076
 2749SOL    HW2 9147   5.534   5.228   3.028
 2750SOL     OW 9148   0.821   7.013   0.292
 2750SOL    HW1 9149   0.891   0.028   0.354
 2750SOL    HW2 9150   0.843   6.919   0.265
 2751SOL     OW 9151   1.383   0.482   6.652
 2751SOL    HW1 9152   1.299   0.488   6.706
 2751SOL    HW2 9153   1.438   0.404   6.684
 2752SOL     OW 9154   0.090   6.508   6.269
 2752SOL    HW1 9155   0.176   6.524   6.316
 2752SOL    HW2 9156   0.062   6.592   6.222
 2753SOL     OW 9157   3.469   5.186   4.506
 2753SOL    HW1 9158   3.520   5.254   4.452
 2753SOL    HW2 9159   3.519   5.100   4.506
 2754SOL     OW 9160   1.127   5.075   4.140
 2754SOL    HW1 9161   1.202   5.099   4.200
 2754SOL    HW2 9162   1.105   5.152   4.080
 2755SOL     OW 9163   4.670   6.582   2.611
 2755SOL    HW1 9164   4.684   6.681   2.603
 2755SOL    HW2 9165   4.581   6.558   2.571
 2756SOL     OW 9166   0.203   3.147   4.992
 2756SOL    HW1 9167   0.192   3.191   5.081
 2756SOL    HW2 9168   0.199   3.047   5.004
 2757SOL     OW 9169   5.083   3.885   5.562
 2757SOL    HW1 9170   4.999   3.936   5.581
 2757SOL    HW2 9171   5.158   3.926   5.614
 2758SOL     OW 9172   0.095   6.529   1.496
 2758SOL    HW1 9173   0.154   6.543   1.575
 2758SOL    HW2 9174   0.150   6.533   1.412
 2759SOL     OW 9175   3.967   3.916   4.736
 2759SOL    HW1 9176   4.002   3.972   4.811
 2759SOL    HW2 9177   3.964   3.820   4.765
 2760SOL     OW 9178   4.897   5.129   2.557
 2760SOL    HW1 9179   4.953   5.048   2.576
 2760SOL    HW2 9180   4.955   5.208   2.539
 2761SOL     OW 9181   1.912   3.330   3.961
 2761SOL    HW1 9182   1.902   3.410   3.903
 2761SOL    HW2 9183   1.855   3.341   4.043
 2762SOL     OW 9184   4.370   1.389   2.144
 2762SOL    HW1 9185   4.304   1.441   2.199
 2762SOL    HW2 9186   4.462   1.427   2.158
 2763SOL     OW 9187   5.484   0.990   4.118
 2763SOL    HW1 9188   5.397   0.970   4.071
 2763SOL    HW2 9189   5.539   0.907   4.123
 2764SOL     OW 9190   7.009   2.293   2.677
 2764SOL    HW1 9191   6.948   2.237   2.622
 2764SOL    HW2 9192   0.068   2.322   2.620
 2765SOL     OW 9193   6.961   6.656   6.913
 2765SOL    HW1 9194   6.963   6.581   6.980
 2765SOL    HW2 9195   0.035   6.685   6.894
 2766SOL     OW 9196   5.295   0.153   0.002
 2766SOL    HW1 9197   5.248   0.231   0.044
 2766SOL    HW2 9198   5.394   0.165   0.009
 2767SOL     OW 9199   0.667   6.098   6.225
 2767SOL    HW1 9200   0.594   6.075   6.289
 2767SOL    HW2 9201   0.739   6.149   6.273
 2768SOL     OW 9202   4.198   0.249   1.394
 2768SOL    HW1 9203   4.240   0.180   1.452
 2768SOL    HW2 9204   4.103   0.265   1.424
 2769SOL     OW 9205   0.707   5.082   6.009
 2769SOL    HW1 9206   0.691   4.984   6.024
 2769SOL    HW2 9207   0.799   5.106   6.041
 2770SOL     OW 9208   2.394   6.556   0.574
 2770SOL    HW1 9209   2.444   6.486   0.523
 2770SOL    HW2 9210   2.445   6.578   0.658
 2771SOL     OW 9211   3.881   6.034   5.518
 2771SOL    HW1 9212   3.890   6.126   5.478
 2771SOL    HW2 9213   3.971   5.993   5.528
 2772SOL     OW 9214   6.236   1.642   2.717
 2772SOL    HW1 9215   6.222   1.614   2.622
 2772SOL    HW2 9216   6.213   1.738   2.727
 2773SOL     OW 9217   5.273   1.768   6.188
 2773SOL    HW1 9218   5.188   1.753   6.240
 2773SOL    HW2 9219   5.250   1.781   6.092
 2774SOL     OW 9220   6.212   6.793   3.791
 2774SOL    HW1 9221   6.233   6.745   3.876
 2774SOL    HW2 9222   6.124   6.839   3.799
 2775SOL     OW 9223   6.943   2.385   4.736
 2775SOL    HW1 9224   7.018   2.420   4.793
 2775SOL    HW2 9225   6.908   2.458   4.678
 2776SOL     OW 9226   5.026   4.099   5.907
 2776SOL    HW1 9227   5.109   4.131   5.953
 2776SOL    HW2 9228   4.953   4.086   5.975
 2777SOL     OW 9229   1.573   1.484   0.521
 2777SOL    HW1 9230   1.526   1.571   0.506
 2777SOL    HW2 9231   1.664   1.501   0.559
 2778SOL     OW 9232   2.813   6.222   6.089
 2778SOL    HW1 9233   2.832   6.127   6.115
 2778SOL    HW2 9234   2.769   6.223   5.999
 2779SOL     OW 9235   5.209   1.263   3.744
 2779SOL    HW1 9236   5.163   1.175   3.752
 2779SOL    HW2 9237   5.250   1.288   3.832
 2780SOL     OW 9238   0.549   0.251   5.066
 2780SOL    HW1 9239   0.619   0.208   5.008
 2780SOL    HW2 9240   0.544   0.348   5.045
 2781SOL     OW 9241   6.862   6.882   2.930
 2781SOL    HW1 9242   6.895   6.908   3.020
 2781SOL    HW2 9243   6.937   6.841   2.878
 2782SOL     OW 9244   5.617   6.553   5.007
 2782SOL    HW1 9245   5.693   6.579   4.947
 2782SOL    HW2 9246   5.651   6.493   5.079
 2783SOL     OW 9247   6.897   2.088   1.747
 2783SOL    HW1 9248   6.872   2.003   1.792
 2783SOL    HW2 9249   6.875   2.083   1.650
 2784SOL     OW 9250   1.389   1.961   2.067
 2784SOL    HW1 9251   1.384   2.014   2.151
 2784SOL    HW2 9252   1.310   1.981   2.010
 2785SOL     OW 9253   5.211   3.472   3.657
 2785SOL    HW1 9254   5.213   3.394   3.718
 2785SOL    HW2 9255   5.290   3.468   3.595
 2786SOL     OW 9256   0.462   5.820   0.742
 2786SOL    HW1 9257   0.396   5.852   0.809
 2786SOL    HW2 9258   0.478   5.722   0.755
 2787SOL     OW 9259   0.363   6.533   6.350
 2787SOL    HW1 9260   0.397   6.627   6.349
 2787SOL    HW2 9261   0.413   6.479   6.283
 2788SOL     OW 9262   2.988   6.577   6.855
 2788SOL    HW1 9263   2.961   6.579   6.759
 2788SOL    HW2 9264   2.912   6.544   6.911
 2789SOL     OW 9265   2.032   2.051   3.446
 2789SOL    HW1 9266   2.007   1.957   3.471
 2789SOL    HW2 9267   2.023   2.110   3.526
 2790SOL     OW 9268   1.008   4.794   1.443
 2790SOL    HW1 9269   1.021   4.765   1.348
 2790SOL    HW2 9270   0.910   4.802   1.462
 2791SOL     OW 9271   0.157   3.870   5.628
 2791SOL    HW1 9272   0.200   3.880   5.718
 2791SOL    HW2 9273   0.070   3.822   5.638
 2792SOL     OW 9274   3.153   2.495   0.177
 2792SOL    HW1 9275   3.192   2.572   0.128
 2792SOL    HW2 9276   3.092   2.528   0.249
 2793SOL     OW 9277   4.496   3.701   6.248
 2793SOL    HW1 9278   4.468   3.672   6.340
 2793SOL    HW2 9279   4.424   3.680   6.183
 2794SOL     OW 9280   1.249   2.119   6.472
 2794SOL    HW1 9281   1.165   2.155   6.433
 2794SOL    HW2 9282   1.257   2.148   6.568
 2795SOL     OW 9283   1.357   6.998   0.355
 2795SOL    HW1 9284   1.382   6.932   0.425
 2795SOL    HW2 9285   1.420   0.056   0.358
 2796SOL     OW 9286   3.076   5.775   0.020
 2796SOL    HW1 9287   2.998   5.835   0.004
 2796SOL    HW2 9288   3.159   5.830   0.028
 2797SOL     OW 9289   4.776   4.069   4.754
 2797SOL    HW1 9290   4.756   4.161   4.718
 2797SOL    HW2 9291   4.764   4.069   4.853
 2798SOL     OW 9292   5.767   2.687   1.657
 2798SOL    HW1 9293   5.846   2.626   1.657
 2798SOL    HW2 9294   5.686   2.638   1.626
 2799SOL     OW 9295   3.338   0.039   4.445
 2799SOL    HW1 9296   3.324   0.138   4.440
 2799SOL    HW2 9297   3.314   0.007   4.537
 2800SOL     OW 9298   4.530   1.385   0.387
 2800SOL    HW1 9299   4.555   1.311   0.449
 2800SOL    HW2 9300   4.571   1.370   0.297
 2801SOL     OW 9301   0.276   4.347   3.475
 2801SOL    HW1 9302   0.372   4.320   3.479
 2801SOL    HW2 9303   0.247   4.350   3.379
 2802SOL     OW 9304   2.085   4.530   4.186
 2802SOL    HW1 9305   1.989   4.502   4.179
 2802SOL    HW2 9306   2.097   4.591   4.264
 2803SOL     OW 9307   2.997   3.026   6.623
 2803SOL    HW1 9308   3.094   3.050   6.616
 2803SOL    HW2 9309   2.988   2.926   6.623
 2804SOL     OW 9310   5.417   2.664   3.551
 2804SOL    HW1 9311   5.398   2.581   3.604
 2804SOL    HW2 9312   5.335   2.720   3.547
 2805SOL     OW 9313   3.999   5.408   0.433
 2805SOL    HW1 9314   3.914   5.453   0.461
 2805SOL    HW2 9315   4.046   5.465   0.366
 2806SOL     OW 9316   0.504   3.108   5.055
 2806SOL    HW1 9317   0.408   3.083   5.047
 2806SOL    HW2 9318   0.559   3.047   4.998
 2807SOL     OW 9319   4.546   1.457   3.900
 2807SOL    HW1 9320   4.449   1.430   3.904
 2807SOL    HW2 9321   4.553   1.555   3.882
 2808SOL     OW 9322   1.010   6.117   6.638
 2808SOL    HW1 9323   0.999   6.022   6.609
 2808SOL    HW2 9324   1.089   6.124   6.699
 2809SOL     OW 9325   0.962   6.475   0.647
 2809SOL    HW1 9326   0.917   6.386   0.637
 2809SOL    HW2 9327   1.016   6.475   0.731
 2810SOL     OW 9328   0.134   6.447   2.030
 2810SOL    HW1 9329   0.124   6.505   2.111
 2810SOL    HW2 9330   0.198   6.489   1.966
 2811SOL     OW 9331   0.928   0.188   0.585
 2811SOL    HW1 9332   0.831   0.162   0.578
 2811SOL    HW2 9333   0.983   0.123   0.532
 2812SOL     OW 9334   1.834   0.714   1.379
 2812SOL    HW1 9335   1.835   0.654   1.459
 2812SOL    HW2 9336   1.745   0.705   1.332
 2813SOL     OW 9337   5.839   2.359   1.689
 2813SOL    HW1 9338   5.922   2.308   1.663
 2813SOL    HW2 9339   5.784   2.375   1.608
 2814SOL     OW 9340   2.313   4.015   6.629
 2814SOL    HW1 9341   2.293   4.076   6.705
 2814SOL    HW2 9342   2.405   3.978   6.638
 2815SOL     OW 9343   6.236   6.223   4.779
 2815SOL    HW1 9344   6.180   6.301   4.807
 2815SOL    HW2 9345   6.237   6.216   4.680
 2816SOL     OW 9346   0.852   4.980   5.201
 2816SOL    HW1 9347   0.913   4.941   5.132
 2816SOL    HW2 9348   0.818   4.908   5.261
 2817SOL     OW 9349   3.016   0.875   1.564
 2817SOL    HW1 9350   2.941   0.852   1.501
 2817SOL    HW2 9351   3.063   0.791   1.591
 2818SOL     OW 9352   2.295   0.917   0.479
 2818SOL    HW1 9353   2.273   0.946   0.386
 2818SOL    HW2 9354   2.350   0.988   0.523
 2819SOL     OW 9355   6.050   0.374   6.405
 2819SOL    HW1 9356   5.974   0.345   6.347
 2819SOL    HW2 9357   6.097   0.294   6.443
 2820SOL     OW 9358   1.469   1.748   0.462
 2820SOL    HW1 9359   1.374   1.765   0.436
 2820SOL    HW2 9360   1.530   1.773   0.387
 2821SOL     OW 9361   3.711   2.231   5.856
 2821SOL    HW1 9362   3.617   2.212   5.885
 2821SOL    HW2 9363   3.759   2.278   5.930
 2822SOL     OW 9364   4.517   3.356   1.449
 2822SOL    HW1 9365   4.546   3.392   1.538
 2822SOL    HW2 9366   4.475   3.428   1.395
 2823SOL     OW 9367   5.510   4.162   3.067
 2823SOL    HW1 9368   5.548   4.126   2.982
 2823SOL    HW2 9369   5.410   4.161   3.062
 2824SOL     OW 9370   0.570   4.378   5.310
 2824SOL    HW1 9371   0.495   4.434   5.347
 2824SOL    HW2 9372   0.629   4.435   5.253
 2825SOL     OW 9373   5.143   2.698   5.783
 2825SOL    HW1 9374   5.175   2.791   5.765
 2825SOL    HW2 9375   5.203   2.655   5.852
 2826SOL     OW 9376   3.258   3.133   6.657
 2826SOL    HW1 9377   3.295   3.206   6.599
 2826SOL    HW2 9378   3.266   3.046   6.608
 2827SOL     OW 9379   6.769   1.824   0.110
 2827SOL    HW1 9380   6.731   1.899   0.163
 2827SOL    HW2 9381   6.705   1.747   0.110
 2828SOL     OW 9382   1.919   3.933   7.004
 2828SOL    HW1 9383   1.866   3.894   0.059
 2828SOL    HW2 9384   1.857   3.977   6.939
 2829SOL     OW 9385   3.258   4.510   1.026
 2829SOL    HW1 9386   3.192   4.475   0.960
 2829SOL    HW2 9387   3.235   4.605   1.048
 2830SOL     OW 9388   2.820   5.448   4.507
 2830SOL    HW1 9389   2.872   5.386   4.565
 2830SOL    HW2 9390   2.734   5.404   4.480
 2831SOL     OW 9391   5.447   1.527   1.768
 2831SOL    HW1 9392   5.416   1.579   1.847
 2831SOL    HW2 9393   5.369   1.505   1.709
 2832SOL     OW 9394   1.335   3.702   1.726
 2832SOL    HW1 9395   1.299   3.780   1.675
 2832SOL    HW2 9396   1.321   3.716   1.824
 2833SOL     OW 9397   6.235   2.011   3.581
 2833SOL    HW1 9398   6.138   1.997   3.598
 2833SOL    HW2 9399   6.272   2.074   3.649
 2834SOL     OW 9400   3.061   0.608   4.322
 2834SOL    HW1 9401   3.129   0.559   4.377
 2834SOL    HW2 9402   2.980   0.625   4.378
 2835SOL     OW 9403   6.632   1.562   0.695
 2835SOL    HW1 9404   6.563   1.494   0.675
 2835SOL    HW2 9405   6.718   1.517   0.718
 2836SOL     OW 9406   2.817   6.478   2.169
 2836SOL    HW1 9407   2.848   6.515   2.257
 2836SOL    HW2 9408   2.794   6.554   2.108
 2837SOL     OW 9409   5.167   3.914   3.196
 2837SOL    HW1 9410   5.086   3.918   3.138
 2837SOL    HW2 9411   5.142   3.881   3.287
 2838SOL     OW 9412   6.573   4.416   6.147
 2838SOL    HW1 9413   6.610   4.429   6.238
 2838SOL    HW2 9414   6.477   4.444   6.145
 2839SOL     OW 9415   5.533   2.790   6.760
 2839SOL    HW1 9416   5.546   2.875   6.811
 2839SOL    HW2 9417   5.489   2.722   6.819
 2840SOL     OW 9418   6.376   5.928   5.456
 2840SOL    HW1 9419   6.382   5.837   5.415
 2840SOL    HW2 9420   6.284   5.965   5.441
 2841SOL     OW 9421   5.424   3.478   2.996
 2841SOL    HW1 9422   5.393   3.556   2.942
 2841SOL    HW2 9423   5.489   3.509   3.065
 2842SOL     OW 9424   1.005   6.113   3.507
 2842SOL    HW1 9425   0.971   6.023   3.479
 2842SOL    HW2 9426   0.953   6.184   3.459
 2843SOL     OW 9427   0.830   2.681   3.962
 2843SOL    HW1 9428   0.761   2.732   4.015
 2843SOL    HW2 9429   0.814   2.695   3.864
 2844SOL     OW 9430   5.701   4.286   0.037
 2844SOL    HW1 9431   5.753   4.261   0.119
 2844SOL    HW2 9432   5.728   4.227   6.981
 2845SOL     OW 9433   3.705   1.737   1.053
 2845SOL    HW1 9434   3.752   1.825   1.057
 2845SOL    HW2 9435   3.727   1.684   1.135
 2846SOL     OW 9436   5.262   0.622   6.053
 2846SOL    HW1 9437   5.265   0.564   6.134
 2846SOL    HW2 9438   5.167   0.640   6.027
 2847SOL     OW 9439   5.881   4.509   2.610
 2847SOL    HW1 9440   5.947   4.582   2.591
 2847SOL    HW2 9441   5.930   4.426   2.638
 2848SOL     OW 9442   0.278   3.744   0.498
 2848SOL    HW1 9443   0.328   3.675   0.550
 2848SOL    HW2 9444   0.181   3.740   0.522
 2849SOL     OW 9445   5.263   1.038   0.544
 2849SOL    HW1 9446   5.297   1.097   0.471
 2849SOL    HW2 9447   5.197   1.088   0.599
 2850SOL     OW 9448   6.911   1.483   0.739
 2850SOL    HW1 9449   6.918   1.501   0.641
 2850SOL    HW2 9450   6.981   1.536   0.787
 2851SOL     OW 9451   3.456   3.100   2.258
 2851SOL    HW1 9452   3.430   3.008   2.286
 2851SOL    HW2 9453   3.418   3.120   2.167
 2852SOL     OW 9454   0.769   4.816   5.396
 2852SOL    HW1 9455   0.769   4.718   5.418
 2852SOL    HW2 9456   0.697   4.861   5.448
 2853SOL     OW 9457   0.084   4.951   5.698
 2853SOL    HW1 9458   0.074   5.000   5.612
 2853SOL    HW2 9459   0.174   4.909   5.702
 2854SOL     OW 9460   3.238   0.408   6.586
 2854SOL    HW1 9461   3.335   0.432   6.574
 2854SOL    HW2 9462   3.218   0.323   6.537
 2855SOL     OW 9463   2.800   2.315   4.391
 2855SOL    HW1 9464   2.874   2.277   4.336
 2855SOL    HW2 9465   2.722   2.336   4.332
 2856SOL     OW 9466   1.321   5.363   4.892
 2856SOL    HW1 9467   1.357   5.272   4.912
 2856SOL    HW2 9468   1.272   5.398   4.971
 2857SOL     OW 9469   0.887   4.182   0.246
 2857SOL    HW1 9470   0.891   4.140   0.155
 2857SOL    HW2 9471   0.965   4.245   0.256
 2858SOL     OW 9472   5.485   4.496   4.013
 2858SOL    HW1 9473   5.403   4.546   3.985
 2858SOL    HW2 9474   5.487   4.407   3.968
 2859SOL     OW 9475   0.362   5.329   2.054
 2859SOL    HW1 9476   0.271   5.296   2.027
 2859SOL    HW2 9477   0.388   5.288   2.141
 2860SOL     OW 9478   1.254   6.201   2.801
 2860SOL    HW1 9479   1.244   6.295   2.832
 2860SOL    HW2 9480   1.339   6.163   2.838
 2861SOL     OW 9481   5.678   3.184   5.290
 2861SOL    HW1 9482   5.777   3.186   5.278
 2861SOL    HW2 9483   5.655   3.201   5.386
 2862SOL     OW 9484   4.590   1.168   0.650
 2862SOL    HW1 9485   4.645   1.163   0.733
 2862SOL    HW2 9486   4.637   1.120   0.576
 2863SOL     OW 9487   5.590   1.428   6.359
 2863SOL    HW1 9488   5.566   1.357   6.425
 2863SOL    HW2 9489   5.518   1.498   6.358
 2864SOL     OW 9490   4.308   4.739   0.743
 2864SOL    HW1 9491   4.246   4.803   0.698
 2864SOL    HW2 9492   4.380   4.711   0.679
 2865SOL     OW 9493   5.645   4.500   6.291
 2865SOL    HW1 9494   5.582   4.458   6.226
 2865SOL    HW2 9495   5.681   4.431   6.353
 2866SOL     OW 9496   4.633   5.771   1.287
 2866SOL    HW1 9497   4.543   5.788   1.249
 2866SOL    HW2 9498   4.699   5.757   1.213
 2867SOL     OW 9499   0.383   5.756   3.508
 2867SOL    HW1 9500   0.333   5.687   3.561
 2867SOL    HW2 9501   0.395   5.838   3.563
 2868SOL     OW 9502   6.661   0.325   5.416
 2868SOL    HW1 9503   6.655   0.363   5.324
 2868SOL    HW2 9504   6.757   0.323   5.445
 2869SOL     OW 9505   6.044   4.412   4.964
 2869SOL    HW1 9506   5.979   4.338   4.948
 2869SOL    HW2 9507   5.995   4.492   4.999
 2870SOL     OW 9508   0.689   1.220   1.038
 2870SOL    HW1 9509   0.751   1.146   1.014
 2870SOL    HW2 9510   0.736   1.282   1.102
 2871SOL     OW 9511   4.699   1.301   3.213
 2871SOL    HW1 9512   4.661   1.383   3.257
 2871SOL    HW2 9513   4.758   1.253   3.278
 2872SOL     OW 9514   3.530   1.379   2.483
 2872SOL    HW1 9515   3.479   1.294   2.488
 2872SOL    HW2 9516   3.628   1.360   2.488
 2873SOL     OW 9517   0.365   0.122   2.685
 2873SOL    HW1 9518   0.416   0.078   2.759
 2873SOL    HW2 9519   0.394   0.085   2.597
 2874SOL     OW 9520   1.430   0.956   1.938
 2874SOL    HW1 9521   1.446   0.991   1.846
 2874SOL    HW2 9522   1.454   1.026   2.005
 2875SOL     OW 9523   3.010   0.791   2.183
 2875SOL    HW1 9524   3.072   0.812   2.108
 2875SOL    HW2 9525   2.924   0.755   2.147
 2876SOL     OW 9526   1.336   6.865   1.253
 2876SOL    HW1 9527   1.316   6.963   1.248
 2876SOL    HW2 9528   1.400   6.848   1.328
 2877SOL     OW 9529   0.709   3.464   6.631
 2877SOL    HW1 9530   0.783   3.525   6.661
 2877SOL    HW2 9531   0.725   3.436   6.536
 2878SOL     OW 9532   4.107   3.628   4.348
 2878SOL    HW1 9533   4.052   3.710   4.362
 2878SOL    HW2 9534   4.134   3.590   4.436
 2879SOL     OW 9535   6.226   6.260   0.296
 2879SOL    HW1 9536   6.209   6.162   0.308
 2879SOL    HW2 9537   6.299   6.273   0.230
 2880SOL     OW 9538   1.250   1.548   2.679
 2880SOL    HW1 9539   1.340   1.509   2.701
 2880SOL    HW2 9540   1.198   1.482   2.624
 2881SOL     OW 9541   5.235   5.618   6.712
 2881SOL    HW1 9542   5.237   5.699   6.771
 2881SOL    HW2 9543   5.294   5.547   6.751
 2882SOL     OW 9544   4.854   6.229   0.375
 2882SOL    HW1 9545   4.785   6.235   0.303
 2882SOL    HW2 9546   4.927   6.167   0.347
 2883SOL     OW 9547   5.433   6.165   3.141
 2883SOL    HW1 9548   5.424   6.066   3.147
 2883SOL    HW2 9549   5.380   6.199   3.064
 2884SOL     OW 9550   6.331   5.856   3.570
 2884SOL    HW1 9551   6.313   5.860   3.668
 2884SOL    HW2 9552   6.259   5.802   3.525
 2885SOL     OW 9553   0.475   3.983   3.445
 2885SOL    HW1 9554   0.467   4.021   3.537
 2885SOL    HW2 9555   0.390   3.936   3.421
 2886SOL     OW 9556   1.727   4.494   5.155
 2886SOL    HW1 9557   1.761   4.554   5.227
 2886SOL    HW2 9558   1.759   4.400   5.171
 2887SOL     OW 9559   0.035   4.751   2.787
 2887SOL    HW1 9560   0.133   4.769   2.794
 2887SOL    HW2 9561   7.019   4.724   2.877
 2888SOL     OW 9562   4.597   6.131   6.741
 2888SOL    HW1 9563   4.554   6.096   6.658
 2888SOL    HW2 9564   4.572   6.074   6.819
 2889SOL     OW 9565   4.059   5.148   3.720
 2889SOL    HW1 9566   4.058   5.048   3.715
 2889SOL    HW2 9567   4.039   5.186   3.630
 2890SOL     OW 9568   1.518   1.692   0.856
 2890SOL    HW1 9569   1.433   1.719   0.811
 2890SOL    HW2 9570   1.595   1.737   0.811
 2891SOL     OW 9571   1.377   1.641   5.491
 2891SOL    HW1 9572   1.339   1.657   5.582
 2891SOL    HW2 9573   1.360   1.720   5.432
 2892SOL     OW 9574   5.923   3.628   2.408
 2892SOL    HW1 9575   5.826   3.607   2.395
 2892SOL    HW2 9576   5.956   3.684   2.332
 2893SOL     OW 9577   6.667   6.024   5.141
 2893SOL    HW1 9578   6.647   6.033   5.044
 2893SOL    HW2 9579   6.583   6.031   5.194
 2894SOL     OW 9580   1.726   5.534   1.332
 2894SOL    HW1 9581   1.653   5.543   1.399
 2894SOL    HW2 9582   1.755   5.439   1.326
 2895SOL     OW 9583   4.946   6.568   6.158
 2895SOL    HW1 9584   4.911   6.547   6.067
 2895SOL    HW2 9585   4.874   6.612   6.212
 2896SOL     OW 9586   6.948   0.154   6.550
 2896SOL    HW1 9587   6.982   0.067   6.586
 2896SOL    HW2 9588   6.919   0.212   6.626
 2897SOL     OW 9589   2.688   6.358   3.850
 2897SOL    HW1 9590   2.770   6.377   3.797
 2897SOL    HW2 9591   2.636   6.284   3.807
 2898SOL     OW 9592   5.336   2.291   2.635
 2898SOL    HW1 9593   5.324   2.241   2.721
 2898SOL    HW2 9594   5.312   2.387   2.649
 2899SOL     OW 9595   6.388   2.566   1.030
 2899SOL    HW1 9596   6.384   2.557   1.130
 2899SOL    HW2 9597   6.306   2.613   0.998
 2900SOL     OW 9598   3.175   3.220   5.041
 2900SOL    HW1 9599   3.147   3.223   4.945
 2900SOL    HW2 9600   3.274   3.205   5.046
 2901SOL     OW 9601   1.720   3.176   1.537
 2901SOL    HW1 9602   1.817   3.157   1.553
 2901SOL    HW2 9603   1.675   3.094   1.504
 2902SOL     OW 9604   4.963   5.991   3.371
 2902SOL    HW1 9605   5.057   6.015   3.396
 2902SOL    HW2 9606   4.944   5.897   3.398
 2903SOL     OW 9607   0.892   5.309   1.764
 2903SOL    HW1 9608   0.840   5.308   1.678
 2903SOL    HW2 9609   0.854   5.241   1.826
 2904SOL     OW 9610   3.150   4.873   3.963
 2904SOL    HW1 9611   3.105   4.844   4.048
 2904SOL    HW2 9612   3.098   4.838   3.885
 2905SOL     OW 9613   1.333   4.434   1.108
 2905SOL    HW1 9614   1.337   4.391   1.198
 2905SOL    HW2 9615   1.378   4.375   1.041
 2906SOL     OW 9616   6.434   6.380   6.545
 2906SOL    HW1 9617   6.429   6.415   6.452
 2906SOL    HW2 9618   6.376   6.435   6.605
 2907SOL     OW 9619   6.955   1.533   6.056
 2907SOL    HW1 9620   0.018   1.587   6.038
 2907SOL    HW2 9621   6.971   1.438   6.030
 2908SOL     OW 9622   3.633   5.851   3.702
 2908SOL    HW1 9623   3.649   5.760   3.738
 2908SOL    HW2 9624   3.622   5.916   3.777
 2909SOL     OW 9625   0.190   6.425   0.713
 2909SOL    HW1 9626   0.200   6.429   0.614
 2909SOL    HW2 9627   0.164   6.515   0.747
 2910SOL     OW 9628   1.113   0.058   4.039
 2910SOL    HW1 9629   1.020   0.063   4.076
 2910SOL    HW2 9630   1.162   7.001   4.081
 2911SOL     OW 9631   6.871   3.345   3.550
 2911SOL    HW1 9632   6.952   3.362   3.608
 2911SOL    HW2 9633   6.857   3.247   3.541
 2912SOL     OW 9634   6.898   1.588   3.023
 2912SOL    HW1 9635   6.876   1.522   3.094
 2912SOL    HW2 9636   6.971   1.551   2.965
 2913SOL     OW 9637   0.905   6.512   4.043
 2913SOL    HW1 9638   0.878   6.600   4.005
 2913SOL    HW2 9639   1.002   6.512   4.064
 2914SOL     OW 9640   3.864   4.525   0.936
 2914SOL    HW1 9641   3.960   4.552   0.937
 2914SOL    HW2 9642   3.838   4.489   1.026
 2915SOL     OW 9643   2.198   0.157   3.687
 2915SOL    HW1 9644   2.170   0.149   3.592
 2915SOL    HW2 9645   2.137   0.101   3.744
 2916SOL     OW 9646   0.431   5.684   6.358
 2916SOL    HW1 9647   0.438   5.781   6.381
 2916SOL    HW2 9648   0.514   5.637   6.389
 2917SOL     OW 9649   1.647   1.681   3.987
 2917SOL    HW1 9650   1.608   1.634   3.908
 2917SOL    HW2 9651   1.741   1.706   3.968
 2918SOL     OW 9652   4.736   1.330   1.114
 2918SOL    HW1 9653   4.782   1.320   1.026
 2918SOL    HW2 9654   4.760   1.419   1.154
 2919SOL     OW 9655   0.905   5.397   5.022
 2919SOL    HW1 9656   0.870   5.326   4.961
 2919SOL    HW2 9657   0.829   5.444   5.066
 2920SOL     OW 9658   2.730   2.263   1.751
 2920SOL    HW1 9659   2.797   2.222   1.690
 2920SOL    HW2 9660   2.776   2.328   1.812
 2921SOL     OW 9661   0.002   5.255   3.736
 2921SOL    HW1 9662   6.952   5.287   3.671
 2921SOL    HW2 9663   0.076   5.321   3.741
 2922SOL     OW 9664   3.908   4.876   3.661
 2922SOL    HW1 9665   3.841   4.887   3.735
 2922SOL    HW2 9666   3.864   4.834   3.583
 2923SOL     OW 9667   1.122   4.219   3.617
 2923SOL    HW1 9668   1.101   4.201   3.713
 2923SOL    HW2 9669   1.169   4.140   3.578
 2924SOL     OW 9670   4.611   1.365   0.102
 2924SOL    HW1 9671   4.675   1.394   0.031
 2924SOL    HW2 9672   4.518   1.394   0.078
 2925SOL     OW 9673   5.417   6.746   4.779
 2925SOL    HW1 9674   5.349   6.685   4.822
 2925SOL    HW2 9675   5.382   6.839   4.781
 2926SOL     OW 9676   0.261   2.452   5.115
 2926SOL    HW1 9677   0.354   2.418   5.098
 2926SOL    HW2 9678   0.218   2.474   5.028
 2927SOL     OW 9679   0.728   1.793   2.786
 2927SOL    HW1 9680   0.821   1.822   2.809
 2927SOL    HW2 9681   0.724   1.693   2.784
 2928SOL     OW 9682   4.865   4.783   0.330
 2928SOL    HW1 9683   4.865   4.777   0.430
 2928SOL    HW2 9684   4.817   4.866   0.301
 2929SOL     OW 9685   1.717   1.776   2.994
 2929SOL    HW1 9686   1.657   1.761   2.916
 2929SOL    HW2 9687   1.739   1.689   3.037
 2930SOL     OW 9688   0.709   3.028   4.231
 2930SOL    HW1 9689   0.660   2.949   4.196
 2930SOL    HW2 9690   0.740   3.011   4.324
 2931SOL     OW 9691   5.658   4.015   5.378
 2931SOL    HW1 9692   5.650   3.958   5.296
 2931SOL    HW2 9693   5.738   3.987   5.430
 2932SOL     OW 9694   0.102   6.851   0.568
 2932SOL    HW1 9695   0.025   6.814   0.517
 2932SOL    HW2 9696   0.078   6.940   0.606
 2933SOL     OW 9697   0.760   0.585   6.993
 2933SOL    HW1 9698   0.811   0.506   6.959
 2933SOL    HW2 9699   0.699   0.555   0.047
 2934SOL     OW 9700   5.690   4.998   2.679
 2934SOL    HW1 9701   5.651   4.973   2.590
 2934SOL    HW2 9702   5.651   4.941   2.750
 2935SOL     OW 9703   0.646   4.504   6.267
 2935SOL    HW1 9704   0.639   4.470   6.173
 2935SOL    HW2 9705   0.740   4.533   6.285
 2936SOL     OW 9706   4.421   6.256   2.558
 2936SOL    HW1 9707   4.392   6.219   2.646
 2936SOL    HW2 9708   4.515   6.227   2.538
 2937SOL     OW 9709   6.281   3.298   3.317
 2937SOL    HW1 9710   6.185   3.273   3.328
 2937SOL    HW2 9711   6.307   3.290   3.221
 2938SOL     OW 9712   0.192   5.411   1.534
 2938SOL    HW1 9713   0.167   5.486   1.472
 2938SOL    HW2 9714   0.270   5.438   1.590
 2939SOL     OW 9715   5.953   5.832   2.044
 2939SOL    HW1 9716   5.943   5.865   1.951
 2939SOL    HW2 9717   6.040   5.864   2.082
 2940SOL     OW 9718   4.787   5.368   3.309
 2940SOL    HW1 9719   4.737   5.398   3.390
 2940SOL    HW2 9720   4.768   5.271   3.292
 2941SOL     OW 9721   3.131   5.158   2.268
 2941SOL    HW1 9722   3.103   5.071   2.309
 2941SOL    HW2 9723   3.208   5.143   2.207
 2942SOL     OW 9724   2.788   1.796   0.633
 2942SOL    HW1 9725   2.825   1.886   0.612
 2942SOL    HW2 9726   2.695   1.805   0.667
 2943SOL     OW 9727   0.106   4.542   3.934
 2943SOL    HW1 9728   0.034   4.506   3.874
 2943SOL    HW2 9729   0.070   4.550   4.027
 2944SOL     OW 9730   0.801   5.177   3.615
 2944SOL    HW1 9731   0.818   5.272   3.590
 2944SOL    HW2 9732   0.727   5.141   3.558
 2945SOL     OW 9733   5.460   3.615   0.773
 2945SOL    HW1 9734   5.424   3.707   0.787
 2945SOL    HW2 9735   5.393   3.548   0.803
 2946SOL     OW 9736   3.456   3.851   4.523
 2946SOL    HW1 9737   3.459   3.844   4.423
 2946SOL    HW2 9738   3.532   3.799   4.562
 2947SOL     OW 9739   6.585   6.615   0.428
 2947SOL    HW1 9740   6.566   6.594   0.332
 2947SOL    HW2 9741   6.684   6.618   0.442
 2948SOL     OW 9742   6.275   4.391   0.845
 2948SOL    HW1 9743   6.198   4.397   0.909
 2948SOL    HW2 9744   6.335   4.470   0.857
 2949SOL     OW 9745   1.898   6.170   1.065
 2949SOL    HW1 9746   1.874   6.180   1.161
 2949SOL    HW2 9747   1.899   6.073   1.041
 2950SOL     OW 9748   5.384   4.917   1.972
 2950SOL    HW1 9749   5.469   4.936   1.923
 2950SOL    HW2 9750   5.330   4.851   1.922
 2951SOL     OW 9751   0.643   2.410   1.033
 2951SOL    HW1 9752   0.599   2.434   1.119
 2951SOL    HW2 9753   0.674   2.494   0.988
 2952SOL     OW 9754   0.977   1.526   4.523
 2952SOL    HW1 9755   0.947   1.539   4.618
 2952SOL    HW2 9756   0.967   1.430   4.498
 2953SOL     OW 9757   1.224   5.549   3.156
 2953SOL    HW1 9758   1.189   5.558   3.063
 2953SOL    HW2 9759   1.324   5.547   3.155
 2954SOL     OW 9760   0.404   4.685   6.205
 2954SOL    HW1 9761   0.388   4.587   6.216
 2954SOL    HW2 9762   0.320   4.729   6.172
 2955SOL     OW 9763   1.512   5.005   5.906
 2955SOL    HW1 9764   1.598   5.055   5.911
 2955SOL    HW2 9765   1.465   5.027   5.821
 2956SOL     OW 9766   6.468   3.325   4.858
 2956SOL    HW1 9767   6.375   3.344   4.828
 2956SOL    HW2 9768   6.526   3.404   4.838
 2957SOL     OW 9769   1.429   4.991   2.084
 2957SOL    HW1 9770   1.491   4.948   2.149
 2957SOL    HW2 9771   1.418   4.932   2.004
 2958SOL     OW 9772   1.901   3.783   1.111
 2958SOL    HW1 9773   1.825   3.727   1.081
 2958SOL    HW2 9774   1.891   3.805   1.208
 2959SOL     OW 9775   0.353   4.569   4.079
 2959SOL    HW1 9776   0.426   4.501   4.072
 2959SOL    HW2 9777   0.272   4.537   4.030
 2960SOL     OW 9778   4.968   6.236   0.930
 2960SOL    HW1 9779   4.876   6.247   0.967
 2960SOL    HW2 9780   4.963   6.220   0.831
 2961SOL     OW 9781   5.900   2.084   0.597
 2961SOL    HW1 9782   5.801   2.091   0.604
 2961SOL    HW2 9783   5.941   2.175   0.603
 2962SOL     OW 9784   6.616   0.542   3.728
 2962SOL    HW1 9785   6.538   0.604   3.724
 2962SOL    HW2 9786   6.586   0.452   3.759
 2963SOL     OW 9787   2.084   1.632   5.895
 2963SOL    HW1 9788   2.109   1.692   5.819
 2963SOL    HW2 9789   1.986   1.611   5.889
 2964SOL     OW 9790   0.870   0.840   5.783
 2964SOL    HW1 9791   0.862   0.938   5.763
 2964SOL    HW2 9792   0.967   0.815   5.789
 2965SOL     OW 9793   5.911   0.334   6.129
 2965SOL    HW1 9794   5.998   0.285   6.135
 2965SOL    HW2 9795   5.836   0.268   6.128
 2966SOL     OW 9796   3.473   6.900   3.070
 2966SOL    HW1 9797   3.572   6.895   3.085
 2966SOL    HW2 9798   3.427   6.913   3.158
 2967SOL     OW 9799   5.815   0.026   5.350
 2967SOL    HW1 9800   5.819   0.085   5.269
 2967SOL    HW2 9801   5.891   6.981   5.348
 2968SOL     OW 9802   1.757   3.982   2.077
 2968SOL    HW1 9803   1.692   3.976   2.153
 2968SOL    HW2 9804   1.806   4.069   2.081
 2969SOL     OW 9805   4.323   1.984   4.948
 2969SOL    HW1 9806   4.393   2.054   4.961
 2969SOL    HW2 9807   4.232   2.027   4.950
 2970SOL     OW 9808   3.190   2.398   5.934
 2970SOL    HW1 9809   3.203   2.310   5.889
 2970SOL    HW2 9810   3.271   2.456   5.920
 2971SOL     OW 9811   4.161   3.278   5.805
 2971SOL    HW1 9812   4.139   3.313   5.714
 2971SOL    HW2 9813   4.076   3.262   5.855
 2972SOL     OW 9814   0.687   5.589   6.475
 2972SOL    HW1 9815   0.717   5.500   6.509
 2972SOL    HW2 9816   0.747   5.661   6.510
 2973SOL     OW 9817   5.451   0.507   4.120
 2973SOL    HW1 9818   5.386   0.525   4.047
 2973SOL    HW2 9819   5.423   0.425   4.170
 2974SOL     OW 9820   5.169   5.372   2.391
 2974SOL    HW1 9821   5.090   5.386   2.451
 2974SOL    HW2 9822   5.240   5.323   2.442
 2975SOL     OW 9823   0.496   3.379   4.678
 2975SOL    HW1 9824   0.426   3.323   4.724
 2975SOL    HW2 9825   0.492   3.472   4.714
 2976SOL     OW 9826   4.201   0.499   1.109
 2976SOL    HW1 9827   4.292   0.535   1.130
 2976SOL    HW2 9828   4.176   0.431   1.177
 2977SOL     OW 9829   1.583   1.332   2.371
 2977SOL    HW1 9830   1.555   1.264   2.439
 2977SOL    HW2 9831   1.621   1.285   2.291
 2978SOL     OW 9832   3.463   6.130   0.175
 2978SOL    HW1 9833   3.416   6.121   0.262
 2978SOL    HW2 9834   3.550   6.177   0.189
 2979SOL     OW 9835   2.104   1.311   5.173
 2979SOL    HW1 9836   2.126   1.244   5.102
 2979SOL    HW2 9837   2.133   1.276   5.262
 2980SOL     OW 9838   3.059   3.272   3.109
 2980SOL    HW1 9839   3.015   3.306   3.025
 2980SOL    HW2 9840   3.087   3.177   3.096
 2981SOL     OW 9841   2.697   1.961   1.633
 2981SOL    HW1 9842   2.774   2.021   1.657
 2981SOL    HW2 9843   2.688   1.957   1.534
 2982SOL     OW 9844   0.676   0.125   2.590
 2982SOL    HW1 9845   0.757   0.120   2.531
 2982SOL    HW2 9846   0.694   0.078   2.676
 2983SOL     OW 9847   6.158   2.333   6.149
 2983SOL    HW1 9848   6.100   2.405   6.110
 2983SOL    HW2 9849   6.235   2.316   6.088
 2984SOL     OW 9850   0.601   5.948   1.150
 2984SOL    HW1 9851   0.648   5.980   1.232
 2984SOL    HW2 9852   0.651   5.871   1.110
 2985SOL     OW 9853   0.060   6.848   5.646
 2985SOL    HW1 9854   0.053   6.804   5.557
 2985SOL    HW2 9855   0.007   6.933   5.645
 2986SOL     OW 9856   3.930   3.997   2.801
 2986SOL    HW1 9857   4.022   3.964   2.781
 2986SOL    HW2 9858   3.884   3.933   2.862
 2987SOL     OW 9859   2.503   6.307   5.532
 2987SOL    HW1 9860   2.601   6.326   5.537
 2987SOL    HW2 9861   2.453   6.391   5.511
 2988SOL     OW 9862   0.844   2.079   6.747
 2988SOL    HW1 9863   0.832   2.175   6.721
 2988SOL    HW2 9864   0.880   2.028   6.669
 2989SOL     OW 9865   5.879   3.495   6.028
 2989SOL    HW1 9866   5.785   3.511   6.060
 2989SOL    HW2 9867   5.933   3.454   6.102
 2990SOL     OW 9868   5.072   1.920   4.789
 2990SOL    HW1 9869   5.017   1.874   4.719
 2990SOL    HW2 9870   5.164   1.881   4.789
 2991SOL     OW 9871   6.267   2.656   0.284
 2991SOL    HW1 9872   6.336   2.679   0.216
 2991SOL    HW2 9873   6.176   2.678   0.247
 2992SOL     OW 9874   2.182   4.222   4.447
 2992SOL    HW1 9875   2.085   4.224   4.472
 2992SOL    HW2 9876   2.238   4.212   4.530
 2993SOL     OW 9877   4.014   5.045   6.465
 2993SOL    HW1 9878   3.946   5.057   6.538
 2993SOL    HW2 9879   4.104   5.032   6.506
 2994SOL     OW 9880   2.610   5.046   4.648
 2994SOL    HW1 9881   2.695   5.097   4.647
 2994SOL    HW2 9882   2.593   5.007   4.558
 2995SOL     OW 9883   5.397   0.301   2.194
 2995SOL    HW1 9884   5.355   0.278   2.107
 2995SOL    HW2 9885   5.423   0.217   2.242
 2996SOL     OW 9886   0.148   0.511   3.885
 2996SOL    HW1 9887   0.089   0.547   3.813
 2996SOL    HW2 9888   0.105   0.524   3.974
 2997SOL     OW 9889   4.709   5.720   3.783
 2997SOL    HW1 9890   4.771   5.734   3.706
 2997SOL    HW2 9891   4.637   5.656   3.757
 2998SOL     OW 9892   2.981   0.043   1.958
 2998SOL    HW1 9893   2.951   0.106   1.886
 2998SOL    HW2 9894   2.900   0.006   2.004
 2999SOL     OW 9895   2.299   5.102   0.703
 2999SOL    HW1 9896   2.348   5.062   0.626
 2999SOL    HW2 9897   2.212   5.054   0.717
 3000SOL     OW 9898   1.975   4.160   6.681
 3000SOL    HW1 9899   2.063   4.144   6.724
 3000SOL    HW2 9900   1.986   4.166   6.582
 3001SOL     OW 9901   3.320   0.519   6.193
 3001SOL    HW1 9902   3.351   0.528   6.098
 3001SOL    HW2 9903   3.222   0.503   6.194
 3002SOL     OW 9904   1.412   2.048   1.487
 3002SOL    HW1 9905   1.436   1.969   1.543
 3002SOL    HW2 9906   1.361   2.114   1.542
 3003SOL     OW 9907   1.583   5.884   6.966
 3003SOL    HW1 9908   1.615   5.920   6.878
 3003SOL    HW2 9909   1.484   5.873   6.963
 3004SOL     OW 9910   3.046   0.812   4.873
 3004SOL    HW1 9911   3.063   0.835   4.778
 3004SOL    HW2 9912   2.949   0.824   4.894
 3005SOL     OW 9913   2.514   1.323   6.702
 3005SOL    HW1 9914   2.578   1.391   6.668
 3005SOL    HW2 9915   2.444   1.367   6.758
 3006SOL     OW 9916   5.889   0.950   5.835
 3006SOL    HW1 9917   5.936   0.913   5.755
 3006SOL    HW2 9918   5.926   1.041   5.857
 3007SOL     OW 9919   6.146   5.842   6.052
 3007SOL    HW1 9920   6.104   5.879   5.969
 3007SOL    HW2 9921   6.212   5.771   6.027
 3008SOL     OW 9922   5.392   3.659   5.329
 3008SOL    HW1 9923   5.483   3.642   5.367
 3008SOL    HW2 9924   5.366   3.754   5.346
 3009SOL     OW 9925   5.608   3.747   1.716
 3009SOL    HW1 9926   5.584   3.845   1.718
 3009SOL    HW2 9927   5.562   3.700   1.792
 3010SOL     OW 9928   4.332   4.534   1.522
 3010SOL    HW1 9929   4.409   4.570   1.574
 3010SOL    HW2 9930   4.297   4.452   1.568
 3011SOL     OW 9931   5.820   0.135   1.110
 3011SOL    HW1 9932   5.869   0.149   1.024
 3011SOL    HW2 9933   5.727   0.171   1.100
 3012SOL     OW 9934   1.836   2.224   4.649
 3012SOL    HW1 9935   1.902   2.209   4.722
 3012SOL    HW2 9936   1.745   2.239   4.688
 3013SOL     OW 9937   0.483   5.273   5.171
 3013SOL    HW1 9938   0.569   5.252   5.216
 3013SOL    HW2 9939   0.433   5.188   5.152
 3014SOL     OW 9940   3.857   0.014   0.614
 3014SOL    HW1 9941   3.904   0.072   0.681
 3014SOL    HW2 9942   3.922   7.000   0.547
 3015SOL     OW 9943   2.373   6.664   6.049
 3015SOL    HW1 9944   2.373   6.753   6.004
 3015SOL    HW2 9945   2.459   6.617   6.027
 3016SOL     OW 9946   2.960   1.175   4.315
 3016SOL    HW1 9947   2.997   1.202   4.404
 3016SOL    HW2 9948   2.875   1.224   4.297
 3017SOL     OW 9949   1.913   6.174   0.006
 3017SOL    HW1 9950   1.946   6.255   0.056
 3017SOL    HW2 9951   1.932   6.092   0.060
 3018SOL     OW 9952   2.296   2.773   2.049
 3018SOL    HW1 9953   2.206   2.746   2.083
 3018SOL    HW2 9954   2.364   2.705   2.077
 3019SOL     OW 9955   0.876   1.245   5.311
 3019SOL    HW1 9956   0.899   1.155   5.273
 3019SOL    HW2 9957   0.960   1.293   5.336
 3020SOL     OW 9958   5.707   4.197   6.277
 3020SOL    HW1 9959   5.804   4.218   6.291
 3020SOL    HW2 9960   5.676   4.136   6.350
 3021SOL     OW 9961   4.274   6.589   4.490
 3021SOL    HW1 9962   4.291   6.515   4.424
 3021SOL    HW2 9963   4.216   6.658   4.447
 3022SOL     OW 9964   3.729   6.532   2.435
 3022SOL    HW1 9965   3.774   6.550   2.348
 3022SOL    HW2 9966   3.760   6.599   2.503
 3023SOL     OW 9967   5.419   4.429   5.052
 3023SOL    HW1 9968   5.363   4.460   4.975
 3023SOL    HW2 9969   5.370   4.359   5.103
 3024SOL     OW 9970   5.913   1.460   6.654
 3024SOL    HW1 9971   5.956   1.419   6.574
 3024SOL    HW2 9972   5.962   1.431   6.737
 3025SOL     OW 9973   3.847   5.437   1.100
 3025SOL    HW1 9974   3.867   5.533   1.084
 3025SOL    HW2 9975   3.909   5.402   1.171
 3026SOL     OW 9976   6.899   6.324   2.142
 3026SOL    HW1 9977   6.982   6.338   2.088
 3026SOL    HW2 9978   6.831   6.394   2.119
 3027SOL     OW 9979   4.030   0.226   0.748
 3027SOL    HW1 9980   4.098   0.164   0.787
 3027SOL    HW2 9981   4.051   0.320   0.776
 3028SOL     OW 9982   3.665   3.576   3.966
 3028SOL    HW1 9983   3.716   3.560   4.050
 3028SOL    HW2 9984   3.611   3.494   3.943
 3029SOL     OW 9985   0.134   2.276   5.261
 3029SOL    HW1 9986   0.149   2.292   5.359
 3029SOL    HW2 9987   0.184   2.344   5.208
 3030SOL     OW 9988   0.167   3.881   6.286
 3030SOL    HW1 9989   0.200   3.877   6.380
 3030SOL    HW2 9990   0.231   3.834   6.226
 3031SOL     OW 9991   0.251   4.597   6.880
 3031SOL    HW1 9992   0.282   4.691   6.875
 3031SOL    HW2 9993   0.299   4.542   6.812
 3032SOL     OW 9994   4.002   6.870   3.537
 3032SOL    HW1 9995   3.971   6.908   3.624
 3032SOL    HW2 9996   4.098   6.844   3.544
 3033SOL     OW 9997   2.056   0.490   6.373
 3033SOL    HW1 9998   2.072   0.391   6.371
 3033SOL    HW2 9999   2.083   0.526   6.462
 3034SOL     OW10000   4.867   3.482   3.219
 3034SOL    HW110001   4.862   3.558   3.283
 3034SOL    HW210002   4.869   3.517   3.125
 3035SOL     OW10003   6.411   4.261   6.586
 3035SOL    HW110004   6.490   4.321   6.596
 3035SOL    HW210005   6.440   4.166   6.599
 3036SOL     OW10006   2.840   2.738   6.535
 3036SOL    HW110007   2.741   2.749   6.533
 3036SOL    HW210008   2.864   2.662   6.595
 3037SOL     OW10009   0.731   5.443   6.192
 3037SOL    HW110010   0.710   5.518   6.129
 3037SOL    HW210011   0.667   5.368   6.176
 3038SOL     OW10012   5.867   4.613   5.075
 3038SOL    HW110013   5.895   4.700   5.115
 3038SOL    HW210014   5.768   4.603   5.084
 3039SOL     OW10015   6.294   3.457   6.788
 3039SOL    HW110016   6.315   3.512   6.869
 3039SOL    HW210017   6.331   3.502   6.707
 3040SOL     OW10018   3.490   6.544   6.621
 3040SOL    HW110019   3.485   6.604   6.701
 3040SOL    HW210020   3.538   6.460   6.646
 3041SOL     OW10021   2.603   5.726   6.202
 3041SOL    HW110022   2.545   5.738   6.283
 3041SOL    HW210023   2.557   5.765   6.122
 3042SOL     OW10024   0.191   5.410   4.626
 3042SOL    HW110025   0.202   5.504   4.593
 3042SOL    HW210026   0.111   5.369   4.582
 3043SOL     OW10027   2.316   3.636   1.028
 3043SOL    HW110028   2.368   3.577   1.090
 3043SOL    HW210029   2.220   3.608   1.028
 3044SOL     OW10030   3.933   3.804   3.866
 3044SOL    HW110031   3.959   3.875   3.932
 3044SOL    HW210032   3.965   3.715   3.899
 3045SOL     OW10033   5.676   0.154   3.436
 3045SOL    HW110034   5.735   0.144   3.356
 3045SOL    HW210035   5.581   0.160   3.407
 3046SOL     OW10036   6.798   5.981   1.335
 3046SOL    HW110037   6.738   5.909   1.370
 3046SOL    HW210038   6.771   6.006   1.242
 3047SOL     OW10039   4.367   1.927   3.781
 3047SOL    HW110040   4.290   1.939   3.719
 3047SOL    HW210041   4.356   1.985   3.861
 3048SOL     OW10042   4.366   4.946   0.886
 3048SOL    HW110043   4.358   4.862   0.832
 3048SOL    HW210044   4.399   4.924   0.977
 3049SOL     OW10045   0.314   0.608   0.910
 3049SOL    HW110046   0.261   0.556   0.976
 3049SOL    HW210047   0.273   0.599   0.819
 3050SOL     OW10048   3.806   2.695   5.340
 3050SOL    HW110049   3.739   2.626   5.314
 3050SOL    HW210050   3.796   2.775   5.281
 3051SOL     OW10051   2.301   4.511   6.033
 3051SOL    HW110052   2.260   4.578   6.095
 3051SOL    HW210053   2.258   4.518   5.943
 3052SOL     OW10054   6.123   6.431   4.012
 3052SOL    HW110055   6.124   6.346   4.063
 3052SOL    HW210056   6.037   6.438   3.961
 3053SOL     OW10057   0.708   5.506   5.920
 3053SOL    HW110058   0.659   5.521   5.834
 3053SOL    HW210059   0.675   5.423   5.963
 3054SOL     OW10060   6.071   6.507   3.619
 3054SOL    HW110061   6.160   6.466   3.641
 3054SOL    HW210062   6.073   6.543   3.526
 3055SOL     OW10063   5.806   6.143   0.818
 3055SOL    HW110064   5.751   6.085   0.758
 3055SOL    HW210065   5.771   6.236   0.816
 3056SOL     OW10066   4.510   2.313   1.280
 3056SOL    HW110067   4.452   2.391   1.258
 3056SOL    HW210068   4.484   2.276   1.369
 3057SOL     OW10069   6.625   2.457   2.897
 3057SOL    HW110070   6.542   2.488   2.849
 3057SOL    HW210071   6.620   2.358   2.911
 3058SOL     OW10072   5.280   3.685   6.515
 3058SOL    HW110073   5.260   3.777   6.482
 3058SOL    HW210074   5.363   3.650   6.471
 3059SOL     OW10075   1.746   2.663   3.300
 3059SOL    HW110076   1.722   2.575   3.260
 3059SOL    HW210077   1.829   2.653   3.354
 3060SOL     OW10078   6.343   2.995   3.886
 3060SOL    HW110079   6.253   3.030   3.913
 3060SOL    HW210080   6.340   2.966   3.791
 3061SOL     OW10081   5.329   5.905   2.551
 3061SOL    HW110082   5.380   5.840   2.608
 3061SOL    HW210083   5.253   5.858   2.506
 3062SOL     OW10084   4.072   5.255   6.819
 3062SOL    HW110085   4.111   5.222   6.733
 3062SOL    HW210086   4.020   5.182   6.863
 3063SOL     OW10087   6.200   5.630   1.276
 3063SOL    HW110088   6.255   5.683   1.342
 3063SOL    HW210089   6.103   5.638   1.300
 3064SOL     OW10090   5.029   0.712   5.939
 3064SOL    HW110091   5.050   0.809   5.950
 3064SOL    HW210092   5.037   0.687   5.842
 3065SOL     OW10093   4.830   1.422   6.451
 3065SOL    HW110094   4.884   1.428   6.367
 3065SOL    HW210095   4.814   1.513   6.487
 3066SOL     OW10096   5.516   6.983   5.744
 3066SOL    HW110097   5.607   6.962   5.707
 3066SOL    HW210098   5.462   0.010   5.674
 3067SOL     OW10099   0.985   2.179   4.770
 3067SOL    HW110100   0.885   2.176   4.773
 3067SOL    HW210101   1.021   2.086   4.780
 3068SOL     OW10102   6.012   0.465   0.734
 3068SOL    HW110103   6.034   0.549   0.784
 3068SOL    HW210104   5.958   0.488   0.653
 3069SOL     OW10105   5.631   5.766   3.866
 3069SOL    HW110106   5.568   5.791   3.940
 3069SOL    HW210107   5.578   5.736   3.787
 3070SOL     OW10108   2.478   1.660   0.719
 3070SOL    HW110109   2.462   1.680   0.622
 3070SOL    HW210110   2.522   1.571   0.727
 3071SOL     OW10111   6.562   4.320   4.570
 3071SOL    HW110112   6.467   4.347   4.588
 3071SOL    HW210113   6.562   4.233   4.521
 3072SOL     OW10114   1.945   6.872   4.462
 3072SOL    HW110115   1.961   6.956   4.411
 3072SOL    HW210116   1.999   6.798   4.421
 3073SOL     OW10117   0.179   5.131   3.257
 3073SOL    HW110118   0.262   5.107   3.208
 3073SOL    HW210119   0.133   5.048   3.289
 3074SOL     OW10120   3.197   3.412   1.949
 3074SOL    HW110121   3.127   3.445   2.012
 3074SOL    HW210122   3.181   3.316   1.929
 3075SOL     OW10123   3.832   4.969   0.535
 3075SOL    HW110124   3.815   4.987   0.438
 3075SOL    HW210125   3.791   5.042   0.590
 3076SOL     OW10126   2.177   1.069   4.040
 3076SOL    HW110127   2.163   1.091   3.943
 3076SOL    HW210128   2.155   1.149   4.096
 3077SOL     OW10129   6.704   3.725   2.758
 3077SOL    HW110130   6.781   3.664   2.738
 3077SOL    HW210131   6.740   3.816   2.780
 3078SOL     OW10132   6.201   4.700   1.455
 3078SOL    HW110133   6.212   4.789   1.500
 3078SOL    HW210134   6.208   4.627   1.523
 3079SOL     OW10135   0.121   4.017   2.250
 3079SOL    HW110136   0.054   3.948   2.221
 3079SOL    HW210137   0.112   4.032   2.349
 3080SOL     OW10138   3.192   5.042   1.403
 3080SOL    HW110139   3.168   5.052   1.500
 3080SOL    HW210140   3.270   4.981   1.394
 3081SOL     OW10141   1.991   2.258   6.100
 3081SOL    HW110142   2.067   2.218   6.049
 3081SOL    HW210143   2.024   2.285   6.191
 3082SOL     OW10144   6.402   3.589   4.590
 3082SOL    HW110145   6.480   3.600   4.651
 3082SOL    HW210146   6.323   3.558   4.642
 3083SOL     OW10147   4.449   5.708   1.850
 3083SOL    HW110148   4.475   5.801   1.874
 3083SOL    HW210149   4.422   5.705   1.753
 3084SOL     OW10150   0.364   5.206   4.253
 3084SOL    HW110151   0.396   5.293   4.291
 3084SOL    HW210152   0.390   5.200   4.157
 3085SOL     OW10153   6.868   5.723   5.499
 3085SOL    HW110154   6.870   5.799   5.433
 3085SOL    HW210155   6.917   5.645   5.461
 3086SOL     OW10156   6.186   6.174   6.410
 3086SOL    HW110157   6.246   6.146   6.485
 3086SOL    HW210158   6.141   6.094   6.371
 3087SOL     OW10159   3.306   0.106   1.506
 3087SOL    HW110160   3.237   0.051   1.554
 3087SOL    HW210161   3.354   0.164   1.572
 3088SOL     OW10162   2.449   3.224   5.393
 3088SOL    HW110163   2.520   3.289   5.364
 3088SOL    HW210164   2.432   3.159   5.320
 3089SOL     OW10165   4.173   6.808   7.019
 3089SOL    HW110166   4.075   6.814   6.998
 3089SOL    HW210167   4.185   6.801   0.098
 3090SOL     OW10168   1.050   1.922   2.557
 3090SOL    HW110169   1.037   1.878   2.646
 3090SOL    HW210170   1.127   1.986   2.562
 3091SOL     OW10171   1.157   2.106   5.969
 3091SOL    HW110172   1.214   2.038   6.016
 3091SOL    HW210173   1.216   2.172   5.923
 3092SOL     OW10174   4.950   1.908   3.736
 3092SOL    HW110175   4.934   1.815   3.770
 3092SOL    HW210176   4.864   1.958   3.733
 3093SOL     OW10177   6.164   5.521   0.059
 3093SOL    HW110178   6.068   5.550   0.061
 3093SOL    HW210179   6.221   5.598   0.029
 3094SOL     OW10180   2.192   1.015   6.563
 3094SOL    HW110181   2.201   0.993   6.466
 3094SOL    HW210182   2.266   0.971   6.614
 3095SOL     OW10183   1.787   3.340   6.056
 3095SOL    HW110184   1.715   3.355   6.124
 3095SOL    HW210185   1.799   3.242   6.041
 3096SOL     OW10186   2.194   3.266   3.805
 3096SOL    HW110187   2.208   3.361   3.833
 3096SOL    HW210188   2.139   3.219   3.874
 3097SOL     OW10189   5.079   2.391   6.663
 3097SOL    HW110190   5.165   2.428   6.696
 3097SOL    HW210191   5.037   2.455   6.599
 3098SOL     OW10192   1.899   4.064   2.713
 3098SOL    HW110193   1.837   4.018   2.776
 3098SOL    HW210194   1.986   4.083   2.759
 3099SOL     OW10195   0.269   0.813   6.032
 3099SOL    HW110196   0.224   0.750   5.969
 3099SOL    HW210197   0.341   0.863   5.983
 3100SOL     OW10198   5.810   3.809   2.849
 3100SOL    HW110199   5.786   3.741   2.917
 3100SOL    HW210200   5.760   3.791   2.764
 3101SOL     OW10201   5.101   0.421   4.129
 3101SOL    HW110202   5.108   0.441   4.227
 3101SOL    HW210203   5.075   0.505   4.080
 3102SOL     OW10204   5.738   3.244   3.215
 3102SOL    HW110205   5.746   3.218   3.119
 3102SOL    HW210206   5.658   3.200   3.255
 3103SOL     OW10207   1.510   1.058   2.417
 3103SOL    HW110208   1.606   1.033   2.426
 3103SOL    HW210209   1.461   0.986   2.369
 3104SOL     OW10210   5.829   1.334   6.237
 3104SOL    HW110211   5.743   1.357   6.283
 3104SOL    HW210212   5.811   1.267   6.165
 3105SOL     OW10213   5.481   4.562   0.156
 3105SOL    HW110214   5.565   4.567   0.103
 3105SOL    HW210215   5.475   4.472   0.201
 3106SOL     OW10216   5.528   1.987   5.827
 3106SOL    HW110217   5.461   2.005   5.900
 3106SOL    HW210218   5.484   1.936   5.754
 3107SOL     OW10219   4.465   2.195   4.613
 3107SOL    HW110220   4.504   2.270   4.666
 3107SOL    HW210221   4.380   2.225   4.570
 3108SOL     OW10222   2.358   4.723   3.955
 3108SOL    HW110223   2.262   4.717   3.928
 3108SOL    HW210224   2.398   4.632   3.957
 3109SOL     OW10225   0.105   5.131   4.309
 3109SOL    HW110226   0.054   5.138   4.223
 3109SOL    HW210227   0.202   5.143   4.291
 3110SOL     OW10228   1.966   5.151   3.974
 3110SOL    HW110229   1.944   5.180   4.067
 3110SOL    HW210230   1.889   5.170   3.914
 3111SOL     OW10231   6.728   3.626   3.967
 3111SOL    HW110232   6.709   3.575   4.051
 3111SOL    HW210233   6.811   3.681   3.979
 3112SOL     OW10234   4.663   0.179   0.959
 3112SOL    HW110235   4.589   0.176   0.892
 3112SOL    HW210236   4.723   0.100   0.946
 3113SOL     OW10237   1.504   6.413   3.604
 3113SOL    HW110238   1.523   6.511   3.604
 3113SOL    HW210239   1.440   6.392   3.678
 3114SOL     OW10240   4.971   5.520   5.349
 3114SOL    HW110241   5.012   5.486   5.433
 3114SOL    HW210242   5.018   5.479   5.270
 3115SOL     OW10243   5.073   5.424   4.532
 3115SOL    HW110244   4.990   5.479   4.538
 3115SOL    HW210245   5.146   5.479   4.491
 3116SOL     OW10246   0.842   2.574   6.517
 3116SOL    HW110247   0.743   2.577   6.533
 3116SOL    HW210248   0.874   2.666   6.494
 3117SOL     OW10249   4.335   6.975   1.818
 3117SOL    HW110250   4.272   6.921   1.761
 3117SOL    HW210251   4.295   6.989   1.908
 3118SOL     OW10252   0.562   2.299   3.487
 3118SOL    HW110253   0.479   2.282   3.433
 3118SOL    HW210254   0.640   2.256   3.442
 3119SOL     OW10255   4.414   6.493   3.386
 3119SOL    HW110256   4.389   6.590   3.379
 3119SOL    HW210257   4.331   6.437   3.381
 3120SOL     OW10258   3.826   6.265   6.265
 3120SOL    HW110259   3.763   6.325   6.315
 3120SOL    HW210260   3.909   6.252   6.319
 3121SOL     OW10261   3.950   1.613   2.932
 3121SOL    HW110262   4.040   1.617   2.889
 3121SOL    HW210263   3.940   1.525   2.980
 3122SOL     OW10264   5.481   3.386   6.431
 3122SOL    HW110265   5.561   3.359   6.485
 3122SOL    HW210266   5.483   3.485   6.417
 3123SOL     OW10267   1.997   3.313   2.875
 3123SOL    HW110268   1.982   3.242   2.805
 3123SOL    HW210269   1.944   3.394   2.851
 3124SOL     OW10270   5.083   0.032   5.484
 3124SOL    HW110271   5.070   0.093   5.406
 3124SOL    HW210272   5.052   0.077   5.568
 3125SOL     OW10273   1.907   1.772   4.766
 3125SOL    HW110274   1.902   1.680   4.729
 3125SOL    HW210275   1.904   1.839   4.691
 3126SOL     OW10276   5.299   4.036   4.788
 3126SOL    HW110277   5.327   4.069   4.878
 3126SOL    HW210278   5.251   3.949   4.798
 3127SOL     OW10279   6.498   2.250   6.247
 3127SOL    HW110280   6.557   2.331   6.247
 3127SOL    HW210281   6.403   2.279   6.261
 3128SOL     OW10282   4.461   1.856   1.590
 3128SOL    HW110283   4.406   1.777   1.619
 3128SOL    HW210284   4.503   1.898   1.670
 3129SOL     OW10285   4.194   4.729   0.312
 3129SOL    HW110286   4.265   4.669   0.275
 3129SOL    HW210287   4.142   4.681   0.382
 3130SOL     OW10288   6.291   5.133   2.758
 3130SOL    HW110289   6.286   5.156   2.856
 3130SOL    HW210290   6.386   5.139   2.727
 3131SOL     OW10291   7.006   2.397   3.107
 3131SOL    HW110292   0.017   2.325   3.169
 3131SOL    HW210293   0.041   2.480   3.122
 3132SOL     OW10294   4.819   4.087   6.105
 3132SOL    HW110295   4.781   4.001   6.140
 3132SOL    HW210296   4.748   4.138   6.057
 3133SOL     OW10297   5.689   6.623   4.419
 3133SOL    HW110298   5.707   6.535   4.375
 3133SOL    HW210299   5.676   6.609   4.517
 3134SOL     OW10300   4.092   4.933   3.022
 3134SOL    HW110301   4.005   4.886   3.006
 3134SOL    HW210302   4.075   5.021   3.066
 3135SOL     OW10303   4.205   1.057   6.152
 3135SOL    HW110304   4.297   1.019   6.143
 3135SOL    HW210305   4.139   0.982   6.157
 3136SOL     OW10306   6.099   6.169   1.896
 3136SOL    HW110307   6.125   6.256   1.853
 3136SOL    HW210308   6.180   6.113   1.909
 3137SOL     OW10309   5.035   3.878   6.992
 3137SOL    HW110310   5.089   3.794   6.994
 3137SOL    HW210311   4.938   3.855   6.997
 3138SOL     OW10312   0.069   6.605   4.935
 3138SOL    HW110313   0.083   6.704   4.934
 3138SOL    HW210314   0.070   6.572   5.029
 3139SOL     OW10315   1.332   4.779   2.230
 3139SOL    HW110316   1.338   4.852   2.161
 3139SOL    HW210317   1.269   4.708   2.197
 3140SOL     OW10318   4.791   5.676   0.012
 3140SOL    HW110319   4.879   5.657   6.988
 3140SOL    HW210320   4.779   5.775   0.019
 3141SOL     OW10321   5.953   2.103   0.213
 3141SOL    HW110322   5.969   2.019   0.265
 3141SOL    HW210323   5.945   2.180   0.276
 3142SOL     OW10324   4.166   1.120   3.935
 3142SOL    HW110325   4.091   1.184   3.954
 3142SOL    HW210326   4.129   1.036   3.896
 3143SOL     OW10327   6.179   1.511   0.015
 3143SOL    HW110328   6.105   1.445   0.001
 3143SOL    HW210329   6.145   1.603   7.016
 3144SOL     OW10330   3.808   5.123   6.292
 3144SOL    HW110331   3.767   5.036   6.322
 3144SOL    HW210332   3.896   5.136   6.337
 3145SOL     OW10333   0.532   5.910   5.672
 3145SOL    HW110334   0.626   5.879   5.684
 3145SOL    HW210335   0.486   5.914   5.762
 3146SOL     OW10336   6.731   1.553   4.238
 3146SOL    HW110337   6.799   1.625   4.224
 3146SOL    HW210338   6.699   1.521   4.149
 3147SOL     OW10339   4.885   6.985   0.740
 3147SOL    HW110340   4.832   6.928   0.676
 3147SOL    HW210341   4.864   6.956   0.834
 3148SOL     OW10342   5.822   4.840   0.256
 3148SOL    HW110343   5.891   4.891   0.308
 3148SOL    HW210344   5.828   4.743   0.281
 3149SOL     OW10345   4.361   3.149   6.981
 3149SOL    HW110346   4.303   3.079   6.938
 3149SOL    HW210347   4.358   3.138   0.060
 3150SOL     OW10348   0.186   0.344   5.319
 3150SOL    HW110349   0.233   0.264   5.282
 3150SOL    HW210350   0.227   0.369   5.407
 3151SOL     OW10351   0.245   1.603   6.684
 3151SOL    HW110352   0.303   1.682   6.666
 3151SOL    HW210353   0.173   1.628   6.749
 3152SOL     OW10354   2.832   1.874   6.284
 3152SOL    HW110355   2.784   1.793   6.317
 3152SOL    HW210356   2.766   1.944   6.256
 3153SOL     OW10357   5.651   5.975   1.721
 3153SOL    HW110358   5.646   6.070   1.753
 3153SOL    HW210359   5.729   5.929   1.765
 3154SOL     OW10360   3.279   2.224   0.885
 3154SOL    HW110361   3.271   2.165   0.966
 3154SOL    HW210362   3.374   2.227   0.855
 3155SOL     OW10363   6.854   5.894   6.616
 3155SOL    HW110364   6.854   5.863   6.521
 3155SOL    HW210365   6.853   5.815   6.677
 3156SOL     OW10366   2.613   4.521   1.104
 3156SOL    HW110367   2.570   4.431   1.117
 3156SOL    HW210368   2.545   4.585   1.068
 3157SOL     OW10369   1.412   1.504   2.921
 3157SOL    HW110370   1.388   1.557   3.002
 3157SOL    HW210371   1.511   1.496   2.914
 3158SOL     OW10372   2.016   0.418   5.758
 3158SOL    HW110373   1.990   0.377   5.845
 3158SOL    HW210374   2.096   0.369   5.721
 3159SOL     OW10375   4.749   5.696   1.522
 3159SOL    HW110376   4.725   5.725   1.429
 3159SOL    HW210377   4.670   5.706   1.582
 3160SOL     OW10378   2.299   1.068   5.654
 3160SOL    HW110379   2.327   1.082   5.749
 3160SOL    HW210380   2.380   1.068   5.596
 3161SOL     OW10381   2.025   2.684   1.874
 3161SOL    HW110382   2.106   2.626   1.879
 3161SOL    HW210383   1.943   2.627   1.875
 3162SOL     OW10384   1.321   5.810   2.177
 3162SOL    HW110385   1.372   5.890   2.143
 3162SOL    HW210386   1.261   5.776   2.105
 3163SOL     OW10387   5.394   4.535   1.810
 3163SOL    HW110388   5.493   4.546   1.818
 3163SOL    HW210389   5.359   4.491   1.893
 3164SOL     OW10390   2.318   0.018   3.343
 3164SOL    HW110391   2.251   0.056   3.406
 3164SOL    HW210392   2.273   6.972   3.282
 3165SOL     OW10393   0.399   5.716   6.932
 3165SOL    HW110394   0.482   5.750   6.976
 3165SOL    HW210395   0.371   5.630   6.974
 3166SOL     OW10396   3.715   2.112   4.655
 3166SOL    HW110397   3.693   2.199   4.611
 3166SOL    HW210398   3.664   2.104   4.741
 3167SOL     OW10399   6.615   3.002   2.673
 3167SOL    HW110400   6.559   3.075   2.711
 3167SOL    HW210401   6.688   3.042   2.617
 3168SOL     OW10402   5.228   1.683   0.845
 3168SOL    HW110403   5.192   1.745   0.915
 3168SOL    HW210404   5.195   1.712   0.755
 3169SOL     OW10405   0.988   2.526   2.086
 3169SOL    HW110406   1.027   2.456   2.026
 3169SOL    HW210407   1.061   2.571   2.137
 3170SOL     OW10408   2.477   4.489   3.909
 3170SOL    HW110409   2.401   4.427   3.889
 3170SOL    HW210410   2.548   4.479   3.839
 3171SOL     OW10411   5.979   1.913   4.547
 3171SOL    HW110412   6.033   1.969   4.610
 3171SOL    HW210413   5.882   1.925   4.567
 3172SOL     OW10414   5.795   4.260   1.117
 3172SOL    HW110415   5.824   4.340   1.170
 3172SOL    HW210416   5.874   4.218   1.074
 3173SOL     OW10417   5.452   4.272   0.310
 3173SOL    HW110418   5.444   4.220   0.226
 3173SOL    HW210419   5.392   4.234   0.380
 3174SOL     OW10420   2.965   3.074   0.105
 3174SOL    HW110421   2.892   3.015   0.140
 3174SOL    HW210422   2.954   3.085   0.006
 3175SOL     OW10423   6.015   5.912   5.807
 3175SOL    HW110424   5.970   5.975   5.870
 3175SOL    HW210425   6.044   5.963   5.725
 3176SOL     OW10426   6.793   5.320   4.069
 3176SOL    HW110427   6.797   5.295   4.166
 3176SOL    HW210428   6.871   5.279   4.021
 3177SOL     OW10429   5.526   2.525   1.667
 3177SOL    HW110430   5.479   2.480   1.592
 3177SOL    HW210431   5.559   2.456   1.732
 3178SOL     OW10432   1.590   0.691   2.435
 3178SOL    HW110433   1.674   0.733   2.470
 3178SOL    HW210434   1.527   0.676   2.511
 3179SOL     OW10435   0.449   4.268   2.992
 3179SOL    HW110436   0.531   4.308   2.950
 3179SOL    HW210437   0.434   4.176   2.954
 3180SOL     OW10438   6.181   0.155   6.467
 3180SOL    HW110439   6.115   0.115   6.404
 3180SOL    HW210440   6.236   0.082   6.509
 3181SOL     OW10441   7.009   6.670   4.503
 3181SOL    HW110442   6.910   6.661   4.487
 3181SOL    HW210443   0.028   6.581   4.525
 3182SOL     OW10444   1.422   6.822   1.531
 3182SOL    HW110445   1.506   6.853   1.576
 3182SOL    HW210446   1.360   6.783   1.599
 3183SOL     OW10447   4.367   4.129   0.406
 3183SOL    HW110448   4.369   4.054   0.340
 3183SOL    HW210449   4.286   4.121   0.463
 3184SOL     OW10450   6.390   0.619   4.587
 3184SOL    HW110451   6.292   0.639   4.586
 3184SOL    HW210452   6.423   0.617   4.681
 3185SOL     OW10453   1.202   0.830   6.322
 3185SOL    HW110454   1.292   0.819   6.365
 3185SOL    HW210455   1.140   0.759   6.355
 3186SOL     OW10456   0.785   2.079   5.846
 3186SOL    HW110457   0.730   2.097   5.927
 3186SOL    HW210458   0.736   2.018   5.784
 3187SOL     OW10459   4.624   0.488   3.444
 3187SOL    HW110460   4.656   0.480   3.349
 3187SOL    HW210461   4.599   0.583   3.462
 3188SOL     OW10462   1.383   6.128   1.440
 3188SOL    HW110463   1.313   6.193   1.469
 3188SOL    HW210464   1.447   6.112   1.515
 3189SOL     OW10465   2.397   2.082   5.460
 3189SOL    HW110466   2.412   2.149   5.533
 3189SOL    HW210467   2.402   2.128   5.371
 3190SOL     OW10468   6.442   6.091   4.404
 3190SOL    HW110469   6.467   5.995   4.395
 3190SOL    HW210470   6.517   6.149   4.373
 3191SOL     OW10471   3.936   5.215   0.642
 3191SOL    HW110472   3.886   5.273   0.577
 3191SOL    HW210473   4.014   5.173   0.596
 3192SOL     OW10474   5.359   0.955   3.224
 3192SOL    HW110475   5.404   1.019   3.286
 3192SOL    HW210476   5.416   0.942   3.142
 3193SOL     OW10477   3.513   5.959   4.658
 3193SOL    HW110478   3.492   5.992   4.567
 3193SOL    HW210479   3.584   6.016   4.700
 3194SOL     OW10480   2.405   6.194   6.173
 3194SOL    HW110481   2.373   6.261   6.240
 3194SOL    HW210482   2.359   6.209   6.085
 3195SOL     OW10483   0.223   5.912   1.477
 3195SOL    HW110484   0.248   5.838   1.540
 3195SOL    HW210485   0.135   5.950   1.504
 3196SOL     OW10486   5.624   0.622   3.152
 3196SOL    HW110487   5.607   0.652   3.246
 3196SOL    HW210488   5.719   0.592   3.144
 3197SOL     OW10489   3.346   1.110   0.067
 3197SOL    HW110490   3.322   1.073   6.997
 3197SOL    HW210491   3.303   1.054   0.138
 3198SOL     OW10492   5.512   4.120   4.108
 3198SOL    HW110493   5.519   4.125   4.207
 3198SOL    HW210494   5.502   4.025   4.080
 3199SOL     OW10495   5.267   3.196   4.206
 3199SOL    HW110496   5.296   3.168   4.297
 3199SOL    HW210497   5.167   3.190   4.200
 3200SOL     OW10498   6.799   2.987   4.897
 3200SOL    HW110499   6.746   2.943   4.970
 3200SOL    HW210500   6.737   3.044   4.842
 3201SOL     OW10501   6.264   3.687   2.424
 3201SOL    HW110502   6.329   3.654   2.492
 3201SOL    HW210503   6.309   3.696   2.336
 3202SOL     OW10504   3.180   2.859   6.018
 3202SOL    HW110505   3.180   2.915   5.935
 3202SOL    HW210506   3.171   2.917   6.098
 3203SOL     OW10507   3.216   6.640   1.551
 3203SOL    HW110508   3.215   6.557   1.608
 3203SOL    HW210509   3.291   6.699   1.579
 3204SOL     OW10510   5.004   0.460   3.528
 3204SOL    HW110511   5.003   0.472   3.627
 3204SOL    HW210512   5.094   0.485   3.492
 3205SOL     OW10513   5.335   2.752   0.391
 3205SOL    HW110514   5.398   2.803   0.332
 3205SOL    HW210515   5.320   2.804   0.476
 3206SOL     OW10516   3.767   5.234   6.917
 3206SOL    HW110517   3.733   5.327   6.928
 3206SOL    HW210518   3.700   5.169   6.953
 3207SOL     OW10519   1.988   6.418   3.024
 3207SOL    HW110520   1.928   6.365   2.964
 3207SOL    HW210521   2.035   6.357   3.088
 3208SOL     OW10522   0.003   3.864   0.166
 3208SOL    HW110523   0.101   3.880   0.175
 3208SOL    HW210524   7.006   3.790   0.101
 3209SOL     OW10525   5.430   0.133   5.124
 3209SOL    HW110526   5.461   0.226   5.146
 3209SOL    HW210527   5.488   0.095   5.051
 3210SOL     OW10528   4.682   5.122   2.360
 3210SOL    HW110529   4.712   5.034   2.325
 3210SOL    HW210530   4.749   5.156   2.426
 3211SOL     OW10531   2.721   0.109   6.852
 3211SOL    HW110532   2.778   0.031   6.829
 3211SOL    HW210533   2.775   0.193   6.847
 3212SOL     OW10534   3.443   6.650   4.269
 3212SOL    HW110535   3.443   6.687   4.176
 3212SOL    HW210536   3.523   6.685   4.319
 3213SOL     OW10537   1.069   0.175   5.556
 3213SOL    HW110538   1.062   0.197   5.654
 3213SOL    HW210539   1.165   0.182   5.528
 3214SOL     OW10540   2.211   0.160   3.058
 3214SOL    HW110541   2.254   0.141   2.969
 3214SOL    HW210542   2.282   0.180   3.126
 3215SOL     OW10543   2.264   3.185   1.749
 3215SOL    HW110544   2.275   3.274   1.793
 3215SOL    HW210545   2.248   3.115   1.819
 3216SOL     OW10546   6.694   4.122   1.198
 3216SOL    HW110547   6.749   4.104   1.117
 3216SOL    HW210548   6.741   4.084   1.278
 3217SOL     OW10549   6.245   5.975   3.832
 3217SOL    HW110550   6.190   5.951   3.912
 3217SOL    HW210551   6.190   6.030   3.769
 3218SOL     OW10552   5.954   1.291   3.454
 3218SOL    HW110553   6.025   1.356   3.481
 3218SOL    HW210554   5.891   1.336   3.391
 3219SOL     OW10555   4.863   1.915   4.483
 3219SOL    HW110556   4.771   1.950   4.503
 3219SOL    HW210557   4.930   1.988   4.495
 3220SOL     OW10558   0.138   3.350   5.464
 3220SOL    HW110559   0.041   3.343   5.443
 3220SOL    HW210560   0.163   3.446   5.473
 3221SOL     OW10561   4.178   1.787   2.195
 3221SOL    HW110562   4.152   1.836   2.279
 3221SOL    HW210563   4.151   1.842   2.115
 3222SOL     OW10564   3.121   0.645   3.326
 3222SOL    HW110565   3.128   0.729   3.380
 3222SOL    HW210566   3.089   0.571   3.384
 3223SOL     OW10567   1.798   5.813   0.695
 3223SOL    HW110568   1.836   5.853   0.612
 3223SOL    HW210569   1.867   5.817   0.768
 3224SOL     OW10570   4.539   2.448   3.717
 3224SOL    HW110571   4.527   2.513   3.642
 3224SOL    HW210572   4.507   2.490   3.802
 3225SOL     OW10573   3.619   0.880   5.152
 3225SOL    HW110574   3.674   0.846   5.076
 3225SOL    HW210575   3.670   0.952   5.200
 3226SOL     OW10576   5.823   1.120   0.254
 3226SOL    HW110577   5.798   1.057   0.181
 3226SOL    HW210578   5.784   1.088   0.341
 3227SOL     OW10579   5.892   4.015   5.770
 3227SOL    HW110580   5.852   3.924   5.782
 3227SOL    HW210581   5.828   4.085   5.802
 3228SOL     OW10582   1.797   4.456   0.741
 3228SOL    HW110583   1.795   4.477   0.838
 3228SOL    HW210584   1.773   4.537   0.688
 3229SOL     OW10585   1.262   0.849   0.704
 3229SOL    HW110586   1.323   0.860   0.782
 3229SOL    HW210587   1.314   0.866   0.619
 3230SOL     OW10588   3.181   6.361   5.329
 3230SOL    HW110589   3.140   6.294   5.267
 3230SOL    HW210590   3.112   6.396   5.392
 3231SOL     OW10591   2.836   2.233   2.615
 3231SOL    HW110592   2.848   2.212   2.518
 3231SOL    HW210593   2.918   2.204   2.665
 3232SOL     OW10594   2.982   4.829   3.756
 3232SOL    HW110595   2.962   4.807   3.660
 3232SOL    HW210596   2.898   4.823   3.810
 3233SOL     OW10597   2.196   0.393   5.403
 3233SOL    HW110598   2.239   0.335   5.473
 3233SOL    HW210599   2.163   0.336   5.328
 3234SOL     OW10600   3.591   3.824   0.744
 3234SOL    HW110601   3.541   3.904   0.778
 3234SOL    HW210602   3.680   3.819   0.789
 3235SOL     OW10603   0.220   2.223   2.835
 3235SOL    HW110604   0.304   2.221   2.780
 3235SOL    HW210605   0.141   2.232   2.774
 3236SOL     OW10606   5.837   6.599   0.633
 3236SOL    HW110607   5.935   6.607   0.617
 3236SOL    HW210608   5.802   6.685   0.669
 3237SOL     OW10609   6.132   2.235   5.617
 3237SOL    HW110610   6.213   2.183   5.589
 3237SOL    HW210611   6.063   2.231   5.545
 3238SOL     OW10612   0.447   5.193   1.072
 3238SOL    HW110613   0.458   5.204   0.974
 3238SOL    HW210614   0.449   5.283   1.116
 3239SOL     OW10615   6.179   1.212   4.983
 3239SOL    HW110616   6.118   1.255   4.915
 3239SOL    HW210617   6.251   1.162   4.936
 3240SOL     OW10618   0.770   1.719   1.324
 3240SOL    HW110619   0.679   1.721   1.364
 3240SOL    HW210620   0.834   1.677   1.389
 3241SOL     OW10621   0.208   2.903   5.777
 3241SOL    HW110622   0.181   2.950   5.693
 3241SOL    HW210623   0.298   2.936   5.806
 3242SOL     OW10624   0.314   4.957   5.362
 3242SOL    HW110625   0.356   4.931   5.275
 3242SOL    HW210626   0.383   4.956   5.434
 3243SOL     OW10627   6.342   5.161   5.201
 3243SOL    HW110628   6.268   5.132   5.262
 3243SOL    HW210629   6.336   5.260   5.186
 3244SOL     OW10630   4.732   0.114   6.880
 3244SOL    HW110631   4.649   0.071   6.844
 3244SOL    HW210632   4.779   0.051   6.941
 3245SOL     OW10633   1.987   6.348   4.372
 3245SOL    HW110634   2.056   6.321   4.305
 3245SOL    HW210635   1.939   6.267   4.405
 3246SOL     OW10636   6.229   5.860   2.560
 3246SOL    HW110637   6.227   5.959   2.577
 3246SOL    HW210638   6.291   5.816   2.625
 3247SOL     OW10639   2.368   4.324   4.728
 3247SOL    HW110640   2.415   4.344   4.814
 3247SOL    HW210641   2.322   4.235   4.734
 3248SOL     OW10642   6.105   2.461   3.568
 3248SOL    HW110643   6.038   2.530   3.544
 3248SOL    HW210644   6.078   2.416   3.653
 3249SOL     OW10645   3.956   3.842   4.172
 3249SOL    HW110646   3.998   3.756   4.144
 3249SOL    HW210647   3.977   3.859   4.269
 3250SOL     OW10648   4.592   5.466   3.702
 3250SOL    HW110649   4.495   5.474   3.677
 3250SOL    HW210650   4.630   5.384   3.659
 3251SOL     OW10651   1.917   2.216   2.175
 3251SOL    HW110652   1.966   2.245   2.093
 3251SOL    HW210653   1.827   2.259   2.177
 3252SOL     OW10654   1.537   1.549   2.600
 3252SOL    HW110655   1.546   1.479   2.529
 3252SOL    HW210656   1.514   1.637   2.558
 3253SOL     OW10657   6.513   3.220   1.078
 3253SOL    HW110658   6.440   3.161   1.112
 3253SOL    HW210659   6.491   3.316   1.100
 3254SOL     OW10660   6.214   6.986   0.782
 3254SOL    HW110661   6.253   6.897   0.808
 3254SOL    HW210662   6.142   6.971   0.714
 3255SOL     OW10663   3.777   4.837   2.212
 3255SOL    HW110664   3.715   4.811   2.138
 3255SOL    HW210665   3.731   4.904   2.271
 3256SOL     OW10666   5.518   2.491   2.054
 3256SOL    HW110667   5.569   2.463   2.135
 3256SOL    HW210668   5.562   2.451   1.973
 3257SOL     OW10669   2.548   1.279   2.704
 3257SOL    HW110670   2.525   1.227   2.786
 3257SOL    HW210671   2.531   1.376   2.720
 3258SOL     OW10672   0.594   4.862   4.033
 3258SOL    HW110673   0.677   4.896   4.077
 3258SOL    HW210674   0.521   4.856   4.100
 3259SOL     OW10675   6.167   5.227   3.394
 3259SOL    HW110676   6.081   5.205   3.348
 3259SOL    HW210677   6.165   5.190   3.487
 3260SOL     OW10678   2.580   4.543   3.644
 3260SOL    HW110679   2.523   4.624   3.659
 3260SOL    HW210680   2.649   4.564   3.574
 3261SOL     OW10681   5.803   6.685   4.152
 3261SOL    HW110682   5.801   6.591   4.117
 3261SOL    HW210683   5.753   6.690   4.238
 3262SOL     OW10684   2.784   1.716   2.708
 3262SOL    HW110685   2.817   1.655   2.636
 3262SOL    HW210686   2.862   1.747   2.763
 3263SOL     OW10687   5.612   0.365   2.026
 3263SOL    HW110688   5.524   0.347   2.070
 3263SOL    HW210689   5.597   0.398   1.933
 3264SOL     OW10690   1.248   5.248   6.416
 3264SOL    HW110691   1.245   5.304   6.333
 3264SOL    HW210692   1.336   5.201   6.421
 3265SOL     OW10693   6.777   5.871   5.750
 3265SOL    HW110694   6.843   5.946   5.742
 3265SOL    HW210695   6.787   5.810   5.671
 3266SOL     OW10696   3.980   4.458   6.304
 3266SOL    HW110697   3.977   4.368   6.261
 3266SOL    HW210698   4.029   4.522   6.245
 3267SOL     OW10699   3.169   0.369   0.620
 3267SOL    HW110700   3.245   0.315   0.582
 3267SOL    HW210701   3.135   0.432   0.551
 3268SOL     OW10702   5.450   4.164   2.312
 3268SOL    HW110703   5.531   4.220   2.296
 3268SOL    HW210704   5.418   4.177   2.407
 3269SOL     OW10705   2.140   5.663   0.801
 3269SOL    HW110706   2.064   5.654   0.865
 3269SOL    HW210707   2.214   5.715   0.844
 3270SOL     OW10708   1.969   3.224   6.536
 3270SOL    HW110709   2.059   3.264   6.522
 3270SOL    HW210710   1.976   3.125   6.540
 3271SOL     OW10711   0.698   3.794   1.408
 3271SOL    HW110712   0.667   3.768   1.317
 3271SOL    HW210713   0.791   3.760   1.424
 3272SOL     OW10714   3.659   0.429   0.511
 3272SOL    HW110715   3.623   0.343   0.473
 3272SOL    HW210716   3.759   0.425   0.513
 3273SOL     OW10717   4.490   3.772   6.686
 3273SOL    HW110718   4.398   3.810   6.692
 3273SOL    HW210719   4.489   3.676   6.714
 3274SOL     OW10720   4.309   0.335   2.113
 3274SOL    HW110721   4.352   0.372   2.195
 3274SOL    HW210722   4.305   0.235   2.119
 3275SOL     OW10723   4.964   0.347   1.598
 3275SOL    HW110724   5.052   0.375   1.559
 3275SOL    HW210725   4.889   0.390   1.546
 3276SOL     OW10726   6.086   5.640   0.417
 3276SOL    HW110727   6.079   5.663   0.514
 3276SOL    HW210728   5.995   5.615   0.383
 3277SOL     OW10729   4.455   1.105   2.395
 3277SOL    HW110730   4.479   1.008   2.395
 3277SOL    HW210731   4.381   1.121   2.330
 3278SOL     OW10732   4.804   1.337   6.912
 3278SOL    HW110733   4.847   1.424   6.892
 3278SOL    HW210734   4.858   1.263   6.874
 3279SOL     OW10735   4.381   0.442   2.426
 3279SOL    HW110736   4.281   0.434   2.428
 3279SOL    HW210737   4.410   0.512   2.491
 3280SOL     OW10738   6.827   2.593   4.265
 3280SOL    HW110739   6.860   2.578   4.358
 3280SOL    HW210740   6.843   2.511   4.210
 3281SOL     OW10741   6.226   2.602   2.105
 3281SOL    HW110742   6.237   2.645   2.195
 3281SOL    HW210743   6.268   2.659   2.035
 3282SOL     OW10744   6.852   4.737   5.165
 3282SOL    HW110745   6.916   4.763   5.092
 3282SOL    HW210746   6.805   4.652   5.139
 3283SOL     OW10747   3.361   1.334   0.773
 3283SOL    HW110748   3.318   1.406   0.718
 3283SOL    HW210749   3.459   1.332   0.754
 3284SOL     OW10750   2.176   1.171   5.395
 3284SOL    HW110751   2.227   1.158   5.480
 3284SOL    HW210752   2.110   1.096   5.384
 3285SOL     OW10753   3.982   1.454   3.897
 3285SOL    HW110754   4.038   1.495   3.969
 3285SOL    HW210755   3.939   1.525   3.842
 3286SOL     OW10756   1.002   4.081   3.143
 3286SOL    HW110757   0.936   4.076   3.218
 3286SOL    HW210758   1.041   3.990   3.126
 3287SOL     OW10759   3.301   1.332   0.387
 3287SOL    HW110760   3.225   1.364   0.443
 3287SOL    HW210761   3.323   1.237   0.411
 3288SOL     OW10762   3.115   5.327   1.596
 3288SOL    HW110763   3.152   5.321   1.688
 3288SOL    HW210764   3.038   5.263   1.587
 3289SOL     OW10765   5.050   0.050   0.200
 3289SOL    HW110766   5.082   0.077   0.290
 3289SOL    HW210767   5.119   0.072   0.132
 3290SOL     OW10768   0.891   4.252   6.961
 3290SOL    HW110769   0.794   4.275   6.953
 3290SOL    HW210770   0.937   4.265   6.873
 3291SOL     OW10771   4.915   6.603   5.660
 3291SOL    HW110772   4.965   6.522   5.693
 3291SOL    HW210773   4.979   6.670   5.624
 3292SOL     OW10774   0.430   2.905   1.177
 3292SOL    HW110775   0.416   2.996   1.140
 3292SOL    HW210776   0.528   2.891   1.195
 3293SOL     OW10777   6.505   4.458   2.500
 3293SOL    HW110778   6.480   4.528   2.566
 3293SOL    HW210779   6.425   4.433   2.445
 3294SOL     OW10780   4.217   2.902   5.558
 3294SOL    HW110781   4.285   2.950   5.614
 3294SOL    HW210782   4.256   2.881   5.468
 3295SOL     OW10783   1.126   3.546   3.387
 3295SOL    HW110784   1.058   3.548   3.460
 3295SOL    HW210785   1.162   3.453   3.377
 3296SOL     OW10786   2.310   0.518   6.843
 3296SOL    HW110787   2.287   0.558   6.932
 3296SOL    HW210788   2.369   0.581   6.793
 3297SOL     OW10789   2.766   0.759   5.971
 3297SOL    HW110790   2.743   0.723   5.880
 3297SOL    HW210791   2.745   0.857   5.974
 3298SOL     OW10792   3.864   3.966   6.237
 3298SOL    HW110793   3.944   3.914   6.205
 3298SOL    HW210794   3.785   3.943   6.181
 3299SOL     OW10795   2.659   7.020   4.269
 3299SOL    HW110796   2.705   0.004   4.358
 3299SOL    HW210797   2.709   6.958   4.209
 3300SOL     OW10798   1.788   0.992   3.262
 3300SOL    HW110799   1.714   1.006   3.196
 3300SOL    HW210800   1.829   0.902   3.248
 3301SOL     OW10801   1.358   0.836   2.357
 3301SOL    HW110802   1.382   0.847   2.453
 3301SOL    HW210803   1.288   0.764   2.348
 3302SOL     OW10804   1.250   4.776   4.746
 3302SOL    HW110805   1.164   4.734   4.774
 3302SOL    HW210806   1.235   4.874   4.729
 3303SOL     OW10807   4.551   3.710   0.528
 3303SOL    HW110808   4.560   3.668   0.438
 3303SOL    HW210809   4.454   3.720   0.551
 3304SOL     OW10810   2.386   4.031   1.077
 3304SOL    HW110811   2.462   3.979   1.037
 3304SOL    HW210812   2.303   3.976   1.077
 3305SOL     OW10813   3.237   2.691   7.008
 3305SOL    HW110814   3.263   2.785   0.012
 3305SOL    HW210815   3.147   2.691   6.965
 3306SOL     OW10816   2.851   0.664   1.049
 3306SOL    HW110817   2.939   0.653   1.096
 3306SOL    HW210818   2.826   0.577   1.007
 3307SOL     OW10819   1.889   5.761   5.046
 3307SOL    HW110820   1.836   5.693   4.996
 3307SOL    HW210821   1.828   5.825   5.092
 3308SOL     OW10822   5.246   5.529   1.457
 3308SOL    HW110823   5.269   5.570   1.545
 3308SOL    HW210824   5.179   5.585   1.410
 3309SOL     OW10825   5.866   3.357   4.164
 3309SOL    HW110826   5.809   3.420   4.216
 3309SOL    HW210827   5.809   3.305   4.100
 3310SOL     OW10828   6.243   4.519   6.490
 3310SOL    HW110829   6.303   4.586   6.533
 3310SOL    HW210830   6.264   4.428   6.526
 3311SOL     OW10831   1.958   3.011   0.927
 3311SOL    HW110832   1.918   3.093   0.886
 3311SOL    HW210833   1.885   2.955   0.967
 3312SOL     OW10834   5.277   3.696   0.298
 3312SOL    HW110835   5.183   3.706   0.331
 3312SOL    HW210836   5.303   3.778   0.246
 3313SOL     OW10837   1.081   6.533   3.463
 3313SOL    HW110838   0.986   6.550   3.436
 3313SOL    HW210839   1.114   6.611   3.517
 3314SOL     OW10840   3.126   6.085   3.847
 3314SOL    HW110841   3.049   6.045   3.897
 3314SOL    HW210842   3.193   6.121   3.912
 3315SOL     OW10843   1.354   6.385   3.828
 3315SOL    HW110844   1.338   6.435   3.913
 3315SOL    HW210845   1.271   6.387   3.772
 3316SOL     OW10846   3.706   1.824   0.354
 3316SOL    HW110847   3.705   1.814   0.254
 3316SOL    HW210848   3.705   1.734   0.396
 3317SOL     OW10849   5.702   2.164   0.868
 3317SOL    HW110850   5.655   2.084   0.830
 3317SOL    HW210851   5.728   2.225   0.793
 3318SOL     OW10852   3.911   2.621   0.627
 3318SOL    HW110853   3.927   2.719   0.632
 3318SOL    HW210854   3.856   2.600   0.545
 3319SOL     OW10855   6.477   6.631   3.868
 3319SOL    HW110856   6.544   6.705   3.871
 3319SOL    HW210857   6.401   6.652   3.930
 3320SOL     OW10858   6.428   0.312   2.566
 3320SOL    HW110859   6.335   0.306   2.532
 3320SOL    HW210860   6.449   0.232   2.622
 3321SOL     OW10861   4.527   1.793   6.850
 3321SOL    HW110862   4.624   1.800   6.873
 3321SOL    HW210863   4.510   1.706   6.804
 3322SOL     OW10864   6.206   3.641   1.455
 3322SOL    HW110865   6.141   3.652   1.379
 3322SOL    HW210866   6.290   3.690   1.434
 3323SOL     OW10867   0.933   0.298   2.275
 3323SOL    HW110868   0.865   0.369   2.255
 3323SOL    HW210869   1.011   0.309   2.213
 3324SOL     OW10870   6.421   5.459   6.335
 3324SOL    HW110871   6.380   5.404   6.262
 3324SOL    HW210872   6.515   5.484   6.310
 3325SOL     OW10873   2.779   5.099   6.594
 3325SOL    HW110874   2.730   5.021   6.557
 3325SOL    HW210875   2.878   5.083   6.588
 3326SOL     OW10876   4.038   1.467   1.954
 3326SOL    HW110877   4.040   1.433   2.049
 3326SOL    HW210878   4.078   1.398   1.894
 3327SOL     OW10879   1.577   6.096   5.841
 3327SOL    HW110880   1.611   6.095   5.935
 3327SOL    HW210881   1.528   6.182   5.824
 3328SOL     OW10882   4.596   2.746   5.359
 3328SOL    HW110883   4.661   2.724   5.286
 3328SOL    HW210884   4.606   2.680   5.433
 3329SOL     OW10885   6.750   6.463   5.714
 3329SOL    HW110886   6.788   6.554   5.727
 3329SOL    HW210887   6.763   6.409   5.797
 3330SOL     OW10888   6.681   2.758   2.987
 3330SOL    HW110889   6.627   2.771   2.904
 3330SOL    HW210890   6.718   2.665   2.989
 3331SOL     OW10891   1.693   2.962   0.687
 3331SOL    HW110892   1.687   2.955   0.587
 3331SOL    HW210893   1.669   3.055   0.715
 3332SOL     OW10894   6.973   4.187   1.927
 3332SOL    HW110895   0.033   4.236   1.961
 3332SOL    HW210896   6.911   4.251   1.881
 3333SOL     OW10897   3.160   6.150   5.146
 3333SOL    HW110898   3.094   6.118   5.079
 3333SOL    HW210899   3.214   6.225   5.108
 3334SOL     OW10900   1.624   3.359   0.975
 3334SOL    HW110901   1.653   3.288   1.038
 3334SOL    HW210902   1.544   3.328   0.924
 3335SOL     OW10903   5.356   4.383   4.616
 3335SOL    HW110904   5.442   4.345   4.583
 3335SOL    HW210905   5.353   4.481   4.594
 3336SOL     OW10906   3.500   6.121   5.676
 3336SOL    HW110907   3.412   6.145   5.636
 3336SOL    HW210908   3.553   6.067   5.610
 3337SOL     OW10909   3.680   1.585   0.472
 3337SOL    HW110910   3.714   1.553   0.384
 3337SOL    HW210911   3.648   1.507   0.526
 3338SOL     OW10912   0.173   5.382   0.452
 3338SOL    HW110913   0.268   5.351   0.453
 3338SOL    HW210914   0.112   5.303   0.447
 3339SOL     OW10915   0.023   4.399   6.442
 3339SOL    HW110916   7.018   4.328   6.376
 3339SOL    HW210917   6.960   4.438   6.482
 3340SOL     OW10918   3.900   0.528   1.945
 3340SOL    HW110919   3.981   0.474   1.925
 3340SOL    HW210920   3.827   0.468   1.978
 3341SOL     OW10921   0.994   0.386   6.957
 3341SOL    HW110922   0.974   0.361   0.032
 3341SOL    HW210923   0.997   0.304   6.900
 3342SOL     OW10924   1.787   6.474   5.386
 3342SOL    HW110925   1.834   6.536   5.324
 3342SOL    HW210926   1.747   6.526   5.462
 3343SOL     OW10927   0.569   2.178   0.950
 3343SOL    HW110928   0.612   2.259   0.987
 3343SOL    HW210929   0.498   2.146   1.013
 3344SOL     OW10930   1.850   2.447   6.362
 3344SOL    HW110931   1.793   2.491   6.293
 3344SOL    HW210932   1.793   2.410   6.435
 3345SOL     OW10933   2.932   3.353   6.493
 3345SOL    HW110934   2.912   3.257   6.478
 3345SOL    HW210935   2.953   3.397   6.406
 3346SOL     OW10936   2.165   5.745   2.856
 3346SOL    HW110937   2.259   5.771   2.838
 3346SOL    HW210938   2.146   5.657   2.811
 3347SOL     OW10939   6.075   4.135   4.152
 3347SOL    HW110940   6.154   4.106   4.098
 3347SOL    HW210941   6.016   4.056   4.171
 3348SOL     OW10942   3.756   3.726   3.484
 3348SOL    HW110943   3.761   3.724   3.384
 3348SOL    HW210944   3.804   3.806   3.518
 3349SOL     OW10945   4.934   2.446   0.709
 3349SOL    HW110946   5.002   2.375   0.693
 3349SOL    HW210947   4.863   2.440   0.638
 3350SOL     OW10948   2.450   3.016   1.405
 3350SOL    HW110949   2.488   3.101   1.440
 3350SOL    HW210950   2.522   2.947   1.399
 3351SOL     OW10951   5.813   2.879   0.739
 3351SOL    HW110952   5.846   2.812   0.672
 3351SOL    HW210953   5.850   2.969   0.716
 3352SOL     OW10954   0.165   3.521   0.330
 3352SOL    HW110955   0.161   3.512   0.429
 3352SOL    HW210956   0.189   3.615   0.306
 3353SOL     OW10957   1.342   6.521   6.359
 3353SOL    HW110958   1.355   6.549   6.454
 3353SOL    HW210959   1.379   6.592   6.299
 3354SOL     OW10960   0.867   6.644   2.263
 3354SOL    HW110961   0.951   6.674   2.217
 3354SOL    HW210962   0.814   6.725   2.291
 3355SOL     OW10963   5.776   0.758   2.496
 3355SOL    HW110964   5.751   0.663   2.513
 3355SOL    HW210965   5.736   0.816   2.567
 3356SOL     OW10966   1.239   4.037   6.902
 3356SOL    HW110967   1.215   4.007   6.994
 3356SOL    HW210968   1.163   4.089   6.863
 3357SOL     OW10969   2.786   5.640   2.181
 3357SOL    HW110970   2.832   5.553   2.166
 3357SOL    HW210971   2.768   5.651   2.279
 3358SOL     OW10972   6.808   3.874   3.428
 3358SOL    HW110973   6.851   3.872   3.518
 3358SOL    HW210974   6.722   3.924   3.433
 3359SOL     OW10975   2.208   1.479   1.685
 3359SOL    HW110976   2.133   1.534   1.722
 3359SOL    HW210977   2.255   1.433   1.761
 3360SOL     OW10978   2.855   1.251   6.422
 3360SOL    HW110979   2.760   1.220   6.429
 3360SOL    HW210980   2.915   1.173   6.406
 3361SOL     OW10981   2.514   1.097   2.901
 3361SOL    HW110982   2.598   1.075   2.950
 3361SOL    HW210983   2.438   1.104   2.967
 3362SOL     OW10984   3.114   2.073   4.503
 3362SOL    HW110985   3.076   2.130   4.576
 3362SOL    HW210986   3.081   2.105   4.414
 3363SOL     OW10987   6.359   0.835   6.967
 3363SOL    HW110988   6.333   0.914   0.004
 3363SOL    HW210989   6.363   0.753   0.005
 3364SOL     OW10990   1.491   5.392   5.244
 3364SOL    HW110991   1.583   5.427   5.228
 3364SOL    HW210992   1.466   5.331   5.169
 3365SOL     OW10993   6.501   2.110   5.180
 3365SOL    HW110994   6.580   2.085   5.123
 3365SOL    HW210995   6.453   2.187   5.138
 3366SOL     OW10996   5.210   0.752   0.056
 3366SOL    HW110997   5.257   0.689   0.119
 3366SOL    HW210998   5.192   0.838   0.103
 3367SOL     OW10999   2.001   6.985   2.131
 3367SOL    HW111000   1.991   6.983   2.032
 3367SOL    HW211001   1.956   0.047   2.168
 3368SOL     OW11002   6.030   1.503   4.534
 3368SOL    HW111003   6.095   1.556   4.479
 3368SOL    HW211004   5.947   1.557   4.549
 3369SOL     OW11005   4.063   5.541   6.573
 3369SOL    HW111006   4.094   5.634   6.556
 3369SOL    HW211007   4.000   5.540   6.651
 3370SOL     OW11008   6.248   0.776   5.672
 3370SOL    HW111009   6.303   0.714   5.728
 3370SOL    HW211010   6.281   0.869   5.682
 3371SOL     OW11011   6.580   4.731   1.310
 3371SOL    HW111012   6.547   4.680   1.389
 3371SOL    HW211013   6.570   4.829   1.327
 3372SOL     OW11014   1.327   2.925   3.072
 3372SOL    HW111015   1.404   2.862   3.083
 3372SOL    HW211016   1.263   2.887   3.004
 3373SOL     OW11017   1.225   2.733   6.321
 3373SOL    HW111018   1.167   2.805   6.358
 3373SOL    HW211019   1.310   2.728   6.373
 3374SOL     OW11020   3.537   6.121   5.100
 3374SOL    HW111021   3.499   6.029   5.109
 3374SOL    HW211022   3.505   6.178   5.176
 3375SOL     OW11023   3.475   3.682   4.890
 3375SOL    HW111024   3.418   3.760   4.917
 3375SOL    HW211025   3.476   3.675   4.790
 3376SOL     OW11026   3.328   3.006   1.559
 3376SOL    HW111027   3.333   3.104   1.579
 3376SOL    HW211028   3.241   2.986   1.515
 3377SOL     OW11029   2.886   5.373   6.088
 3377SOL    HW111030   2.803   5.341   6.134
 3377SOL    HW211031   2.862   5.450   6.028
 3378SOL     OW11032   6.589   0.879   1.165
 3378SOL    HW111033   6.672   0.936   1.162
 3378SOL    HW211034   6.520   0.925   1.221
 3379SOL     OW11035   5.889   5.058   5.461
 3379SOL    HW111036   5.923   5.095   5.375
 3379SOL    HW211037   5.789   5.060   5.461
 3380SOL     OW11038   0.789   4.014   5.485
 3380SOL    HW111039   0.828   3.922   5.475
 3380SOL    HW211040   0.863   4.081   5.494
 3381SOL     OW11041   3.055   2.346   1.023
 3381SOL    HW111042   3.152   2.364   1.008
 3381SOL    HW211043   3.020   2.288   0.950
 3382SOL     OW11044   6.984   6.752   0.324
 3382SOL    HW111045   0.055   6.713   0.306
 3382SOL    HW211046   6.974   6.838   0.273
 3383SOL     OW11047   0.540   4.090   1.363
 3383SOL    HW111048   0.574   4.176   1.325
 3383SOL    HW211049   0.618   4.029   1.381
 3384SOL     OW11050   3.312   3.829   3.159
 3384SOL    HW111051   3.306   3.740   3.114
 3384SOL    HW211052   3.381   3.825   3.232
 3385SOL     OW11053   6.648   4.003   4.023
 3385SOL    HW111054   6.687   4.034   4.110
 3385SOL    HW211055   6.699   3.923   3.991
 3386SOL     OW11056   5.784   4.277   4.316
 3386SOL    HW111057   5.687   4.253   4.315
 3386SOL    HW211058   5.831   4.225   4.388
 3387SOL     OW11059   3.505   1.623   2.372
 3387SOL    HW111060   3.598   1.647   2.348
 3387SOL    HW211061   3.504   1.531   2.412
 3388SOL     OW11062   5.925   2.055   1.301
 3388SOL    HW111063   5.872   2.011   1.373
 3388SOL    HW211064   5.931   1.994   1.222
 3389SOL     OW11065   4.012   5.810   2.573
 3389SOL    HW111066   3.938   5.837   2.635
 3389SOL    HW211067   4.051   5.723   2.603
 3390SOL     OW11068   4.542   1.576   5.757
 3390SOL    HW111069   4.489   1.560   5.673
 3390SOL    HW211070   4.639   1.579   5.734
 3391SOL     OW11071   2.952   1.882   4.040
 3391SOL    HW111072   2.950   1.982   4.042
 3391SOL    HW211073   2.860   1.847   4.059
 3392SOL     OW11074   5.281   6.160   3.602
 3392SOL    HW111075   5.210   6.213   3.557
 3392SOL    HW211076   5.281   6.180   3.700
 3393SOL     OW11077   6.989   6.795   6.600
 3393SOL    HW111078   0.065   6.788   6.571
 3393SOL    HW211079   6.982   6.860   6.676
 3394SOL     OW11080   4.940   1.618   1.995
 3394SOL    HW111081   5.025   1.565   1.996
 3394SOL    HW211082   4.941   1.681   1.918
 3395SOL     OW11083   1.910   4.021   4.999
 3395SOL    HW111084   1.995   4.047   5.047
 3395SOL    HW211085   1.899   3.922   5.002
 3396SOL     OW11086   6.279   3.480   4.376
 3396SOL    HW111087   6.326   3.511   4.459
 3396SOL    HW211088   6.346   3.459   4.305
 3397SOL     OW11089   3.134   5.668   6.308
 3397SOL    HW111090   3.154   5.653   6.211
 3397SOL    HW211091   3.036   5.657   6.324
 3398SOL     OW11092   0.433   1.195   3.322
 3398SOL    HW111093   0.339   1.186   3.289
 3398SOL    HW211094   0.493   1.217   3.246
 3399SOL     OW11095   4.161   5.776   4.575
 3399SOL    HW111096   4.135   5.682   4.550
 3399SOL    HW211097   4.172   5.830   4.492
 3400SOL     OW11098   5.017   2.186   0.707
 3400SOL    HW111099   4.940   2.122   0.703
 3400SOL    HW211100   5.094   2.142   0.752
 3401SOL     OW11101   6.676   4.731   6.593
 3401SOL    HW111102   6.695   4.828   6.577
 3401SOL    HW211103   6.585   4.722   6.634
 3402SOL     OW11104   4.044   4.735   2.066
 3402SOL    HW111105   4.006   4.755   2.156
 3402SOL    HW211106   3.970   4.715   2.002
 3403SOL     OW11107   3.955   1.915   6.248
 3403SOL    HW111108   3.941   1.844   6.179
 3403SOL    HW211109   3.899   1.895   6.328
 3404SOL     OW11110   4.981   5.785   2.077
 3404SOL    HW111111   4.939   5.854   2.137
 3404SOL    HW211112   4.940   5.696   2.096
 3405SOL     OW11113   6.173   4.239   6.723
 3405SOL    HW111114   6.172   4.195   6.813
 3405SOL    HW211115   6.266   4.242   6.688
 3406SOL     OW11116   1.166   3.253   1.614
 3406SOL    HW111117   1.233   3.323   1.591
 3406SOL    HW211118   1.214   3.169   1.642
 3407SOL     OW11119   1.308   5.529   2.757
 3407SOL    HW111120   1.336   5.453   2.815
 3407SOL    HW211121   1.218   5.562   2.787
 3408SOL     OW11122   5.231   3.524   2.402
 3408SOL    HW111123   5.284   3.602   2.369
 3408SOL    HW211124   5.280   3.480   2.478
 3409SOL     OW11125   2.700   1.126   6.745
 3409SOL    HW111126   2.756   1.083   6.674
 3409SOL    HW211127   2.669   1.216   6.713
 3410SOL     OW11128   0.326   1.845   0.066
 3410SOL    HW111129   0.325   1.941   0.094
 3410SOL    HW211130   0.392   1.833   7.011
 3411SOL     OW11131   4.811   1.977   2.459
 3411SOL    HW111132   4.874   2.017   2.525
 3411SOL    HW211133   4.852   1.980   2.368
 3412SOL     OW11134   4.189   5.356   0.070
 3412SOL    HW111135   4.179   5.358   6.991
 3412SOL    HW211136   4.285   5.343   0.094
 3413SOL     OW11137   5.201   1.108   2.627
 3413SOL    HW111138   5.137   1.073   2.695
 3413SOL    HW211139   5.218   1.205   2.644
 3414SOL     OW11140   3.623   0.364   5.439
 3414SOL    HW111141   3.643   0.401   5.529
 3414SOL    HW211142   3.638   0.435   5.369
 3415SOL     OW11143   1.672   5.884   5.655
 3415SOL    HW111144   1.691   5.927   5.567
 3415SOL    HW211145   1.601   5.935   5.703
 3416SOL     OW11146   2.200   4.296   5.743
 3416SOL    HW111147   2.171   4.392   5.741
 3416SOL    HW211148   2.295   4.291   5.773
 3417SOL     OW11149   5.170   0.552   1.040
 3417SOL    HW111150   5.114   0.470   1.056
 3417SOL    HW211151   5.202   0.551   0.945
 3418SOL     OW11152   2.991   1.919   5.667
 3418SOL    HW111153   3.021   1.974   5.589
 3418SOL    HW211154   3.070   1.893   5.722
 3419SOL     OW11155   4.912   3.615   6.194
 3419SOL    HW111156   5.004   3.642   6.165
 3419SOL    HW211157   4.899   3.517   6.175
 3420SOL     OW11158   3.143   0.872   5.104
 3420SOL    HW111159   3.099   0.865   5.015
 3420SOL    HW211160   3.106   0.950   5.154
 3421SOL     OW11161   0.479   6.732   2.983
 3421SOL    HW111162   0.413   6.665   3.017
 3421SOL    HW211163   0.564   6.725   3.035
 3422SOL     OW11164   3.281   2.130   2.906
 3422SOL    HW111165   3.258   2.184   2.986
 3422SOL    HW211166   3.300   2.036   2.933
 3423SOL     OW11167   3.504   1.036   1.699
 3423SOL    HW111168   3.548   0.974   1.764
 3423SOL    HW211169   3.552   1.123   1.698
 3424SOL     OW11170   4.918   1.790   1.551
 3424SOL    HW111171   5.013   1.803   1.521
 3424SOL    HW211172   4.857   1.802   1.473
 3425SOL     OW11173   4.323   3.834   1.644
 3425SOL    HW111174   4.376   3.915   1.669
 3425SOL    HW211175   4.227   3.858   1.635
 3426SOL     OW11176   4.748   3.808   0.956
 3426SOL    HW111177   4.692   3.735   0.995
 3426SOL    HW211178   4.785   3.778   0.868
 3427SOL     OW11179   0.864   1.623   0.508
 3427SOL    HW111180   0.900   1.663   0.592
 3427SOL    HW211181   0.790   1.559   0.530
 3428SOL     OW11182   4.609   4.586   3.179
 3428SOL    HW111183   4.600   4.658   3.248
 3428SOL    HW211184   4.522   4.572   3.133
 3429SOL     OW11185   0.590   2.449   1.336
 3429SOL    HW111186   0.642   2.522   1.380
 3429SOL    HW211187   0.493   2.470   1.339
 3430SOL     OW11188   0.878   5.402   6.666
 3430SOL    HW111189   0.892   5.423   6.569
 3430SOL    HW211190   0.807   5.332   6.676
 3431SOL     OW11191   1.913   6.022   6.376
 3431SOL    HW111192   1.956   6.075   6.303
 3431SOL    HW211193   1.822   5.992   6.347
 3432SOL     OW11194   4.023   2.096   6.004
 3432SOL    HW111195   4.027   2.031   6.080
 3432SOL    HW211196   3.981   2.052   5.924
 3433SOL     OW11197   4.128   1.358   4.381
 3433SOL    HW111198   4.184   1.283   4.345
 3433SOL    HW211199   4.175   1.403   4.456
 3434SOL     OW11200   4.272   1.569   3.449
 3434SOL    HW111201   4.297   1.665   3.440
 3434SOL    HW211202   4.317   1.516   3.377
 3435SOL     OW11203   1.012   1.280   6.933
 3435SOL    HW111204   1.002   1.290   0.013
 3435SOL    HW211205   0.950   1.343   6.887
 3436SOL     OW11206   4.112   6.485   2.095
 3436SOL    HW111207   4.099   6.386   2.102
 3436SOL    HW211208   4.082   6.517   2.005
 3437SOL     OW11209   3.930   0.176   0.005
 3437SOL    HW111210   3.860   0.114   0.041
 3437SOL    HW211211   3.887   0.256   6.984
 3438SOL     OW11212   0.671   5.241   6.685
 3438SOL    HW111213   0.601   5.230   6.756
 3438SOL    HW211214   0.628   5.233   6.595
 3439SOL     OW11215   2.328   0.330   4.073
 3439SOL    HW111216   2.324   0.427   4.099
 3439SOL    HW211217   2.394   0.283   4.132
 3440SOL     OW11218   3.613   2.113   0.298
 3440SOL    HW111219   3.625   2.046   0.225
 3440SOL    HW211220   3.664   2.196   0.275
 3441SOL     OW11221   4.727   0.778   4.047
 3441SOL    HW111222   4.808   0.836   4.037
 3441SOL    HW211223   4.658   0.827   4.100
 3442SOL     OW11224   1.115   5.081   2.948
 3442SOL    HW111225   1.021   5.089   2.915
 3442SOL    HW211226   1.126   5.137   3.031
 3443SOL     OW11227   5.383   6.630   4.299
 3443SOL    HW111228   5.321   6.702   4.329
 3443SOL    HW211229   5.468   6.634   4.351
 3444SOL     OW11230   4.102   5.546   0.230
 3444SOL    HW111231   4.130   5.469   0.172
 3444SOL    HW211232   4.029   5.597   0.184
 3445SOL     OW11233   5.863   4.843   5.202
 3445SOL    HW111234   5.783   4.856   5.260
 3445SOL    HW211235   5.900   4.933   5.176
 3446SOL     OW11236   2.070   6.508   1.744
 3446SOL    HW111237   2.093   6.470   1.833
 3446SOL    HW211238   2.126   6.589   1.726
 3447SOL     OW11239   6.268   4.493   5.458
 3447SOL    HW111240   6.241   4.571   5.514
 3447SOL    HW211241   6.363   4.468   5.479
 3448SOL     OW11242   3.833   3.289   0.543
 3448SOL    HW111243   3.922   3.325   0.571
 3448SOL    HW211244   3.787   3.249   0.623
 3449SOL     OW11245   6.602   6.147   3.128
 3449SOL    HW111246   6.535   6.124   3.058
 3449SOL    HW211247   6.613   6.247   3.132
 3450SOL     OW11248   0.723   2.015   1.187
 3450SOL    HW111249   0.713   2.051   1.094
 3450SOL    HW211250   0.638   1.971   1.215
 3451SOL     OW11251   1.871   4.906   4.504
 3451SOL    HW111252   1.870   5.006   4.503
 3451SOL    HW211253   1.822   4.872   4.423
 3452SOL     OW11254   6.793   2.055   0.671
 3452SOL    HW111255   6.770   1.959   0.689
 3452SOL    HW211256   6.879   2.078   0.716
 3453SOL     OW11257   5.984   5.660   5.299
 3453SOL    HW111258   5.958   5.607   5.218
 3453SOL    HW211259   5.905   5.713   5.330
 3454SOL     OW11260   0.444   1.161   0.739
 3454SOL    HW111261   0.346   1.143   0.746
 3454SOL    HW211262   0.460   1.259   0.735
 3455SOL     OW11263   1.297   2.992   3.429
 3455SOL    HW111264   1.354   2.932   3.374
 3455SOL    HW211265   1.225   3.031   3.372
 3456SOL     OW11266   6.099   0.344   0.510
 3456SOL    HW111267   6.015   0.377   0.467
 3456SOL    HW211268   6.101   0.373   0.606
 3457SOL     OW11269   1.998   6.536   3.630
 3457SOL    HW111270   1.919   6.549   3.570
 3457SOL    HW211271   2.014   6.619   3.684
 3458SOL     OW11272   5.103   5.240   0.322
 3458SOL    HW111273   5.007   5.225   0.348
 3458SOL    HW211274   5.126   5.182   0.244
 3459SOL     OW11275   6.268   0.044   3.166
 3459SOL    HW111276   6.317   6.996   3.111
 3459SOL    HW211277   6.283   0.024   3.263
 3460SOL     OW11278   4.419   2.752   0.572
 3460SOL    HW111279   4.401   2.822   0.641
 3460SOL    HW211280   4.359   2.673   0.587
 3461SOL     OW11281   2.776   5.769   2.895
 3461SOL    HW111282   2.762   5.747   2.992
 3461SOL    HW211283   2.711   5.718   2.839
 3462SOL     OW11284   4.762   2.409   2.590
 3462SOL    HW111285   4.775   2.508   2.577
 3462SOL    HW211286   4.843   2.371   2.635
 3463SOL     OW11287   1.109   2.970   0.906
 3463SOL    HW111288   1.062   3.057   0.892
 3463SOL    HW211289   1.205   2.979   0.881
 3464SOL     OW11290   5.468   1.370   6.065
 3464SOL    HW111291   5.529   1.427   6.120
 3464SOL    HW211292   5.522   1.316   6.000
 3465SOL     OW11293   1.878   4.433   1.798
 3465SOL    HW111294   1.925   4.492   1.733
 3465SOL    HW211295   1.894   4.467   1.891
 3466SOL     OW11296   6.531   4.055   4.455
 3466SOL    HW111297   6.592   3.976   4.468
 3466SOL    HW211298   6.440   4.032   4.488
 3467SOL     OW11299   3.890   3.497   0.096
 3467SOL    HW111300   3.867   3.489   0.193
 3467SOL    HW211301   3.816   3.460   0.041
 3468SOL     OW11302   4.127   1.239   1.836
 3468SOL    HW111303   4.179   1.224   1.752
 3468SOL    HW211304   4.032   1.214   1.820
 3469SOL     OW11305   3.641   5.619   5.205
 3469SOL    HW111306   3.551   5.579   5.188
 3469SOL    HW211307   3.712   5.549   5.193
 3470SOL     OW11308   1.392   2.559   1.394
 3470SOL    HW111309   1.356   2.652   1.396
 3470SOL    HW211310   1.372   2.514   1.481
 3471SOL     OW11311   5.067   3.019   4.960
 3471SOL    HW111312   5.096   2.924   4.969
 3471SOL    HW211313   4.981   3.024   4.910
 3472SOL     OW11314   5.102   1.717   2.520
 3472SOL    HW111315   5.138   1.716   2.427
 3472SOL    HW211316   5.003   1.725   2.518
 3473SOL     OW11317   6.204   4.506   2.040
 3473SOL    HW111318   6.249   4.432   1.990
 3473SOL    HW211319   6.147   4.467   2.112
 3474SOL     OW11320   4.821   4.045   3.649
 3474SOL    HW111321   4.763   4.103   3.706
 3474SOL    HW211322   4.810   3.949   3.677
 3475SOL     OW11323   6.959   3.910   4.358
 3475SOL    HW111324   6.997   3.935   4.447
 3475SOL    HW211325   0.005   3.854   4.308
 3476SOL     OW11326   1.916   2.396   3.391
 3476SOL    HW111327   1.958   2.485   3.404
 3476SOL    HW211328   1.935   2.363   3.299
 3477SOL     OW11329   1.119   4.292   2.099
 3477SOL    HW111330   1.190   4.281   2.169
 3477SOL    HW211331   1.037   4.242   2.128
 3478SOL     OW11332   3.008   0.393   1.591
 3478SOL    HW111333   2.993   0.402   1.492
 3478SOL    HW211334   3.082   0.454   1.620
 3479SOL     OW11335   0.766   4.563   5.549
 3479SOL    HW111336   0.794   4.470   5.571
 3479SOL    HW211337   0.845   4.623   5.547
 3480SOL     OW11338   1.347   4.888   6.540
 3480SOL    HW111339   1.270   4.926   6.591
 3480SOL    HW211340   1.411   4.961   6.516
 3481SOL     OW11341   5.992   1.098   4.677
 3481SOL    HW111342   5.901   1.079   4.640
 3481SOL    HW211343   6.048   1.016   4.671
 3482SOL     OW11344   6.160   2.775   6.726
 3482SOL    HW111345   6.193   2.735   6.640
 3482SOL    HW211346   6.072   2.733   6.750
 3483SOL     OW11347   5.212   2.474   5.122
 3483SOL    HW111348   5.184   2.424   5.040
 3483SOL    HW211349   5.214   2.412   5.200
 3484SOL     OW11350   1.430   3.074   4.516
 3484SOL    HW111351   1.385   2.986   4.527
 3484SOL    HW211352   1.402   3.135   4.590
 3485SOL     OW11353   7.006   3.585   0.140
 3485SOL    HW111354   0.049   3.547   0.208
 3485SOL    HW211355   6.934   3.519   0.120
 3486SOL     OW11356   1.907   6.955   5.035
 3486SOL    HW111357   1.836   6.908   4.983
 3486SOL    HW211358   1.987   6.968   4.978
 3487SOL     OW11359   4.445   2.020   6.716
 3487SOL    HW111360   4.485   1.942   6.764
 3487SOL    HW211361   4.376   1.987   6.651
 3488SOL     OW11362   5.032   6.740   5.300
 3488SOL    HW111363   4.984   6.824   5.277
 3488SOL    HW211364   4.998   6.665   5.243
 3489SOL     OW11365   3.287   6.163   0.410
 3489SOL    HW111366   3.259   6.259   0.399
 3489SOL    HW211367   3.214   6.111   0.453
 3490SOL     OW11368   3.492   6.543   0.882
 3490SOL    HW111369   3.473   6.469   0.947
 3490SOL    HW211370   3.446   6.523   0.795
 3491SOL     OW11371   4.886   4.565   5.710
 3491SOL    HW111372   4.955   4.518   5.765
 3491SOL    HW211373   4.892   4.534   5.615
 3492SOL     OW11374   5.737   3.829   3.438
 3492SOL    HW111375   5.780   3.819   3.348
 3492SOL    HW211376   5.662   3.895   3.432
 3493SOL     OW11377   6.873   3.383   5.759
 3493SOL    HW111378   6.816   3.360   5.680
 3493SOL    HW211379   6.965   3.348   5.744
 3494SOL     OW11380   4.282   1.138   2.114
 3494SOL    HW111381   4.184   1.144   2.134
 3494SOL    HW211382   4.322   1.230   2.116
 3495SOL     OW11383   1.756   3.834   3.779
 3495SOL    HW111384   1.781   3.737   3.777
 3495SOL    HW211385   1.838   3.889   3.797
 3496SOL     OW11386   6.162   5.349   1.200
 3496SOL    HW111387   6.102   5.384   1.128
 3496SOL    HW211388   6.191   5.425   1.258
 3497SOL     OW11389   3.493   0.221   1.671
 3497SOL    HW111390   3.578   0.227   1.619
 3497SOL    HW211391   3.492   0.294   1.740
 3498SOL     OW11392   2.592   2.602   1.316
 3498SOL    HW111393   2.660   2.546   1.362
 3498SOL    HW211394   2.599   2.697   1.347
 3499SOL     OW11395   5.646   6.560   4.659
 3499SOL    HW111396   5.658   6.464   4.683
 3499SOL    HW211397   5.572   6.599   4.714
 3500SOL     OW11398   3.185   2.058   3.851
 3500SOL    HW111399   3.274   2.084   3.813
 3500SOL    HW211400   3.135   2.002   3.785
 3501SOL     OW11401   1.600   6.925   6.116
 3501SOL    HW111402   1.565   6.976   6.195
 3501SOL    HW211403   1.609   6.986   6.038
 3502SOL     OW11404   5.130   2.386   1.905
 3502SOL    HW111405   5.071   2.352   1.832
 3502SOL    HW211406   5.116   2.484   1.916
 3503SOL     OW11407   0.947   5.706   6.438
 3503SOL    HW111408   0.947   5.616   6.393
 3503SOL    HW211409   0.993   5.772   6.379
 3504SOL     OW11410   2.121   0.965   0.060
 3504SOL    HW111411   2.210   0.964   0.106
 3504SOL    HW211412   2.057   0.907   0.111
 3505SOL     OW11413   5.140   2.866   5.288
 3505SOL    HW111414   5.045   2.888   5.307
 3505SOL    HW211415   5.146   2.821   5.198
 3506SOL     OW11416   4.320   4.792   5.062
 3506SOL    HW111417   4.238   4.827   5.017
 3506SOL    HW211418   4.330   4.695   5.043
 3507SOL     OW11419   3.073   1.547   1.179
 3507SOL    HW111420   3.166   1.565   1.144
 3507SOL    HW211421   3.019   1.630   1.175
 3508SOL     OW11422   3.954   1.627   6.204
 3508SOL    HW111423   3.865   1.582   6.197
 3508SOL    HW211424   4.015   1.592   6.133
 3509SOL     OW11425   4.483   5.641   6.784
 3509SOL    HW111426   4.422   5.712   6.820
 3509SOL    HW211427   4.573   5.682   6.765
 3510SOL     OW11428   2.326   1.588   1.300
 3510SOL    HW111429   2.322   1.656   1.227
 3510SOL    HW211430   2.421   1.575   1.329
 3511SOL     OW11431   2.508   4.516   1.924
 3511SOL    HW111432   2.499   4.509   1.825
 3511SOL    HW211433   2.604   4.532   1.947
 3512SOL     OW11434   0.174   5.333   6.136
 3512SOL    HW111435   0.088   5.385   6.134
 3512SOL    HW211436   0.155   5.237   6.117
 3513SOL     OW11437   5.508   1.878   0.048
 3513SOL    HW111438   5.535   1.842   6.978
 3513SOL    HW211439   5.436   1.819   0.086
 3514SOL     OW11440   3.047   1.789   1.924
 3514SOL    HW111441   2.995   1.869   1.892
 3514SOL    HW211442   3.136   1.819   1.959
 3515SOL     OW11443   0.428   4.297   4.499
 3515SOL    HW111444   0.442   4.272   4.595
 3515SOL    HW211445   0.442   4.217   4.441
 3516SOL     OW11446   4.748   0.897   1.113
 3516SOL    HW111447   4.817   0.826   1.127
 3516SOL    HW211448   4.721   0.935   1.202
 3517SOL     OW11449   4.915   0.768   1.753
 3517SOL    HW111450   4.861   0.685   1.741
 3517SOL    HW211451   4.924   0.789   1.851
 3518SOL     OW11452   5.999   1.528   5.480
 3518SOL    HW111453   6.076   1.591   5.490
 3518SOL    HW211454   6.028   1.448   5.428
 3519SOL     OW11455   3.413   1.792   1.300
 3519SOL    HW111456   3.434   1.745   1.215
 3519SOL    HW211457   3.334   1.853   1.286
 3520SOL     OW11458   2.559   5.940   4.222
 3520SOL    HW111459   2.518   6.012   4.277
 3520SOL    HW211460   2.654   5.927   4.250
 3521SOL     OW11461   2.559   2.725   6.258
 3521SOL    HW111462   2.633   2.682   6.205
 3521SOL    HW211463   2.564   2.824   6.247
 3522SOL     OW11464   1.400   6.121   6.595
 3522SOL    HW111465   1.439   6.053   6.533
 3522SOL    HW211466   1.464   6.197   6.604
 3523SOL     OW11467   3.383   5.682   0.147
 3523SOL    HW111468   3.412   5.616   0.078
 3523SOL    HW211469   3.360   5.768   0.103
 3524SOL     OW11470   4.618   0.985   3.753
 3524SOL    HW111471   4.569   0.901   3.774
 3524SOL    HW211472   4.629   1.039   3.836
 3525SOL     OW11473   0.270   2.904   3.429
 3525SOL    HW111474   0.241   2.852   3.510
 3525SOL    HW211475   0.314   2.989   3.458
 3526SOL     OW11476   0.275   6.562   1.707
 3526SOL    HW111477   0.371   6.592   1.710
 3526SOL    HW211478   0.271   6.463   1.717
 3527SOL     OW11479   6.428   2.941   0.174
 3527SOL    HW111480   6.463   2.849   0.156
 3527SOL    HW211481   6.401   2.983   0.088
 3528SOL     OW11482   2.265   4.715   4.923
 3528SOL    HW111483   2.254   4.644   4.993
 3528SOL    HW211484   2.360   4.718   4.893
 3529SOL     OW11485   4.627   4.251   0.705
 3529SOL    HW111486   4.681   4.229   0.624
 3529SOL    HW211487   4.537   4.208   0.698
 3530SOL     OW11488   6.477   0.053   0.467
 3530SOL    HW111489   6.503   6.996   0.526
 3530SOL    HW211490   6.379   0.047   0.445
 3531SOL     OW11491   4.761   2.030   0.528
 3531SOL    HW111492   4.684   1.972   0.505
 3531SOL    HW211493   4.768   2.104   0.462
 3532SOL     OW11494   2.421   0.694   1.573
 3532SOL    HW111495   2.450   0.780   1.616
 3532SOL    HW211496   2.321   0.686   1.579
 3533SOL     OW11497   1.832   2.692   3.028
 3533SOL    HW111498   1.759   2.758   3.048
 3533SOL    HW211499   1.815   2.607   3.079
 3534SOL     OW11500   0.767   1.272   0.684
 3534SOL    HW111501   0.714   1.215   0.621
 3534SOL    HW211502   0.740   1.252   0.778
 3535SOL     OW11503   3.720   6.457   3.653
 3535SOL    HW111504   3.664   6.501   3.583
 3535SOL    HW211505   3.683   6.479   3.744
 3536SOL     OW11506   4.106   1.902   3.616
 3536SOL    HW111507   4.103   1.999   3.590
 3536SOL    HW211508   4.062   1.847   3.546
 3537SOL     OW11509   1.680   6.638   2.691
 3537SOL    HW111510   1.750   6.587   2.642
 3537SOL    HW211511   1.661   6.592   2.778
 3538SOL     OW11512   3.222   5.853   1.774
 3538SOL    HW111513   3.158   5.776   1.782
 3538SOL    HW211514   3.183   5.922   1.713
 3539SOL     OW11515   3.526   4.123   4.273
 3539SOL    HW111516   3.484   4.118   4.183
 3539SOL    HW211517   3.457   4.103   4.343
 3540SOL     OW11518   1.454   2.362   3.093
 3540SOL    HW111519   1.486   2.269   3.071
 3540SOL    HW211520   1.469   2.380   3.190
 3541SOL     OW11521   3.964   3.866   4.457
 3541SOL    HW111522   3.908   3.945   4.432
 3541SOL    HW211523   3.984   3.868   4.554
 3542SOL     OW11524   6.776   5.694   1.203
 3542SOL    HW111525   6.686   5.714   1.162
 3542SOL    HW211526   6.847   5.706   1.134
 3543SOL     OW11527   5.113   2.119   4.436
 3543SOL    HW111528   5.046   2.137   4.363
 3543SOL    HW211529   5.194   2.077   4.397
 3544SOL     OW11530   2.718   6.739   6.986
 3544SOL    HW111531   2.748   6.806   0.033
 3544SOL    HW211532   2.714   6.782   6.895
 3545SOL     OW11533   3.096   5.572   0.811
 3545SOL    HW111534   3.106   5.613   0.720
 3545SOL    HW211535   3.076   5.643   0.878
 3546SOL     OW11536   0.949   4.566   2.887
 3546SOL    HW111537   0.906   4.648   2.848
 3546SOL    HW211538   1.015   4.529   2.822
 3547SOL     OW11539   5.122   4.501   4.364
 3547SOL    HW111540   5.061   4.492   4.443
 3547SOL    HW211541   5.185   4.423   4.362
 3548SOL     OW11542   5.167   2.974   5.759
 3548SOL    HW111543   5.238   3.028   5.715
 3548SOL    HW211544   5.178   2.980   5.858
 3549SOL     OW11545   4.954   3.343   2.542
 3549SOL    HW111546   4.946   3.339   2.442
 3549SOL    HW211547   5.049   3.326   2.568
 3550SOL     OW11548   4.978   1.600   3.708
 3550SOL    HW111549   4.957   1.646   3.622
 3550SOL    HW211550   5.075   1.574   3.710
 3551SOL     OW11551   1.937   6.672   2.363
 3551SOL    HW111552   1.995   6.617   2.422
 3551SOL    HW211553   1.954   6.769   2.380
 3552SOL     OW11554   6.494   4.346   3.192
 3552SOL    HW111555   6.515   4.323   3.096
 3552SOL    HW211556   6.410   4.301   3.219
 3553SOL     OW11557   6.191   1.551   3.311
 3553SOL    HW111558   6.199   1.455   3.284
 3553SOL    HW211559   6.248   1.608   3.252
 3554SOL     OW11560   4.241   5.535   6.847
 3554SOL    HW111561   4.198   5.446   6.832
 3554SOL    HW211562   4.340   5.523   6.853
 3555SOL     OW11563   0.868   2.267   3.907
 3555SOL    HW111564   0.925   2.314   3.974
 3555SOL    HW211565   0.922   2.199   3.858
 3556SOL     OW11566   4.423   1.631   6.108
 3556SOL    HW111567   4.366   1.713   6.111
 3556SOL    HW211568   4.512   1.651   6.149
 3557SOL     OW11569   0.802   0.402   3.911
 3557SOL    HW111570   0.814   0.498   3.932
 3557SOL    HW211571   0.719   0.368   3.955
 3558SOL     OW11572   0.502   6.688   1.357
 3558SOL    HW111573   0.449   6.763   1.318
 3558SOL    HW211574   0.567   6.723   1.424
 3559SOL     OW11575   0.861   0.259   5.779
 3559SOL    HW111576   0.935   0.320   5.809
 3559SOL    HW211577   0.788   0.313   5.737
 3560SOL     OW11578   6.972   0.146   1.681
 3560SOL    HW111579   6.928   0.174   1.595
 3560SOL    HW211580   6.999   0.227   1.732
 3561SOL     OW11581   5.544   4.640   3.804
 3561SOL    HW111582   5.521   4.579   3.880
 3561SOL    HW211583   5.630   4.611   3.763
 3562SOL     OW11584   4.100   2.176   2.489
 3562SOL    HW111585   4.083   2.155   2.585
 3562SOL    HW211586   4.012   2.191   2.442
 3563SOL     OW11587   4.441   6.170   1.719
 3563SOL    HW111588   4.399   6.171   1.628
 3563SOL    HW211589   4.372   6.144   1.787
 3564SOL     OW11590   6.099   4.400   2.359
 3564SOL    HW111591   6.045   4.317   2.345
 3564SOL    HW211592   6.137   4.401   2.452
 3565SOL     OW11593   0.951   0.930   5.490
 3565SOL    HW111594   0.996   0.842   5.501
 3565SOL    HW211595   0.938   0.949   5.392
 3566SOL     OW11596   1.031   4.384   6.082
 3566SOL    HW111597   1.053   4.305   6.140
 3566SOL    HW211598   1.091   4.460   6.106
 3567SOL     OW11599   0.035   2.366   1.225
 3567SOL    HW111600   0.009   2.444   1.168
 3567SOL    HW211601   7.015   2.282   1.188
 3568SOL     OW11602   5.071   4.187   3.418
 3568SOL    HW111603   5.058   4.265   3.479
 3568SOL    HW211604   4.982   4.157   3.383
 3569SOL     OW11605   3.992   3.259   3.735
 3569SOL    HW111606   3.923   3.285   3.802
 3569SOL    HW211607   3.985   3.319   3.655
 3570SOL     OW11608   0.225   2.292   5.528
 3570SOL    HW111609   0.190   2.238   5.604
 3570SOL    HW211610   0.300   2.242   5.483
 3571SOL     OW11611   2.747   0.115   4.543
 3571SOL    HW111612   2.823   0.068   4.586
 3571SOL    HW211613   2.692   0.161   4.613
 3572SOL     OW11614   5.017   4.269   2.424
 3572SOL    HW111615   5.075   4.193   2.396
 3572SOL    HW211616   5.048   4.353   2.380
 3573SOL     OW11617   0.205   4.987   3.978
 3573SOL    HW111618   0.212   4.935   3.893
 3573SOL    HW211619   0.216   4.925   4.056
 3574SOL     OW11620   2.026   1.970   6.251
 3574SOL    HW111621   1.947   2.031   6.257
 3574SOL    HW211622   1.995   1.879   6.223
 3575SOL     OW11623   5.168   0.618   6.523
 3575SOL    HW111624   5.148   0.697   6.465
 3575SOL    HW211625   5.117   0.625   6.609
 3576SOL     OW11626   0.723   2.640   0.879
 3576SOL    HW111627   0.697   2.614   0.786
 3576SOL    HW211628   0.704   2.737   0.893
 3577SOL     OW11629   1.772   3.881   4.583
 3577SOL    HW111630   1.711   3.951   4.620
 3577SOL    HW211631   1.758   3.872   4.485
 3578SOL     OW11632   4.418   2.334   0.590
 3578SOL    HW111633   4.390   2.251   0.542
 3578SOL    HW211634   4.517   2.332   0.604
 3579SOL     OW11635   0.966   3.463   2.214
 3579SOL    HW111636   1.009   3.520   2.143
 3579SOL    HW211637   1.005   3.371   2.210
 3580SOL     OW11638   6.764   4.307   1.800
 3580SOL    HW111639   6.680   4.270   1.839
 3580SOL    HW211640   6.771   4.405   1.819
 3581SOL     OW11641   1.840   0.287   2.684
 3581SOL    HW111642   1.752   0.333   2.675
 3581SOL    HW211643   1.906   0.348   2.727
 3582SOL     OW11644   4.747   6.278   6.220
 3582SOL    HW111645   4.679   6.339   6.261
 3582SOL    HW211646   4.745   6.190   6.268
 3583SOL     OW11647   1.576   6.083   0.636
 3583SOL    HW111648   1.486   6.052   0.605
 3583SOL    HW211649   1.619   6.011   0.691
 3584SOL     OW11650   5.602   4.630   4.824
 3584SOL    HW111651   5.673   4.565   4.796
 3584SOL    HW211652   5.540   4.645   4.747
 3585SOL     OW11653   4.089   2.235   3.840
 3585SOL    HW111654   4.031   2.317   3.841
 3585SOL    HW211655   4.103   2.205   3.746
 3586SOL     OW11656   6.522   2.550   5.380
 3586SOL    HW111657   6.499   2.638   5.422
 3586SOL    HW211658   6.572   2.565   5.295
 3587SOL     OW11659   2.220   0.703   6.263
 3587SOL    HW111660   2.180   0.621   6.303
 3587SOL    HW211661   2.294   0.677   6.201
 3588SOL     OW11662   6.044   3.635   4.101
 3588SOL    HW111663   6.120   3.684   4.059
 3588SOL    HW211664   6.000   3.577   4.033
 3589SOL     OW11665   0.463   0.807   6.277
 3589SOL    HW111666   0.421   0.780   6.364
 3589SOL    HW211667   0.393   0.812   6.206
 3590SOL     OW11668   6.095   5.154   5.721
 3590SOL    HW111669   6.087   5.239   5.774
 3590SOL    HW211670   6.017   5.095   5.740
 3591SOL     OW11671   4.845   1.945   1.039
 3591SOL    HW111672   4.790   1.861   1.041
 3591SOL    HW211673   4.833   1.990   0.950
 3592SOL     OW11674   0.824   6.072   1.316
 3592SOL    HW111675   0.860   6.076   1.223
 3592SOL    HW211676   0.740   6.126   1.321
 3593SOL     OW11677   4.294   3.347   6.076
 3593SOL    HW111678   4.235   3.291   6.135
 3593SOL    HW211679   4.284   3.317   5.981
 3594SOL     OW11680   4.588   4.301   5.075
 3594SOL    HW111681   4.603   4.297   5.173
 3594SOL    HW211682   4.498   4.342   5.057
 3595SOL     OW11683   4.869   7.014   5.724
 3595SOL    HW111684   4.864   6.983   5.819
 3595SOL    HW211685   4.786   6.985   5.675
 3596SOL     OW11686   3.275   1.568   1.943
 3596SOL    HW111687   3.358   1.555   1.888
 3596SOL    HW211688   3.195   1.565   1.883
 3597SOL     OW11689   4.154   4.508   5.370
 3597SOL    HW111690   4.244   4.467   5.385
 3597SOL    HW211691   4.086   4.460   5.425
 3598SOL     OW11692   6.946   5.569   4.627
 3598SOL    HW111693   6.926   5.497   4.561
 3598SOL    HW211694   6.951   5.530   4.719
 3599SOL     OW11695   2.653   1.315   5.119
 3599SOL    HW111696   2.615   1.235   5.166
 3599SOL    HW211697   2.628   1.398   5.169
 3600SOL     OW11698   2.203   4.209   0.917
 3600SOL    HW111699   2.169   4.115   0.915
 3600SOL    HW211700   2.269   4.219   0.992
 3601SOL     OW11701   3.292   0.230   5.029
 3601SOL    HW111702   3.341   0.148   5.058
 3601SOL    HW211703   3.287   0.294   5.106
 3602SOL     OW11704   1.488   2.181   0.861
 3602SOL    HW111705   1.434   2.102   0.888
 3602SOL    HW211706   1.583   2.169   0.892
 3603SOL     OW11707   1.427   6.704   6.165
 3603SOL    HW111708   1.344   6.759   6.158
 3603SOL    HW211709   1.504   6.754   6.125
 3604SOL     OW11710   7.007   0.733   4.370
 3604SOL    HW111711   6.953   0.663   4.417
 3604SOL    HW211712   6.947   0.790   4.314
 3605SOL     OW11713   1.293   0.254   4.495
 3605SOL    HW111714   1.271   0.199   4.576
 3605SOL    HW211715   1.359   0.325   4.520
 3606SOL     OW11716   1.993   0.321   3.086
 3606SOL    HW111717   2.063   0.250   3.078
 3606SOL    HW211718   1.998   0.362   3.177
 3607SOL     OW11719   5.980   1.444   4.121
 3607SOL    HW111720   5.889   1.403   4.127
 3607SOL    HW211721   5.974   1.542   4.141
 3608SOL     OW11722   4.086   1.833   5.418
 3608SOL    HW111723   4.110   1.887   5.498
 3608SOL    HW211724   4.168   1.785   5.385
 3609SOL     OW11725   2.931   6.781   4.811
 3609SOL    HW111726   2.952   6.731   4.727
 3609SOL    HW211727   3.015   6.808   4.856
 3610SOL     OW11728   1.273   0.201   5.794
 3610SOL    HW111729   1.292   0.167   5.886
 3610SOL    HW211730   1.359   0.211   5.744
 3611SOL     OW11731   5.170   3.339   2.997
 3611SOL    HW111732   5.162   3.438   2.985
 3611SOL    HW211733   5.266   3.313   3.002
 3612SOL     OW11734   4.802   1.777   0.662
 3612SOL    HW111735   4.778   1.681   0.654
 3612SOL    HW211736   4.728   1.833   0.625
 3613SOL     OW11737   3.861   0.527   2.666
 3613SOL    HW111738   3.802   0.474   2.606
 3613SOL    HW211739   3.944   0.475   2.685
 3614SOL     OW11740   3.299   5.765   0.404
 3614SOL    HW111741   3.343   5.759   0.314
 3614SOL    HW211742   3.247   5.681   0.421
 3615SOL     OW11743   5.743   2.327   4.956
 3615SOL    HW111744   5.703   2.235   4.958
 3615SOL    HW211745   5.705   2.381   5.031
 3616SOL     OW11746   1.563   1.140   1.083
 3616SOL    HW111747   1.617   1.163   1.002
 3616SOL    HW211748   1.472   1.109   1.054
 3617SOL     OW11749   4.103   5.078   4.583
 3617SOL    HW111750   4.162   5.157   4.570
 3617SOL    HW211751   4.010   5.100   4.553
 3618SOL     OW11752   0.932   5.327   4.616
 3618SOL    HW111753   0.833   5.337   4.614
 3618SOL    HW211754   0.971   5.389   4.685
 3619SOL     OW11755   6.697   1.987   2.411
 3619SOL    HW111756   6.642   2.011   2.491
 3619SOL    HW211757   6.792   1.974   2.439
 3620SOL     OW11758   4.843   6.333   5.562
 3620SOL    HW111759   4.845   6.433   5.568
 3620SOL    HW211760   4.748   6.302   5.554
 3621SOL     OW11761   3.169   3.009   3.153
 3621SOL    HW111762   3.130   2.985   3.241
 3621SOL    HW211763   3.266   3.033   3.164
 3622SOL     OW11764   2.596   5.372   6.151
 3622SOL    HW111765   2.561   5.437   6.219
 3622SOL    HW211766   2.521   5.342   6.093
 3623SOL     OW11767   1.809   6.186   5.686
 3623SOL    HW111768   1.862   6.102   5.677
 3623SOL    HW211769   1.749   6.179   5.766
 3624SOL     OW11770   2.605   1.860   2.873
 3624SOL    HW111771   2.507   1.841   2.861
 3624SOL    HW211772   2.656   1.819   2.797
 3625SOL     OW11773   6.090   2.252   1.626
 3625SOL    HW111774   6.161   2.263   1.695
 3625SOL    HW211775   6.111   2.173   1.569
 3626SOL     OW11776   0.620   3.187   6.050
 3626SOL    HW111777   0.701   3.188   5.992
 3626SOL    HW211778   0.541   3.219   5.997
 3627SOL     OW11779   3.180   1.424   2.502
 3627SOL    HW111780   3.245   1.449   2.574
 3627SOL    HW211781   3.088   1.425   2.539
 3628SOL     OW11782   0.512   0.824   1.788
 3628SOL    HW111783   0.531   0.918   1.760
 3628SOL    HW211784   0.413   0.808   1.787
 3629SOL     OW11785   1.761   0.751   4.321
 3629SOL    HW111786   1.688   0.696   4.361
 3629SOL    HW211787   1.768   0.838   4.370
 3630SOL     OW11788   6.548   2.073   2.631
 3630SOL    HW111789   6.626   2.099   2.687
 3630SOL    HW211790   6.494   2.004   2.678
 3631SOL     OW11791   2.025   5.534   2.701
 3631SOL    HW111792   2.104   5.553   2.642
 3631SOL    HW211793   1.975   5.456   2.665
 3632SOL     OW11794   5.167   2.696   2.733
 3632SOL    HW111795   5.145   2.751   2.814
 3632SOL    HW211796   5.150   2.749   2.650
 3633SOL     OW11797   4.631   5.121   5.747
 3633SOL    HW111798   4.605   5.170   5.830
 3633SOL    HW211799   4.626   5.183   5.669
 3634SOL     OW11800   3.099   5.227   6.238
 3634SOL    HW111801   3.139   5.238   6.329
 3634SOL    HW211802   3.018   5.285   6.230
 3635SOL     OW11803   1.865   6.855   2.732
 3635SOL    HW111804   1.820   6.774   2.695
 3635SOL    HW211805   1.921   6.829   2.810
 3636SOL     OW11806   6.733   6.139   4.322
 3636SOL    HW111807   6.710   6.087   4.240
 3636SOL    HW211808   6.795   6.085   4.379
 3637SOL     OW11809   5.299   2.030   6.561
 3637SOL    HW111810   5.210   2.076   6.564
 3637SOL    HW211811   5.296   1.950   6.622
 3638SOL     OW11812   0.713   2.404   3.707
 3638SOL    HW111813   0.742   2.377   3.799
 3638SOL    HW211814   0.683   2.323   3.656
 3639SOL     OW11815   3.787   3.406   4.176
 3639SOL    HW111816   3.876   3.413   4.221
 3639SOL    HW211817   3.782   3.320   4.126
 3640SOL     OW11818   4.736   1.591   2.714
 3640SOL    HW111819   4.667   1.519   2.718
 3640SOL    HW211820   4.692   1.680   2.724
 3641SOL     OW11821   0.564   3.599   1.227
 3641SOL    HW111822   0.554   3.506   1.193
 3641SOL    HW211823   0.600   3.658   1.155
 3642SOL     OW11824   4.374   4.467   6.402
 3642SOL    HW111825   4.303   4.536   6.411
 3642SOL    HW211826   4.341   4.392   6.345
 3643SOL     OW11827   4.343   5.479   4.778
 3643SOL    HW111828   4.260   5.514   4.820
 3643SOL    HW211829   4.419   5.542   4.796
 3644SOL     OW11830   3.808   1.532   1.367
 3644SOL    HW111831   3.893   1.560   1.411
 3644SOL    HW211832   3.731   1.575   1.413
 3645SOL     OW11833   1.906   3.557   3.722
 3645SOL    HW111834   1.848   3.498   3.665
 3645SOL    HW211835   1.973   3.604   3.664
 3646SOL     OW11836   2.598   4.863   5.050
 3646SOL    HW111837   2.603   4.785   5.112
 3646SOL    HW211838   2.510   4.909   5.060
 3647SOL     OW11839   3.523   0.661   0.417
 3647SOL    HW111840   3.563   0.678   0.326
 3647SOL    HW211841   3.560   0.575   0.453
 3648SOL     OW11842   5.885   5.139   3.439
 3648SOL    HW111843   5.919   5.050   3.410
 3648SOL    HW211844   5.803   5.126   3.495
 3649SOL     OW11845   5.514   2.873   0.178
 3649SOL    HW111846   5.610   2.884   0.203
 3649SOL    HW211847   5.478   2.960   0.144
 3650SOL     OW11848   5.380   6.485   0.032
 3650SOL    HW111849   5.311   6.452   0.096
 3650SOL    HW211850   5.386   6.585   0.037
 3651SOL     OW11851   1.098   1.767   5.912
 3651SOL    HW111852   1.077   1.810   5.825
 3651SOL    HW211853   1.024   1.785   5.977
 3652SOL     OW11854   5.765   2.477   2.632
 3652SOL    HW111855   5.752   2.515   2.540
 3652SOL    HW211856   5.750   2.548   2.700
 3653SOL     OW11857   2.146   1.772   0.478
 3653SOL    HW111858   2.111   1.734   0.393
 3653SOL    HW211859   2.122   1.869   0.484
 3654SOL     OW11860   3.835   6.047   0.747
 3654SOL    HW111861   3.782   6.113   0.800
 3654SOL    HW211862   3.899   6.094   0.687
 3655SOL     OW11863   0.844   0.031   4.138
 3655SOL    HW111864   0.827   6.975   4.201
 3655SOL    HW211865   0.778   0.027   4.063
 3656SOL     OW11866   0.552   0.890   0.735
 3656SOL    HW111867   0.649   0.905   0.718
 3656SOL    HW211868   0.505   0.978   0.745
 3657SOL     OW11869   6.240   4.935   6.209
 3657SOL    HW111870   6.248   5.021   6.160
 3657SOL    HW211871   6.297   4.938   6.291
 3658SOL     OW11872   1.692   4.767   5.870
 3658SOL    HW111873   1.595   4.781   5.889
 3658SOL    HW211874   1.743   4.770   5.956
 3659SOL     OW11875   1.152   2.135   6.983
 3659SOL    HW111876   1.054   2.123   6.972
 3659SOL    HW211877   1.173   2.160   0.058
 3660SOL     OW11878   4.388   4.946   4.395
 3660SOL    HW111879   4.307   4.895   4.365
 3660SOL    HW211880   4.469   4.907   4.352
 3661SOL     OW11881   1.182   0.827   5.259
 3661SOL    HW111882   1.264   0.880   5.280
 3661SOL    HW211883   1.208   0.744   5.209
 3662SOL     OW11884   3.799   2.594   5.612
 3662SOL    HW111885   3.863   2.557   5.680
 3662SOL    HW211886   3.847   2.608   5.525
 3663SOL     OW11887   1.453   2.630   5.838
 3663SOL    HW111888   1.369   2.610   5.889
 3663SOL    HW211889   1.512   2.689   5.892
 3664SOL     OW11890   2.099   2.301   0.893
 3664SOL    HW111891   2.009   2.262   0.913
 3664SOL    HW211892   2.148   2.316   0.979
 3665SOL     OW11893   0.085   6.873   4.984
 3665SOL    HW111894   0.059   6.944   5.049
 3665SOL    HW211895   0.167   6.826   5.017
 3666SOL     OW11896   2.148   3.785   4.879
 3666SOL    HW111897   2.125   3.856   4.812
 3666SOL    HW211898   2.228   3.814   4.931
 3667SOL     OW11899   2.422   6.697   1.322
 3667SOL    HW111900   2.391   6.720   1.230
 3667SOL    HW211901   2.374   6.616   1.355
 3668SOL     OW11902   4.714   1.139   0.890
 3668SOL    HW111903   4.808   1.108   0.902
 3668SOL    HW211904   4.667   1.139   0.978
 3669SOL     OW11905   6.827   0.911   2.255
 3669SOL    HW111906   6.867   1.002   2.241
 3669SOL    HW211907   6.879   0.843   2.204
 3670SOL     OW11908   2.195   6.597   2.262
 3670SOL    HW111909   2.124   6.656   2.223
 3670SOL    HW211910   2.153   6.515   2.301
 3671SOL     OW11911   0.642   0.386   5.692
 3671SOL    HW111912   0.606   0.457   5.753
 3671SOL    HW211913   0.569   0.351   5.634
 3672SOL     OW11914   2.790   0.577   3.423
 3672SOL    HW111915   2.827   0.508   3.361
 3672SOL    HW211916   2.711   0.539   3.472
 3673SOL     OW11917   3.554   1.619   1.464
 3673SOL    HW111918   3.496   1.695   1.434
 3673SOL    HW211919   3.498   1.536   1.472
 3674SOL     OW11920   6.645   5.377   6.001
 3674SOL    HW111921   6.568   5.355   6.061
 3674SOL    HW211922   6.614   5.437   5.927
 3675SOL     OW11923   5.942   0.590   5.240
 3675SOL    HW111924   5.928   0.553   5.332
 3675SOL    HW211925   5.988   0.523   5.183
 3676SOL     OW11926   2.013   0.807   6.126
 3676SOL    HW111927   2.079   0.744   6.167
 3676SOL    HW211928   2.054   0.849   6.044
 3677SOL     OW11929   1.404   0.775   4.823
 3677SOL    HW111930   1.437   0.688   4.859
 3677SOL    HW211931   1.441   0.788   4.731
 3678SOL     OW11932   2.490   0.946   3.505
 3678SOL    HW111933   2.579   0.901   3.492
 3678SOL    HW211934   2.457   0.927   3.598
 3679SOL     OW11935   3.192   1.138   1.949
 3679SOL    HW111936   3.137   1.204   1.899
 3679SOL    HW211937   3.213   1.060   1.890
 3680SOL     OW11938   4.314   1.697   3.933
 3680SOL    HW111939   4.227   1.745   3.928
 3680SOL    HW211940   4.386   1.754   3.893
 3681SOL     OW11941   1.081   5.384   3.332
 3681SOL    HW111942   1.140   5.445   3.280
 3681SOL    HW211943   1.103   5.289   3.310
 3682SOL     OW11944   5.158   1.438   1.922
 3682SOL    HW111945   5.146   1.340   1.936
 3682SOL    HW211946   5.244   1.468   1.963
 3683SOL     OW11947   6.524   2.141   1.067
 3683SOL    HW111948   6.620   2.139   1.094
 3683SOL    HW211949   6.473   2.199   1.130
 3684SOL     OW11950   2.676   5.845   5.915
 3684SOL    HW111951   2.766   5.888   5.913
 3684SOL    HW211952   2.607   5.913   5.937
 3685SOL     OW11953   1.487   6.488   2.900
 3685SOL    HW111954   1.429   6.496   2.819
 3685SOL    HW211955   1.453   6.550   2.971
 3686SOL     OW11956   1.276   5.289   0.922
 3686SOL    HW111957   1.312   5.239   1.002
 3686SOL    HW211958   1.195   5.242   0.887
 3687SOL     OW11959   0.366   4.522   4.363
 3687SOL    HW111960   0.387   4.430   4.395
 3687SOL    HW211961   0.328   4.517   4.271
 3688SOL     OW11962   0.023   3.056   1.630
 3688SOL    HW111963   0.049   3.120   1.558
 3688SOL    HW211964   0.103   3.005   1.661
 3689SOL     OW11965   2.535   2.507   5.519
 3689SOL    HW111966   2.502   2.501   5.425
 3689SOL    HW211967   2.632   2.483   5.521
 3690SOL     OW11968   0.158   5.503   2.254
 3690SOL    HW111969   0.198   5.510   2.345
 3690SOL    HW211970   0.230   5.509   2.185
 3691SOL     OW11971   2.345   1.864   7.018
 3691SOL    HW111972   2.433   1.818   7.010
 3691SOL    HW211973   2.344   1.919   0.082
 3692SOL     OW11974   0.683   2.928   5.653
 3692SOL    HW111975   0.595   2.902   5.613
 3692SOL    HW211976   0.692   3.028   5.652
 3693SOL     OW11977   0.088   1.899   2.933
 3693SOL    HW111978   0.009   1.905   2.995
 3693SOL    HW211979   0.159   1.962   2.964
 3694SOL     OW11980   6.788   6.514   1.859
 3694SOL    HW111981   6.787   6.531   1.957
 3694SOL    HW211982   6.699   6.478   1.830
 3695SOL     OW11983   6.049   3.693   4.791
 3695SOL    HW111984   5.983   3.693   4.866
 3695SOL    HW211985   6.064   3.787   4.760
 3696SOL     OW11986   4.042   0.272   4.138
 3696SOL    HW111987   4.114   0.215   4.098
 3696SOL    HW211988   3.953   0.228   4.125
 3697SOL     OW11989   6.654   4.781   2.707
 3697SOL    HW111990   6.697   4.737   2.628
 3697SOL    HW211991   6.716   4.850   2.744
 3698SOL     OW11992   1.086   0.405   3.736
 3698SOL    HW111993   1.003   0.359   3.703
 3698SOL    HW211994   1.112   0.366   3.825
 3699SOL     OW11995   3.183   1.940   3.407
 3699SOL    HW111996   3.103   1.970   3.355
 3699SOL    HW211997   3.261   1.999   3.384
 3700SOL     OW11998   0.819   5.200   4.857
 3700SOL    HW111999   0.767   5.239   4.780
 3700SOL    HW212000   0.768   5.125   4.897
 3701SOL     OW12001   6.482   0.677   2.360
 3701SOL    HW112002   6.491   0.658   2.458
 3701SOL    HW212003   6.482   0.591   2.309
 3702SOL     OW12004   6.694   4.674   3.739
 3702SOL    HW112005   6.694   4.766   3.699
 3702SOL    HW212006   6.665   4.608   3.670
 3703SOL     OW12007   0.778   2.136   3.448
 3703SOL    HW112008   0.808   2.054   3.497
 3703SOL    HW212009   0.857   2.183   3.410
 3704SOL     OW12010   6.512   6.671   1.047
 3704SOL    HW112011   6.444   6.601   1.070
 3704SOL    HW212012   6.588   6.667   1.111
 3705SOL     OW12013   6.399   4.048   3.710
 3705SOL    HW112014   6.356   4.070   3.798
 3705SOL    HW212015   6.464   3.974   3.722
 3706SOL     OW12016   0.465   5.890   6.725
 3706SOL    HW112017   0.426   5.806   6.764
 3706SOL    HW212018   0.499   5.948   6.798
 3707SOL     OW12019   6.759   4.315   3.310
 3707SOL    HW112020   6.777   4.291   3.406
 3707SOL    HW212021   6.660   4.319   3.295
 3708SOL     OW12022   1.054   5.757   0.074
 3708SOL    HW112023   1.071   5.818   0.152
 3708SOL    HW212024   1.048   5.663   0.107
 3709SOL     OW12025   0.431   1.694   1.098
 3709SOL    HW112026   0.455   1.600   1.125
 3709SOL    HW212027   0.354   1.692   1.034
 3710SOL     OW12028   2.152   3.614   5.374
 3710SOL    HW112029   2.144   3.599   5.472
 3710SOL    HW212030   2.068   3.654   5.339
 3711SOL     OW12031   1.581   4.707   5.573
 3711SOL    HW112032   1.641   4.785   5.590
 3711SOL    HW212033   1.637   4.627   5.550
 3712SOL     OW12034   3.281   4.931   3.722
 3712SOL    HW112035   3.247   4.875   3.797
 3712SOL    HW212036   3.204   4.967   3.669
 3713SOL     OW12037   6.421   0.333   6.128
 3713SOL    HW112038   6.464   0.371   6.046
 3713SOL    HW212039   6.350   0.395   6.160
 3714SOL     OW12040   0.519   5.593   0.403
 3714SOL    HW112041   0.618   5.582   0.412
 3714SOL    HW212042   0.482   5.516   0.350
 3715SOL     OW12043   5.725   4.242   2.211
 3715SOL    HW112044   5.751   4.327   2.255
 3715SOL    HW212045   5.780   4.229   2.128
 3716SOL     OW12046   5.206   5.127   5.451
 3716SOL    HW112047   5.188   5.101   5.545
 3716SOL    HW212048   5.210   5.227   5.444
 3717SOL     OW12049   4.806   6.945   1.000
 3717SOL    HW112050   4.740   6.927   1.073
 3717SOL    HW212051   4.898   6.940   1.037
 3718SOL     OW12052   5.233   6.065   6.690
 3718SOL    HW112053   5.317   6.071   6.635
 3718SOL    HW212054   5.162   6.019   6.636
 3719SOL     OW12055   2.810   3.984   0.272
 3719SOL    HW112056   2.787   3.931   0.354
 3719SOL    HW212057   2.901   3.957   0.239
 3720SOL     OW12058   0.793   2.168   0.461
 3720SOL    HW112059   0.700   2.131   0.451
 3720SOL    HW212060   0.859   2.093   0.460
 3721SOL     OW12061   6.735   0.397   5.820
 3721SOL    HW112062   6.689   0.308   5.818
 3721SOL    HW212063   6.798   0.404   5.743
 3722SOL     OW12064   5.605   6.662   1.515
 3722SOL    HW112065   5.527   6.725   1.517
 3722SOL    HW212066   5.665   6.681   1.592
 3723SOL     OW12067   4.363   4.247   6.255
 3723SOL    HW112068   4.398   4.185   6.325
 3723SOL    HW212069   4.383   4.211   6.165
 3724SOL     OW12070   6.155   4.036   5.368
 3724SOL    HW112071   6.162   4.075   5.276
 3724SOL    HW212072   6.178   4.106   5.435
 3725SOL     OW12073   7.006   6.315   0.948
 3725SOL    HW112074   0.071   6.334   0.897
 3725SOL    HW212075   6.945   6.261   0.891
 3726SOL     OW12076   6.050   3.510   5.521
 3726SOL    HW112077   6.015   3.603   5.536
 3726SOL    HW212078   6.071   3.498   5.424
 3727SOL     OW12079   6.461   2.004   4.233
 3727SOL    HW112080   6.555   1.970   4.225
 3727SOL    HW212081   6.437   2.013   4.329
 3728SOL     OW12082   2.011   4.759   0.641
 3728SOL    HW112083   2.036   4.813   0.721
 3728SOL    HW212084   2.033   4.663   0.657
 3729SOL     OW12085   0.269   6.975   6.382
 3729SOL    HW112086   0.212   6.950   6.303
 3729SOL    HW212087   0.288   6.894   6.437
 3730SOL     OW12088   5.812   4.443   4.730
 3730SOL    HW112089   5.869   4.412   4.806
 3730SOL    HW212090   5.868   4.451   4.648
 3731SOL     OW12091   6.589   1.145   1.704
 3731SOL    HW112092   6.619   1.084   1.631
 3731SOL    HW212093   6.492   1.128   1.724
 3732SOL     OW12094   4.509   2.762   6.880
 3732SOL    HW112095   4.467   2.821   6.949
 3732SOL    HW212096   4.540   2.677   6.924
 3733SOL     OW12097   1.794   1.303   3.259
 3733SOL    HW112098   1.752   1.337   3.343
 3733SOL    HW212099   1.761   1.211   3.239
 3734SOL     OW12100   4.201   0.864   1.952
 3734SOL    HW112101   4.226   0.922   2.030
 3734SOL    HW212102   4.121   0.901   1.906
 3735SOL     OW12103   3.802   0.793   2.586
 3735SOL    HW112104   3.834   0.874   2.635
 3735SOL    HW212105   3.851   0.713   2.620
 3736SOL     OW12106   0.875   1.040   6.988
 3736SOL    HW112107   0.821   1.001   6.914
 3736SOL    HW212108   0.925   1.120   6.955
 3737SOL     OW12109   5.035   1.702   4.567
 3737SOL    HW112110   5.094   1.654   4.502
 3737SOL    HW212111   4.958   1.743   4.519
 3738SOL     OW12112   0.857   0.858   0.359
 3738SOL    HW112113   0.914   0.911   0.296
 3738SOL    HW212114   0.911   0.786   0.401
 3739SOL     OW12115   3.419   4.876   6.389
 3739SOL    HW112116   3.495   4.814   6.371
 3739SOL    HW212117   3.337   4.824   6.408
 3740SOL     OW12118   6.697   6.721   6.825
 3740SOL    HW112119   6.796   6.715   6.829
 3740SOL    HW212120   6.665   6.791   6.891
 3741SOL     OW12121   6.110   4.862   6.797
 3741SOL    HW112122   6.144   4.945   6.842
 3741SOL    HW212123   6.038   4.886   6.732
 3742SOL     OW12124   4.799   5.083   1.530
 3742SOL    HW112125   4.851   5.157   1.488
 3742SOL    HW212126   4.701   5.105   1.530
 3743SOL     OW12127   2.246   4.048   1.390
 3743SOL    HW112128   2.249   3.972   1.326
 3743SOL    HW212129   2.310   4.119   1.361
 3744SOL     OW12130   6.207   5.909   2.120
 3744SOL    HW112131   6.264   5.989   2.139
 3744SOL    HW212132   6.189   5.859   2.205
 3745SOL     OW12133   6.266   0.865   2.606
 3745SOL    HW112134   6.350   0.913   2.630
 3745SOL    HW212135   6.212   0.851   2.689
 3746SOL     OW12136   5.511   7.000   5.315
 3746SOL    HW112137   5.470   0.032   5.240
 3746SOL    HW212138   5.610   7.003   5.308
 3747SOL     OW12139   1.870   5.085   5.478
 3747SOL    HW112140   1.880   5.025   5.557
 3747SOL    HW212141   1.839   5.030   5.399
 3748SOL     OW12142   5.046   1.942   3.228
 3748SOL    HW112143   5.102   1.971   3.306
 3748SOL    HW212144   5.031   1.844   3.233
 3749SOL     OW12145   5.618   5.365   1.115
 3749SOL    HW112146   5.627   5.460   1.087
 3749SOL    HW212147   5.631   5.305   1.036
 3750SOL     OW12148   0.163   4.584   1.368
 3750SOL    HW112149   0.257   4.561   1.341
 3750SOL    HW212150   0.138   4.672   1.327
 3751SOL     OW12151   1.874   5.158   0.739
 3751SOL    HW112152   1.825   5.165   0.652
 3751SOL    HW212153   1.904   5.249   0.767
 3752SOL     OW12154   1.369   0.146   6.077
 3752SOL    HW112155   1.434   0.082   6.118
 3752SOL    HW212156   1.408   0.239   6.078
 3753SOL     OW12157   0.709   1.432   5.940
 3753SOL    HW112158   0.626   1.379   5.955
 3753SOL    HW212159   0.741   1.470   6.027
 3754SOL     OW12160   6.697   6.676   1.221
 3754SOL    HW112161   6.788   6.636   1.233
 3754SOL    HW212162   6.648   6.673   1.308
 3755SOL     OW12163   4.469   2.486   3.058
 3755SOL    HW112164   4.476   2.495   2.958
 3755SOL    HW212165   4.561   2.478   3.097
 3756SOL     OW12166   3.326   0.110   0.276
 3756SOL    HW112167   3.228   0.125   0.287
 3756SOL    HW212168   3.341   0.027   0.222
 3757SOL     OW12169   2.921   4.062   5.238
 3757SOL    HW112170   2.961   4.046   5.148
 3757SOL    HW212171   2.825   4.035   5.237
 3758SOL     OW12172   0.519   0.547   1.963
 3758SOL    HW112173   0.480   0.525   2.052
 3758SOL    HW212174   0.489   0.639   1.936
 3759SOL     OW12175   5.672   4.312   0.462
 3759SOL    HW112176   5.591   4.284   0.410
 3759SOL    HW212177   5.647   4.327   0.557
 3760SOL     OW12178   1.734   1.680   5.667
 3760SOL    HW112179   1.765   1.614   5.599
 3760SOL    HW212180   1.737   1.772   5.628
 3761SOL     OW12181   0.311   6.397   4.307
 3761SOL    HW112182   0.223   6.423   4.266
 3761SOL    HW212183   0.299   6.319   4.367
 3762SOL     OW12184   0.188   3.420   1.383
 3762SOL    HW112185   0.241   3.498   1.349
 3762SOL    HW212186   0.102   3.414   1.333
 3763SOL     OW12187   0.437   2.447   4.745
 3763SOL    HW112188   0.515   2.499   4.711
 3763SOL    HW212189   0.460   2.405   4.833
 3764SOL     OW12190   2.118   0.673   3.048
 3764SOL    HW112191   2.189   0.717   2.993
 3764SOL    HW212192   2.141   0.577   3.064
 3765SOL     OW12193   6.175   1.276   3.924
 3765SOL    HW112194   6.224   1.363   3.919
 3765SOL    HW212195   6.097   1.285   3.986
 3766SOL     OW12196   2.143   1.287   4.462
 3766SOL    HW112197   2.131   1.289   4.362
 3766SOL    HW212198   2.222   1.342   4.487
 3767SOL     OW12199   6.550   4.586   1.582
 3767SOL    HW112200   6.647   4.603   1.603
 3767SOL    HW212201   6.503   4.557   1.666
 3768SOL     OW12202   5.064   6.762   1.430
 3768SOL    HW112203   4.975   6.716   1.433
 3768SOL    HW212204   5.130   6.712   1.486
 3769SOL     OW12205   4.133   6.641   4.724
 3769SOL    HW112206   4.089   6.730   4.735
 3769SOL    HW212207   4.208   6.649   4.658
 3770SOL     OW12208   1.648   3.213   0.203
 3770SOL    HW112209   1.653   3.221   0.302
 3770SOL    HW212210   1.614   3.122   0.179
 3771SOL     OW12211   4.771   1.295   5.289
 3771SOL    HW112212   4.674   1.316   5.276
 3771SOL    HW212213   4.783   1.245   5.375
 3772SOL     OW12214   5.119   0.253   2.897
 3772SOL    HW112215   5.171   0.338   2.884
 3772SOL    HW212216   5.053   0.266   2.970
 3773SOL     OW12217   6.077   2.400   1.183
 3773SOL    HW112218   6.023   2.484   1.185
 3773SOL    HW212219   6.019   2.323   1.158
 3774SOL     OW12220   2.009   1.237   1.675
 3774SOL    HW112221   2.053   1.316   1.718
 3774SOL    HW212222   2.079   1.175   1.641
 3775SOL     OW12223   5.669   2.677   3.680
 3775SOL    HW112224   5.572   2.674   3.657
 3775SOL    HW212225   5.699   2.772   3.686
 3776SOL     OW12226   2.767   2.148   6.833
 3776SOL    HW112227   2.839   2.217   6.831
 3776SOL    HW212228   2.733   2.133   6.740
 3777SOL     OW12229   1.268   4.016   3.387
 3777SOL    HW112230   1.365   4.026   3.408
 3777SOL    HW212231   1.258   3.987   3.291
 3778SOL     OW12232   2.005   0.497   1.856
 3778SOL    HW112233   1.935   0.470   1.923
 3778SOL    HW212234   2.072   0.557   1.900
 3779SOL     OW12235   1.640   4.289   0.257
 3779SOL    HW112236   1.716   4.350   0.279
 3779SOL    HW212237   1.644   4.263   0.161
 3780SOL     OW12238   1.854   0.452   3.938
 3780SOL    HW112239   1.911   0.517   3.989
 3780SOL    HW212240   1.836   0.372   3.994
 3781SOL     OW12241   3.045   4.860   4.515
 3781SOL    HW112242   3.086   4.930   4.574
 3781SOL    HW212243   2.976   4.809   4.566
 3782SOL     OW12244   2.780   1.025   2.318
 3782SOL    HW112245   2.828   0.947   2.357
 3782SOL    HW212246   2.737   1.078   2.391
 3783SOL     OW12247   5.216   4.381   4.844
 3783SOL    HW112248   5.231   4.294   4.892
 3783SOL    HW212249   5.277   4.387   4.766
 3784SOL     OW12250   4.843   2.825   4.598
 3784SOL    HW112251   4.825   2.883   4.519
 3784SOL    HW212252   4.782   2.745   4.596
 3785SOL     OW12253   0.209   0.098   2.103
 3785SOL    HW112254   0.214   0.155   2.185
 3785SOL    HW212255   0.242   0.006   2.125
 3786SOL     OW12256   2.754   6.490   1.381
 3786SOL    HW112257   2.840   6.447   1.351
 3786SOL    HW212258   2.693   6.500   1.303
 3787SOL     OW12259   4.136   1.179   3.305
 3787SOL    HW112260   4.049   1.228   3.315
 3787SOL    HW212261   4.211   1.244   3.295
 3788SOL     OW12262   0.184   2.949   2.714
 3788SOL    HW112263   0.236   2.897   2.646
 3788SOL    HW212264   0.215   2.924   2.806
 3789SOL     OW12265   1.973   5.307   2.165
 3789SOL    HW112266   2.072   5.301   2.173
 3789SOL    HW212267   1.943   5.401   2.182
 3790SOL     OW12268   1.935   3.579   2.788
 3790SOL    HW112269   1.857   3.630   2.827
 3790SOL    HW212270   2.016   3.637   2.790
 3791SOL     OW12271   6.737   0.817   2.879
 3791SOL    HW112272   6.658   0.869   2.912
 3791SOL    HW212273   6.705   0.743   2.820
 3792SOL     OW12274   1.538   5.276   6.038
 3792SOL    HW112275   1.590   5.236   5.963
 3792SOL    HW212276   1.492   5.359   6.006
 3793SOL     OW12277   7.014   6.256   2.384
 3793SOL    HW112278   0.035   6.169   2.357
 3793SOL    HW212279   6.971   6.299   2.305
 3794SOL     OW12280   4.460   0.279   4.412
 3794SOL    HW112281   4.436   0.346   4.483
 3794SOL    HW212282   4.556   0.254   4.421
 3795SOL     OW12283   5.683   0.299   0.681
 3795SOL    HW112284   5.728   0.362   0.618
 3795SOL    HW212285   5.587   0.327   0.693
 3796SOL     OW12286   7.001   2.630   1.583
 3796SOL    HW112287   0.055   2.670   1.528
 3796SOL    HW212288   7.018   2.648   1.680
 3797SOL     OW12289   6.383   6.106   2.179
 3797SOL    HW112290   6.329   6.189   2.190
 3797SOL    HW212291   6.476   6.122   2.209
 3798SOL     OW12292   1.269   4.398   0.141
 3798SOL    HW112293   1.284   4.488   0.182
 3798SOL    HW212294   1.314   4.393   0.052
 3799SOL     OW12295   0.669   0.743   5.521
 3799SOL    HW112296   0.754   0.692   5.535
 3799SOL    HW212297   0.591   0.680   5.525
 3800SOL     OW12298   4.820   2.520   4.620
 3800SOL    HW112299   4.864   2.441   4.663
 3800SOL    HW212300   4.855   2.530   4.526
 3801SOL     OW12301   6.847   0.554   6.019
 3801SOL    HW112302   6.798   0.522   5.938
 3801SOL    HW212303   6.841   0.484   6.091
 3802SOL     OW12304   1.681   2.444   5.103
 3802SOL    HW112305   1.609   2.452   5.171
 3802SOL    HW212306   1.672   2.517   5.036
 3803SOL     OW12307   4.748   0.989   1.381
 3803SOL    HW112308   4.722   1.086   1.377
 3803SOL    HW212309   4.834   0.980   1.431
 3804SOL     OW12310   5.219   3.766   4.926
 3804SOL    HW112311   5.235   3.695   4.994
 3804SOL    HW212312   5.138   3.819   4.950
 3805SOL     OW12313   1.912   3.880   1.380
 3805SOL    HW112314   1.926   3.975   1.407
 3805SOL    HW212315   1.991   3.825   1.408
 3806SOL     OW12316   3.607   0.748   0.179
 3806SOL    HW112317   3.571   0.805   0.105
 3806SOL    HW212318   3.705   0.767   0.191
 3807SOL     OW12319   1.719   6.223   2.588
 3807SOL    HW112320   1.802   6.192   2.542
 3807SOL    HW212321   1.639   6.187   2.541
 3808SOL     OW12322   4.023   1.188   0.787
 3808SOL    HW112323   4.063   1.096   0.790
 3808SOL    HW212324   4.065   1.240   0.713
 3809SOL     OW12325   4.113   1.357   0.516
 3809SOL    HW112326   4.023   1.339   0.475
 3809SOL    HW212327   4.184   1.314   0.461
 3810SOL     OW12328   1.662   3.589   6.992
 3810SOL    HW112329   1.613   3.676   6.982
 3810SOL    HW212330   1.597   3.515   7.007
 3811SOL     OW12331   0.313   0.657   5.679
 3811SOL    HW112332   0.229   0.670   5.732
 3811SOL    HW212333   0.294   0.672   5.582
 3812SOL     OW12334   4.375   0.459   5.999
 3812SOL    HW112335   4.454   0.503   6.043
 3812SOL    HW212336   4.359   0.502   5.910
 3813SOL     OW12337   3.886   4.929   1.859
 3813SOL    HW112338   3.914   4.860   1.792
 3813SOL    HW212339   3.798   4.902   1.899
 3814SOL     OW12340   2.238   0.061   1.901
 3814SOL    HW112341   2.304   0.104   1.840
 3814SOL    HW212342   2.145   0.082   1.871
 3815SOL     OW12343   5.009   2.278   2.156
 3815SOL    HW112344   5.070   2.306   2.082
 3815SOL    HW212345   5.024   2.181   2.177
 3816SOL     OW12346   0.446   6.474   0.347
 3816SOL    HW112347   0.480   6.398   0.400
 3816SOL    HW212348   0.518   6.543   0.335
 3817SOL     OW12349   5.577   1.969   5.395
 3817SOL    HW112350   5.546   1.962   5.301
 3817SOL    HW212351   5.625   2.056   5.408
 3818SOL     OW12352   3.366   6.646   3.270
 3818SOL    HW112353   3.289   6.710   3.268
 3818SOL    HW212354   3.337   6.559   3.230
 3819SOL     OW12355   5.537   3.362   6.080
 3819SOL    HW112356   5.622   3.321   6.047
 3819SOL    HW212357   5.499   3.305   6.153
 3820SOL     OW12358   3.815   6.164   3.145
 3820SOL    HW112359   3.856   6.208   3.224
 3820SOL    HW212360   3.877   6.094   3.109
 3821SOL     OW12361   0.537   4.556   1.680
 3821SOL    HW112362   0.517   4.466   1.718
 3821SOL    HW212363   0.490   4.626   1.734
 3822SOL     OW12364   0.939   3.748   1.548
 3822SOL    HW112365   0.961   3.656   1.517
 3822SOL    HW212366   0.909   3.746   1.643
 3823SOL     OW12367   2.648   3.392   5.303
 3823SOL    HW112368   2.654   3.486   5.334
 3823SOL    HW212369   2.732   3.367   5.253
 3824SOL     OW12370   0.565   2.634   6.275
 3824SOL    HW112371   0.626   2.675   6.207
 3824SOL    HW212372   0.472   2.634   6.241
 3825SOL     OW12373   0.819   6.269   6.401
 3825SOL    HW112374   0.793   6.209   6.476
 3825SOL    HW212375   0.785   6.361   6.417
 3826SOL     OW12376   0.046   1.471   1.377
 3826SOL    HW112377   0.014   1.393   1.324
 3826SOL    HW212378   0.002   1.470   1.467
 3827SOL     OW12379   4.833   1.706   2.493
 3827SOL    HW112380   4.795   1.670   2.578
 3827SOL    HW212381   4.823   1.806   2.492
 3828SOL     OW12382   3.668   1.134   1.305
 3828SOL    HW112383   3.720   1.194   1.244
 3828SOL    HW212384   3.606   1.077   1.251
 3829SOL     OW12385   1.247   5.225   3.647
 3829SOL    HW112386   1.293   5.177   3.572
 3829SOL    HW212387   1.168   5.274   3.611
 3830SOL     OW12388   1.739   0.263   5.416
 3830SOL    HW112389   1.795   0.210   5.352
 3830SOL    HW212390   1.733   0.358   5.383
 3831SOL     OW12391   4.594   1.937   2.274
 3831SOL    HW112392   4.611   2.021   2.224
 3831SOL    HW212393   4.635   1.944   2.366
 3832SOL     OW12394   6.119   7.007   2.501
 3832SOL    HW112395   6.135   0.018   2.408
 3832SOL    HW212396   6.109   0.067   2.561
 3833SOL     OW12397   1.416   6.375   2.246
 3833SOL    HW112398   1.431   6.385   2.344
 3833SOL    HW212399   1.341   6.310   2.231
 3834SOL     OW12400   3.363   2.598   0.594
 3834SOL    HW112401   3.303   2.550   0.659
 3834SOL    HW212402   3.457   2.566   0.606
 3835SOL     OW12403   3.120   4.903   3.042
 3835SOL    HW112404   3.055   4.932   2.972
 3835SOL    HW212405   3.082   4.825   3.093
 3836SOL     OW12406   1.660   2.792   6.327
 3836SOL    HW112407   1.741   2.785   6.385
 3836SOL    HW212408   1.638   2.889   6.314
 3837SOL     OW12409   3.508   4.585   6.253
 3837SOL    HW112410   3.490   4.513   6.186
 3837SOL    HW212411   3.597   4.568   6.296
 3838SOL     OW12412   0.042   3.342   4.772
 3838SOL    HW112413   0.111   3.334   4.844
 3838SOL    HW212414   0.065   3.280   4.697
 3839SOL     OW12415   0.653   6.167   0.106
 3839SOL    HW112416   0.645   6.263   0.082
 3839SOL    HW212417   0.570   6.137   0.152
 3840SOL     OW12418   3.438   2.117   3.162
 3840SOL    HW112419   3.511   2.136   3.096
 3840SOL    HW212420   3.350   2.141   3.122
 3841SOL     OW12421   1.367   3.361   3.759
 3841SOL    HW112422   1.269   3.380   3.765
 3841SOL    HW212423   1.417   3.446   3.748
 3842SOL     OW12424   0.813   5.027   6.819
 3842SOL    HW112425   0.753   5.103   6.794
 3842SOL    HW212426   0.768   4.941   6.798
 3843SOL     OW12427   6.619   5.051   6.576
 3843SOL    HW112428   6.649   5.121   6.511
 3843SOL    HW212429   6.595   5.095   6.663
 3844SOL     OW12430   3.138   4.280   5.571
 3844SOL    HW112431   3.114   4.294   5.475
 3844SOL    HW212432   3.085   4.203   5.607
 3845SOL     OW12433   3.172   3.502   4.555
 3845SOL    HW112434   3.147   3.437   4.483
 3845SOL    HW212435   3.105   3.575   4.559
 3846SOL     OW12436   6.812   4.343   4.925
 3846SOL    HW112437   6.784   4.365   5.018
 3846SOL    HW212438   6.770   4.409   4.861
 3847SOL     OW12439   1.136   6.669   1.227
 3847SOL    HW112440   1.040   6.697   1.229
 3847SOL    HW212441   1.194   6.748   1.249
 3848SOL     OW12442   2.736   6.300   2.486
 3848SOL    HW112443   2.731   6.378   2.548
 3848SOL    HW212444   2.652   6.295   2.431
 3849SOL     OW12445   2.377   1.531   4.834
 3849SOL    HW112446   2.347   1.571   4.921
 3849SOL    HW212447   2.441   1.593   4.789
 3850SOL     OW12448   1.630   3.389   1.704
 3850SOL    HW112449   1.666   3.336   1.781
 3850SOL    HW212450   1.638   3.335   1.620
 3851SOL     OW12451   2.808   2.786   0.398
 3851SOL    HW112452   2.824   2.885   0.404
 3851SOL    HW212453   2.724   2.763   0.447
 3852SOL     OW12454   4.204   0.791   5.356
 3852SOL    HW112455   4.146   0.870   5.375
 3852SOL    HW212456   4.295   0.822   5.329
 3853SOL     OW12457   0.493   3.295   2.108
 3853SOL    HW112458   0.584   3.280   2.146
 3853SOL    HW212459   0.426   3.299   2.182
 3854SOL     OW12460   1.312   4.077   4.282
 3854SOL    HW112461   1.225   4.082   4.330
 3854SOL    HW212462   1.353   4.169   4.277
 3855SOL     OW12463   0.156   1.865   4.863
 3855SOL    HW112464   0.191   1.950   4.823
 3855SOL    HW212465   0.188   1.787   4.809
 3856SOL     OW12466   0.873   6.402   5.988
 3856SOL    HW112467   0.970   6.408   6.011
 3856SOL    HW212468   0.820   6.454   6.055
 3857SOL     OW12469   0.105   0.440   6.945
 3857SOL    HW112470   0.051   0.356   6.957
 3857SOL    HW212471   0.165   0.452   0.005
 3858SOL     OW12472   4.281   5.028   6.548
 3858SOL    HW112473   4.314   5.062   6.635
 3858SOL    HW212474   4.358   5.002   6.490
 3859SOL     OW12475   6.662   2.487   2.504
 3859SOL    HW112476   6.734   2.555   2.491
 3859SOL    HW212477   6.667   2.418   2.433
 3860SOL     OW12478   2.162   6.091   5.053
 3860SOL    HW112479   2.104   6.121   5.128
 3860SOL    HW212480   2.212   6.009   5.080
 3861SOL     OW12481   3.247   3.881   0.398
 3861SOL    HW112482   3.260   3.908   0.493
 3861SOL    HW212483   3.306   3.936   0.339
 3862SOL     OW12484   0.515   6.269   5.447
 3862SOL    HW112485   0.528   6.294   5.544
 3862SOL    HW212486   0.493   6.172   5.441
 3863SOL     OW12487   2.441   3.317   0.352
 3863SOL    HW112488   2.490   3.229   0.358
 3863SOL    HW212489   2.507   3.392   0.350
 3864SOL     OW12490   3.316   1.863   1.665
 3864SOL    HW112491   3.319   1.879   1.763
 3864SOL    HW212492   3.351   1.943   1.617
 3865SOL     OW12493   4.260   0.762   2.194
 3865SOL    HW112494   4.234   0.759   2.097
 3865SOL    HW212495   4.336   0.699   2.209
 3866SOL     OW12496   4.475   6.051   6.510
 3866SOL    HW112497   4.406   6.114   6.474
 3866SOL    HW212498   4.453   5.958   6.483
 3867SOL     OW12499   2.036   4.940   2.879
 3867SOL    HW112500   1.951   4.973   2.837
 3867SOL    HW212501   2.114   4.983   2.834
 3868SOL     OW12502   2.335   5.029   3.083
 3868SOL    HW112503   2.271   5.000   3.154
 3868SOL    HW212504   2.285   5.054   3.000
 3869SOL     OW12505   1.135   1.301   3.479
 3869SOL    HW112506   1.079   1.256   3.409
 3869SOL    HW212507   1.095   1.286   3.569
 3870SOL     OW12508   3.889   3.781   0.155
 3870SOL    HW112509   3.968   3.841   0.141
 3870SOL    HW212510   3.915   3.687   0.129
 3871SOL     OW12511   2.913   0.943   4.512
 3871SOL    HW112512   2.937   0.966   4.417
 3871SOL    HW212513   2.975   0.990   4.574
 3872SOL     OW12514   5.069   4.025   0.376
 3872SOL    HW112515   5.043   3.971   0.295
 3872SOL    HW212516   5.009   4.001   0.452
 3873SOL     OW12517   6.296   4.973   1.851
 3873SOL    HW112518   6.313   5.055   1.905
 3873SOL    HW212519   6.197   4.962   1.838
 3874SOL     OW12520   5.515   6.466   5.663
 3874SOL    HW112521   5.437   6.527   5.674
 3874SOL    HW212522   5.591   6.498   5.720
 3875SOL     OW12523   3.156   3.283   0.441
 3875SOL    HW112524   3.234   3.337   0.474
 3875SOL    HW212525   3.160   3.276   0.342
 3876SOL     OW12526   5.321   3.830   2.753
 3876SOL    HW112527   5.229   3.792   2.746
 3876SOL    HW212528   5.319   3.927   2.730
 3877SOL     OW12529   4.411   1.688   1.817
 3877SOL    HW112530   4.481   1.703   1.887
 3877SOL    HW212531   4.402   1.590   1.799
 3878SOL     OW12532   6.280   5.686   5.275
 3878SOL    HW112533   6.195   5.683   5.329
 3878SOL    HW212534   6.257   5.702   5.179
 3879SOL     OW12535   2.315   6.229   0.555
 3879SOL    HW112536   2.371   6.272   0.484
 3879SOL    HW212537   2.325   6.280   0.640
 3880SOL     OW12538   5.706   2.231   4.333
 3880SOL    HW112539   5.754   2.230   4.421
 3880SOL    HW212540   5.771   2.243   4.259
 3881SOL     OW12541   6.948   6.092   5.754
 3881SOL    HW112542   0.022   6.098   5.789
 3881SOL    HW212543   6.947   6.119   5.658
 3882SOL     OW12544   6.981   6.088   0.079
 3882SOL    HW112545   6.994   6.118   0.174
 3882SOL    HW212546   0.043   6.039   0.049
 3883SOL     OW12547   4.122   2.005   0.462
 3883SOL    HW112548   4.089   1.950   0.386
 3883SOL    HW212549   4.061   2.083   0.476
 3884SOL     OW12550   2.923   5.947   5.991
 3884SOL    HW112551   2.883   5.932   6.081
 3884SOL    HW212552   3.022   5.932   5.995
 3885SOL     OW12553   0.777   1.124   3.949
 3885SOL    HW112554   0.872   1.125   3.981
 3885SOL    HW212555   0.740   1.031   3.958
 3886SOL     OW12556   6.970   6.388   4.523
 3886SOL    HW112557   7.000   6.366   4.616
 3886SOL    HW212558   6.891   6.332   4.500
 3887SOL     OW12559   0.259   3.221   5.239
 3887SOL    HW112560   0.351   3.205   5.272
 3887SOL    HW212561   0.208   3.275   5.306
 3888SOL     OW12562   4.669   2.152   3.232
 3888SOL    HW112563   4.721   2.101   3.301
 3888SOL    HW212564   4.681   2.110   3.143
 3889SOL     OW12565   6.421   5.484   0.673
 3889SOL    HW112566   6.344   5.547   0.667
 3889SOL    HW212567   6.391   5.398   0.715
 3890SOL     OW12568   6.097   3.020   3.505
 3890SOL    HW112569   6.051   3.074   3.433
 3890SOL    HW212570   6.028   2.971   3.558
 3891SOL     OW12571   3.991   4.203   6.167
 3891SOL    HW112572   3.989   4.193   6.068
 3891SOL    HW212573   3.953   4.121   6.210
 3892SOL     OW12574   5.064   5.800   4.236
 3892SOL    HW112575   5.075   5.828   4.141
 3892SOL    HW212576   4.967   5.807   4.262
 3893SOL     OW12577   2.600   5.945   4.906
 3893SOL    HW112578   2.531   5.878   4.934
 3893SOL    HW212579   2.691   5.904   4.912
 3894SOL     OW12580   5.369   5.941   5.846
 3894SOL    HW112581   5.363   5.847   5.878
 3894SOL    HW212582   5.454   5.953   5.794
 3895SOL     OW12583   1.188   1.658   5.118
 3895SOL    HW112584   1.233   1.569   5.108
 3895SOL    HW212585   1.254   1.725   5.152
 3896SOL     OW12586   6.464   2.474   0.691
 3896SOL    HW112587   6.505   2.392   0.730
 3896SOL    HW212588   6.428   2.453   0.600
 3897SOL     OW12589   2.485   0.613   3.218
 3897SOL    HW112590   2.582   0.625   3.198
 3897SOL    HW212591   2.442   0.702   3.229
 3898SOL     OW12592   3.402   4.161   2.830
 3898SOL    HW112593   3.493   4.150   2.870
 3898SOL    HW212594   3.332   4.141   2.898
 3899SOL     OW12595   4.762   1.478   6.149
 3899SOL    HW112596   4.726   1.390   6.178
 3899SOL    HW212597   4.779   1.476   6.050
 3900SOL     OW12598   0.988   2.493   4.066
 3900SOL    HW112599   1.015   2.504   4.161
 3900SOL    HW212600   0.921   2.563   4.042
 3901SOL     OW12601   3.921   6.401   4.362
 3901SOL    HW112602   3.834   6.357   4.383
 3901SOL    HW212603   3.975   6.409   4.446
 3902SOL     OW12604   2.916   4.749   3.193
 3902SOL    HW112605   2.848   4.751   3.266
 3902SOL    HW212606   2.888   4.685   3.122
 3903SOL     OW12607   2.497   4.077   5.908
 3903SOL    HW112608   2.488   3.984   5.872
 3903SOL    HW212609   2.461   4.081   6.001
 3904SOL     OW12610   2.862   6.363   0.980
 3904SOL    HW112611   2.765   6.388   0.974
 3904SOL    HW212612   2.900   6.399   1.065
 3905SOL     OW12613   4.158   6.357   5.463
 3905SOL    HW112614   4.232   6.408   5.506
 3905SOL    HW212615   4.175   6.349   5.365
 3906SOL     OW12616   6.662   6.012   4.093
 3906SOL    HW112617   6.617   6.057   4.015
 3906SOL    HW212618   6.622   5.921   4.106
 3907SOL     OW12619   1.654   0.842   4.948
 3907SOL    HW112620   1.636   0.860   5.045
 3907SOL    HW212621   1.568   0.835   4.898
 3908SOL     OW12622   2.233   2.156   4.698
 3908SOL    HW112623   2.165   2.195   4.760
 3908SOL    HW212624   2.263   2.225   4.633
 3909SOL     OW12625   6.429   3.461   2.727
 3909SOL    HW112626   6.477   3.501   2.649
 3909SOL    HW212627   6.440   3.520   2.807
 3910SOL     OW12628   1.723   2.245   0.035
 3910SOL    HW112629   1.688   2.199   0.117
 3910SOL    HW212630   1.723   2.344   0.049
 3911SOL     OW12631   6.438   0.581   2.610
 3911SOL    HW112632   6.352   0.610   2.651
 3911SOL    HW212633   6.442   0.481   2.607
 3912SOL     OW12634   4.851   4.459   1.049
 3912SOL    HW112635   4.773   4.520   1.031
 3912SOL    HW212636   4.856   4.438   1.146
 3913SOL     OW12637   4.132   4.584   0.905
 3913SOL    HW112638   4.193   4.541   0.972
 3913SOL    HW212639   4.186   4.637   0.840
 3914SOL     OW12640   0.383   1.041   0.472
 3914SOL    HW112641   0.342   0.967   0.524
 3914SOL    HW212642   0.365   1.028   0.374
 3915SOL     OW12643   5.162   0.110   4.899
 3915SOL    HW112644   5.249   0.076   4.862
 3915SOL    HW212645   5.160   0.094   4.998
 3916SOL     OW12646   2.070   2.737   2.261
 3916SOL    HW112647   2.098   2.818   2.311
 3916SOL    HW212648   1.998   2.761   2.196
 3917SOL     OW12649   3.491   5.579   1.994
 3917SOL    HW112650   3.445   5.668   1.987
 3917SOL    HW212651   3.485   5.533   1.906
 3918SOL     OW12652   3.923   6.425   0.033
 3918SOL    HW112653   3.991   6.460   0.097
 3918SOL    HW212654   3.966   6.362   6.988
 3919SOL     OW12655   5.110   4.380   3.600
 3919SOL    HW112656   5.060   4.457   3.562
 3919SOL    HW212657   5.206   4.406   3.615
 3920SOL     OW12658   4.218   0.459   5.518
 3920SOL    HW112659   4.121   0.436   5.525
 3920SOL    HW212660   4.240   0.485   5.424
 3921SOL     OW12661   1.252   4.009   5.585
 3921SOL    HW112662   1.155   3.989   5.602
 3921SOL    HW212663   1.268   4.016   5.487
 3922SOL     OW12664   5.386   1.656   3.826
 3922SOL    HW112665   5.327   1.733   3.849
 3922SOL    HW212666   5.352   1.612   3.743
 3923SOL     OW12667   5.709   0.645   1.593
 3923SOL    HW112668   5.697   0.739   1.624
 3923SOL    HW212669   5.697   0.640   1.494
 3924SOL     OW12670   5.785   5.004   3.954
 3924SOL    HW112671   5.795   4.908   3.981
 3924SOL    HW212672   5.693   5.036   3.979
 3925SOL     OW12673   3.600   4.406   1.475
 3925SOL    HW112674   3.550   4.372   1.554
 3925SOL    HW212675   3.688   4.444   1.505
 3926SOL     OW12676   0.658   5.936   5.179
 3926SOL    HW112677   0.596   5.952   5.255
 3926SOL    HW212678   0.730   6.006   5.179
 3927SOL     OW12679   5.941   6.019   5.224
 3927SOL    HW112680   5.857   5.973   5.252
 3927SOL    HW212681   5.956   6.006   5.126
 3928SOL     OW12682   4.452   5.416   2.376
 3928SOL    HW112683   4.511   5.484   2.419
 3928SOL    HW212684   4.395   5.373   2.446
 3929SOL     OW12685   1.924   0.995   5.004
 3929SOL    HW112686   1.869   0.913   4.987
 3929SOL    HW212687   1.971   0.985   5.092
 3930SOL     OW12688   1.921   5.789   4.472
 3930SOL    HW112689   1.870   5.875   4.460
 3930SOL    HW212690   1.980   5.775   4.392
 3931SOL     OW12691   0.367   2.073   0.319
 3931SOL    HW112692   0.319   2.119   0.393
 3931SOL    HW212693   0.339   2.111   0.231
 3932SOL     OW12694   1.729   4.400   2.798
 3932SOL    HW112695   1.674   4.481   2.817
 3932SOL    HW212696   1.700   4.359   2.711
 3933SOL     OW12697   1.347   0.181   1.538
 3933SOL    HW112698   1.288   0.258   1.512
 3933SOL    HW212699   1.296   0.096   1.529
 3934SOL     OW12700   1.253   6.908   2.066
 3934SOL    HW112701   1.344   6.938   2.037
 3934SOL    HW212702   1.193   6.987   2.078
 3935SOL     OW12703   6.878   0.996   4.720
 3935SOL    HW112704   6.860   0.936   4.798
 3935SOL    HW212705   6.817   0.973   4.645
 3936SOL     OW12706   6.240   4.628   3.981
 3936SOL    HW112707   6.165   4.684   4.019
 3936SOL    HW212708   6.327   4.663   4.014
 3937SOL     OW12709   1.711   6.655   0.027
 3937SOL    HW112710   1.727   6.612   0.116
 3937SOL    HW212711   1.797   6.696   7.014
 3938SOL     OW12712   1.113   4.927   6.690
 3938SOL    HW112713   1.050   4.855   6.718
 3938SOL    HW212714   1.061   5.004   6.652
 3939SOL     OW12715   2.189   5.982   4.385
 3939SOL    HW112716   2.167   6.070   4.342
 3939SOL    HW212717   2.146   5.908   4.333
 3940SOL     OW12718   2.313   5.976   6.831
 3940SOL    HW112719   2.400   5.987   6.784
 3940SOL    HW212720   2.245   6.037   6.791
 3941SOL     OW12721   5.600   4.876   2.921
 3941SOL    HW112722   5.534   4.850   2.851
 3941SOL    HW212723   5.583   4.820   3.003
 3942SOL     OW12724   1.038   6.685   0.063
 3942SOL    HW112725   1.079   6.613   0.008
 3942SOL    HW212726   0.965   6.729   0.012
 3943SOL     OW12727   0.457   4.790   0.418
 3943SOL    HW112728   0.393   4.867   0.415
 3943SOL    HW212729   0.516   4.792   0.337
 3944SOL     OW12730   5.334   2.925   0.607
 3944SOL    HW112731   5.338   3.024   0.596
 3944SOL    HW212732   5.307   2.903   0.701
 3945SOL     OW12733   0.344   0.951   2.912
 3945SOL    HW112734   0.301   0.933   3.000
 3945SOL    HW212735   0.313   0.883   2.845
 3946SOL     OW12736   4.972   1.038   0.992
 3946SOL    HW112737   4.919   0.983   1.056
 3946SOL    HW212738   5.068   1.041   1.021
 3947SOL     OW12739   5.293   0.112   0.871
 3947SOL    HW112740   5.260   0.059   0.949
 3947SOL    HW212741   5.219   0.126   0.806
 3948SOL     OW12742   1.854   1.673   4.372
 3948SOL    HW112743   1.780   1.611   4.346
 3948SOL    HW212744   1.840   1.763   4.331
 3949SOL     OW12745   6.165   6.684   2.334
 3949SOL    HW112746   6.088   6.727   2.288
 3949SOL    HW212747   6.156   6.694   2.433
 3950SOL     OW12748   2.494   4.498   1.654
 3950SOL    HW112749   2.462   4.574   1.598
 3950SOL    HW212750   2.438   4.417   1.635
 3951SOL     OW12751   0.053   2.652   2.916
 3951SOL    HW112752   0.139   2.602   2.924
 3951SOL    HW212753   7.013   2.608   2.848
 3952SOL     OW12754   5.844   5.481   6.858
 3952SOL    HW112755   5.824   5.570   6.819
 3952SOL    HW212756   5.902   5.429   6.794
 3953SOL     OW12757   3.328   2.862   4.923
 3953SOL    HW112758   3.270   2.871   5.003
 3953SOL    HW212759   3.307   2.776   4.876
 3954SOL     OW12760   1.161   4.625   6.151
 3954SOL    HW112761   1.258   4.621   6.127
 3954SOL    HW212762   1.128   4.719   6.143
 3955SOL     OW12763   6.132   3.293   0.131
 3955SOL    HW112764   6.186   3.255   0.206
 3955SOL    HW212765   6.106   3.387   0.153
 3956SOL     OW12766   7.005   2.969   4.699
 3956SOL    HW112767   7.008   3.051   4.643
 3956SOL    HW212768   6.960   2.989   4.786
 3957SOL     OW12769   1.848   2.868   1.792
 3957SOL    HW112770   1.813   2.827   1.708
 3957SOL    HW212771   1.934   2.824   1.817
 3958SOL     OW12772   5.120   5.397   0.956
 3958SOL    HW112773   5.198   5.347   0.993
 3958SOL    HW212774   5.038   5.376   1.009
 3959SOL     OW12775   2.810   4.855   0.612
 3959SOL    HW112776   2.856   4.842   0.701
 3959SOL    HW212777   2.879   4.871   0.542
 3960SOL     OW12778   5.830   3.441   1.186
 3960SOL    HW112779   5.754   3.392   1.142
 3960SOL    HW212780   5.901   3.375   1.212
 3961SOL     OW12781   6.918   1.121   1.650
 3961SOL    HW112782   6.878   1.106   1.560
 3961SOL    HW212783   6.846   1.141   1.717
 3962SOL     OW12784   0.468   6.719   6.687
 3962SOL    HW112785   0.526   6.675   6.756
 3962SOL    HW212786   0.524   6.745   6.609
 3963SOL     OW12787   6.275   2.782   4.748
 3963SOL    HW112788   6.217   2.767   4.669
 3963SOL    HW212789   6.218   2.805   4.827
 3964SOL     OW12790   5.910   5.167   6.498
 3964SOL    HW112791   5.936   5.167   6.401
 3964SOL    HW212792   5.904   5.073   6.531
 3965SOL     OW12793   2.614   5.320   1.430
 3965SOL    HW112794   2.549   5.304   1.356
 3965SOL    HW212795   2.607   5.415   1.461
 3966SOL     OW12796   6.953   4.212   5.822
 3966SOL    HW112797   6.912   4.200   5.731
 3966SOL    HW212798   6.881   4.239   5.887
 3967SOL     OW12799   2.615   0.466   0.713
 3967SOL    HW112800   2.560   0.427   0.639
 3967SOL    HW212801   2.603   0.565   0.716
 3968SOL     OW12802   4.713   2.736   0.926
 3968SOL    HW112803   4.751   2.650   0.960
 3968SOL    HW212804   4.714   2.736   0.826
 3969SOL     OW12805   6.181   6.455   1.331
 3969SOL    HW112806   6.159   6.552   1.320
 3969SOL    HW212807   6.269   6.436   1.288
 3970SOL     OW12808   5.980   4.156   3.645
 3970SOL    HW112809   6.001   4.214   3.723
 3970SOL    HW212810   5.880   4.148   3.635
 3971SOL     OW12811   0.011   5.813   4.200
 3971SOL    HW112812   0.093   5.757   4.216
 3971SOL    HW212813   0.033   5.909   4.214
 3972SOL     OW12814   0.752   0.627   6.536
 3972SOL    HW112815   0.704   0.631   6.624
 3972SOL    HW212816   0.838   0.578   6.547
 3973SOL     OW12817   4.137   2.938   1.735
 3973SOL    HW112818   4.109   3.009   1.799
 3973SOL    HW212819   4.082   2.945   1.652
 3974SOL     OW12820   5.362   0.731   6.826
 3974SOL    HW112821   5.322   0.745   6.917
 3974SOL    HW212822   5.289   0.734   6.757
 3975SOL     OW12823   0.216   6.270   3.690
 3975SOL    HW112824   0.180   6.284   3.783
 3975SOL    HW212825   0.140   6.261   3.626
 3976SOL     OW12826   0.679   3.412   5.392
 3976SOL    HW112827   0.752   3.448   5.449
 3976SOL    HW212828   0.657   3.478   5.320
 3977SOL     OW12829   2.369   4.733   5.761
 3977SOL    HW112830   2.423   4.754   5.843
 3977SOL    HW212831   2.425   4.683   5.696
 3978SOL     OW12832   4.558   3.431   6.128
 3978SOL    HW112833   4.554   3.518   6.176
 3978SOL    HW212834   4.465   3.404   6.102
 3979SOL     OW12835   7.009   5.466   2.729
 3979SOL    HW112836   6.913   5.470   2.700
 3979SOL    HW212837   7.013   5.460   2.829
 3980SOL     OW12838   5.387   4.368   3.621
 3980SOL    HW112839   5.389   4.334   3.715
 3980SOL    HW212840   5.480   4.373   3.585
 3981SOL     OW12841   6.692   0.942   6.718
 3981SOL    HW112842   6.678   1.041   6.708
 3981SOL    HW212843   6.612   0.893   6.684
 3982SOL     OW12844   2.241   2.964   3.784
 3982SOL    HW112845   2.281   3.055   3.791
 3982SOL    HW212846   2.180   2.948   3.862
 3983SOL     OW12847   2.630   1.291   3.118
 3983SOL    HW112848   2.562   1.239   3.170
 3983SOL    HW212849   2.590   1.378   3.090
 3984SOL     OW12850   1.336   6.234   2.512
 3984SOL    HW112851   1.335   6.286   2.598
 3984SOL    HW212852   1.339   6.136   2.532
 3985SOL     OW12853   1.496   2.441   0.846
 3985SOL    HW112854   1.554   2.475   0.772
 3985SOL    HW212855   1.498   2.341   0.847
 3986SOL     OW12856   0.533   1.296   3.069
 3986SOL    HW112857   0.599   1.369   3.053
 3986SOL    HW212858   0.561   1.214   3.018
 3987SOL     OW12859   1.601   4.288   5.442
 3987SOL    HW112860   1.699   4.299   5.456
 3987SOL    HW212861   1.582   4.275   5.345
 3988SOL     OW12862   5.146   5.809   2.387
 3988SOL    HW112863   5.197   5.724   2.375
 3988SOL    HW212864   5.048   5.790   2.380
 3989SOL     OW12865   4.512   0.781   6.338
 3989SOL    HW112866   4.518   0.772   6.437
 3989SOL    HW212867   4.570   0.711   6.294
 3990SOL     OW12868   6.281   6.662   4.054
 3990SOL    HW112869   6.286   6.732   4.125
 3990SOL    HW212870   6.224   6.586   4.087
 3991SOL     OW12871   0.308   2.150   4.169
 3991SOL    HW112872   0.379   2.153   4.099
 3991SOL    HW212873   0.222   2.119   4.129
 3992SOL     OW12874   6.218   3.797   5.584
 3992SOL    HW112875   6.220   3.785   5.683
 3992SOL    HW212876   6.123   3.793   5.552
 3993SOL     OW12877   2.019   0.678   4.289
 3993SOL    HW112878   2.034   0.580   4.300
 3993SOL    HW212879   1.922   0.699   4.302
 3994SOL     OW12880   3.439   2.020   3.717
 3994SOL    HW112881   3.385   1.979   3.644
 3994SOL    HW212882   3.506   2.084   3.678
 3995SOL     OW12883   1.867   3.762   2.264
 3995SOL    HW112884   1.845   3.814   2.182
 3995SOL    HW212885   1.928   3.686   2.240
 3996SOL     OW12886   0.296   5.766   5.244
 3996SOL    HW112887   0.320   5.802   5.153
 3996SOL    HW212888   0.201   5.737   5.244
 3997SOL     OW12889   5.982   3.054   4.968
 3997SOL    HW112890   6.036   3.133   4.998
 3997SOL    HW212891   6.040   2.972   4.968
 3998SOL     OW12892   4.299   2.376   2.751
 3998SOL    HW112893   4.338   2.463   2.721
 3998SOL    HW212894   4.343   2.301   2.702
 3999SOL     OW12895   4.372   3.335   0.883
 3999SOL    HW112896   4.361   3.385   0.969
 3999SOL    HW212897   4.356   3.397   0.806
 4000SOL     OW12898   2.504   4.485   2.322
 4000SOL    HW112899   2.475   4.537   2.242
 4000SOL    HW212900   2.603   4.491   2.332
 4001SOL     OW12901   0.832   5.626   3.929
 4001SOL    HW112902   0.876   5.683   3.859
 4001SOL    HW212903   0.866   5.532   3.922
 4002SOL     OW12904   3.975   4.014   5.019
 4002SOL    HW112905   3.942   4.103   4.987
 4002SOL    HW212906   4.022   4.026   5.107
 4003SOL     OW12907   3.002   1.589   4.308
 4003SOL    HW112908   3.067   1.514   4.295
 4003SOL    HW212909   3.048   1.676   4.291
 4004SOL     OW12910   1.905   3.721   5.004
 4004SOL    HW112911   1.999   3.714   4.972
 4004SOL    HW212912   1.842   3.693   4.932
 4005SOL     OW12913   5.859   2.238   1.088
 4005SOL    HW112914   5.797   2.200   1.020
 4005SOL    HW212915   5.886   2.167   1.153
 4006SOL     OW12916   0.184   5.843   2.416
 4006SOL    HW112917   0.253   5.900   2.460
 4006SOL    HW212918   0.227   5.787   2.346
 4007SOL     OW12919   0.775   1.381   1.287
 4007SOL    HW112920   0.859   1.420   1.248
 4007SOL    HW212921   0.770   1.405   1.384
 4008SOL     OW12922   4.362   0.468   1.408
 4008SOL    HW112923   4.397   0.493   1.318
 4008SOL    HW212924   4.294   0.396   1.399
 4009SOL     OW12925   3.767   2.719   1.331
 4009SOL    HW112926   3.836   2.760   1.392
 4009SOL    HW212927   3.758   2.622   1.352
 4010SOL     OW12928   1.334   5.085   1.152
 4010SOL    HW112929   1.255   5.030   1.179
 4010SOL    HW212930   1.345   5.161   1.215
 4011SOL     OW12931   5.750   6.544   0.085
 4011SOL    HW112932   5.837   6.580   0.117
 4011SOL    HW212933   5.741   6.449   0.114
 4012SOL     OW12934   5.682   4.509   1.683
 4012SOL    HW112935   5.614   4.436   1.696
 4012SOL    HW212936   5.758   4.475   1.629
 4013SOL     OW12937   6.933   1.863   6.858
 4013SOL    HW112938   6.883   1.860   6.944
 4013SOL    HW212939   6.994   1.783   6.852
 4014SOL     OW12940   3.597   6.282   3.056
 4014SOL    HW112941   3.690   6.245   3.066
 4014SOL    HW212942   3.597   6.378   3.082
 4015SOL     OW12943   3.180   6.512   4.665
 4015SOL    HW112944   3.238   6.563   4.729
 4015SOL    HW212945   3.238   6.464   4.599
 4016SOL     OW12946   4.457   5.381   4.103
 4016SOL    HW112947   4.377   5.387   4.163
 4016SOL    HW212948   4.426   5.363   4.009
 4017SOL     OW12949   1.878   5.988   5.925
 4017SOL    HW112950   1.812   5.931   5.876
 4017SOL    HW212951   1.961   5.997   5.870
 4018SOL     OW12952   5.007   5.482   0.424
 4018SOL    HW112953   5.077   5.426   0.379
 4018SOL    HW212954   4.927   5.489   0.365
 4019SOL     OW12955   0.682   2.315   2.921
 4019SOL    HW112956   0.684   2.223   2.882
 4019SOL    HW212957   0.774   2.339   2.953
 4020SOL     OW12958   6.821   6.069   4.579
 4020SOL    HW112959   6.767   6.153   4.586
 4020SOL    HW212960   6.771   5.994   4.621
 4021SOL     OW12961   4.579   5.504   5.720
 4021SOL    HW112962   4.577   5.584   5.659
 4021SOL    HW212963   4.593   5.534   5.814
 4022SOL     OW12964   3.885   0.207   1.433
 4022SOL    HW112965   3.821   0.241   1.502
 4022SOL    HW212966   3.836   0.151   1.366
 4023SOL     OW12967   0.641   2.037   3.909
 4023SOL    HW112968   0.727   2.071   3.947
 4023SOL    HW212969   0.658   1.954   3.857
 4024SOL     OW12970   0.799   6.535   6.437
 4024SOL    HW112971   0.896   6.558   6.439
 4024SOL    HW212972   0.766   6.539   6.342
 4025SOL     OW12973   1.098   4.422   4.691
 4025SOL    HW112974   1.060   4.498   4.744
 4025SOL    HW212975   1.190   4.446   4.659
 4026SOL     OW12976   0.785   6.602   4.479
 4026SOL    HW112977   0.797   6.505   4.457
 4026SOL    HW212978   0.869   6.637   4.521
 4027SOL     OW12979   3.049   5.987   4.898
 4027SOL    HW112980   3.109   6.019   4.824
 4027SOL    HW212981   3.105   5.948   4.971
 4028SOL     OW12982   4.478   1.694   4.768
 4028SOL    HW112983   4.481   1.648   4.679
 4028SOL    HW212984   4.383   1.701   4.798
 4029SOL     OW12985   2.311   6.741   1.053
 4029SOL    HW112986   2.346   6.835   1.051
 4029SOL    HW212987   2.216   6.743   1.086
 4030SOL     OW12988   0.904   1.109   1.923
 4030SOL    HW112989   0.906   1.137   1.827
 4030SOL    HW212990   0.990   1.137   1.967
 4031SOL     OW12991   6.385   5.857   0.648
 4031SOL    HW112992   6.326   5.923   0.694
 4031SOL    HW212993   6.403   5.888   0.555
 4032SOL     OW12994   5.037   2.006   2.121
 4032SOL    HW112995   5.014   1.913   2.148
 4032SOL    HW212996   4.970   2.039   2.054
 4033SOL     OW12997   1.115   3.592   3.140
 4033SOL    HW112998   1.189   3.533   3.109
 4033SOL    HW212999   1.113   3.595   3.240
 4034SOL     OW13000   2.377   2.222   4.230
 4034SOL    HW113001   2.300   2.209   4.167
 4034SOL    HW213002   2.428   2.137   4.238
 4035SOL     OW13003   3.415   2.510   1.663
 4035SOL    HW113004   3.455   2.419   1.674
 4035SOL    HW213005   3.317   2.506   1.684
 4036SOL     OW13006   4.383   6.984   3.401
 4036SOL    HW113007   4.383   0.029   3.325
 4036SOL    HW213008   4.347   6.896   3.370
 4037SOL     OW13009   1.636   0.986   5.478
 4037SOL    HW113010   1.618   1.055   5.548
 4037SOL    HW213011   1.705   1.021   5.413
 4038SOL     OW13012   4.150   4.953   5.544
 4038SOL    HW113013   4.153   5.031   5.607
 4038SOL    HW213014   4.192   4.980   5.457
 4039SOL     OW13015   5.841   4.599   2.022
 4039SOL    HW113016   5.882   4.613   2.113
 4039SOL    HW213017   5.888   4.656   1.955
 4040SOL     OW13018   2.492   6.504   5.211
 4040SOL    HW113019   2.474   6.587   5.158
 4040SOL    HW213020   2.411   6.480   5.265
 4041SOL     OW13021   1.570   6.048   1.599
 4041SOL    HW113022   1.621   5.963   1.586
 4041SOL    HW213023   1.633   6.126   1.593
 4042SOL     OW13024   1.284   1.731   4.111
 4042SOL    HW113025   1.210   1.771   4.165
 4042SOL    HW213026   1.247   1.697   4.024
 4043SOL     OW13027   3.603   2.761   5.902
 4043SOL    HW113028   3.630   2.807   5.818
 4043SOL    HW213029   3.657   2.797   5.978
 4044SOL     OW13030   4.914   4.229   3.136
 4044SOL    HW113031   4.878   4.317   3.103
 4044SOL    HW213032   4.871   4.206   3.224
 4045SOL     OW13033   4.349   1.398   4.959
 4045SOL    HW113034   4.303   1.381   4.872
 4045SOL    HW213035   4.293   1.459   5.015
 4046SOL     OW13036   5.189   1.202   4.122
 4046SOL    HW113037   5.173   1.221   4.219
 4046SOL    HW213038   5.236   1.280   4.080
 4047SOL     OW13039   3.065   2.463   6.480
 4047SOL    HW113040   3.054   2.392   6.410
 4047SOL    HW213041   2.978   2.476   6.527
 4048SOL     OW13042   4.654   2.414   3.350
 4048SOL    HW113043   4.638   2.323   3.312
 4048SOL    HW213044   4.698   2.406   3.439
 4049SOL     OW13045   3.726   4.098   2.562
 4049SOL    HW113046   3.749   4.154   2.642
 4049SOL    HW213047   3.802   4.037   2.540
 4050SOL     OW13048   6.937   4.903   3.156
 4050SOL    HW113049   6.911   4.994   3.123
 4050SOL    HW213050   6.855   4.847   3.166
 4051SOL     OW13051   5.698   0.700   3.868
 4051SOL    HW113052   5.705   0.601   3.877
 4051SOL    HW213053   5.772   0.734   3.810
 4052SOL     OW13054   4.577   1.204   4.654
 4052SOL    HW113055   4.566   1.182   4.751
 4052SOL    HW213056   4.575   1.120   4.600
 4053SOL     OW13057   0.740   4.298   3.199
 4053SOL    HW113058   0.694   4.386   3.189
 4053SOL    HW213059   0.752   4.257   3.108
 4054SOL     OW13060   5.270   3.894   1.825
 4054SOL    HW113061   5.291   3.908   1.921
 4054SOL    HW213062   5.279   3.797   1.802
 4055SOL     OW13063   7.003   4.568   6.860
 4055SOL    HW113064   0.068   4.618   6.880
 4055SOL    HW213065   0.006   4.483   6.811
 4056SOL     OW13066   4.745   4.093   0.124
 4056SOL    HW113067   4.715   4.072   0.217
 4056SOL    HW213068   4.787   4.183   0.121
 4057SOL     OW13069   6.769   4.704   6.036
 4057SOL    HW113070   6.807   4.687   6.127
 4057SOL    HW213071   6.843   4.728   5.973
 4058SOL     OW13072   3.077   0.907   3.973
 4058SOL    HW113073   3.114   0.825   3.929
 4058SOL    HW213074   3.136   0.934   4.048
 4059SOL     OW13075   1.382   1.267   3.364
 4059SOL    HW113076   1.424   1.184   3.401
 4059SOL    HW213077   1.283   1.263   3.378
 4060SOL     OW13078   0.276   6.552   3.898
 4060SOL    HW113079   0.293   6.534   3.802
 4060SOL    HW213080   0.247   6.647   3.909
 4061SOL     OW13081   1.688   4.211   2.579
 4061SOL    HW113082   1.769   4.157   2.603
 4061SOL    HW213083   1.611   4.149   2.561
 4062SOL     OW13084   2.788   4.245   0.177
 4062SOL    HW113085   2.694   4.276   0.193
 4062SOL    HW213086   2.792   4.146   0.191
 4063SOL     OW13087   3.781   1.041   1.017
 4063SOL    HW113088   3.843   1.071   1.090
 4063SOL    HW213089   3.727   0.963   1.050
 4064SOL     OW13090   2.433   6.750   4.797
 4064SOL    HW113091   2.360   6.682   4.807
 4064SOL    HW213092   2.398   6.830   4.748
 4065SOL     OW13093   2.126   1.491   1.437
 4065SOL    HW113094   2.148   1.482   1.534
 4065SOL    HW213095   2.206   1.525   1.387
 4066SOL     OW13096   0.541   3.931   4.961
 4066SOL    HW113097   0.534   3.966   5.055
 4066SOL    HW213098   0.637   3.913   4.939
 4067SOL     OW13099   6.054   4.636   1.849
 4067SOL    HW113100   6.078   4.579   1.928
 4067SOL    HW213101   6.108   4.608   1.770
 4068SOL     OW13102   2.038   2.839   6.069
 4068SOL    HW113103   1.992   2.756   6.036
 4068SOL    HW213104   2.095   2.877   5.997
 4069SOL     OW13105   3.918   0.004   6.031
 4069SOL    HW113106   3.998   0.063   6.042
 4069SOL    HW213107   3.850   0.050   5.975
 4070SOL     OW13108   1.909   4.030   3.875
 4070SOL    HW113109   2.006   4.046   3.895
 4070SOL    HW213110   1.853   4.066   3.951
 4071SOL     OW13111   1.370   0.432   5.356
 4071SOL    HW113112   1.457   0.472   5.328
 4071SOL    HW213113   1.302   0.444   5.284
 4072SOL     OW13114   2.878   6.533   2.657
 4072SOL    HW113115   2.928   6.584   2.726
 4072SOL    HW213116   2.783   6.564   2.655
 4073SOL     OW13117   4.743   5.203   6.894
 4073SOL    HW113118   4.651   5.234   6.867
 4073SOL    HW213119   4.752   5.105   6.875
 4074SOL     OW13120   1.520   5.418   2.250
 4074SOL    HW113121   1.541   5.516   2.253
 4074SOL    HW213122   1.464   5.399   2.170
 4075SOL     OW13123   5.529   0.518   6.761
 4075SOL    HW113124   5.618   0.539   6.721
 4075SOL    HW213125   5.478   0.603   6.775
 4076SOL     OW13126   2.407   5.747   3.552
 4076SOL    HW113127   2.469   5.693   3.609
 4076SOL    HW213128   2.442   5.749   3.458
 4077SOL     OW13129   2.255   2.071   1.619
 4077SOL    HW113130   2.270   1.984   1.573
 4077SOL    HW213131   2.342   2.120   1.627
 4078SOL     OW13132   4.470   4.970   1.984
 4078SOL    HW113133   4.555   4.920   1.968
 4078SOL    HW213134   4.464   5.047   1.921
 4079SOL     OW13135   0.723   2.287   4.175
 4079SOL    HW113136   0.804   2.294   4.118
 4079SOL    HW213137   0.749   2.287   4.272
 4080SOL     OW13138   5.813   2.514   4.486
 4080SOL    HW113139   5.784   2.492   4.579
 4080SOL    HW213140   5.735   2.549   4.434
 4081SOL     OW13141   6.559   3.625   2.514
 4081SOL    HW113142   6.553   3.724   2.514
 4081SOL    HW213143   6.625   3.595   2.445
 4082SOL     OW13144   0.193   3.902   0.735
 4082SOL    HW113145   0.193   3.960   0.653
 4082SOL    HW213146   0.114   3.925   0.791
 4083SOL     OW13147   6.900   3.292   5.418
 4083SOL    HW113148   6.878   3.195   5.423
 4083SOL    HW213149   6.816   3.345   5.406
 4084SOL     OW13150   4.958   0.923   4.142
 4084SOL    HW113151   5.015   0.867   4.202
 4084SOL    HW213152   4.921   1.000   4.194
 4085SOL     OW13153   3.064   5.320   0.125
 4085SOL    HW113154   3.092   5.239   0.075
 4085SOL    HW213155   3.035   5.391   0.061
 4086SOL     OW13156   0.258   2.291   1.519
 4086SOL    HW113157   0.263   2.381   1.476
 4086SOL    HW213158   0.167   2.278   1.559
 4087SOL     OW13159   1.556   1.123   3.180
 4087SOL    HW113160   1.523   1.213   3.209
 4087SOL    HW213161   1.495   1.087   3.109
 4088SOL     OW13162   0.048   2.445   6.291
 4088SOL    HW113163   0.091   2.362   6.254
 4088SOL    HW213164   6.996   2.419   6.356
 4089SOL     OW13165   0.574   1.700   5.619
 4089SOL    HW113166   0.615   1.681   5.708
 4089SOL    HW213167   0.518   1.622   5.591
 4090SOL     OW13168   3.328   5.263   6.774
 4090SOL    HW113169   3.255   5.315   6.729
 4090SOL    HW213170   3.358   5.189   6.715
 4091SOL     OW13171   4.562   6.505   1.266
 4091SOL    HW113172   4.493   6.563   1.223
 4091SOL    HW213173   4.651   6.550   1.262
 4092SOL     OW13174   1.007   1.313   3.743
 4092SOL    HW113175   1.013   1.253   3.823
 4092SOL    HW213176   0.911   1.323   3.716
 4093SOL     OW13177   4.581   6.747   4.073
 4093SOL    HW113178   4.621   6.734   3.982
 4093SOL    HW213179   4.593   6.842   4.101
 4094SOL     OW13180   3.298   3.338   6.477
 4094SOL    HW113181   3.232   3.296   6.415
 4094SOL    HW213182   3.299   3.437   6.462
 4095SOL     OW13183   1.747   3.581   5.914
 4095SOL    HW113184   1.652   3.610   5.913
 4095SOL    HW213185   1.757   3.503   5.976
 4096SOL     OW13186   4.632   4.713   1.704
 4096SOL    HW113187   4.678   4.755   1.783
 4096SOL    HW213188   4.620   4.615   1.721
 4097SOL     OW13189   3.493   3.808   3.377
 4097SOL    HW113190   3.568   3.756   3.337
 4097SOL    HW213191   3.528   3.869   3.447
 4098SOL     OW13192   1.549   3.215   2.565
 4098SOL    HW113193   1.485   3.199   2.641
 4098SOL    HW213194   1.513   3.173   2.482
 4099SOL     OW13195   2.387   6.291   1.647
 4099SOL    HW113196   2.303   6.264   1.599
 4099SOL    HW213197   2.381   6.264   1.743
 4100SOL     OW13198   3.548   0.002   2.831
 4100SOL    HW113199   3.537   6.958   2.907
 4100SOL    HW213200   3.488   0.081   2.845
 4101SOL     OW13201   4.371   2.026   0.010
 4101SOL    HW113202   4.377   2.065   6.938
 4101SOL    HW213203   4.298   1.957   0.012
 4102SOL     OW13204   4.460   1.371   5.983
 4102SOL    HW113205   4.441   1.460   6.025
 4102SOL    HW213206   4.523   1.384   5.906
 4103SOL     OW13207   0.021   6.974   1.850
 4103SOL    HW113208   0.066   0.004   1.924
 4103SOL    HW213209   7.013   0.019   1.778
 4104SOL     OW13210   2.109   4.104   2.229
 4104SOL    HW113211   2.055   4.088   2.312
 4104SOL    HW213212   2.200   4.136   2.255
 4105SOL     OW13213   6.152   5.318   0.599
 4105SOL    HW113214   6.094   5.346   0.523
 4105SOL    HW213215   6.169   5.397   0.658
 4106SOL     OW13216   0.439   3.665   4.438
 4106SOL    HW113217   0.516   3.676   4.374
 4106SOL    HW213218   0.466   3.698   4.528
 4107SOL     OW13219   6.926   0.544   1.028
 4107SOL    HW113220   6.946   0.577   0.935
 4107SOL    HW213221   6.905   0.623   1.087
 4108SOL     OW13222   6.456   2.377   5.115
 4108SOL    HW113223   6.530   2.444   5.105
 4108SOL    HW213224   6.382   2.401   5.053
 4109SOL     OW13225   2.073   6.346   3.839
 4109SOL    HW113226   2.066   6.406   3.759
 4109SOL    HW213227   2.091   6.401   3.921
 4110SOL     OW13228   4.806   3.278   5.207
 4110SOL    HW113229   4.905   3.263   5.200
 4110SOL    HW213230   4.785   3.372   5.179
 4111SOL     OW13231   3.773   3.556   6.395
 4111SOL    HW113232   3.762   3.469   6.349
 4111SOL    HW213233   3.811   3.623   6.331
 4112SOL     OW13234   4.058   0.629   5.757
 4112SOL    HW113235   4.055   0.603   5.660
 4112SOL    HW213236   4.106   0.558   5.809
 4113SOL     OW13237   3.584   5.373   4.336
 4113SOL    HW113238   3.596   5.468   4.367
 4113SOL    HW213239   3.673   5.334   4.313
 4114SOL     OW13240   3.620   1.768   3.525
 4114SOL    HW113241   3.579   1.754   3.435
 4114SOL    HW213242   3.672   1.854   3.525
 4115SOL     OW13243   4.857   3.736   3.338
 4115SOL    HW113244   4.802   3.731   3.421
 4115SOL    HW213245   4.954   3.734   3.362
 4116SOL     OW13246   2.726   1.229   1.832
 4116SOL    HW113247   2.737   1.200   1.927
 4116SOL    HW213248   2.726   1.329   1.828
 4117SOL     OW13249   1.238   6.186   2.113
 4117SOL    HW113250   1.186   6.153   2.035
 4117SOL    HW213251   1.329   6.145   2.112
 4118SOL     OW13252   1.619   0.634   6.282
 4118SOL    HW113253   1.549   0.664   6.347
 4118SOL    HW213254   1.663   0.714   6.241
 4119SOL     OW13255   5.198   1.460   3.267
 4119SOL    HW113256   5.278   1.510   3.235
 4119SOL    HW213257   5.183   1.380   3.209
 4120SOL     OW13258   5.512   1.110   2.340
 4120SOL    HW113259   5.574   1.116   2.262
 4120SOL    HW213260   5.453   1.029   2.330
 4121SOL     OW13261   5.792   2.030   3.830
 4121SOL    HW113262   5.694   2.032   3.810
 4121SOL    HW213263   5.840   1.981   3.758
 4122SOL     OW13264   2.341   5.050   0.272
 4122SOL    HW113265   2.246   5.073   0.248
 4122SOL    HW213266   2.402   5.080   0.198
 4123SOL     OW13267   3.964   3.808   5.389
 4123SOL    HW113268   4.031   3.785   5.459
 4123SOL    HW213269   3.874   3.819   5.431
 4124SOL     OW13270   4.710   6.077   3.014
 4124SOL    HW113271   4.621   6.108   3.046
 4124SOL    HW213272   4.759   6.154   2.972
 4125SOL     OW13273   4.664   1.392   1.705
 4125SOL    HW113274   4.581   1.431   1.666
 4125SOL    HW213275   4.673   1.419   1.801
 4126SOL     OW13276   2.222   4.101   4.769
 4126SOL    HW113277   2.238   4.056   4.856
 4126SOL    HW213278   2.162   4.045   4.712
 4127SOL     OW13279   5.238   4.606   3.997
 4127SOL    HW113280   5.160   4.545   4.009
 4127SOL    HW213281   5.208   4.701   4.004
 4128SOL     OW13282   0.016   1.639   1.816
 4128SOL    HW113283   0.084   1.582   1.862
 4128SOL    HW213284   0.060   1.696   1.747
 4129SOL     OW13285   0.107   2.888   0.202
 4129SOL    HW113286   0.063   2.947   0.134
 4129SOL    HW213287   0.036   2.837   0.252
 4130SOL     OW13288   6.434   1.698   1.350
 4130SOL    HW113289   6.403   1.792   1.362
 4130SOL    HW213290   6.440   1.676   1.253
 4131SOL     OW13291   0.004   3.402   3.038
 4131SOL    HW113292   6.938   3.381   3.085
 4131SOL    HW213293   0.077   3.345   3.074
 4132SOL     OW13294   4.436   1.538   4.478
 4132SOL    HW113295   4.412   1.441   4.471
 4132SOL    HW213296   4.448   1.576   4.386
 4133SOL     OW13297   2.629   2.602   0.900
 4133SOL    HW113298   2.582   2.518   0.926
 4133SOL    HW213299   2.720   2.580   0.865
 4134SOL     OW13300   2.413   1.029   0.139
 4134SOL    HW113301   2.483   1.042   0.209
 4134SOL    HW213302   2.456   1.010   0.051
 4135SOL     OW13303   1.798   0.516   0.764
 4135SOL    HW113304   1.891   0.495   0.734
 4135SOL    HW213305   1.782   0.477   0.855
 4136SOL     OW13306   1.035   1.932   3.524
 4136SOL    HW113307   1.123   1.899   3.489
 4136SOL    HW213308   1.000   1.868   3.592
 4137SOL     OW13309   3.951   3.162   5.105
 4137SOL    HW113310   3.948   3.119   5.195
 4137SOL    HW213311   4.000   3.249   5.111
 4138SOL     OW13312   4.880   5.492   1.371
 4138SOL    HW113313   4.828   5.535   1.445
 4138SOL    HW213314   4.936   5.418   1.409
 4139SOL     OW13315   2.944   1.517   6.831
 4139SOL    HW113316   2.937   1.487   6.926
 4139SOL    HW213317   2.959   1.616   6.829
 4140SOL     OW13318   5.062   2.431   4.851
 4140SOL    HW113319   5.142   2.478   4.813
 4140SOL    HW213320   5.037   2.355   4.791
 4141SOL     OW13321   5.210   6.423   1.244
 4141SOL    HW113322   5.248   6.514   1.227
 4141SOL    HW213323   5.178   6.384   1.158
 4142SOL     OW13324   6.102   3.252   1.546
 4142SOL    HW113325   6.143   3.224   1.633
 4142SOL    HW213326   6.020   3.306   1.565
 4143SOL     OW13327   1.760   2.690   1.571
 4143SOL    HW113328   1.664   2.693   1.599
 4143SOL    HW213329   1.782   2.599   1.535
 4144SOL     OW13330   4.195   0.920   2.454
 4144SOL    HW113331   4.179   0.852   2.526
 4144SOL    HW213332   4.244   0.877   2.378
 4145SOL     OW13333   2.773   7.009   3.458
 4145SOL    HW113334   2.777   6.934   3.391
 4145SOL    HW213335   2.790   0.076   3.411
 4146SOL     OW13336   5.180   4.772   0.616
 4146SOL    HW113337   5.258   4.789   0.677
 4146SOL    HW213338   5.198   4.691   0.560
 4147SOL     OW13339   2.783   1.899   5.831
 4147SOL    HW113340   2.863   1.897   5.771
 4147SOL    HW213341   2.729   1.982   5.812
 4148SOL     OW13342   6.834   6.589   2.109
 4148SOL    HW113343   6.923   6.625   2.082
 4148SOL    HW213344   6.790   6.652   2.172
 4149SOL     OW13345   4.758   4.141   2.159
 4149SOL    HW113346   4.688   4.187   2.104
 4149SOL    HW213347   4.744   4.163   2.256
 4150SOL     OW13348   3.353   0.426   4.851
 4150SOL    HW113349   3.286   0.489   4.891
 4150SOL    HW213350   3.343   0.336   4.893
 4151SOL     OW13351   0.668   5.807   0.088
 4151SOL    HW113352   0.688   5.733   0.024
 4151SOL    HW213353   0.738   5.878   0.080
 4152SOL     OW13354   3.507   4.073   0.829
 4152SOL    HW113355   3.450   4.141   0.874
 4152SOL    HW213356   3.602   4.105   0.828
 4153SOL     OW13357   5.956   5.987   6.212
 4153SOL    HW113358   6.034   5.945   6.165
 4153SOL    HW213359   5.930   5.930   6.290
 4154SOL     OW13360   4.502   2.557   4.753
 4154SOL    HW113361   4.530   2.542   4.848
 4154SOL    HW213362   4.569   2.616   4.708
 4155SOL     OW13363   1.750   2.956   0.365
 4155SOL    HW113364   1.714   2.935   0.275
 4155SOL    HW213365   1.843   2.991   0.357
 4156SOL     OW13366   6.195   1.100   5.423
 4156SOL    HW113367   6.283   1.090   5.376
 4156SOL    HW213368   6.211   1.138   5.515
 4157SOL     OW13369   3.470   0.895   3.654
 4157SOL    HW113370   3.526   0.944   3.722
 4157SOL    HW213371   3.515   0.808   3.631
 4158SOL     OW13372   0.681   0.467   3.289
 4158SOL    HW113373   0.749   0.464   3.216
 4158SOL    HW213374   0.622   0.546   3.277
 4159SOL     OW13375   0.271   4.726   5.730
 4159SOL    HW113376   0.215   4.650   5.763
 4159SOL    HW213377   0.354   4.690   5.688
 4160SOL     OW13378   6.543   0.627   1.298
 4160SOL    HW113379   6.517   0.649   1.204
 4160SOL    HW213380   6.485   0.678   1.361
 4161SOL     OW13381   6.261   1.257   1.322
 4161SOL    HW113382   6.334   1.315   1.287
 4161SOL    HW213383   6.218   1.301   1.401
 4162SOL     OW13384   0.985   0.015   4.932
 4162SOL    HW113385   0.970   6.937   4.921
 4162SOL    HW213386   1.027   0.033   5.020
 4163SOL     OW13387   6.946   1.635   5.149
 4163SOL    HW113388   0.018   1.603   5.126
 4163SOL    HW213389   6.929   1.723   5.105
 4164SOL     OW13390   2.542   6.463   5.812
 4164SOL    HW113391   2.596   6.496   5.735
 4164SOL    HW213392   2.445   6.458   5.786
 4165SOL     OW13393   1.753   6.285   1.555
 4165SOL    HW113394   1.802   6.354   1.607
 4165SOL    HW213395   1.663   6.321   1.529
 4166SOL     OW13396   6.089   2.209   2.517
 4166SOL    HW113397   6.107   2.120   2.476
 4166SOL    HW213398   6.140   2.218   2.603
 4167SOL     OW13399   1.501   2.779   1.213
 4167SOL    HW113400   1.585   2.734   1.184
 4167SOL    HW213401   1.436   2.779   1.137
 4168SOL     OW13402   2.564   6.083   1.043
 4168SOL    HW113403   2.638   6.092   0.976
 4168SOL    HW213404   2.490   6.146   1.019
 4169SOL     OW13405   6.358   3.553   6.512
 4169SOL    HW113406   6.272   3.537   6.464
 4169SOL    HW213407   6.361   3.647   6.546
 4170SOL     OW13408   3.189   0.952   5.640
 4170SOL    HW113409   3.124   0.963   5.715
 4170SOL    HW213410   3.281   0.974   5.673
 4171SOL     OW13411   6.415   2.978   1.732
 4171SOL    HW113412   6.489   2.911   1.735
 4171SOL    HW213413   6.443   3.055   1.673
 4172SOL     OW13414   3.347   0.627   1.273
 4172SOL    HW113415   3.353   0.535   1.312
 4172SOL    HW213416   3.371   0.694   1.343
 4173SOL     OW13417   4.375   3.906   5.658
 4173SOL    HW113418   4.474   3.910   5.644
 4173SOL    HW213419   4.333   3.993   5.631
 4174SOL     OW13420   4.841   0.996   3.597
 4174SOL    HW113421   4.858   0.905   3.561
 4174SOL    HW213422   4.771   0.991   3.668
 4175SOL     OW13423   2.374   1.563   2.500
 4175SOL    HW113424   2.421   1.556   2.588
 4175SOL    HW213425   2.276   1.577   2.515
 4176SOL     OW13426   5.991   4.518   3.074
 4176SOL    HW113427   5.966   4.421   3.065
 4176SOL    HW213428   5.913   4.575   3.051
 4177SOL     OW13429   0.026   5.784   2.747
 4177SOL    HW113430   7.008   5.825   2.664
 4177SOL    HW213431   0.022   5.685   2.740
 4178SOL     OW13432   4.321   2.677   5.369
 4178SOL    HW113433   4.410   2.715   5.344
 4178SOL    HW213434   4.271   2.653   5.286
 4179SOL     OW13435   6.980   1.595   0.079
 4179SOL    HW113436   6.964   1.556   0.170
 4179SOL    HW213437   6.897   1.640   0.047
 4180SOL     OW13438   5.661   4.054   1.598
 4180SOL    HW113439   5.730   4.014   1.538
 4180SOL    HW213440   5.701   4.130   1.649
 4181SOL     OW13441   6.164   1.386   0.331
 4181SOL    HW113442   6.231   1.421   0.265
 4181SOL    HW213443   6.109   1.462   0.365
 4182SOL     OW13444   5.844   0.819   3.674
 4182SOL    HW113445   5.942   0.829   3.690
 4182SOL    HW213446   5.809   0.903   3.633
 4183SOL     OW13447   1.143   0.465   1.922
 4183SOL    HW113448   1.185   0.551   1.951
 4183SOL    HW213449   1.212   0.392   1.925
 4184SOL     OW13450   4.410   4.681   6.145
 4184SOL    HW113451   4.397   4.599   6.199
 4184SOL    HW213452   4.484   4.667   6.079
 4185SOL     OW13453   0.241   0.399   4.527
 4185SOL    HW113454   0.199   0.446   4.605
 4185SOL    HW213455   0.208   0.305   4.523
 4186SOL     OW13456   3.445   4.026   1.470
 4186SOL    HW113457   3.423   4.050   1.564
 4186SOL    HW213458   3.459   4.109   1.417
 4187SOL     OW13459   4.454   4.984   5.482
 4187SOL    HW113460   4.433   4.927   5.402
 4187SOL    HW213461   4.430   5.079   5.462
 4188SOL     OW13462   5.495   5.812   2.757
 4188SOL    HW113463   5.468   5.723   2.794
 4188SOL    HW213464   5.583   5.804   2.711
 4189SOL     OW13465   1.171   3.102   3.204
 4189SOL    HW113466   1.103   3.143   3.143
 4189SOL    HW213467   1.232   3.043   3.151
 4190SOL     OW13468   2.467   6.648   1.827
 4190SOL    HW113469   2.403   6.709   1.874
 4190SOL    HW213470   2.497   6.690   1.741
 4191SOL     OW13471   0.136   2.334   3.785
 4191SOL    HW113472   0.160   2.337   3.882
 4191SOL    HW213473   0.038   2.315   3.776
 4192SOL     OW13474   5.770   6.395   4.047
 4192SOL    HW113475   5.767   6.302   4.010
 4192SOL    HW213476   5.704   6.452   3.999
 4193SOL     OW13477   1.171   6.806   3.897
 4193SOL    HW113478   1.181   6.761   3.986
 4193SOL    HW213479   1.245   6.873   3.886
 4194SOL     OW13480   4.834   0.115   3.121
 4194SOL    HW113481   4.889   0.188   3.162
 4194SOL    HW213482   4.745   0.151   3.094
 4195SOL     OW13483   4.425   0.328   3.340
 4195SOL    HW113484   4.425   0.425   3.362
 4195SOL    HW213485   4.517   0.291   3.352
 4196SOL     OW13486   4.919   2.323   2.973
 4196SOL    HW113487   4.821   2.330   2.953
 4196SOL    HW213488   4.971   2.364   2.898
 4197SOL     OW13489   5.305   4.260   4.324
 4197SOL    HW113490   5.405   4.254   4.314
 4197SOL    HW213491   5.276   4.207   4.404
 4198SOL     OW13492   6.195   3.596   6.061
 4198SOL    HW113493   6.261   3.664   6.095
 4198SOL    HW213494   6.137   3.638   5.992
 4199SOL     OW13495   3.140   4.072   5.835
 4199SOL    HW113496   3.080   4.074   5.755
 4199SOL    HW213497   3.141   4.162   5.878
 4200SOL     OW13498   3.043   0.549   5.918
 4200SOL    HW113499   2.965   0.564   5.858
 4200SOL    HW213500   3.012   0.513   6.006
 4201SOL     OW13501   6.423   0.214   5.171
 4201SOL    HW113502   6.380   0.290   5.219
 4201SOL    HW213503   6.486   0.248   5.102
 4202SOL     OW13504   5.846   2.985   5.182
 4202SOL    HW113505   5.867   3.019   5.090
 4202SOL    HW213506   5.760   3.025   5.213
 4203SOL     OW13507   3.793   5.676   4.951
 4203SOL    HW113508   3.732   5.654   5.026
 4203SOL    HW213509   3.740   5.690   4.868
 4204SOL     OW13510   1.462   4.298   0.460
 4204SOL    HW113511   1.534   4.360   0.430
 4204SOL    HW213512   1.382   4.309   0.401
 4205SOL     OW13513   2.218   6.475   3.495
 4205SOL    HW113514   2.134   6.456   3.547
 4205SOL    HW213515   2.210   6.564   3.451
 4206SOL     OW13516   4.716   6.776   3.836
 4206SOL    HW113517   4.765   6.861   3.854
 4206SOL    HW213518   4.778   6.711   3.791
 4207SOL     OW13519   1.650   6.220   6.880
 4207SOL    HW113520   1.648   6.137   6.826
 4207SOL    HW213521   1.718   6.212   6.952
 4208SOL     OW13522   0.997   1.966   1.674
 4208SOL    HW113523   0.968   1.871   1.676
 4208SOL    HW213524   0.917   2.026   1.683
 4209SOL     OW13525   2.670   0.067   5.760
 4209SOL    HW113526   2.686   0.094   5.665
 4209SOL    HW213527   2.577   0.092   5.787
 4210SOL     OW13528   3.445   3.517   0.346
 4210SOL    HW113529   3.480   3.546   0.435
 4210SOL    HW213530   3.472   3.422   0.328
 4211SOL     OW13531   6.190   3.382   3.911
 4211SOL    HW113532   6.194   3.353   3.816
 4211SOL    HW213533   6.133   3.318   3.963
 4212SOL     OW13534   6.099   0.132   2.214
 4212SOL    HW113535   6.137   0.216   2.252
 4212SOL    HW213536   6.174   0.073   2.183
 4213SOL     OW13537   0.794   6.934   1.021
 4213SOL    HW113538   0.855   6.928   0.942
 4213SOL    HW213539   0.699   6.929   0.991
 4214SOL     OW13540   2.916   5.569   3.280
 4214SOL    HW113541   2.827   5.581   3.235
 4214SOL    HW213542   2.903   5.532   3.372
 4215SOL     OW13543   1.641   5.994   6.724
 4215SOL    HW113544   1.586   5.989   6.640
 4215SOL    HW213545   1.737   5.976   6.702
 4216SOL     OW13546   2.464   2.720   5.262
 4216SOL    HW113547   2.468   2.818   5.245
 4216SOL    HW213548   2.556   2.681   5.256
 4217SOL     OW13549   6.424   0.581   4.885
 4217SOL    HW113550   6.333   0.575   4.927
 4217SOL    HW213551   6.453   0.676   4.882
 4218SOL     OW13552   3.220   5.153   2.917
 4218SOL    HW113553   3.134   5.157   2.866
 4218SOL    HW213554   3.234   5.060   2.951
 4219SOL     OW13555   4.961   0.183   2.687
 4219SOL    HW113556   4.993   0.143   2.601
 4219SOL    HW213557   5.040   0.217   2.738
 4220SOL     OW13558   0.277   4.483   2.957
 4220SOL    HW113559   0.329   4.398   2.968
 4220SOL    HW213560   0.214   4.474   2.880
 4221SOL     OW13561   5.344   6.306   5.811
 4221SOL    HW113562   5.411   6.355   5.755
 4221SOL    HW213563   5.293   6.371   5.867
 4222SOL     OW13564   2.384   2.992   0.176
 4222SOL    HW113565   2.420   3.084   0.162
 4222SOL    HW213566   2.402   2.963   0.270
 4223SOL     OW13567   3.679   4.096   2.883
 4223SOL    HW113568   3.672   4.046   2.969
 4223SOL    HW213569   3.762   4.067   2.835
 4224SOL     OW13570   3.675   2.233   5.349
 4224SOL    HW113571   3.654   2.253   5.444
 4224SOL    HW213572   3.769   2.261   5.329
 4225SOL     OW13573   5.000   6.791   4.720
 4225SOL    HW113574   5.058   6.731   4.775
 4225SOL    HW213575   4.949   6.736   4.654
 4226SOL     OW13576   2.359   1.822   1.936
 4226SOL    HW113577   2.407   1.876   2.005
 4226SOL    HW213578   2.413   1.819   1.853
 4227SOL     OW13579   5.412   3.957   0.640
 4227SOL    HW113580   5.364   4.027   0.586
 4227SOL    HW213581   5.465   3.898   0.579
 4228SOL     OW13582   4.347   5.196   3.347
 4228SOL    HW113583   4.376   5.291   3.359
 4228SOL    HW213584   4.391   5.158   3.266
 4229SOL     OW13585   4.270   4.998   4.821
 4229SOL    HW113586   4.190   5.041   4.777
 4229SOL    HW213587   4.285   4.908   4.781
 4230SOL     OW13588   1.860   1.494   5.508
 4230SOL    HW113589   1.954   1.476   5.538
 4230SOL    HW213590   1.858   1.498   5.408
 4231SOL     OW13591   3.859   6.649   6.556
 4231SOL    HW113592   3.805   6.640   6.472
 4231SOL    HW213593   3.945   6.599   6.546
 4232SOL     OW13594   1.340   4.124   1.536
 4232SOL    HW113595   1.277   4.048   1.544
 4232SOL    HW213596   1.431   4.096   1.566
 4233SOL     OW13597   4.921   5.319   1.146
 4233SOL    HW113598   4.930   5.372   1.230
 4233SOL    HW213599   4.966   5.230   1.157
 4234SOL     OW13600   3.996   3.559   6.012
 4234SOL    HW113601   4.037   3.546   6.103
 4234SOL    HW213602   3.980   3.469   5.970
 4235SOL     OW13603   0.430   4.142   4.751
 4235SOL    HW113604   0.394   4.123   4.842
 4235SOL    HW213605   0.529   4.135   4.752
 4236SOL     OW13606   0.940   3.648   4.468
 4236SOL    HW113607   0.979   3.568   4.422
 4236SOL    HW213608   0.867   3.618   4.530
 4237SOL     OW13609   5.033   3.458   5.420
 4237SOL    HW113610   5.011   3.473   5.323
 4237SOL    HW213611   4.952   3.425   5.468
 4238SOL     OW13612   4.831   4.582   5.028
 4238SOL    HW113613   4.918   4.533   5.034
 4238SOL    HW213614   4.846   4.679   5.047
 4239SOL     OW13615   5.180   5.007   5.197
 4239SOL    HW113616   5.279   5.011   5.183
 4239SOL    HW213617   5.159   5.029   5.292
 4240SOL     OW13618   2.490   4.393   6.209
 4240SOL    HW113619   2.397   4.426   6.191
 4240SOL    HW213620   2.554   4.440   6.148
 4241SOL     OW13621   3.162   2.177   0.636
 4241SOL    HW113622   3.103   2.098   0.621
 4241SOL    HW213623   3.174   2.192   0.734
 4242SOL     OW13624   2.770   0.616   1.736
 4242SOL    HW113625   2.847   0.587   1.679
 4242SOL    HW213626   2.803   0.645   1.825
 4243SOL     OW13627   1.710   1.905   1.981
 4243SOL    HW113628   1.772   1.867   2.050
 4243SOL    HW213629   1.622   1.925   2.024
 4244SOL     OW13630   2.644   0.040   0.839
 4244SOL    HW113631   2.564   0.100   0.843
 4244SOL    HW213632   2.659   7.017   0.927
 4245SOL     OW13633   0.523   1.454   1.174
 4245SOL    HW113634   0.613   1.421   1.201
 4245SOL    HW213635   0.460   1.444   1.251
 4246SOL     OW13636   3.635   2.096   3.536
 4246SOL    HW113637   3.697   2.076   3.460
 4246SOL    HW213638   3.688   2.124   3.616
 4247SOL     OW13639   2.680   5.221   6.845
 4247SOL    HW113640   2.690   5.319   6.826
 4247SOL    HW213641   2.710   5.168   6.766
 4248SOL     OW13642   2.668   0.017   2.088
 4248SOL    HW113643   2.625   6.959   2.133
 4248SOL    HW213644   2.745   0.049   2.143
 4249SOL     OW13645   6.432   1.118   5.275
 4249SOL    HW113646   6.454   1.075   5.187
 4249SOL    HW213647   6.510   1.171   5.307
 4250SOL     OW13648   0.665   5.352   4.671
 4250SOL    HW113649   0.630   5.432   4.719
 4250SOL    HW213650   0.588   5.296   4.638
 4251SOL     OW13651   4.582   2.132   5.241
 4251SOL    HW113652   4.550   2.184   5.162
 4251SOL    HW213653   4.534   2.163   5.323
 4252SOL     OW13654   0.794   0.101   6.444
 4252SOL    HW113655   0.765   0.145   6.359
 4252SOL    HW213656   0.750   0.011   6.452
 4253SOL     OW13657   3.989   0.037   2.713
 4253SOL    HW113658   3.899   0.081   2.713
 4253SOL    HW213659   4.058   0.100   2.677
 4254SOL     OW13660   0.914   0.729   5.119
 4254SOL    HW113661   0.976   0.738   5.041
 4254SOL    HW213662   0.874   0.637   5.119
 4255SOL     OW13663   1.684   3.058   4.409
 4255SOL    HW113664   1.726   3.074   4.498
 4255SOL    HW213665   1.585   3.059   4.419
 4256SOL     OW13666   6.121   5.872   1.148
 4256SOL    HW113667   6.185   5.805   1.186
 4256SOL    HW213668   6.146   5.892   1.054
 4257SOL     OW13669   0.149   1.494   2.450
 4257SOL    HW113670   0.052   1.509   2.471
 4257SOL    HW213671   0.201   1.482   2.534
 4258SOL     OW13672   2.554   6.423   0.912
 4258SOL    HW113673   2.594   6.382   0.830
 4258SOL    HW213674   2.487   6.359   0.951
 4259SOL     OW13675   0.909   0.082   0.002
 4259SOL    HW113676   0.870   0.052   0.089
 4259SOL    HW213677   1.003   0.047   7.014
 4260SOL     OW13678   0.288   0.622   5.263
 4260SOL    HW113679   0.260   0.527   5.272
 4260SOL    HW213680   0.383   0.632   5.293
 4261SOL     OW13681   2.147   6.680   3.370
 4261SOL    HW113682   2.155   6.712   3.275
 4261SOL    HW213683   2.074   6.729   3.416
 4262SOL     OW13684   1.630   4.251   4.857
 4262SOL    HW113685   1.644   4.341   4.817
 4262SOL    HW213686   1.532   4.228   4.854
 4263SOL     OW13687   3.085   0.968   2.373
 4263SOL    HW113688   3.084   1.049   2.315
 4263SOL    HW213689   3.087   0.886   2.315
 4264SOL     OW13690   4.002   2.225   6.346
 4264SOL    HW113691   4.023   2.137   6.303
 4264SOL    HW213692   3.941   2.211   6.424
 4265SOL     OW13693   3.234   6.283   6.675
 4265SOL    HW113694   3.136   6.266   6.675
 4265SOL    HW213695   3.254   6.360   6.735
 4266SOL     OW13696   1.396   3.985   2.940
 4266SOL    HW113697   1.307   4.030   2.951
 4266SOL    HW213698   1.469   4.054   2.941
 4267SOL     OW13699   1.467   3.597   3.619
 4267SOL    HW113700   1.561   3.586   3.586
 4267SOL    HW213701   1.419   3.663   3.561
 4268SOL     OW13702   1.239   4.330   5.414
 4268SOL    HW113703   1.311   4.323   5.345
 4268SOL    HW213704   1.280   4.329   5.506
 4269SOL     OW13705   1.763   1.939   4.329
 4269SOL    HW113706   1.687   1.934   4.264
 4269SOL    HW213707   1.790   2.035   4.340
 4270SOL     OW13708   4.077   4.194   1.182
 4270SOL    HW113709   4.119   4.147   1.259
 4270SOL    HW213710   3.982   4.164   1.172
 4271SOL     OW13711   6.034   0.278   0.135
 4271SOL    HW113712   6.008   0.265   0.039
 4271SOL    HW213713   5.959   0.247   0.194
 4272SOL     OW13714   6.540   2.190   5.769
 4272SOL    HW113715   6.495   2.278   5.754
 4272SOL    HW213716   6.584   2.160   5.685
 4273SOL     OW13717   3.295   6.341   3.849
 4273SOL    HW113718   3.345   6.289   3.780
 4273SOL    HW213719   3.282   6.285   3.930
 4274SOL     OW13720   6.512   0.502   1.981
 4274SOL    HW113721   6.548   0.448   2.057
 4274SOL    HW213722   6.451   0.573   2.015
 4275SOL     OW13723   5.687   1.651   4.351
 4275SOL    HW113724   5.698   1.636   4.449
 4275SOL    HW213725   5.741   1.730   4.323
 4276SOL     OW13726   2.001   1.089   2.813
 4276SOL    HW113727   2.064   1.157   2.776
 4276SOL    HW213728   2.027   1.065   2.906
 4277SOL     OW13729   6.342   4.821   3.240
 4277SOL    HW113730   6.326   4.780   3.151
 4277SOL    HW213731   6.359   4.749   3.308
 4278SOL     OW13732   0.668   6.703   1.817
 4278SOL    HW113733   0.615   6.760   1.754
 4278SOL    HW213734   0.641   6.608   1.807
 4279SOL     OW13735   1.545   3.723   3.031
 4279SOL    HW113736   1.522   3.807   2.982
 4279SOL    HW213737   1.644   3.720   3.048
 4280SOL     OW13738   2.689   6.651   6.277
 4280SOL    HW113739   2.688   6.572   6.216
 4280SOL    HW213740   2.597   6.665   6.314
 4281SOL     OW13741   6.810   6.507   2.745
 4281SOL    HW113742   6.892   6.471   2.789
 4281SOL    HW213743   6.745   6.432   2.731
 4282SOL     OW13744   4.931   4.773   2.058
 4282SOL    HW113745   5.019   4.778   2.011
 4282SOL    HW213746   4.910   4.678   2.081
 4283SOL     OW13747   6.712   1.460   5.214
 4283SOL    HW113748   6.633   1.514   5.182
 4283SOL    HW213749   6.796   1.506   5.187
 4284SOL     OW13750   4.870   6.202   0.021
 4284SOL    HW113751   4.953   6.193   6.985
 4284SOL    HW213752   4.853   6.116   0.068
 4285SOL     OW13753   3.038   1.710   6.073
 4285SOL    HW113754   2.997   1.620   6.088
 4285SOL    HW213755   2.984   1.780   6.120
 4286SOL     OW13756   5.509   6.350   6.734
 4286SOL    HW113757   5.411   6.366   6.746
 4286SOL    HW213758   5.529   6.336   6.637
 4287SOL     OW13759   4.455   0.181   0.763
 4287SOL    HW113760   4.370   0.168   0.815
 4287SOL    HW213761   4.439   0.248   0.691
 4288SOL     OW13762   6.646   6.735   2.226
 4288SOL    HW113763   6.595   6.674   2.287
 4288SOL    HW213764   6.703   6.797   2.280
 4289SOL     OW13765   0.144   4.411   6.082
 4289SOL    HW113766   0.192   4.442   6.164
 4289SOL    HW213767   0.050   4.387   6.105
 4290SOL     OW13768   7.011   0.976   2.886
 4290SOL    HW113769   0.043   0.966   2.971
 4290SOL    HW213770   6.915   0.953   2.903
 4291SOL     OW13771   4.732   4.809   5.644
 4291SOL    HW113772   4.781   4.728   5.676
 4291SOL    HW213773   4.760   4.830   5.550
 4292SOL     OW13774   6.234   0.112   0.436
 4292SOL    HW113775   6.196   0.062   0.359
 4292SOL    HW213776   6.176   0.191   0.457
 4293SOL     OW13777   4.171   2.251   5.817
 4293SOL    HW113778   4.140   2.218   5.906
 4293SOL    HW213779   4.108   2.320   5.783
 4294SOL     OW13780   2.882   2.114   0.116
 4294SOL    HW113781   2.929   2.189   0.069
 4294SOL    HW213782   2.848   2.049   0.048
 4295SOL     OW13783   3.985   6.482   2.698
 4295SOL    HW113784   3.915   6.539   2.656
 4295SOL    HW213785   4.007   6.406   2.637
 4296SOL     OW13786   2.110   5.427   1.911
 4296SOL    HW113787   2.183   5.431   1.844
 4296SOL    HW213788   2.149   5.421   2.003
 4297SOL     OW13789   5.120   4.328   0.242
 4297SOL    HW113790   5.036   4.347   0.191
 4297SOL    HW213791   5.171   4.254   0.197
 4298SOL     OW13792   1.995   6.316   0.459
 4298SOL    HW113793   2.034   6.248   0.521
 4298SOL    HW213794   1.926   6.369   0.508
 4299SOL     OW13795   0.053   3.439   6.710
 4299SOL    HW113796   0.028   3.388   6.793
 4299SOL    HW213797   0.054   3.376   6.632
 4300SOL     OW13798   3.690   0.714   2.323
 4300SOL    HW113799   3.756   0.666   2.265
 4300SOL    HW213800   3.736   0.743   2.408
 4301SOL     OW13801   1.885   6.201   4.609
 4301SOL    HW113802   1.803   6.211   4.664
 4301SOL    HW213803   1.959   6.164   4.665
 4302SOL     OW13804   3.734   4.964   0.275
 4302SOL    HW113805   3.674   4.888   0.252
 4302SOL    HW213806   3.822   4.952   0.229
 4303SOL     OW13807   4.839   4.918   3.113
 4303SOL    HW113808   4.878   4.829   3.135
 4303SOL    HW213809   4.911   4.979   3.080
 4304SOL     OW13810   3.091   4.196   1.401
 4304SOL    HW113811   3.032   4.184   1.321
 4304SOL    HW213812   3.161   4.264   1.381
 4305SOL     OW13813   1.139   6.745   5.801
 4305SOL    HW113814   1.073   6.818   5.782
 4305SOL    HW213815   1.101   6.657   5.773
 4306SOL     OW13816   6.415   3.936   5.159
 4306SOL    HW113817   6.507   3.964   5.130
 4306SOL    HW213818   6.349   4.005   5.132
 4307SOL     OW13819   6.722   1.922   4.272
 4307SOL    HW113820   6.774   1.979   4.336
 4307SOL    HW213821   6.785   1.865   4.219
 4308SOL     OW13822   4.628   5.306   5.561
 4308SOL    HW113823   4.548   5.284   5.506
 4308SOL    HW213824   4.612   5.391   5.611
 4309SOL     OW13825   2.468   2.063   0.633
 4309SOL    HW113826   2.558   2.076   0.593
 4309SOL    HW213827   2.412   2.144   0.618
 4310SOL     OW13828   6.468   0.966   4.608
 4310SOL    HW113829   6.529   0.972   4.529
 4310SOL    HW213830   6.375   0.949   4.577
 4311SOL     OW13831   0.824   6.453   1.314
 4311SOL    HW113832   0.781   6.380   1.261
 4311SOL    HW213833   0.770   6.472   1.396
 4312SOL     OW13834   0.766   3.181   2.419
 4312SOL    HW113835   0.825   3.180   2.500
 4312SOL    HW213836   0.677   3.220   2.443
 4313SOL     OW13837   0.396   3.481   0.617
 4313SOL    HW113838   0.364   3.390   0.590
 4313SOL    HW213839   0.470   3.510   0.556
 4314SOL     OW13840   2.387   2.296   5.704
 4314SOL    HW113841   2.304   2.319   5.654
 4314SOL    HW213842   2.464   2.347   5.665
 4315SOL     OW13843   2.712   2.622   5.269
 4315SOL    HW113844   2.707   2.547   5.203
 4315SOL    HW213845   2.807   2.639   5.294
 4316SOL     OW13846   4.516   4.152   1.442
 4316SOL    HW113847   4.547   4.058   1.439
 4316SOL    HW213848   4.585   4.208   1.489
 4317SOL     OW13849   4.784   0.612   3.829
 4317SOL    HW113850   4.766   0.651   3.920
 4317SOL    HW213851   4.875   0.571   3.829
 4318SOL     OW13852   2.295   5.556   4.064
 4318SOL    HW113853   2.331   5.545   3.971
 4318SOL    HW213854   2.324   5.644   4.101
 4319SOL     OW13855   2.163   4.872   1.542
 4319SOL    HW113856   2.110   4.935   1.598
 4319SOL    HW213857   2.115   4.856   1.455
 4320SOL     OW13858   4.417   1.046   1.893
 4320SOL    HW113859   4.353   1.070   1.966
 4320SOL    HW213860   4.374   1.061   1.804
 4321SOL     OW13861   6.828   6.146   3.334
 4321SOL    HW113862   6.738   6.123   3.295
 4321SOL    HW213863   6.881   6.063   3.347
 4322SOL     OW13864   2.587   2.031   4.175
 4322SOL    HW113865   2.629   1.965   4.237
 4322SOL    HW213866   2.656   2.094   4.140
 4323SOL     OW13867   5.773   3.884   2.016
 4323SOL    HW113868   5.682   3.927   2.018
 4323SOL    HW213869   5.822   3.906   2.099
 4324SOL     OW13870   6.444   3.927   5.463
 4324SOL    HW113871   6.364   3.882   5.502
 4324SOL    HW213872   6.438   3.926   5.363
 4325SOL     OW13873   1.545   0.681   0.890
 4325SOL    HW113874   1.643   0.695   0.901
 4325SOL    HW213875   1.510   0.745   0.821
 4326SOL     OW13876   5.325   2.960   1.996
 4326SOL    HW113877   5.339   3.012   2.081
 4326SOL    HW213878   5.324   3.022   1.918
 4327SOL     OW13879   3.057   6.495   3.884
 4327SOL    HW113880   2.993   6.499   3.808
 4327SOL    HW213881   3.131   6.431   3.863
 4328SOL     OW13882   5.853   0.240   2.178
 4328SOL    HW113883   5.834   0.252   2.081
 4328SOL    HW213884   5.944   0.201   2.190
 4329SOL     OW13885   6.281   3.959   0.213
 4329SOL    HW113886   6.187   3.933   0.192
 4329SOL    HW213887   6.305   3.927   0.305
 4330SOL     OW13888   2.737   5.873   5.239
 4330SOL    HW113889   2.835   5.857   5.248
 4330SOL    HW213890   2.721   5.967   5.208
 4331SOL     OW13891   6.084   1.389   2.804
 4331SOL    HW113892   6.161   1.327   2.784
 4331SOL    HW213893   6.116   1.483   2.802
 4332SOL     OW13894   6.712   6.107   1.115
 4332SOL    HW113895   6.735   6.106   1.018
 4332SOL    HW213896   6.707   6.201   1.148
 4333SOL     OW13897   3.729   3.119   5.757
 4333SOL    HW113898   3.794   3.046   5.735
 4333SOL    HW213899   3.676   3.142   5.676
 4334SOL     OW13900   0.671   1.684   3.596
 4334SOL    HW113901   0.579   1.724   3.603
 4334SOL    HW213902   0.700   1.687   3.500
 4335SOL     OW13903   2.229   2.476   1.790
 4335SOL    HW113904   2.183   2.468   1.701
 4335SOL    HW213905   2.317   2.521   1.778
 4336SOL     OW13906   2.423   5.710   4.925
 4336SOL    HW113907   2.325   5.723   4.918
 4336SOL    HW213908   2.451   5.631   4.871
 4337SOL     OW13909   0.094   4.809   4.331
 4337SOL    HW113910   0.054   4.749   4.400
 4337SOL    HW213911   0.097   4.903   4.365
 4338SOL     OW13912   3.600   3.163   5.539
 4338SOL    HW113913   3.539   3.241   5.531
 4338SOL    HW213914   3.584   3.100   5.463
 4339SOL     OW13915   3.613   3.766   5.321
 4339SOL    HW113916   3.663   3.723   5.397
 4339SOL    HW213917   3.630   3.714   5.237
 4340SOL     OW13918   0.098   4.502   0.182
 4340SOL    HW113919   0.154   4.446   0.121
 4340SOL    HW213920   0.040   4.442   0.237
 4341SOL     OW13921   6.138   6.294   1.545
 4341SOL    HW113922   6.147   6.354   1.466
 4341SOL    HW213923   6.192   6.211   1.529
 4342SOL     OW13924   4.896   3.373   2.248
 4342SOL    HW113925   4.883   3.416   2.159
 4342SOL    HW213926   4.851   3.284   2.249
 4343SOL     OW13927   5.099   6.930   6.173
 4343SOL    HW113928   5.186   6.882   6.177
 4343SOL    HW213929   5.053   6.923   6.262
 4344SOL     OW13930   1.512   4.130   2.263
 4344SOL    HW113931   1.553   4.220   2.256
 4344SOL    HW213932   1.505   4.104   2.360
 4345SOL     OW13933   4.010   3.400   2.427
 4345SOL    HW113934   3.966   3.312   2.445
 4345SOL    HW213935   4.049   3.400   2.335
 4346SOL     OW13936   1.285   3.291   1.951
 4346SOL    HW113937   1.379   3.303   1.981
 4346SOL    HW213938   1.280   3.299   1.851
 4347SOL     OW13939   5.994   6.156   1.145
 4347SOL    HW113940   6.066   6.090   1.168
 4347SOL    HW213941   5.999   6.179   1.048
 4348SOL     OW13942   6.218   4.219   6.256
 4348SOL    HW113943   6.262   4.182   6.174
 4348SOL    HW213944   6.248   4.313   6.269
 4349SOL     OW13945   0.716   3.676   3.915
 4349SOL    HW113946   0.752   3.607   3.979
 4349SOL    HW213947   0.790   3.738   3.889
 4350SOL     OW13948   5.154   6.997   4.547
 4350SOL    HW113949   5.128   0.067   4.509
 4350SOL    HW213950   5.081   6.964   4.607
 4351SOL     OW13951   0.329   6.359   0.971
 4351SOL    HW113952   0.354   6.263   0.964
 4351SOL    HW213953   0.279   6.387   0.889
 4352SOL     OW13954   3.905   4.441   1.433
 4352SOL    HW113955   3.951   4.526   1.459
 4352SOL    HW213956   3.947   4.365   1.482
 4353SOL     OW13957   1.881   3.616   0.400
 4353SOL    HW113958   1.870   3.519   0.419
 4353SOL    HW213959   1.973   3.646   0.427
 4354SOL     OW13960   6.195   4.833   2.826
 4354SOL    HW113961   6.102   4.827   2.863
 4354SOL    HW213962   6.227   4.927   2.832
 4355SOL     OW13963   2.058   4.920   4.080
 4355SOL    HW113964   1.985   4.855   4.060
 4355SOL    HW213965   2.033   5.010   4.043
 4356SOL     OW13966   6.107   1.689   5.824
 4356SOL    HW113967   6.183   1.753   5.839
 4356SOL    HW213968   6.102   1.625   5.901
 4357SOL     OW13969   5.266   5.830   2.997
 4357SOL    HW113970   5.233   5.750   2.947
 4357SOL    HW213971   5.207   5.908   2.977
 4358SOL     OW13972   3.492   0.370   1.130
 4358SOL    HW113973   3.428   0.387   1.055
 4358SOL    HW213974   3.442   0.341   1.211
 4359SOL     OW13975   3.036   3.534   1.730
 4359SOL    HW113976   3.094   3.487   1.797
 4359SOL    HW213977   3.062   3.505   1.638
 4360SOL     OW13978   2.368   6.541   3.740
 4360SOL    HW113979   2.417   6.458   3.768
 4360SOL    HW213980   2.309   6.520   3.661
 4361SOL     OW13981   1.939   0.836   6.406
 4361SOL    HW113982   1.956   0.917   6.350
 4361SOL    HW213983   1.997   0.761   6.375
 4362SOL     OW13984   6.161   5.212   2.365
 4362SOL    HW113985   6.232   5.253   2.308
 4362SOL    HW213986   6.126   5.129   2.321
 4363SOL     OW13987   4.169   0.218   2.610
 4363SOL    HW113988   4.259   0.181   2.632
 4363SOL    HW213989   4.155   0.304   2.658
 4364SOL     OW13990   3.157   3.662   2.792
 4364SOL    HW113991   3.060   3.643   2.776
 4364SOL    HW213992   3.168   3.757   2.820
 4365SOL     OW13993   2.087   1.562   0.682
 4365SOL    HW113994   2.126   1.643   0.637
 4365SOL    HW213995   2.144   1.537   0.761
 4366SOL     OW13996   4.994   5.448   4.961
 4366SOL    HW113997   5.045   5.531   4.981
 4366SOL    HW213998   4.896   5.468   4.958
 4367SOL     OW13999   1.752   6.996   1.750
 4367SOL    HW114000   1.671   0.034   1.751
 4367SOL    HW214001   1.745   6.928   1.824
 4368SOL     OW14002   5.122   5.527   4.282
 4368SOL    HW114003   5.098   5.623   4.270
 4368SOL    HW214004   5.051   5.469   4.242
 4369SOL     OW14005   6.960   3.971   4.626
 4369SOL    HW114006   6.943   4.046   4.689
 4369SOL    HW214007   6.891   3.900   4.639
 4370SOL     OW14008   5.539   4.338   1.131
 4370SOL    HW114009   5.638   4.327   1.125
 4370SOL    HW214010   5.517   4.395   1.210
 4371SOL     OW14011   3.343   0.275   3.392
 4371SOL    HW114012   3.349   0.215   3.472
 4371SOL    HW214013   3.266   0.246   3.335
 4372SOL     OW14014   1.951   4.156   5.701
 4372SOL    HW114015   1.999   4.069   5.713
 4372SOL    HW214016   2.017   4.228   5.680
 4373SOL     OW14017   4.515   0.206   0.373
 4373SOL    HW114018   4.491   0.280   0.436
 4373SOL    HW214019   4.474   0.223   0.283
 4374SOL     OW14020   1.978   6.364   0.198
 4374SOL    HW114021   1.977   6.335   0.294
 4374SOL    HW214022   2.072   6.387   0.172
 4375SOL     OW14023   4.647   0.420   5.516
 4375SOL    HW114024   4.627   0.443   5.611
 4375SOL    HW214025   4.615   0.327   5.497
 4376SOL     OW14026   2.667   4.865   0.376
 4376SOL    HW114027   2.728   4.860   0.456
 4376SOL    HW214028   2.702   4.806   0.303
 4377SOL     OW14029   5.357   6.193   0.404
 4377SOL    HW114030   5.300   6.118   0.439
 4377SOL    HW214031   5.450   6.160   0.390
 4378SOL     OW14032   3.149   5.017   1.685
 4378SOL    HW114033   3.148   4.925   1.726
 4378SOL    HW214034   3.244   5.046   1.673
 4379SOL     OW14035   6.147   6.395   0.734
 4379SOL    HW114036   6.204   6.321   0.697
 4379SOL    HW214037   6.136   6.466   0.663
 4380SOL     OW14038   1.890   6.277   5.134
 4380SOL    HW114039   1.882   6.250   5.230
 4380SOL    HW214040   1.815   6.237   5.082
 4381SOL     OW14041   3.321   6.354   4.487
 4381SOL    HW114042   3.285   6.395   4.403
 4381SOL    HW214043   3.272   6.268   4.506
 4382SOL     OW14044   5.808   3.802   3.712
 4382SOL    HW114045   5.843   3.861   3.640
 4382SOL    HW214046   5.772   3.858   3.787
 4383SOL     OW14047   1.718   0.375   6.557
 4383SOL    HW114048   1.732   0.406   6.463
 4383SOL    HW214049   1.722   0.454   6.619
 4384SOL     OW14050   3.738   6.570   1.781
 4384SOL    HW114051   3.687   6.493   1.820
 4384SOL    HW214052   3.685   6.608   1.705
 4385SOL     OW14053   5.920   2.040   4.079
 4385SOL    HW114054   5.871   2.014   3.995
 4385SOL    HW214055   5.907   2.137   4.096
 4386SOL     OW14056   1.719   5.413   0.094
 4386SOL    HW114057   1.730   5.488   0.028
 4386SOL    HW214058   1.808   5.374   0.115
 4387SOL     OW14059   5.987   2.584   0.833
 4387SOL    HW114060   6.052   2.520   0.875
 4387SOL    HW214061   6.017   2.678   0.848
 4388SOL     OW14062   4.358   0.568   5.730
 4388SOL    HW114063   4.323   0.516   5.652
 4388SOL    HW214064   4.457   0.580   5.721
 4389SOL     OW14065   1.128   3.037   2.605
 4389SOL    HW114066   1.083   3.127   2.606
 4389SOL    HW214067   1.059   2.965   2.594
 4390SOL     OW14068   5.034   4.041   1.191
 4390SOL    HW114069   5.133   4.051   1.185
 4390SOL    HW214070   4.998   4.009   1.103
 4391SOL     OW14071   0.374   5.717   1.294
 4391SOL    HW114072   0.300   5.771   1.254
 4391SOL    HW214073   0.400   5.644   1.230
 4392SOL     OW14074   5.318   5.019   4.472
 4392SOL    HW114075   5.322   5.089   4.544
 4392SOL    HW214076   5.292   5.061   4.385
 4393SOL     OW14077   4.573   6.934   2.439
 4393SOL    HW114078   4.548   6.876   2.362
 4393SOL    HW214079   4.646   6.891   2.492
 4394SOL     OW14080   4.614   1.143   2.608
 4394SOL    HW114081   4.555   1.125   2.530
 4394SOL    HW214082   4.598   1.075   2.680
 4395SOL     OW14083   5.043   2.692   0.786
 4395SOL    HW114084   5.032   2.701   0.885
 4395SOL    HW214085   4.975   2.629   0.750
 4396SOL     OW14086   1.572   0.789   2.206
 4396SOL    HW114087   1.489   0.840   2.181
 4396SOL    HW214088   1.558   0.745   2.295
 4397SOL     OW14089   3.823   1.998   6.949
 4397SOL    HW114090   3.848   1.928   6.882
 4397SOL    HW214091   3.905   2.047   6.979
 4398SOL     OW14092   0.726   4.576   4.850
 4398SOL    HW114093   0.740   4.509   4.777
 4398SOL    HW214094   0.659   4.644   4.822
 4399SOL     OW14095   3.076   0.590   1.901
 4399SOL    HW114096   3.058   0.537   1.984
 4399SOL    HW214097   3.132   0.670   1.924
 4400SOL     OW14098   3.479   4.930   3.102
 4400SOL    HW114099   3.383   4.908   3.114
 4400SOL    HW214100   3.489   5.026   3.078
 4401SOL     OW14101   4.583   6.600   4.530
 4401SOL    HW114102   4.683   6.596   4.537
 4401SOL    HW214103   4.553   6.554   4.448
 4402SOL     OW14104   6.637   6.652   1.482
 4402SOL    HW114105   6.544   6.681   1.505
 4402SOL    HW214106   6.688   6.633   1.566
 4403SOL     OW14107   6.578   1.675   3.532
 4403SOL    HW114108   6.566   1.624   3.447
 4403SOL    HW214109   6.531   1.763   3.526
 4404SOL     OW14110   1.392   3.835   2.709
 4404SOL    HW114111   1.371   3.737   2.709
 4404SOL    HW214112   1.379   3.873   2.800
 4405SOL     OW14113   3.190   4.427   6.307
 4405SOL    HW114114   3.263   4.399   6.245
 4405SOL    HW214115   3.163   4.349   6.363
 4406SOL     OW14116   6.180   2.755   2.643
 4406SOL    HW114117   6.095   2.802   2.668
 4406SOL    HW214118   6.258   2.811   2.671
 4407SOL     OW14119   0.994   0.667   0.481
 4407SOL    HW114120   1.016   0.696   0.575
 4407SOL    HW214121   0.988   0.567   0.478
 4408SOL     OW14122   4.721   6.027   1.383
 4408SOL    HW114123   4.677   6.094   1.323
 4408SOL    HW214124   4.692   5.935   1.356
 4409SOL     OW14125   3.479   1.865   2.879
 4409SOL    HW114126   3.492   1.837   2.784
 4409SOL    HW214127   3.559   1.917   2.910
 4410SOL     OW14128   2.169   6.048   0.831
 4410SOL    HW114129   2.125   5.976   0.779
 4410SOL    HW214130   2.117   6.133   0.821
 4411SOL     OW14131   3.651   3.203   2.417
 4411SOL    HW114132   3.557   3.185   2.390
 4411SOL    HW214133   3.700   3.116   2.429
 4412SOL     OW14134   3.752   1.133   6.144
 4412SOL    HW114135   3.818   1.098   6.210
 4412SOL    HW214136   3.798   1.155   6.058
 4413SOL     OW14137   3.651   5.692   4.041
 4413SOL    HW114138   3.645   5.599   4.005
 4413SOL    HW214139   3.746   5.722   4.041
 4414SOL     OW14140   3.252   4.741   1.799
 4414SOL    HW114141   3.350   4.723   1.792
 4414SOL    HW214142   3.204   4.694   1.725
 4415SOL     OW14143   4.943   1.026   1.633
 4415SOL    HW114144   4.916   0.938   1.671
 4415SOL    HW214145   4.930   1.097   1.702
 4416SOL     OW14146   2.873   2.226   4.650
 4416SOL    HW114147   2.843   2.277   4.570
 4416SOL    HW214148   2.817   2.143   4.660
 4417SOL     OW14149   5.580   0.248   1.570
 4417SOL    HW114150   5.595   0.304   1.488
 4417SOL    HW214151   5.484   0.219   1.572
 4418SOL     OW14152   4.308   0.158   2.953
 4418SOL    HW114153   4.338   0.063   2.962
 4418SOL    HW214154   4.321   0.187   2.858
 4419SOL     OW14155   6.630   5.642   6.533
 4419SOL    HW114156   6.706   5.695   6.496
 4419SOL    HW214157   6.546   5.667   6.484
 4420SOL     OW14158   5.442   1.131   0.843
 4420SOL    HW114159   5.483   1.164   0.759
 4420SOL    HW214160   5.496   1.162   0.921
 4421SOL     OW14161   0.489   2.032   3.174
 4421SOL    HW114162   0.511   2.009   3.269
 4421SOL    HW214163   0.571   2.020   3.118
 4422SOL     OW14164   1.522   3.890   5.670
 4422SOL    HW114165   1.490   3.828   5.742
 4422SOL    HW214166   1.443   3.937   5.631
 4423SOL     OW14167   6.868   1.785   5.754
 4423SOL    HW114168   6.857   1.691   5.784
 4423SOL    HW214169   6.777   1.827   5.742
 4424SOL     OW14170   2.135   5.420   3.498
 4424SOL    HW114171   2.124   5.467   3.410
 4424SOL    HW214172   2.230   5.426   3.527
 4425SOL     OW14173   5.179   4.119   2.250
 4425SOL    HW114174   5.273   4.149   2.268
 4425SOL    HW214175   5.161   4.035   2.301
 4426SOL     OW14176   0.645   6.448   6.781
 4426SOL    HW114177   0.590   6.398   6.714
 4426SOL    HW214178   0.741   6.420   6.771
 4427SOL     OW14179   0.558   5.111   3.905
 4427SOL    HW114180   0.550   5.017   3.938
 4427SOL    HW214181   0.544   5.113   3.806
 4428SOL     OW14182   1.638   0.036   2.610
 4428SOL    HW114183   1.704   0.035   2.685
 4428SOL    HW214184   1.612   6.962   2.587
 4429SOL     OW14185   2.865   0.187   1.742
 4429SOL    HW114186   2.915   0.268   1.711
 4429SOL    HW214187   2.779   0.179   1.691
 4430SOL     OW14188   1.809   0.201   2.170
 4430SOL    HW114189   1.753   0.137   2.223
 4430SOL    HW214190   1.786   0.294   2.196
 4431SOL     OW14191   1.863   1.752   2.578
 4431SOL    HW114192   1.919   1.829   2.549
 4431SOL    HW214193   1.804   1.723   2.502
 4432SOL     OW14194   3.760   4.094   4.653
 4432SOL    HW114195   3.839   4.043   4.685
 4432SOL    HW214196   3.737   4.066   4.559
 4433SOL     OW14197   6.677   0.231   1.514
 4433SOL    HW114198   6.775   0.214   1.502
 4433SOL    HW214199   6.664   0.303   1.582
 4434SOL     OW14200   5.771   2.088   5.726
 4434SOL    HW114201   5.682   2.070   5.766
 4434SOL    HW214202   5.823   2.003   5.721
 4435SOL     OW14203   3.583   2.950   2.034
 4435SOL    HW114204   3.499   3.003   2.047
 4435SOL    HW214205   3.560   2.852   2.030
 4436SOL     OW14206   5.840   6.822   0.341
 4436SOL    HW114207   5.794   6.797   0.426
 4436SOL    HW214208   5.811   6.913   0.313
 4437SOL     OW14209   3.023   6.690   5.585
 4437SOL    HW114210   2.936   6.707   5.630
 4437SOL    HW214211   3.034   6.751   5.507
 4438SOL     OW14212   3.775   2.864   6.728
 4438SOL    HW114213   3.719   2.835   6.651
 4438SOL    HW214214   3.772   2.794   6.799
 4439SOL     OW14215   1.566   4.878   3.107
 4439SOL    HW114216   1.570   4.783   3.136
 4439SOL    HW214217   1.592   4.885   3.011
 4440SOL     OW14218   6.273   1.062   0.062
 4440SOL    HW114219   6.324   1.139   0.101
 4440SOL    HW214220   6.212   1.024   0.131
 4441SOL     OW14221   6.252   0.985   3.896
 4441SOL    HW114222   6.281   0.935   3.978
 4441SOL    HW214223   6.240   1.082   3.919
 4442SOL     OW14224   2.076   5.885   2.479
 4442SOL    HW114225   1.984   5.846   2.473
 4442SOL    HW214226   2.121   5.851   2.562
 4443SOL     OW14227   1.911   0.977   1.477
 4443SOL    HW114228   1.888   0.889   1.436
 4443SOL    HW214229   1.951   1.036   1.407
 4444SOL     OW14230   4.878   1.900   2.915
 4444SOL    HW114231   4.912   1.806   2.910
 4444SOL    HW214232   4.938   1.960   2.861
 4445SOL     OW14233   0.913   2.158   6.114
 4445SOL    HW114234   0.839   2.177   6.051
 4445SOL    HW214235   1.001   2.175   6.069
 4446SOL     OW14236   6.785   4.990   4.670
 4446SOL    HW114237   6.711   4.922   4.673
 4446SOL    HW214238   6.752   5.077   4.706
 4447SOL     OW14239   4.930   3.848   4.856
 4447SOL    HW114240   4.876   3.773   4.894
 4447SOL    HW214241   4.872   3.903   4.795
 4448SOL     OW14242   2.781   3.548   6.648
 4448SOL    HW114243   2.848   3.479   6.621
 4448SOL    HW214244   2.707   3.551   6.580
 4449SOL     OW14245   7.013   1.462   5.537
 4449SOL    HW114246   6.947   1.394   5.570
 4449SOL    HW214247   0.073   1.462   5.597
 4450SOL     OW14248   3.963   3.095   3.144
 4450SOL    HW114249   3.874   3.133   3.121
 4450SOL    HW214250   4.019   3.166   3.187
 4451SOL     OW14251   0.882   5.219   1.430
 4451SOL    HW114252   0.807   5.285   1.430
 4451SOL    HW214253   0.891   5.178   1.339
 4452SOL     OW14254   1.006   3.888   6.759
 4452SOL    HW114255   1.086   3.880   6.699
 4452SOL    HW214256   0.943   3.813   6.741
 4453SOL     OW14257   5.595   0.644   0.847
 4453SOL    HW114258   5.655   0.709   0.800
 4453SOL    HW214259   5.648   0.567   0.880
 4454SOL     OW14260   6.311   3.323   1.975
 4454SOL    HW114261   6.234   3.315   2.039
 4454SOL    HW214262   6.293   3.398   1.911
 4455SOL     OW14263   4.777   2.913   2.425
 4455SOL    HW114264   4.751   2.825   2.385
 4455SOL    HW214265   4.807   2.899   2.520
 4456SOL     OW14266   6.944   5.861   2.516
 4456SOL    HW114267   6.893   5.829   2.436
 4456SOL    HW214268   0.022   5.857   2.497
 4457SOL     OW14269   5.026   2.517   6.421
 4457SOL    HW114270   5.058   2.600   6.376
 4457SOL    HW214271   5.064   2.437   6.373
 4458SOL     OW14272   4.662   1.816   1.388
 4458SOL    HW114273   4.617   1.805   1.299
 4458SOL    HW214274   4.597   1.796   1.461
 4459SOL     OW14275   6.134   5.394   5.956
 4459SOL    HW114276   6.143   5.493   5.942
 4459SOL    HW214277   6.044   5.373   5.993
 4460SOL     OW14278   1.986   0.578   0.459
 4460SOL    HW114279   1.972   0.485   0.494
 4460SOL    HW214280   2.033   0.632   0.529
 4461SOL     OW14281   1.917   0.747   3.228
 4461SOL    HW114282   1.843   0.679   3.234
 4461SOL    HW214283   1.990   0.712   3.170
 4462SOL     OW14284   0.306   3.239   1.206
 4462SOL    HW114285   0.289   3.267   1.112
 4462SOL    HW214286   0.266   3.306   1.269
 4463SOL     OW14287   1.065   4.242   6.744
 4463SOL    HW114288   0.997   4.218   6.676
 4463SOL    HW214289   1.144   4.285   6.700
 4464SOL     OW14290   6.685   2.821   0.377
 4464SOL    HW114291   6.657   2.776   0.293
 4464SOL    HW214292   6.615   2.809   0.447
 4465SOL     OW14293   5.733   5.127   1.314
 4465SOL    HW114294   5.823   5.098   1.345
 4465SOL    HW214295   5.717   5.222   1.340
 4466SOL     OW14296   6.744   3.239   4.051
 4466SOL    HW114297   6.682   3.161   4.047
 4466SOL    HW214298   6.814   3.223   4.121
 4467SOL     OW14299   1.126   0.549   4.374
 4467SOL    HW114300   1.046   0.526   4.319
 4467SOL    HW214301   1.122   0.500   4.461
 4468SOL     OW14302   1.069   0.964   0.530
 4468SOL    HW114303   1.089   0.929   0.438
 4468SOL    HW214304   1.133   0.925   0.596
 4469SOL     OW14305   4.724   6.683   0.279
 4469SOL    HW114306   4.809   6.727   0.307
 4469SOL    HW214307   4.739   6.632   0.194
 4470SOL     OW14308   4.760   4.376   1.289
 4470SOL    HW114309   4.751   4.440   1.365
 4470SOL    HW214310   4.674   4.371   1.239
 4471SOL     OW14311   6.028   2.446   1.917
 4471SOL    HW114312   5.973   2.407   1.844
 4471SOL    HW214313   5.970   2.501   1.977
 4472SOL     OW14314   2.180   5.689   1.570
 4472SOL    HW114315   2.125   5.607   1.556
 4472SOL    HW214316   2.267   5.679   1.521
 4473SOL     OW14317   5.784   0.741   0.476
 4473SOL    HW114318   5.717   0.708   0.409
 4473SOL    HW214319   5.811   0.834   0.451
 4474SOL     OW14320   6.676   1.383   5.474
 4474SOL    HW114321   6.611   1.442   5.522
 4474SOL    HW214322   6.662   1.391   5.375
 4475SOL     OW14323   1.525   3.304   0.449
 4475SOL    HW114324   1.458   3.231   0.434
 4475SOL    HW214325   1.478   3.392   0.449
 4476SOL     OW14326   3.813   6.699   2.635
 4476SOL    HW114327   3.797   6.682   2.732
 4476SOL    HW214328   3.785   6.793   2.612
 4477SOL     OW14329   1.874   2.137   0.926
 4477SOL    HW114330   1.921   2.057   0.889
 4477SOL    HW214331   1.819   2.110   1.005
 4478SOL     OW14332   0.879   4.730   1.102
 4478SOL    HW114333   0.819   4.681   1.166
 4478SOL    HW214334   0.954   4.670   1.074
 4479SOL     OW14335   1.269   5.683   6.168
 4479SOL    HW114336   1.232   5.611   6.110
 4479SOL    HW214337   1.193   5.734   6.210
 4480SOL     OW14338   6.739   3.457   2.938
 4480SOL    HW114339   6.683   3.403   3.001
 4480SOL    HW214340   6.760   3.402   2.857
 4481SOL     OW14341   0.967   0.452   4.170
 4481SOL    HW114342   0.907   0.390   4.221
 4481SOL    HW214343   0.913   0.506   4.106
 4482SOL     OW14344   0.543   4.242   3.365
 4482SOL    HW114345   0.612   4.242   3.293
 4482SOL    HW214346   0.526   4.148   3.396
 4483SOL     OW14347   6.044   4.091   1.105
 4483SOL    HW114348   6.102   4.028   1.054
 4483SOL    HW214349   6.099   4.141   1.171
 4484SOL     OW14350   3.086   4.172   6.451
 4484SOL    HW114351   3.014   4.185   6.519
 4484SOL    HW214352   3.052   4.113   6.377
 4485SOL     OW14353   4.575   6.973   5.668
 4485SOL    HW114354   4.523   6.988   5.752
 4485SOL    HW214355   4.576   6.875   5.647
 4486SOL     OW14356   6.053   3.313   4.348
 4486SOL    HW114357   5.995   3.326   4.268
 4486SOL    HW214358   6.126   3.381   4.348
 4487SOL     OW14359   3.416   2.757   6.246
 4487SOL    HW114360   3.347   2.763   6.174
 4487SOL    HW214361   3.436   2.849   6.280
 4488SOL     OW14362   0.035   2.218   6.962
 4488SOL    HW114363   0.025   2.312   6.996
 4488SOL    HW214364   0.033   2.218   6.862
 4489SOL     OW14365   0.063   1.437   3.429
 4489SOL    HW114366   0.127   1.363   3.412
 4489SOL    HW214367   6.994   1.415   3.388
 4490SOL     OW14368   6.882   2.353   3.801
 4490SOL    HW114369   6.825   2.286   3.755
 4490SOL    HW214370   6.891   2.434   3.743
 4491SOL     OW14371   2.013   4.769   2.282
 4491SOL    HW114372   2.063   4.703   2.339
 4491SOL    HW214373   2.037   4.755   2.186
 4492SOL     OW14374   5.639   3.694   5.620
 4492SOL    HW114375   5.560   3.642   5.653
 4492SOL    HW214376   5.644   3.687   5.521
 4493SOL     OW14377   5.973   4.903   3.325
 4493SOL    HW114378   6.041   4.888   3.396
 4493SOL    HW214379   5.906   4.828   3.326
 4494SOL     OW14380   5.299   2.996   1.578
 4494SOL    HW114381   5.219   3.016   1.636
 4494SOL    HW214382   5.328   2.901   1.594
 4495SOL     OW14383   5.608   4.896   2.419
 4495SOL    HW114384   5.678   4.855   2.360
 4495SOL    HW214385   5.533   4.930   2.362
 4496SOL     OW14386   5.908   3.239   6.198
 4496SOL    HW114387   6.007   3.238   6.187
 4496SOL    HW214388   5.883   3.292   6.279
 4497SOL     OW14389   6.658   6.769   0.814
 4497SOL    HW114390   6.717   6.689   0.826
 4497SOL    HW214391   6.598   6.779   0.894
 4498SOL     OW14392   1.360   4.305   6.030
 4498SOL    HW114393   1.447   4.349   6.011
 4498SOL    HW214394   1.312   4.285   5.945
 4499SOL     OW14395   5.996   3.932   0.208
 4499SOL    HW114396   6.006   3.998   0.283
 4499SOL    HW214397   5.938   3.857   0.239
 4500SOL     OW14398   3.207   4.159   1.818
 4500SOL    HW114399   3.171   4.136   1.728
 4500SOL    HW214400   3.135   4.146   1.887
 4501SOL     OW14401   1.601   5.509   4.773
 4501SOL    HW114402   1.510   5.488   4.809
 4501SOL    HW214403   1.611   5.608   4.764
 4502SOL     OW14404   5.483   2.490   0.474
 4502SOL    HW114405   5.397   2.440   0.460
 4502SOL    HW214406   5.468   2.587   0.456
 4503SOL     OW14407   1.029   3.632   2.670
 4503SOL    HW114408   1.085   3.582   2.736
 4503SOL    HW214409   0.937   3.592   2.667
 4504SOL     OW14410   4.113   1.880   4.189
 4504SOL    HW114411   4.107   1.903   4.092
 4504SOL    HW214412   4.176   1.943   4.234
 4505SOL     OW14413   2.273   5.261   0.035
 4505SOL    HW114414   2.327   5.309   0.103
 4505SOL    HW214415   2.310   5.278   6.963
 4506SOL     OW14416   3.503   6.274   5.948
 4506SOL    HW114417   3.593   6.307   5.974
 4506SOL    HW214418   3.504   6.248   5.851
 4507SOL     OW14419   6.441   3.830   2.751
 4507SOL    HW114420   6.392   3.791   2.829
 4507SOL    HW214421   6.533   3.793   2.747
 4508SOL     OW14422   1.858   4.138   1.473
 4508SOL    HW114423   1.800   4.217   1.451
 4508SOL    HW214424   1.878   4.137   1.571
 4509SOL     OW14425   0.905   3.007   3.689
 4509SOL    HW114426   0.921   3.077   3.759
 4509SOL    HW214427   0.811   2.974   3.697
 4510SOL     OW14428   2.793   0.156   6.393
 4510SOL    HW114429   2.801   0.141   6.294
 4510SOL    HW214430   2.807   0.253   6.413
 4511SOL     OW14431   0.590   2.747   6.846
 4511SOL    HW114432   0.541   2.810   6.908
 4511SOL    HW214433   0.630   2.673   6.899
 4512SOL     OW14434   2.120   3.781   0.329
 4512SOL    HW114435   2.112   3.704   0.265
 4512SOL    HW214436   2.202   3.833   0.308
 4513SOL     OW14437   6.105   1.590   2.481
 4513SOL    HW114438   6.080   1.609   2.386
 4513SOL    HW214439   6.119   1.491   2.493
 4514SOL     OW14440   2.191   0.317   4.644
 4514SOL    HW114441   2.237   0.285   4.560
 4514SOL    HW214442   2.140   0.401   4.624
 4515SOL     OW14443   0.092   4.758   0.545
 4515SOL    HW114444   0.167   4.822   0.562
 4515SOL    HW214445   0.069   4.759   0.448
 4516SOL     OW14446   0.518   6.718   3.695
 4516SOL    HW114447   0.524   6.718   3.595
 4516SOL    HW214448   0.427   6.688   3.722
 4517SOL     OW14449   2.915   0.735   0.302
 4517SOL    HW114450   2.834   0.685   0.272
 4517SOL    HW214451   2.895   0.833   0.305
 4518SOL     OW14452   1.154   0.911   3.567
 4518SOL    HW114453   1.249   0.932   3.593
 4518SOL    HW214454   1.137   0.813   3.580
 4519SOL     OW14455   6.713   2.247   4.249
 4519SOL    HW114456   6.708   2.155   4.211
 4519SOL    HW214457   6.791   2.296   4.209
 4520SOL     OW14458   0.148   3.876   2.891
 4520SOL    HW114459   0.124   3.803   2.956
 4520SOL    HW214460   0.114   3.852   2.800
 4521SOL     OW14461   5.408   1.633   6.378
 4521SOL    HW114462   5.382   1.676   6.291
 4521SOL    HW214463   5.327   1.621   6.435
 4522SOL     OW14464   5.423   6.787   3.523
 4522SOL    HW114465   5.473   6.832   3.597
 4522SOL    HW214466   5.389   6.857   3.460
 4523SOL     OW14467   4.831   2.125   5.355
 4523SOL    HW114468   4.748   2.122   5.300
 4523SOL    HW214469   4.873   2.034   5.358
 4524SOL     OW14470   5.773   1.604   5.627
 4524SOL    HW114471   5.696   1.540   5.617
 4524SOL    HW214472   5.844   1.581   5.560
 4525SOL     OW14473   0.102   1.010   4.031
 4525SOL    HW114474   0.146   0.932   3.986
 4525SOL    HW214475   0.132   1.014   4.127
 4526SOL     OW14476   2.598   1.771   1.132
 4526SOL    HW114477   2.530   1.709   1.094
 4526SOL    HW214478   2.604   1.853   1.075
 4527SOL     OW14479   4.570   6.700   3.218
 4527SOL    HW114480   4.477   6.729   3.198
 4527SOL    HW214481   4.600   6.740   3.305
 4528SOL     OW14482   4.662   0.410   6.144
 4528SOL    HW114483   4.750   0.455   6.137
 4528SOL    HW214484   4.659   0.353   6.226
 4529SOL     OW14485   2.955   0.304   4.239
 4529SOL    HW114486   2.980   0.394   4.205
 4529SOL    HW214487   2.902   0.313   4.323
 4530SOL     OW14488   6.496   2.667   3.986
 4530SOL    HW114489   6.500   2.567   3.984
 4530SOL    HW214490   6.410   2.698   3.945
 4531SOL     OW14491   0.181   3.866   3.969
 4531SOL    HW114492   0.225   3.871   3.880
 4531SOL    HW214493   0.249   3.842   4.038
 4532SOL     OW14494   0.437   2.482   0.497
 4532SOL    HW114495   0.391   2.487   0.585
 4532SOL    HW214496   0.408   2.559   0.439
 4533SOL     OW14497   3.587   6.206   2.230
 4533SOL    HW114498   3.669   6.250   2.194
 4533SOL    HW214499   3.525   6.276   2.265
 4534SOL     OW14500   6.531   4.134   6.327
 4534SOL    HW114501   6.567   4.100   6.414
 4534SOL    HW214502   6.498   4.228   6.339
 4535SOL     OW14503   4.655   1.848   2.731
 4535SOL    HW114504   4.605   1.930   2.704
 4535SOL    HW214505   4.735   1.874   2.785
 4536SOL     OW14506   6.985   0.185   3.637
 4536SOL    HW114507   7.004   0.177   3.735
 4536SOL    HW214508   6.923   0.261   3.621
 4537SOL     OW14509   5.263   3.037   5.466
 4537SOL    HW114510   5.255   2.959   5.405
 4537SOL    HW214511   5.180   3.045   5.522
 4538SOL     OW14512   3.594   2.176   1.596
 4538SOL    HW114513   3.607   2.230   1.679
 4538SOL    HW214514   3.675   2.184   1.538
 4539SOL     OW14515   2.522   3.769   1.216
 4539SOL    HW114516   2.564   3.768   1.307
 4539SOL    HW214517   2.558   3.846   1.164
 4540SOL     OW14518   3.746   2.996   4.344
 4540SOL    HW114519   3.817   3.063   4.364
 4540SOL    HW214520   3.685   2.988   4.422
 4541SOL     OW14521   6.119   0.967   1.657
 4541SOL    HW114522   6.129   0.878   1.612
 4541SOL    HW214523   6.060   0.957   1.736
 4542SOL     OW14524   5.382   6.522   3.489
 4542SOL    HW114525   5.428   6.608   3.465
 4542SOL    HW214526   5.433   6.446   3.449
 4543SOL     OW14527   5.093   2.386   2.529
 4543SOL    HW114528   5.168   2.320   2.539
 4543SOL    HW214529   5.089   2.418   2.434
 4544SOL     OW14530   5.493   4.689   6.826
 4544SOL    HW114531   5.476   4.620   6.755
 4544SOL    HW214532   5.548   4.650   6.899
 4545SOL     OW14533   4.436   3.425   0.609
 4545SOL    HW114534   4.515   3.407   0.667
 4545SOL    HW214535   4.466   3.461   0.521
 4546SOL     OW14536   0.949   5.946   0.450
 4546SOL    HW114537   0.992   6.012   0.512
 4546SOL    HW214538   1.019   5.885   0.412
 4547SOL     OW14539   4.395   1.654   2.541
 4547SOL    HW114540   4.343   1.568   2.539
 4547SOL    HW214541   4.374   1.707   2.459
 4548SOL     OW14542   0.784   3.090   4.732
 4548SOL    HW114543   0.731   3.023   4.784
 4548SOL    HW214544   0.814   3.163   4.793
 4549SOL     OW14545   5.778   1.298   2.403
 4549SOL    HW114546   5.831   1.224   2.444
 4549SOL    HW214547   5.727   1.345   2.475
 4550SOL     OW14548   1.927   5.329   5.300
 4550SOL    HW114549   2.005   5.382   5.267
 4550SOL    HW214550   1.954   5.234   5.312
 4551SOL     OW14551   6.163   3.401   0.537
 4551SOL    HW114552   6.093   3.424   0.605
 4551SOL    HW214553   6.126   3.333   0.473
 4552SOL     OW14554   0.051   3.623   5.107
 4552SOL    HW114555   0.080   3.688   5.178
 4552SOL    HW214556   0.090   3.649   5.019
 4553SOL     OW14557   5.308   5.102   6.936
 4553SOL    HW114558   5.390   5.159   6.938
 4553SOL    HW214559   5.296   5.065   6.844
 4554SOL     OW14560   6.610   6.399   4.365
 4554SOL    HW114561   6.670   6.320   4.351
 4554SOL    HW214562   6.544   6.406   4.290
 4555SOL     OW14563   3.678   2.875   0.343
 4555SOL    HW114564   3.757   2.936   0.345
 4555SOL    HW214565   3.608   2.912   0.282
 4556SOL     OW14566   3.961   0.180   5.030
 4556SOL    HW114567   4.057   0.206   5.040
 4556SOL    HW214568   3.909   0.257   4.993
 4557SOL     OW14569   5.241   0.964   4.008
 4557SOL    HW114570   5.216   1.047   4.058
 4557SOL    HW214571   5.182   0.954   3.928
 4558SOL     OW14572   0.407   3.631   6.873
 4558SOL    HW114573   0.313   3.637   6.905
 4558SOL    HW214574   0.450   3.721   6.878
 4559SOL     OW14575   1.732   6.588   1.512
 4559SOL    HW114576   1.648   6.544   1.484
 4559SOL    HW214577   1.745   6.575   1.611
 4560SOL     OW14578   5.875   2.625   3.502
 4560SOL    HW114579   5.847   2.559   3.431
 4560SOL    HW214580   5.798   2.641   3.564
 4561SOL     OW14581   2.551   6.050   6.681
 4561SOL    HW114582   2.604   6.116   6.735
 4561SOL    HW214583   2.557   6.073   6.584
 4562SOL     OW14584   3.326   3.906   5.705
 4562SOL    HW114585   3.292   3.872   5.618
 4562SOL    HW214586   3.255   3.962   5.749
 4563SOL     OW14587   5.800   3.212   6.546
 4563SOL    HW114588   5.734   3.143   6.517
 4563SOL    HW214589   5.867   3.171   6.608
 4564SOL     OW14590   6.743   5.063   0.159
 4564SOL    HW114591   6.648   5.042   0.182
 4564SOL    HW214592   6.803   5.000   0.208
 4565SOL     OW14593   3.466   0.881   4.274
 4565SOL    HW114594   3.554   0.836   4.289
 4565SOL    HW214595   3.392   0.820   4.302
 4566SOL     OW14596   1.767   0.490   1.024
 4566SOL    HW114597   1.704   0.508   1.099
 4566SOL    HW214598   1.802   0.396   1.032
 4567SOL     OW14599   5.574   2.532   0.807
 4567SOL    HW114600   5.497   2.592   0.787
 4567SOL    HW214601   5.578   2.514   0.905
 4568SOL     OW14602   4.543   4.439   3.894
 4568SOL    HW114603   4.444   4.447   3.877
 4568SOL    HW214604   4.564   4.475   3.984
 4569SOL     OW14605   1.890   1.800   3.919
 4569SOL    HW114606   1.986   1.812   3.943
 4569SOL    HW214607   1.852   1.887   3.887
 4570SOL     OW14608   5.395   5.570   5.034
 4570SOL    HW114609   5.383   5.647   5.096
 4570SOL    HW214610   5.336   5.581   4.955
 4571SOL     OW14611   3.621   2.914   3.783
 4571SOL    HW114612   3.641   2.827   3.739
 4571SOL    HW214613   3.642   2.907   3.881
 4572SOL     OW14614   2.600   5.591   1.199
 4572SOL    HW114615   2.650   5.505   1.190
 4572SOL    HW214616   2.646   5.663   1.146
 4573SOL     OW14617   5.077   0.023   1.560
 4573SOL    HW114618   5.088   6.945   1.541
 4573SOL    HW214619   4.998   0.059   1.510
 4574SOL     OW14620   6.967   4.954   2.068
 4574SOL    HW114621   0.048   4.953   2.067
 4574SOL    HW214622   6.935   5.012   2.142
 4575SOL     OW14623   6.708   5.776   1.482
 4575SOL    HW114624   6.766   5.744   1.407
 4575SOL    HW214625   6.708   5.709   1.555
 4576SOL     OW14626   3.426   6.303   4.228
 4576SOL    HW114627   3.492   6.372   4.199
 4576SOL    HW214628   3.340   6.347   4.254
 4577SOL     OW14629   2.402   4.344   3.567
 4577SOL    HW114630   2.352   4.309   3.647
 4577SOL    HW214631   2.480   4.398   3.598
 4578SOL     OW14632   5.936   6.246   3.726
 4578SOL    HW114633   5.854   6.302   3.731
 4578SOL    HW214634   5.974   6.250   3.633
 4579SOL     OW14635   4.396   1.825   3.381
 4579SOL    HW114636   4.413   1.924   3.385
 4579SOL    HW214637   4.347   1.804   3.296
 4580SOL     OW14638   0.497   5.065   0.072
 4580SOL    HW114639   0.558   5.083   0.150
 4580SOL    HW214640   0.533   4.990   0.018
 4581SOL     OW14641   3.667   5.730   4.712
 4581SOL    HW114642   3.619   5.643   4.700
 4581SOL    HW214643   3.610   5.804   4.675
 4582SOL     OW14644   4.771   6.330   3.168
 4582SOL    HW114645   4.850   6.304   3.113
 4582SOL    HW214646   4.719   6.401   3.121
 4583SOL     OW14647   3.547   6.716   5.271
 4583SOL    HW114648   3.591   6.626   5.259
 4583SOL    HW214649   3.453   6.702   5.302
 4584SOL     OW14650   6.912   5.198   5.837
 4584SOL    HW114651   6.911   5.145   5.752
 4584SOL    HW214652   6.852   5.154   5.904
 4585SOL     OW14653   2.912   6.583   2.390
 4585SOL    HW114654   2.884   6.678   2.395
 4585SOL    HW214655   2.906   6.542   2.481
 4586SOL     OW14656   2.133   6.174   1.589
 4586SOL    HW114657   2.117   6.078   1.610
 4586SOL    HW214658   2.078   6.201   1.510
 4587SOL     OW14659   3.328   5.076   1.146
 4587SOL    HW114660   3.264   5.091   1.221
 4587SOL    HW214661   3.404   5.020   1.178
 4588SOL     OW14662   3.305   4.134   4.851
 4588SOL    HW114663   3.368   4.122   4.775
 4588SOL    HW214664   3.305   4.230   4.880
 4589SOL     OW14665   2.095   2.198   3.208
 4589SOL    HW114666   2.057   2.155   3.290
 4589SOL    HW214667   2.123   2.291   3.230
 4590SOL     OW14668   4.349   6.180   2.802
 4590SOL    HW114669   4.331   6.084   2.824
 4590SOL    HW214670   4.391   6.225   2.880
 4591SOL     OW14671   4.533   6.014   4.717
 4591SOL    HW114672   4.531   6.080   4.792
 4591SOL    HW214673   4.463   5.944   4.732
 4592SOL     OW14674   3.422   2.223   5.593
 4592SOL    HW114675   3.499   2.287   5.597
 4592SOL    HW214676   3.384   2.223   5.501
 4593SOL     OW14677   4.682   5.577   1.804
 4593SOL    HW114678   4.625   5.636   1.862
 4593SOL    HW214679   4.706   5.494   1.854
 4594SOL     OW14680   3.858   2.165   2.345
 4594SOL    HW114681   3.765   2.135   2.366
 4594SOL    HW214682   3.868   2.175   2.246
 4595SOL     OW14683   4.443   3.269   5.596
 4595SOL    HW114684   4.487   3.353   5.567
 4595SOL    HW214685   4.396   3.227   5.518
 4596SOL     OW14686   4.828   0.880   2.525
 4596SOL    HW114687   4.861   0.972   2.507
 4596SOL    HW214688   4.902   0.814   2.511
 4597SOL     OW14689   6.934   3.683   6.499
 4597SOL    HW114690   6.929   3.747   6.422
 4597SOL    HW214691   6.874   3.605   6.480
 4598SOL     OW14692   2.713   3.873   6.586
 4598SOL    HW114693   2.635   3.812   6.603
 4598SOL    HW214694   2.681   3.955   6.538
 4599SOL     OW14695   3.122   4.784   0.635
 4599SOL    HW114696   3.136   4.821   0.543
 4599SOL    HW214697   3.207   4.743   0.668
 4600SOL     OW14698   2.508   3.718   0.871
 4600SOL    HW114699   2.437   3.687   0.934
 4600SOL    HW214700   2.568   3.783   0.918
 4601SOL     OW14701   1.971   5.134   3.146
 4601SOL    HW114702   2.053   5.089   3.183
 4601SOL    HW214703   1.920   5.176   3.222
 4602SOL     OW14704   1.542   0.132   1.725
 4602SOL    HW114705   1.461   0.141   1.667
 4602SOL    HW214706   1.547   0.211   1.787
 4603SOL     OW14707   3.049   1.883   1.603
 4603SOL    HW114708   3.015   1.794   1.573
 4603SOL    HW214709   3.145   1.874   1.631
 4604SOL     OW14710   1.246   6.855   3.164
 4604SOL    HW114711   1.220   6.944   3.125
 4604SOL    HW214712   1.252   6.862   3.263
 4605SOL     OW14713   5.314   6.645   5.691
 4605SOL    HW114714   5.319   6.733   5.738
 4605SOL    HW214715   5.229   6.638   5.639
 4606SOL     OW14716   5.863   6.085   4.660
 4606SOL    HW114717   5.905   6.124   4.579
 4606SOL    HW214718   5.764   6.086   4.651
 4607SOL     OW14719   3.184   3.135   0.852
 4607SOL    HW114720   3.098   3.090   0.875
 4607SOL    HW214721   3.258   3.093   0.904
 4608SOL     OW14722   1.535   3.069   6.031
 4608SOL    HW114723   1.570   3.081   6.123
 4608SOL    HW214724   1.571   2.984   5.992
 4609SOL     OW14725   3.301   0.137   0.550
 4609SOL    HW114726   3.331   0.118   0.457
 4609SOL    HW214727   3.372   0.188   0.599
 4610SOL     OW14728   6.562   3.721   0.445
 4610SOL    HW114729   6.599   3.802   0.490
 4610SOL    HW214730   6.633   3.652   0.436
 4611SOL     OW14731   1.701   4.936   6.568
 4611SOL    HW114732   1.780   4.994   6.584
 4611SOL    HW214733   1.655   4.917   6.656
 4612SOL     OW14734   1.406   0.703   6.467
 4612SOL    HW114735   1.458   0.781   6.499
 4612SOL    HW214736   1.409   0.630   6.535
 4613SOL     OW14737   3.752   4.891   1.529
 4613SOL    HW114738   3.693   4.968   1.506
 4613SOL    HW214739   3.844   4.924   1.551
 4614SOL     OW14740   1.996   4.454   0.553
 4614SOL    HW114741   1.943   4.432   0.635
 4614SOL    HW214742   2.093   4.435   0.570
 4615SOL     OW14743   5.896   3.454   6.417
 4615SOL    HW114744   5.883   3.527   6.484
 4615SOL    HW214745   5.857   3.369   6.453
 4616SOL     OW14746   5.418   0.893   6.543
 4616SOL    HW114747   5.489   0.824   6.552
 4616SOL    HW214748   5.367   0.878   6.458
 4617SOL     OW14749   0.298   4.301   1.457
 4617SOL    HW114750   0.381   4.248   1.474
 4617SOL    HW214751   0.229   4.278   1.526
 4618SOL     OW14752   1.271   2.996   6.120
 4618SOL    HW114753   1.292   2.977   6.216
 4618SOL    HW214754   1.356   3.001   6.067
 4619SOL     OW14755   3.683   0.990   3.829
 4619SOL    HW114756   3.691   0.929   3.908
 4619SOL    HW214757   3.774   1.012   3.794
 4620SOL     OW14758   1.978   5.984   0.213
 4620SOL    HW114759   2.047   6.009   0.280
 4620SOL    HW214760   1.890   5.969   0.259
 4621SOL     OW14761   6.488   0.736   6.706
 4621SOL    HW114762   6.412   0.743   6.772
 4621SOL    HW214763   6.566   0.692   6.750
 4622SOL     OW14764   1.541   4.582   0.443
 4622SOL    HW114765   1.562   4.609   0.349
 4622SOL    HW214766   1.613   4.614   0.504
 4623SOL     OW14767   5.902   3.348   3.783
 4623SOL    HW114768   5.858   3.426   3.827
 4623SOL    HW214769   5.936   3.375   3.693
 4624SOL     OW14770   4.406   6.462   5.540
 4624SOL    HW114771   4.393   6.561   5.548
 4624SOL    HW214772   4.490   6.436   5.587
 4625SOL     OW14773   1.079   4.123   6.275
 4625SOL    HW114774   1.122   4.083   6.194
 4625SOL    HW214775   1.001   4.065   6.302
 4626SOL     OW14776   6.604   4.351   2.169
 4626SOL    HW114777   6.506   4.334   2.183
 4626SOL    HW214778   6.616   4.440   2.124
 4627SOL     OW14779   2.105   0.006   4.315
 4627SOL    HW114780   2.199   6.999   4.295
 4627SOL    HW214781   2.044   6.989   4.244
 4628SOL     OW14782   6.582   2.188   1.821
 4628SOL    HW114783   6.590   2.261   1.889
 4628SOL    HW214784   6.673   2.148   1.804
 4629SOL     OW14785   4.462   5.096   3.663
 4629SOL    HW114786   4.436   5.003   3.638
 4629SOL    HW214787   4.409   5.161   3.609
 4630SOL     OW14788   2.839   6.177   2.860
 4630SOL    HW114789   2.777   6.109   2.822
 4630SOL    HW214790   2.789   6.238   2.921
 4631SOL     OW14791   1.845   0.616   2.564
 4631SOL    HW114792   1.918   0.677   2.595
 4631SOL    HW214793   1.885   0.540   2.512
 4632SOL     OW14794   5.742   6.339   4.336
 4632SOL    HW114795   5.820   6.301   4.386
 4632SOL    HW214796   5.758   6.330   4.238
 4633SOL     OW14797   4.782   3.136   6.435
 4633SOL    HW114798   4.814   3.134   6.529
 4633SOL    HW214799   4.846   3.188   6.379
 4634SOL     OW14800   2.650   3.846   0.676
 4634SOL    HW114801   2.612   3.788   0.748
 4634SOL    HW214802   2.583   3.855   0.602
 4635SOL     OW14803   4.749   3.250   1.654
 4635SOL    HW114804   4.711   3.161   1.628
 4635SOL    HW214805   4.789   3.294   1.573
 4636SOL     OW14806   0.960   5.041   2.207
 4636SOL    HW114807   0.986   5.032   2.111
 4636SOL    HW214808   1.020   4.984   2.263
 4637SOL     OW14809   0.691   1.016   5.538
 4637SOL    HW114810   0.784   1.002   5.504
 4637SOL    HW214811   0.649   0.928   5.557
 4638SOL     OW14812   4.340   4.778   5.688
 4638SOL    HW114813   4.273   4.727   5.741
 4638SOL    HW214814   4.294   4.850   5.637
 4639SOL     OW14815   6.548   2.274   5.400
 4639SOL    HW114816   6.539   2.220   5.317
 4639SOL    HW214817   6.520   2.368   5.383
 4640SOL     OW14818   0.030   5.453   2.993
 4640SOL    HW114819   0.068   5.537   3.031
 4640SOL    HW214820   0.027   5.382   3.064
 4641SOL     OW14821   2.384   3.749   5.339
 4641SOL    HW114822   2.291   3.713   5.350
 4641SOL    HW214823   2.383   3.820   5.269
 4642SOL     OW14824   5.807   5.407   4.822
 4642SOL    HW114825   5.802   5.446   4.730
 4642SOL    HW214826   5.717   5.373   4.849
 4643SOL     OW14827   4.618   3.914   1.370
 4643SOL    HW114828   4.667   3.834   1.403
 4643SOL    HW214829   4.602   3.906   1.272
 4644SOL     OW14830   3.389   5.008   5.513
 4644SOL    HW114831   3.477   4.961   5.505
 4644SOL    HW214832   3.318   4.942   5.537
 4645SOL     OW14833   1.796   6.471   4.588
 4645SOL    HW114834   1.811   6.448   4.684
 4645SOL    HW214835   1.856   6.415   4.531
 4646SOL     OW14836   3.464   1.365   1.125
 4646SOL    HW114837   3.564   1.365   1.125
 4646SOL    HW214838   3.430   1.449   1.083
 4647SOL     OW14839   6.315   0.689   5.397
 4647SOL    HW114840   6.374   0.627   5.449
 4647SOL    HW214841   6.267   0.750   5.460
 4648SOL     OW14842   2.433   6.261   3.471
 4648SOL    HW114843   2.519   6.270   3.421
 4648SOL    HW214844   2.370   6.334   3.443
 4649SOL     OW14845   5.820   5.282   5.595
 4649SOL    HW114846   5.878   5.364   5.596
 4649SOL    HW214847   5.871   5.206   5.554
 4650SOL     OW14848   6.258   4.956   1.536
 4650SOL    HW114849   6.278   5.004   1.620
 4650SOL    HW214850   6.321   4.986   1.464
 4651SOL     OW14851   5.849   1.796   1.440
 4651SOL    HW114852   5.918   1.725   1.427
 4651SOL    HW214853   5.792   1.774   1.519
 4652SOL     OW14854   0.307   6.420   5.792
 4652SOL    HW114855   0.259   6.496   5.747
 4652SOL    HW214856   0.253   6.336   5.783
 4653SOL     OW14857   1.628   4.689   0.204
 4653SOL    HW114858   1.575   4.651   0.128
 4653SOL    HW214859   1.651   4.784   0.184
 4654SOL     OW14860   1.707   1.824   0.704
 4654SOL    HW114861   1.713   1.879   0.621
 4654SOL    HW214862   1.794   1.829   0.754
 4655SOL     OW14863   0.503   5.171   4.545
 4655SOL    HW114864   0.420   5.121   4.568
 4655SOL    HW214865   0.491   5.219   4.458
 4656SOL     OW14866   2.752   0.612   2.848
 4656SOL    HW114867   2.724   0.538   2.910
 4656SOL    HW214868   2.790   0.687   2.901
 4657SOL     OW14869   6.773   0.991   5.614
 4657SOL    HW114870   6.674   1.004   5.614
 4657SOL    HW214871   6.797   0.916   5.553
 4658SOL     OW14872   5.476   0.145   3.980
 4658SOL    HW114873   5.545   0.200   4.027
 4658SOL    HW214874   5.431   0.201   3.911
 4659SOL     OW14875   2.115   3.313   4.159
 4659SOL    HW114876   2.050   3.311   4.083
 4659SOL    HW214877   2.115   3.225   4.206
 4660SOL     OW14878   6.381   1.157   4.806
 4660SOL    HW114879   6.420   1.115   4.887
 4660SOL    HW214880   6.413   1.109   4.724
 4661SOL     OW14881   3.332   3.216   3.621
 4661SOL    HW114882   3.408   3.187   3.563
 4661SOL    HW214883   3.280   3.287   3.574
 4662SOL     OW14884   6.126   6.464   4.841
 4662SOL    HW114885   6.177   6.547   4.820
 4662SOL    HW214886   6.114   6.456   4.940
 4663SOL     OW14887   0.571   1.866   2.309
 4663SOL    HW114888   0.595   1.807   2.386
 4663SOL    HW214889   0.653   1.909   2.274
 4664SOL     OW14890   3.420   4.792   0.041
 4664SOL    HW114891   3.456   4.751   0.125
 4664SOL    HW214892   3.439   4.732   6.983
 4665SOL     OW14893   5.911   0.834   6.095
 4665SOL    HW114894   5.929   0.870   6.003
 4665SOL    HW214895   5.860   0.748   6.087
 4666SOL     OW14896   1.770   1.271   0.657
 4666SOL    HW114897   1.777   1.370   0.665
 4666SOL    HW214898   1.861   1.232   0.643
 4667SOL     OW14899   0.305   6.109   4.084
 4667SOL    HW114900   0.296   6.199   4.040
 4667SOL    HW214901   0.318   6.039   4.013
 4668SOL     OW14902   5.820   1.327   5.167
 4668SOL    HW114903   5.820   1.324   5.067
 4668SOL    HW214904   5.914   1.325   5.201
 4669SOL     OW14905   2.324   1.985   2.267
 4669SOL    HW114906   2.310   2.061   2.330
 4669SOL    HW214907   2.385   2.014   2.193
 4670SOL     OW14908   2.663   1.888   4.406
 4670SOL    HW114909   2.711   1.870   4.492
 4670SOL    HW214910   2.691   1.821   4.338
 4671SOL     OW14911   5.842   2.302   2.463
 4671SOL    HW114912   5.935   2.264   2.470
 4671SOL    HW214913   5.827   2.368   2.537
 4672SOL     OW14914   2.912   2.173   5.138
 4672SOL    HW114915   2.842   2.245   5.136
 4672SOL    HW214916   3.002   2.213   5.124
 4673SOL     OW14917   5.274   0.545   2.316
 4673SOL    HW114918   5.278   0.448   2.290
 4673SOL    HW214919   5.304   0.601   2.238
 4674SOL     OW14920   4.448   6.751   5.334
 4674SOL    HW114921   4.522   6.719   5.394
 4674SOL    HW214922   4.378   6.796   5.389
 4675SOL     OW14923   0.787   4.176   5.907
 4675SOL    HW114924   0.858   4.127   5.958
 4675SOL    HW214925   0.724   4.109   5.867
 4676SOL     OW14926   1.228   4.647   3.677
 4676SOL    HW114927   1.215   4.746   3.682
 4676SOL    HW214928   1.273   4.623   3.591
 4677SOL     OW14929   1.151   3.355   0.567
 4677SOL    HW114930   1.202   3.422   0.621
 4677SOL    HW214931   1.117   3.397   0.483
 4678SOL     OW14932   1.541   2.400   1.166
 4678SOL    HW114933   1.514   2.444   1.080
 4678SOL    HW214934   1.489   2.440   1.242
 4679SOL     OW14935   4.634   0.430   2.310
 4679SOL    HW114936   4.548   0.424   2.362
 4679SOL    HW214937   4.690   0.349   2.329
 4680SOL     OW14938   2.996   1.080   6.966
 4680SOL    HW114939   3.078   1.062   6.912
 4680SOL    HW214940   2.938   1.146   6.919
 4681SOL     OW14941   5.069   5.461   2.071
 4681SOL    HW114942   5.117   5.396   2.130
 4681SOL    HW214943   5.133   5.497   2.003
 4682SOL     OW14944   3.455   3.075   6.281
 4682SOL    HW114945   3.473   3.092   6.184
 4682SOL    HW214946   3.487   3.154   6.334
 4683SOL     OW14947   6.782   4.093   4.251
 4683SOL    HW114948   6.823   4.010   4.289
 4683SOL    HW214949   6.846   4.170   4.261
 4684SOL     OW14950   5.279   0.382   5.553
 4684SOL    HW114951   5.205   0.317   5.532
 4684SOL    HW214952   5.338   0.391   5.473
 4685SOL     OW14953   3.187   3.915   4.176
 4685SOL    HW114954   3.146   3.908   4.267
 4685SOL    HW214955   3.117   3.945   4.111
 4686SOL     OW14956   1.433   6.995   6.337
 4686SOL    HW114957   1.348   6.942   6.327
 4686SOL    HW214958   1.414   0.059   6.389
 4687SOL     OW14959   1.216   0.244   2.481
 4687SOL    HW114960   1.241   0.150   2.461
 4687SOL    HW214961   1.143   0.246   2.549
 4688SOL     OW14962   5.061   2.758   4.763
 4688SOL    HW114963   4.989   2.714   4.710
 4688SOL    HW214964   5.118   2.814   4.703
 4689SOL     OW14965   6.970   0.945   1.007
 4689SOL    HW114966   0.031   0.948   1.066
 4689SOL    HW214967   6.911   0.869   1.036
 4690SOL     OW14968   3.754   2.449   1.399
 4690SOL    HW114969   3.675   2.486   1.448
 4690SOL    HW214970   3.814   2.403   1.464
 4691SOL     OW14971   6.526   3.260   2.140
 4691SOL    HW114972   6.459   3.262   2.065
 4691SOL    HW214973   6.530   3.350   2.183
 4692SOL     OW14974   5.949   2.798   3.050
 4692SOL    HW114975   5.874   2.736   3.027
 4692SOL    HW214976   5.946   2.819   3.148
 4693SOL     OW14977   6.820   0.417   4.139
 4693SOL    HW114978   6.842   0.329   4.096
 4693SOL    HW214979   6.895   0.446   4.197
 4694SOL     OW14980   2.011   6.649   5.696
 4694SOL    HW114981   1.950   6.573   5.721
 4694SOL    HW214982   2.017   6.713   5.772
 4695SOL     OW14983   2.110   4.864   2.025
 4695SOL    HW114984   2.085   4.953   1.987
 4695SOL    HW214985   2.204   4.842   1.999
 4696SOL     OW14986   1.986   6.135   6.130
 4696SOL    HW114987   1.938   6.066   6.076
 4696SOL    HW214988   2.078   6.148   6.093
 4697SOL     OW14989   4.388   5.780   1.566
 4697SOL    HW114990   4.350   5.861   1.522
 4697SOL    HW214991   4.357   5.697   1.519
 4698SOL     OW14992   5.491   1.591   4.657
 4698SOL    HW114993   5.443   1.518   4.706
 4698SOL    HW214994   5.434   1.623   4.581
 4699SOL     OW14995   0.706   1.532   2.764
 4699SOL    HW114996   0.786   1.473   2.774
 4699SOL    HW214997   0.642   1.491   2.699
 4700SOL     OW14998   6.667   2.039   3.668
 4700SOL    HW114999   6.759   2.026   3.630
 4700SOL    HW215000   6.633   2.129   3.641
 4701SOL     OW15001   2.778   2.570   1.698
 4701SOL    HW115002   2.827   2.530   1.776
 4701SOL    HW215003   2.800   2.517   1.615
 4702SOL     OW15004   6.098   5.065   1.225
 4702SOL    HW115005   6.122   5.145   1.171
 4702SOL    HW215006   6.035   5.007   1.174
 4703SOL     OW15007   6.772   4.865   4.290
 4703SOL    HW115008   6.820   4.793   4.240
 4703SOL    HW215009   6.801   4.865   4.385
 4704SOL     OW15010   1.570   5.078   4.528
 4704SOL    HW115011   1.630   5.136   4.473
 4704SOL    HW215012   1.573   4.984   4.494
 4705SOL     OW15013   2.921   2.264   1.250
 4705SOL    HW115014   2.960   2.293   1.162
 4705SOL    HW215015   2.958   2.175   1.275
 4706SOL     OW15016   1.822   1.711   1.064
 4706SOL    HW115017   1.784   1.623   1.036
 4706SOL    HW215018   1.747   1.774   1.083
 4707SOL     OW15019   1.850   5.554   2.179
 4707SOL    HW115020   1.817   5.593   2.265
 4707SOL    HW215021   1.772   5.518   2.127
 4708SOL     OW15022   2.194   2.757   6.798
 4708SOL    HW115023   2.243   2.706   6.868
 4708SOL    HW215024   2.130   2.820   6.841
 4709SOL     OW15025   5.947   3.585   5.198
 4709SOL    HW115026   5.882   3.567   5.124
 4709SOL    HW215027   6.003   3.665   5.174
 4710SOL     OW15028   6.401   4.881   5.462
 4710SOL    HW115029   6.409   4.843   5.554
 4710SOL    HW215030   6.443   4.820   5.396
 4711SOL     OW15031   4.724   4.280   2.759
 4711SOL    HW115032   4.816   4.319   2.754
 4711SOL    HW215033   4.726   4.185   2.727
 4712SOL     OW15034   4.243   4.861   5.993
 4712SOL    HW115035   4.210   4.900   6.080
 4712SOL    HW215036   4.319   4.800   6.011
 4713SOL     OW15037   5.548   4.797   1.323
 4713SOL    HW115038   5.580   4.772   1.231
 4713SOL    HW215039   5.498   4.883   1.318
 4714SOL     OW15040   4.618   2.008   5.579
 4714SOL    HW115041   4.588   1.950   5.655
 4714SOL    HW215042   4.717   2.017   5.582
 4715SOL     OW15043   0.123   1.127   1.800
 4715SOL    HW115044   0.050   1.130   1.732
 4715SOL    HW215045   0.089   1.084   1.884
 4716SOL     OW15046   3.953   4.330   5.498
 4716SOL    HW115047   3.878   4.369   5.553
 4716SOL    HW215048   3.916   4.258   5.439
 4717SOL     OW15049   1.759   4.676   6.120
 4717SOL    HW115050   1.833   4.678   6.187
 4717SOL    HW215051   1.693   4.748   6.142
 4718SOL     OW15052   4.854   3.582   2.667
 4718SOL    HW115053   4.760   3.605   2.642
 4718SOL    HW215054   4.885   3.504   2.614
 4719SOL     OW15055   5.741   3.981   3.916
 4719SOL    HW115056   5.641   3.982   3.921
 4719SOL    HW215057   5.773   4.065   3.872
 4720SOL     OW15058   0.879   1.862   6.090
 4720SOL    HW115059   0.886   1.959   6.068
 4720SOL    HW215060   0.786   1.830   6.070
 4721SOL     OW15061   0.539   2.944   2.891
 4721SOL    HW115062   0.442   2.943   2.866
 4721SOL    HW215063   0.593   2.905   2.817
 4722SOL     OW15064   1.756   5.128   5.919
 4722SOL    HW115065   1.784   5.215   5.877
 4722SOL    HW215066   1.837   5.070   5.932
 4723SOL     OW15067   3.172   4.328   5.930
 4723SOL    HW115068   3.171   4.419   5.887
 4723SOL    HW215069   3.256   4.318   5.983
 4724SOL     OW15070   0.415   0.589   4.389
 4724SOL    HW115071   0.389   0.682   4.415
 4724SOL    HW215072   0.375   0.523   4.453
 4725SOL     OW15073   5.692   5.314   1.601
 4725SOL    HW115074   5.757   5.272   1.664
 4725SOL    HW215075   5.648   5.392   1.646
 4726SOL     OW15076   1.916   3.087   5.897
 4726SOL    HW115077   1.846   3.078   5.826
 4726SOL    HW215078   2.005   3.104   5.853
 4727SOL     OW15079   6.172   5.381   1.832
 4727SOL    HW115080   6.245   5.314   1.845
 4727SOL    HW215081   6.177   5.450   1.904
 4728SOL     OW15082   4.147   0.953   3.464
 4728SOL    HW115083   4.140   1.034   3.406
 4728SOL    HW215084   4.221   0.966   3.531
 4729SOL     OW15085   0.315   1.433   2.971
 4729SOL    HW115086   0.398   1.400   3.016
 4729SOL    HW215087   0.236   1.384   3.007
 4730SOL     OW15088   2.769   0.843   3.458
 4730SOL    HW115089   2.861   0.874   3.481
 4730SOL    HW215090   2.768   0.743   3.453
 4731SOL     OW15091   3.578   6.867   2.200
 4731SOL    HW115092   3.530   6.784   2.229
 4731SOL    HW215093   3.621   6.850   2.111
 4732SOL     OW15094   0.340   4.821   4.504
 4732SOL    HW115095   0.421   4.795   4.450
 4732SOL    HW215096   0.299   4.739   4.543
 4733SOL     OW15097   2.023   4.006   3.183
 4733SOL    HW115098   2.060   3.920   3.148
 4733SOL    HW215099   2.027   4.006   3.283
 4734SOL     OW15100   4.601   4.432   6.551
 4734SOL    HW115101   4.589   4.356   6.615
 4734SOL    HW215102   4.528   4.428   6.482
 4735SOL     OW15103   0.399   1.015   5.480
 4735SOL    HW115104   0.489   1.006   5.522
 4735SOL    HW215105   0.397   0.963   5.394
 4736SOL     OW15106   6.049   0.387   4.742
 4736SOL    HW115107   5.951   0.373   4.752
 4736SOL    HW215108   6.066   0.432   4.654
 4737SOL     OW15109   1.964   5.318   0.134
 4737SOL    HW115110   2.021   5.378   0.078
 4737SOL    HW215111   2.022   5.272   0.202
 4738SOL     OW15112   6.983   5.954   3.473
 4738SOL    HW115113   6.945   5.895   3.544
 4738SOL    HW215114   0.026   6.020   3.514
 4739SOL     OW15115   5.775   3.538   2.945
 4739SOL    HW115116   5.864   3.493   2.954
 4739SOL    HW215117   5.735   3.550   3.036
 4740SOL     OW15118   1.803   6.434   0.639
 4740SOL    HW115119   1.710   6.409   0.662
 4740SOL    HW215120   1.831   6.513   0.694
 4741SOL     OW15121   5.970   4.681   2.238
 4741SOL    HW115122   6.069   4.669   2.246
 4741SOL    HW215123   5.940   4.754   2.299
 4742SOL     OW15124   2.123   5.751   2.215
 4742SOL    HW115125   2.078   5.663   2.200
 4742SOL    HW215126   2.055   5.820   2.240
 4743SOL     OW15127   2.864   3.471   0.519
 4743SOL    HW115128   2.833   3.414   0.443
 4743SOL    HW215129   2.888   3.412   0.596
 4744SOL     OW15130   3.194   1.701   5.803
 4744SOL    HW115131   3.127   1.690   5.876
 4744SOL    HW215132   3.284   1.672   5.836
 4745SOL     OW15133   4.581   5.851   4.319
 4745SOL    HW115134   4.529   5.780   4.366
 4745SOL    HW215135   4.607   5.819   4.228
 4746SOL     OW15136   5.710   1.524   1.169
 4746SOL    HW115137   5.742   1.604   1.119
 4746SOL    HW215138   5.610   1.522   1.168
 4747SOL     OW15139   1.206   2.935   2.154
 4747SOL    HW115140   1.225   2.983   2.240
 4747SOL    HW215141   1.129   2.872   2.168
 4748SOL     OW15142   2.351   6.253   0.226
 4748SOL    HW115143   2.321   6.338   0.184
 4748SOL    HW215144   2.296   6.177   0.190
 4749SOL     OW15145   3.853   1.294   0.165
 4749SOL    HW115146   3.770   1.278   0.113
 4749SOL    HW215147   3.914   1.214   0.156
 4750SOL     OW15148   0.926   1.708   4.934
 4750SOL    HW115149   0.872   1.781   4.893
 4750SOL    HW215150   1.022   1.716   4.905
 4751SOL     OW15151   1.257   3.877   6.628
 4751SOL    HW115152   1.297   3.920   6.547
 4751SOL    HW215153   1.268   3.937   6.707
 4752SOL     OW15154   1.567   6.083   1.255
 4752SOL    HW115155   1.500   6.089   1.330
 4752SOL    HW215156   1.541   6.008   1.194
 4753SOL     OW15157   0.101   0.869   6.217
 4753SOL    HW115158   0.163   0.830   6.148
 4753SOL    HW215159   0.152   0.890   6.300
 4754SOL     OW15160   1.501   0.970   6.744
 4754SOL    HW115161   1.589   0.975   6.790
 4754SOL    HW215162   1.428   0.984   6.811
 4755SOL     OW15163   2.836   6.865   3.069
 4755SOL    HW115164   2.911   6.924   3.036
 4755SOL    HW215165   2.861   6.826   3.157
 4756SOL     OW15166   5.692   2.451   1.069
 4756SOL    HW115167   5.761   2.388   1.035
 4756SOL    HW215168   5.723   2.545   1.055
 4757SOL     OW15169   2.627   2.956   0.680
 4757SOL    HW115170   2.714   2.947   0.729
 4757SOL    HW215171   2.588   3.046   0.698
 4758SOL     OW15172   6.200   3.958   6.354
 4758SOL    HW115173   6.139   3.978   6.431
 4758SOL    HW215174   6.222   4.043   6.306
 4759SOL     OW15175   6.957   3.999   6.847
 4759SOL    HW115176   7.016   3.944   6.907
 4759SOL    HW215177   7.014   4.049   6.782
 4760SOL     OW15178   0.781   2.794   0.154
 4760SOL    HW115179   0.714   2.858   0.192
 4760SOL    HW215180   0.851   2.845   0.103
 4761SOL     OW15181   2.953   6.263   6.630
 4761SOL    HW115182   2.902   6.274   6.545
 4761SOL    HW215183   2.948   6.347   6.683
 4762SOL     OW15184   3.601   0.383   2.836
 4762SOL    HW115185   3.506   0.354   2.823
 4762SOL    HW215186   3.609   0.480   2.812
 4763SOL     OW15187   4.934   4.783   4.779
 4763SOL    HW115188   5.008   4.749   4.721
 4763SOL    HW215189   4.965   4.863   4.831
 4764SOL     OW15190   3.135   3.664   3.742
 4764SOL    HW115191   3.187   3.746   3.764
 4764SOL    HW215192   3.179   3.584   3.785
 4765SOL     OW15193   5.954   5.773   6.381
 4765SOL    HW115194   5.993   5.839   6.444
 4765SOL    HW215195   5.914   5.697   6.432
 4766SOL     OW15196   2.974   1.596   3.395
 4766SOL    HW115197   2.949   1.499   3.389
 4766SOL    HW215198   2.926   1.638   3.472
 4767SOL     OW15199   4.416   0.765   6.659
 4767SOL    HW115200   4.317   0.761   6.675
 4767SOL    HW215201   4.458   0.825   6.727
 4768SOL     OW15202   1.967   0.682   5.743
 4768SOL    HW115203   1.898   0.715   5.807
 4768SOL    HW215204   1.961   0.582   5.736
 4769SOL     OW15205   4.702   0.596   1.837
 4769SOL    HW115206   4.625   0.576   1.897
 4769SOL    HW215207   4.668   0.637   1.752
 4770SOL     OW15208   2.726   1.345   3.662
 4770SOL    HW115209   2.751   1.274   3.727
 4770SOL    HW215210   2.796   1.417   3.663
 4771SOL     OW15211   4.108   4.694   6.205
 4771SOL    HW115212   4.204   4.722   6.204
 4771SOL    HW215213   4.063   4.734   6.286
 4772SOL     OW15214   3.560   2.814   6.949
 4772SOL    HW115215   3.590   2.898   6.905
 4772SOL    HW215216   3.555   2.740   6.882
 4773SOL     OW15217   0.030   4.849   4.732
 4773SOL    HW115218   0.105   4.913   4.746
 4773SOL    HW215219   6.965   4.899   4.713
 4774SOL     OW15220   2.139   4.096   0.045
 4774SOL    HW115221   2.065   4.039   0.009
 4774SOL    HW215222   2.109   4.139   0.130
 4775SOL     OW15223   1.997   3.125   2.692
 4775SOL    HW115224   2.013   3.182   2.611
 4775SOL    HW215225   1.958   3.037   2.663
 4776SOL     OW15226   4.186   5.257   1.620
 4776SOL    HW115227   4.140   5.326   1.676
 4776SOL    HW215228   4.260   5.215   1.673
 4777SOL     OW15229   1.688   4.091   1.192
 4777SOL    HW115230   1.745   4.123   1.116
 4777SOL    HW215231   1.744   4.037   1.255
 4778SOL     OW15232   5.463   3.033   2.918
 4778SOL    HW115233   5.488   2.959   2.856
 4778SOL    HW215234   5.546   3.070   2.961
 4779SOL     OW15235   5.628   1.254   2.755
 4779SOL    HW115236   5.560   1.322   2.783
 4779SOL    HW215237   5.583   1.168   2.733
 4780SOL     OW15238   1.751   1.916   5.534
 4780SOL    HW115239   1.797   1.926   5.446
 4780SOL    HW215240   1.653   1.933   5.523
 4781SOL     OW15241   2.577   5.634   2.771
 4781SOL    HW115242   2.519   5.715   2.771
 4781SOL    HW215243   2.528   5.558   2.814
 4782SOL     OW15244   6.130   6.102   6.801
 4782SOL    HW115245   6.094   6.017   6.840
 4782SOL    HW215246   6.214   6.082   6.751
 4783SOL     OW15247   5.883   4.267   2.997
 4783SOL    HW115248   5.820   4.265   2.920
 4783SOL    HW215249   5.852   4.204   3.067
 4784SOL     OW15250   4.970   4.288   4.519
 4784SOL    HW115251   5.030   4.208   4.515
 4784SOL    HW215252   4.881   4.264   4.480
 4785SOL     OW15253   5.615   5.972   0.691
 4785SOL    HW115254   5.615   6.004   0.597
 4785SOL    HW215255   5.530   5.921   0.709
 4786SOL     OW15256   1.730   4.556   3.122
 4786SOL    HW115257   1.695   4.595   3.037
 4786SOL    HW215258   1.824   4.525   3.108
 4787SOL     OW15259   4.065   2.134   2.741
 4787SOL    HW115260   3.991   2.072   2.765
 4787SOL    HW215261   4.075   2.203   2.813
 4788SOL     OW15262   2.667   0.533   4.713
 4788SOL    HW115263   2.568   0.529   4.722
 4788SOL    HW215264   2.709   0.535   4.804
 4789SOL     OW15265   5.096   5.832   0.078
 4789SOL    HW115266   5.051   5.833   0.167
 4789SOL    HW215267   5.070   5.750   0.028
 4790SOL     OW15268   5.588   0.067   6.851
 4790SOL    HW115269   5.553   0.034   6.764
 4790SOL    HW215270   5.664   0.009   6.882
 4791SOL     OW15271   4.328   2.407   3.281
 4791SOL    HW115272   4.258   2.345   3.244
 4791SOL    HW215273   4.342   2.483   3.218
 4792SOL     OW15274   3.454   3.182   0.509
 4792SOL    HW115275   3.416   3.091   0.528
 4792SOL    HW215276   3.481   3.187   0.412
 4793SOL     OW15277   0.605   0.833   0.272
 4793SOL    HW115278   0.601   0.907   0.204
 4793SOL    HW215279   0.693   0.838   0.320
 4794SOL     OW15280   5.659   0.936   1.923
 4794SOL    HW115281   5.605   0.853   1.943
 4794SOL    HW215282   5.605   0.998   1.867
 4795SOL     OW15283   5.885   2.314   4.122
 4795SOL    HW115284   5.983   2.333   4.127
 4795SOL    HW215285   5.834   2.400   4.128
 4796SOL     OW15286   4.775   3.825   0.367
 4796SOL    HW115287   4.730   3.912   0.387
 4796SOL    HW215288   4.722   3.776   0.297
 4797SOL     OW15289   1.361   5.846   4.853
 4797SOL    HW115290   1.356   5.930   4.906
 4797SOL    HW215291   1.404   5.775   4.908
 4798SOL     OW15292   0.111   5.608   6.026
 4798SOL    HW115293   0.197   5.599   5.976
 4798SOL    HW215294   0.122   5.674   6.100
 4799SOL     OW15295   5.142   1.602   3.999
 4799SOL    HW115296   5.142   1.689   3.950
 4799SOL    HW215297   5.167   1.617   4.095
 4800SOL     OW15298   1.156   3.254   4.030
 4800SOL    HW115299   1.060   3.236   4.011
 4800SOL    HW215300   1.183   3.206   4.114
 4801SOL     OW15301   7.007   1.764   0.734
 4801SOL    HW115302   6.920   1.781   0.779
 4801SOL    HW215303   0.060   1.814   0.782
 4802SOL     OW15304   1.963   0.085   1.873
 4802SOL    HW115305   1.888   0.046   1.819
 4802SOL    HW215306   1.924   0.139   1.949
 4803SOL     OW15307   0.903   6.777   1.210
 4803SOL    HW115308   0.858   6.838   1.146
 4803SOL    HW215309   0.838   6.707   1.241
 4804SOL     OW15310   4.213   5.134   0.516
 4804SOL    HW115311   4.309   5.134   0.544
 4804SOL    HW215312   4.181   5.228   0.507
 4805SOL     OW15313   0.068   6.709   2.150
 4805SOL    HW115314   0.006   6.784   2.170
 4805SOL    HW215315   0.091   6.709   2.053
 4806SOL     OW15316   6.959   2.065   3.692
 4806SOL    HW115317   6.994   1.973   3.708
 4806SOL    HW215318   7.000   2.103   3.609
 4807SOL     OW15319   0.789   0.192   3.025
 4807SOL    HW115320   0.754   0.277   2.986
 4807SOL    HW215321   0.799   0.203   3.124
 4808SOL     OW15322   6.937   1.652   0.494
 4808SOL    HW115323   6.854   1.706   0.482
 4808SOL    HW215324   6.985   1.682   0.576
 4809SOL     OW15325   4.940   6.845   0.414
 4809SOL    HW115326   5.004   6.915   0.383
 4809SOL    HW215327   4.983   6.755   0.407
 4810SOL     OW15328   2.408   6.392   6.365
 4810SOL    HW115329   2.326   6.376   6.420
 4810SOL    HW215330   2.414   6.488   6.340
 4811SOL     OW15331   5.174   3.991   4.051
 4811SOL    HW115332   5.158   3.978   3.954
 4811SOL    HW215333   5.169   4.089   4.074
 4812SOL     OW15334   6.613   5.166   3.627
 4812SOL    HW115335   6.661   5.102   3.687
 4812SOL    HW215336   6.676   5.238   3.597
 4813SOL     OW15337   5.757   3.392   2.487
 4813SOL    HW115338   5.784   3.303   2.453
 4813SOL    HW215339   5.688   3.432   2.426
 4814SOL     OW15340   0.299   2.968   1.678
 4814SOL    HW115341   0.362   3.026   1.626
 4814SOL    HW215342   0.328   2.872   1.671
 4815SOL     OW15343   4.827   0.698   3.588
 4815SOL    HW115344   4.805   0.657   3.677
 4815SOL    HW215345   4.926   0.703   3.578
 4816SOL     OW15346   5.980   4.427   4.515
 4816SOL    HW115347   6.078   4.432   4.494
 4816SOL    HW215348   5.928   4.475   4.444
 4817SOL     OW15349   6.258   1.900   6.738
 4817SOL    HW115350   6.218   1.969   6.677
 4817SOL    HW215351   6.357   1.908   6.737
 4818SOL     OW15352   0.030   6.230   3.512
 4818SOL    HW115353   6.983   6.156   3.503
 4818SOL    HW215354   0.010   6.301   3.445
 4819SOL     OW15355   1.400   3.049   1.088
 4819SOL    HW115356   1.413   2.950   1.090
 4819SOL    HW215357   1.482   3.094   1.123
 4820SOL     OW15358   6.507   3.514   2.217
 4820SOL    HW115359   6.506   3.576   2.295
 4820SOL    HW215360   6.561   3.553   2.142
 4821SOL     OW15361   0.559   5.698   3.922
 4821SOL    HW115362   0.526   5.705   4.016
 4821SOL    HW215363   0.653   5.664   3.923
 4822SOL     OW15364   2.758   5.038   4.182
 4822SOL    HW115365   2.816   5.109   4.222
 4822SOL    HW215366   2.814   4.961   4.153
 4823SOL     OW15367   1.273   2.051   0.438
 4823SOL    HW115368   1.370   2.065   0.457
 4823SOL    HW215369   1.221   2.052   0.523
 4824SOL     OW15370   6.696   2.436   0.018
 4824SOL    HW115371   6.656   2.457   0.107
 4824SOL    HW215372   6.666   2.345   7.008
 4825SOL     OW15373   1.453   5.822   3.661
 4825SOL    HW115374   1.404   5.885   3.600
 4825SOL    HW215375   1.427   5.842   3.755
 4826SOL     OW15376   4.440   6.870   0.315
 4826SOL    HW115377   4.530   6.833   0.292
 4826SOL    HW215378   4.444   6.914   0.405
 4827SOL     OW15379   5.787   1.333   1.983
 4827SOL    HW115380   5.717   1.350   1.913
 4827SOL    HW215381   5.853   1.266   1.948
 4828SOL     OW15382   5.066   1.130   6.162
 4828SOL    HW115383   5.111   1.215   6.187
 4828SOL    HW215384   4.993   1.110   6.227
 4829SOL     OW15385   4.659   5.510   4.953
 4829SOL    HW115386   4.627   5.431   4.900
 4829SOL    HW215387   4.581   5.552   5.000
 4830SOL     OW15388   1.858   6.357   3.346
 4830SOL    HW115389   1.852   6.326   3.441
 4830SOL    HW215390   1.766   6.367   3.309
 4831SOL     OW15391   2.818   4.436   5.721
 4831SOL    HW115392   2.915   4.458   5.728
 4831SOL    HW215393   2.787   4.448   5.627
 4832SOL     OW15394   3.540   3.329   3.867
 4832SOL    HW115395   3.554   3.270   3.787
 4832SOL    HW215396   3.507   3.274   3.943
 4833SOL     OW15397   6.175   2.117   5.190
 4833SOL    HW115398   6.221   2.119   5.101
 4833SOL    HW215399   6.163   2.023   5.219
 4834SOL     OW15400   0.821   5.057   0.874
 4834SOL    HW115401   0.756   5.004   0.928
 4834SOL    HW215402   0.806   5.041   0.777
 4835SOL     OW15403   0.106   3.334   6.242
 4835SOL    HW115404   0.169   3.369   6.312
 4835SOL    HW215405   0.015   3.324   6.283
 4836SOL     OW15406   4.299   1.008   5.687
 4836SOL    HW115407   4.280   0.951   5.768
 4836SOL    HW215408   4.394   0.993   5.659
 4837SOL     OW15409   1.492   3.778   4.971
 4837SOL    HW115410   1.395   3.763   4.954
 4837SOL    HW215411   1.513   3.757   5.066
 4838SOL     OW15412   2.059   4.261   6.018
 4838SOL    HW115413   2.111   4.336   6.059
 4838SOL    HW215414   2.091   4.245   5.925
 4839SOL     OW15415   2.451   1.059   1.702
 4839SOL    HW115416   2.433   1.074   1.799
 4839SOL    HW215417   2.514   0.982   1.691
 4840SOL     OW15418   4.949   2.332   3.259
 4840SOL    HW115419   4.861   2.332   3.307
 4840SOL    HW215420   4.932   2.343   3.161
 4841SOL     OW15421   2.701   5.162   2.918
 4841SOL    HW115422   2.733   5.195   3.007
 4841SOL    HW215423   2.668   5.068   2.927
 4842SOL     OW15424   4.332   4.801   3.319
 4842SOL    HW115425   4.257   4.743   3.288
 4842SOL    HW215426   4.384   4.834   3.240
 4843SOL     OW15427   5.766   2.729   0.052
 4843SOL    HW115428   5.848   2.712   0.106
 4843SOL    HW215429   5.726   2.817   0.079
 4844SOL     OW15430   0.707   4.794   6.716
 4844SOL    HW115431   0.681   4.754   6.628
 4844SOL    HW215432   0.795   4.755   6.745
 4845SOL     OW15433   5.623   4.263   4.610
 4845SOL    HW115434   5.584   4.202   4.680
 4845SOL    HW215435   5.682   4.330   4.654
 4846SOL     OW15436   6.720   3.842   4.472
 4846SOL    HW115437   6.722   3.746   4.499
 4846SOL    HW215438   6.802   3.864   4.419
 4847SOL     OW15439   2.849   6.915   6.769
 4847SOL    HW115440   2.876   6.933   6.675
 4847SOL    HW215441   2.923   6.868   6.817
 4848SOL     OW15442   4.579   1.479   3.363
 4848SOL    HW115443   4.596   1.578   3.370
 4848SOL    HW215444   4.599   1.436   3.451
 4849SOL     OW15445   1.320   5.648   1.873
 4849SOL    HW115446   1.307   5.633   1.775
 4849SOL    HW215447   1.309   5.561   1.922
 4850SOL     OW15448   3.299   0.442   2.129
 4850SOL    HW115449   3.273   0.346   2.122
 4850SOL    HW215450   3.381   0.451   2.186
 4851SOL     OW15451   4.623   4.821   6.640
 4851SOL    HW115452   4.712   4.776   6.633
 4851SOL    HW215453   4.551   4.752   6.647
 4852SOL     OW15454   4.628   3.943   5.586
 4852SOL    HW115455   4.622   4.035   5.625
 4852SOL    HW215456   4.711   3.935   5.531
 4853SOL     OW15457   4.084   0.603   3.052
 4853SOL    HW115458   3.989   0.622   3.075
 4853SOL    HW215459   4.142   0.679   3.082
 4854SOL     OW15460   3.840   6.590   2.127
 4854SOL    HW115461   3.939   6.588   2.113
 4854SOL    HW215462   3.801   6.670   2.081
 4855SOL     OW15463   4.462   4.810   5.284
 4855SOL    HW115464   4.404   4.805   5.203
 4855SOL    HW215465   4.529   4.735   5.281
 4856SOL     OW15466   1.078   2.124   2.186
 4856SOL    HW115467   1.157   2.117   2.246
 4856SOL    HW215468   1.101   2.181   2.107
 4857SOL     OW15469   2.883   1.616   5.819
 4857SOL    HW115470   2.856   1.705   5.856
 4857SOL    HW215471   2.937   1.629   5.736
 4858SOL     OW15472   2.231   5.389   5.191
 4858SOL    HW115473   2.317   5.342   5.208
 4858SOL    HW215474   2.168   5.329   5.142
 4859SOL     OW15475   6.668   5.527   3.334
 4859SOL    HW115476   6.658   5.471   3.252
 4859SOL    HW215477   6.706   5.617   3.309
 4860SOL     OW15478   4.019   5.052   1.197
 4860SOL    HW115479   3.961   4.971   1.188
 4860SOL    HW215480   4.082   5.056   1.119
 4861SOL     OW15481   5.419   4.688   4.553
 4861SOL    HW115482   5.429   4.679   4.454
 4861SOL    HW215483   5.454   4.777   4.582
 4862SOL     OW15484   1.563   5.260   4.215
 4862SOL    HW115485   1.545   5.221   4.124
 4862SOL    HW215486   1.661   5.273   4.227
 4863SOL     OW15487   5.732   1.277   1.503
 4863SOL    HW115488   5.773   1.206   1.560
 4863SOL    HW215489   5.800   1.309   1.437
 4864SOL     OW15490   2.772   3.036   1.668
 4864SOL    HW115491   2.786   3.072   1.760
 4864SOL    HW215492   2.720   2.951   1.672
 4865SOL     OW15493   3.860   0.042   4.815
 4865SOL    HW115494   3.910   6.985   4.775
 4865SOL    HW215495   3.907   0.072   4.899
 4866SOL     OW15496   0.945   4.787   1.991
 4866SOL    HW115497   0.977   4.877   1.961
 4866SOL    HW215498   0.869   4.757   1.933
 4867SOL     OW15499   5.788   4.690   5.872
 4867SOL    HW115500   5.800   4.696   5.971
 4867SOL    HW215501   5.818   4.601   5.840
 4868SOL     OW15502   2.076   5.926   1.658
 4868SOL    HW115503   2.126   5.845   1.630
 4868SOL    HW215504   2.079   5.934   1.758
 4869SOL     OW15505   0.391   1.874   1.767
 4869SOL    HW115506   0.390   1.958   1.822
 4869SOL    HW215507   0.301   1.859   1.728
 4870SOL     OW15508   5.762   1.014   1.213
 4870SOL    HW115509   5.832   1.037   1.146
 4870SOL    HW215510   5.683   0.975   1.166
 4871SOL     OW15511   1.489   2.491   5.272
 4871SOL    HW115512   1.548   2.507   5.352
 4871SOL    HW215513   1.416   2.428   5.298
 4872SOL     OW15514   2.384   2.703   2.511
 4872SOL    HW115515   2.408   2.737   2.420
 4872SOL    HW215516   2.459   2.646   2.546
 4873SOL     OW15517   1.386   6.298   5.836
 4873SOL    HW115518   1.420   6.358   5.908
 4873SOL    HW215519   1.339   6.352   5.766
 4874SOL     OW15520   5.855   1.887   4.300
 4874SOL    HW115521   5.879   1.942   4.220
 4874SOL    HW215522   5.917   1.909   4.375
 4875SOL     OW15523   6.867   3.020   0.766
 4875SOL    HW115524   6.911   3.059   0.685
 4875SOL    HW215525   6.868   2.920   0.759
 4876SOL     OW15526   6.659   1.260   6.750
 4876SOL    HW115527   6.650   1.276   6.652
 4876SOL    HW215528   6.744   1.301   6.783
 4877SOL     OW15529   4.312   1.922   1.858
 4877SOL    HW115530   4.218   1.916   1.891
 4877SOL    HW215531   4.346   1.831   1.836
 4878SOL     OW15532   1.262   3.111   2.355
 4878SOL    HW115533   1.227   3.114   2.449
 4878SOL    HW215534   1.357   3.080   2.356
 4879SOL     OW15535   3.570   6.311   3.414
 4879SOL    HW115536   3.533   6.319   3.322
 4879SOL    HW215537   3.657   6.262   3.411
 4880SOL     OW15538   6.869   2.178   6.106
 4880SOL    HW115539   6.879   2.108   6.035
 4880SOL    HW215540   6.816   2.140   6.182
 4881SOL     OW15541   3.204   6.373   5.895
 4881SOL    HW115542   3.188   6.446   5.962
 4881SOL    HW215543   3.301   6.367   5.874
 4882SOL     OW15544   5.604   6.243   6.433
 4882SOL    HW115545   5.610   6.146   6.457
 4882SOL    HW215546   5.587   6.252   6.335
 4883SOL     OW15547   6.262   5.837   0.257
 4883SOL    HW115548   6.306   5.790   0.181
 4883SOL    HW215549   6.206   5.772   0.309
 4884SOL     OW15550   4.634   5.972   1.837
 4884SOL    HW115551   4.573   6.040   1.797
 4884SOL    HW215552   4.723   5.976   1.793
 4885SOL     OW15553   1.478   0.439   2.199
 4885SOL    HW115554   1.415   0.469   2.271
 4885SOL    HW215555   1.486   0.511   2.130
 4886SOL     OW15556   6.367   1.268   6.033
 4886SOL    HW115557   6.389   1.180   5.990
 4886SOL    HW215558   6.281   1.303   5.996
 4887SOL     OW15559   0.136   2.609   5.588
 4887SOL    HW115560   0.049   2.599   5.539
 4887SOL    HW215561   0.168   2.519   5.617
 4888SOL     OW15562   4.237   5.792   1.179
 4888SOL    HW115563   4.313   5.735   1.147
 4888SOL    HW215564   4.201   5.845   1.102
 4889SOL     OW15565   1.170   3.349   6.259
 4889SOL    HW115566   1.109   3.276   6.229
 4889SOL    HW215567   1.262   3.331   6.225
 4890SOL     OW15568   6.807   0.519   4.509
 4890SOL    HW115569   6.779   0.576   4.586
 4890SOL    HW215570   6.736   0.520   4.439
 4891SOL     OW15571   1.075   5.143   0.827
 4891SOL    HW115572   1.127   5.062   0.800
 4891SOL    HW215573   0.981   5.116   0.850
 4892SOL     OW15574   2.011   5.710   1.938
 4892SOL    HW115575   1.941   5.692   2.008
 4892SOL    HW215576   2.034   5.624   1.892
 4893SOL     OW15577   6.592   4.516   6.406
 4893SOL    HW115578   6.624   4.568   6.485
 4893SOL    HW215579   6.536   4.574   6.348
 4894SOL     OW15580   0.164   6.819   3.717
 4894SOL    HW115581   0.152   6.721   3.702
 4894SOL    HW215582   0.164   6.868   3.630
 4895SOL     OW15583   6.525   4.010   6.577
 4895SOL    HW115584   6.584   3.972   6.649
 4895SOL    HW215585   6.450   3.947   6.558
 4896SOL     OW15586   4.414   0.837   4.956
 4896SOL    HW115587   4.474   0.811   4.880
 4896SOL    HW215588   4.358   0.915   4.930
 4897SOL     OW15589   2.406   5.602   0.052
 4897SOL    HW115590   2.431   5.696   0.074
 4897SOL    HW215591   2.390   5.551   0.136
 4898SOL     OW15592   5.098   2.446   4.365
 4898SOL    HW115593   5.163   2.513   4.330
 4898SOL    HW215594   5.146   2.379   4.422
 4899SOL     OW15595   0.230   3.257   4.376
 4899SOL    HW115596   0.252   3.348   4.411
 4899SOL    HW215597   0.204   3.264   4.279
 4900SOL     OW15598   0.585   6.810   6.088
 4900SOL    HW115599   0.681   6.839   6.080
 4900SOL    HW215600   0.529   6.863   6.026
 4901SOL     OW15601   6.200   6.376   2.965
 4901SOL    HW115602   6.111   6.418   2.949
 4901SOL    HW215603   6.203   6.286   2.922
 4902SOL     OW15604   3.122   5.570   0.457
 4902SOL    HW115605   3.047   5.532   0.511
 4902SOL    HW215606   3.168   5.496   0.407
 4903SOL     OW15607   5.753   4.572   6.638
 4903SOL    HW115608   5.843   4.595   6.602
 4903SOL    HW215609   5.684   4.627   6.592
 4904SOL     OW15610   3.061   0.710   3.666
 4904SOL    HW115611   2.991   0.640   3.678
 4904SOL    HW215612   3.018   0.797   3.644
 4905SOL     OW15613   5.892   3.824   3.131
 4905SOL    HW115614   5.973   3.779   3.094
 4905SOL    HW215615   5.911   3.922   3.143
 4906SOL     OW15616   4.578   0.054   1.785
 4906SOL    HW115617   4.600   0.127   1.849
 4906SOL    HW215618   4.480   0.034   1.788
 4907SOL     OW15619   2.869   2.757   1.217
 4907SOL    HW115620   2.770   2.740   1.219
 4907SOL    HW215621   2.915   2.695   1.280
 4908SOL     OW15622   5.509   4.440   6.056
 4908SOL    HW115623   5.551   4.350   6.044
 4908SOL    HW215624   5.524   4.495   5.974
 4909SOL     OW15625   6.337   6.974   5.468
 4909SOL    HW115626   6.320   6.886   5.424
 4909SOL    HW215627   6.411   0.002   5.420
 4910SOL     OW15628   5.770   6.953   5.609
 4910SOL    HW115629   5.777   6.854   5.600
 4910SOL    HW215630   5.772   6.995   5.518
 4911SOL     OW15631   0.044   4.344   6.727
 4911SOL    HW115632   0.087   4.254   6.728
 4911SOL    HW215633   7.016   4.357   6.640
 4912SOL     OW15634   2.168   3.035   1.966
 4912SOL    HW115635   2.140   3.108   2.028
 4912SOL    HW215636   2.234   2.976   2.013
 4913SOL     OW15637   2.856   3.200   1.864
 4913SOL    HW115638   2.790   3.269   1.894
 4913SOL    HW215639   2.940   3.245   1.835
 4914SOL     OW15640   0.936   6.964   2.706
 4914SOL    HW115641   0.986   6.880   2.687
 4914SOL    HW215642   0.879   6.952   2.788
 4915SOL     OW15643   3.766   6.218   3.798
 4915SOL    HW115644   3.671   6.194   3.820
 4915SOL    HW215645   3.767   6.289   3.728
 4916SOL     OW15646   1.468   1.705   2.011
 4916SOL    HW115647   1.472   1.644   2.089
 4916SOL    HW215648   1.434   1.795   2.040
 4917SOL     OW15649   0.910   5.382   6.384
 4917SOL    HW115650   0.843   5.411   6.316
 4917SOL    HW215651   0.961   5.304   6.349
 4918SOL     OW15652   2.103   6.541   4.026
 4918SOL    HW115653   2.197   6.569   4.044
 4918SOL    HW215654   2.042   6.621   4.030
 4919SOL     OW15655   2.290   3.163   1.108
 4919SOL    HW115656   2.200   3.119   1.107
 4919SOL    HW215657   2.348   3.118   1.176
 4920SOL     OW15658   3.242   2.036   6.532
 4920SOL    HW115659   3.178   2.055   6.458
 4920SOL    HW215660   3.309   2.110   6.538
 4921SOL     OW15661   6.625   4.612   2.057
 4921SOL    HW115662   6.692   4.666   2.107
 4921SOL    HW215663   6.546   4.670   2.034
 4922SOL     OW15664   1.092   3.561   5.802
 4922SOL    HW115665   1.127   3.634   5.860
 4922SOL    HW215666   1.168   3.503   5.772
 4923SOL     OW15667   3.428   2.485   6.942
 4923SOL    HW115668   3.353   2.549   6.957
 4923SOL    HW215669   3.503   2.531   6.894
 4924SOL     OW15670   0.393   3.028   4.440
 4924SOL    HW115671   0.481   3.036   4.393
 4924SOL    HW215672   0.331   3.098   4.407
 4925SOL     OW15673   4.774   5.150   4.930
 4925SOL    HW115674   4.777   5.214   5.007
 4925SOL    HW215675   4.704   5.081   4.946
 4926SOL     OW15676   4.128   3.578   0.342
 4926SOL    HW115677   4.133   3.670   0.304
 4926SOL    HW215678   4.110   3.512   0.269
 4927SOL     OW15679   3.004   3.613   2.098
 4927SOL    HW115680   3.050   3.695   2.064
 4927SOL    HW215681   3.037   3.591   2.190
 4928SOL     OW15682   7.001   1.728   6.307
 4928SOL    HW115683   6.907   1.731   6.272
 4928SOL    HW215684   7.013   1.646   6.363
 4929SOL     OW15685   1.322   4.537   4.508
 4929SOL    HW115686   1.401   4.597   4.521
 4929SOL    HW215687   1.353   4.442   4.506
 4930SOL     OW15688   0.456   3.820   0.317
 4930SOL    HW115689   0.479   3.745   0.255
 4930SOL    HW215690   0.382   3.792   0.378
 4931SOL     OW15691   5.446   6.693   0.969
 4931SOL    HW115692   5.496   6.608   0.985
 4931SOL    HW215693   5.457   6.753   1.049
 4932SOL     OW15694   3.425   1.635   1.039
 4932SOL    HW115695   3.370   1.661   0.960
 4932SOL    HW215696   3.510   1.687   1.038
 4933SOL     OW15697   2.344   0.041   5.100
 4933SOL    HW115698   2.395   0.128   5.101
 4933SOL    HW215699   2.354   7.016   5.189
 4934SOL     OW15700   2.125   6.235   5.520
 4934SOL    HW115701   2.159   6.149   5.481
 4934SOL    HW215702   2.145   6.237   5.618
 4935SOL     OW15703   1.611   2.816   0.897
 4935SOL    HW115704   1.565   2.733   0.866
 4935SOL    HW215705   1.668   2.852   0.824
 4936SOL     OW15706   6.539   4.311   1.496
 4936SOL    HW115707   6.513   4.310   1.399
 4936SOL    HW215708   6.538   4.405   1.529
 4937SOL     OW15709   0.561   4.165   5.526
 4937SOL    HW115710   0.628   4.093   5.514
 4937SOL    HW215711   0.572   4.234   5.454
 4938SOL     OW15712   3.171   4.083   0.956
 4938SOL    HW115713   3.115   4.147   0.903
 4938SOL    HW215714   3.187   4.000   0.901
 4939SOL     OW15715   0.941   1.586   1.550
 4939SOL    HW115716   0.951   1.608   1.647
 4939SOL    HW215717   1.018   1.530   1.520
 4940SOL     OW15718   1.770   1.619   5.017
 4940SOL    HW115719   1.795   1.644   4.924
 4940SOL    HW215720   1.773   1.700   5.076
 4941SOL     OW15721   3.483   2.134   5.969
 4941SOL    HW115722   3.477   2.189   6.053
 4941SOL    HW215723   3.396   2.137   5.921
 4942SOL     OW15724   0.191   1.050   2.533
 4942SOL    HW115725   0.240   0.963   2.533
 4942SOL    HW215726   0.228   1.110   2.462
 4943SOL     OW15727   4.760   2.548   6.749
 4943SOL    HW115728   4.722   2.565   6.840
 4943SOL    HW215729   4.822   2.470   6.752
 4944SOL     OW15730   0.667   4.840   0.720
 4944SOL    HW115731   0.668   4.814   0.816
 4944SOL    HW215732   0.574   4.831   0.684
 4945SOL     OW15733   2.596   0.522   6.461
 4945SOL    HW115734   2.646   0.566   6.536
 4945SOL    HW215735   2.553   0.438   6.495
 4946SOL     OW15736   2.275   6.041   0.079
 4946SOL    HW115737   2.246   5.965   0.137
 4946SOL    HW215738   2.308   6.005   7.011
 4947SOL     OW15739   1.316   0.568   1.438
 4947SOL    HW115740   1.303   0.611   1.528
 4947SOL    HW215741   1.390   0.501   1.444
 4948SOL     OW15742   1.502   3.451   2.307
 4948SOL    HW115743   1.573   3.389   2.339
 4948SOL    HW215744   1.469   3.422   2.217
 4949SOL     OW15745   6.126   5.169   6.877
 4949SOL    HW115746   6.190   5.230   6.924
 4949SOL    HW215747   6.053   5.223   6.836
 4950SOL     OW15748   3.948   3.699   5.749
 4950SOL    HW115749   3.969   3.646   5.831
 4950SOL    HW215750   4.026   3.693   5.686
 4951SOL     OW15751   4.715   5.155   3.546
 4951SOL    HW115752   4.643   5.111   3.600
 4951SOL    HW215753   4.701   5.134   3.449
 4952SOL     OW15754   0.727   0.914   6.771
 4952SOL    HW115755   0.803   0.895   6.708
 4952SOL    HW215756   0.675   0.830   6.787
 4953SOL     OW15757   0.976   1.003   6.075
 4953SOL    HW115758   1.040   1.079   6.064
 4953SOL    HW215759   1.025   0.917   6.072
 4954SOL     OW15760   3.675   3.899   6.058
 4954SOL    HW115761   3.703   3.806   6.083
 4954SOL    HW215762   3.689   3.913   5.961
 4955SOL     OW15763   3.752   6.036   0.160
 4955SOL    HW115764   3.742   5.936   0.164
 4955SOL    HW215765   3.730   6.068   0.068
 4956SOL     OW15766   2.405   0.296   3.800
 4956SOL    HW115767   2.346   0.240   3.742
 4956SOL    HW215768   2.372   0.293   3.894
 4957SOL     OW15769   5.805   5.427   0.104
 4957SOL    HW115770   5.740   5.351   0.107
 4957SOL    HW215771   5.827   5.448   0.009
 4958SOL     OW15772   3.307   5.178   0.668
 4958SOL    HW115773   3.263   5.192   0.579
 4958SOL    HW215774   3.248   5.211   0.741
 4959SOL     OW15775   1.750   1.531   3.102
 4959SOL    HW115776   1.712   1.508   3.012
 4959SOL    HW215777   1.789   1.449   3.143
 4960SOL     OW15778   5.416   3.615   4.767
 4960SOL    HW115779   5.396   3.678   4.841
 4960SOL    HW215780   5.337   3.556   4.751
 4961SOL     OW15781   3.870   2.984   2.239
 4961SOL    HW115782   3.915   3.063   2.198
 4961SOL    HW215783   3.821   2.933   2.169
 4962SOL     OW15784   2.066   2.506   0.703
 4962SOL    HW115785   2.161   2.521   0.676
 4962SOL    HW215786   2.062   2.437   0.775
 4963SOL     OW15787   0.557   3.886   6.842
 4963SOL    HW115788   0.645   3.931   6.855
 4963SOL    HW215789   0.537   3.879   6.744
 4964SOL     OW15790   1.299   5.328   3.927
 4964SOL    HW115791   1.252   5.295   3.846
 4964SOL    HW215792   1.235   5.334   4.003
 4965SOL     OW15793   2.659   0.410   3.045
 4965SOL    HW115794   2.678   0.318   3.012
 4965SOL    HW215795   2.576   0.409   3.101
 4966SOL     OW15796   4.045   6.995   5.452
 4966SOL    HW115797   4.047   0.073   5.431
 4966SOL    HW215798   3.956   6.957   5.426
 4967SOL     OW15799   5.165   4.343   3.201
 4967SOL    HW115800   5.077   4.298   3.185
 4967SOL    HW215801   5.200   4.317   3.292
 4968SOL     OW15802   6.515   2.793   3.405
 4968SOL    HW115803   6.517   2.844   3.319
 4968SOL    HW215804   6.463   2.709   3.392
 4969SOL     OW15805   1.167   5.692   4.419
 4969SOL    HW115806   1.069   5.704   4.408
 4969SOL    HW215807   1.192   5.597   4.402
 4970SOL     OW15808   2.258   1.040   1.305
 4970SOL    HW115809   2.228   0.961   1.250
 4970SOL    HW215810   2.185   1.109   1.307
 4971SOL     OW15811   0.100   6.127   1.850
 4971SOL    HW115812   0.137   6.034   1.846
 4971SOL    HW215813   0.096   6.157   1.945
 4972SOL     OW15814   0.271   3.582   0.860
 4972SOL    HW115815   0.277   3.667   0.913
 4972SOL    HW215816   0.345   3.580   0.793
 4973SOL     OW15817   5.543   2.318   0.193
 4973SOL    HW115818   5.601   2.270   0.126
 4973SOL    HW215819   5.539   2.415   0.169
 4974SOL     OW15820   3.180   0.668   5.261
 4974SOL    HW115821   3.205   0.697   5.354
 4974SOL    HW215822   3.183   0.747   5.200
 4975SOL     OW15823   5.892   4.243   0.793
 4975SOL    HW115824   5.957   4.299   0.743
 4975SOL    HW215825   5.813   4.298   0.821
 4976SOL     OW15826   0.912   0.174   3.791
 4976SOL    HW115827   1.010   0.174   3.813
 4976SOL    HW215828   0.865   0.235   3.855
 4977SOL     OW15829   0.942   3.443   4.767
 4977SOL    HW115830   0.854   3.478   4.797
 4977SOL    HW215831   1.008   3.448   4.843
 4978SOL     OW15832   6.110   5.511   4.477
 4978SOL    HW115833   6.028   5.478   4.430
 4978SOL    HW215834   6.190   5.498   4.418
 4979SOL     OW15835   3.803   6.377   6.004
 4979SOL    HW115836   3.823   6.349   6.098
 4979SOL    HW215837   3.763   6.469   6.004
 4980SOL     OW15838   5.411   3.168   3.981
 4980SOL    HW115839   5.467   3.245   3.949
 4980SOL    HW215840   5.367   3.193   4.067
 4981SOL     OW15841   3.214   6.510   2.884
 4981SOL    HW115842   3.180   6.457   2.807
 4981SOL    HW215843   3.163   6.596   2.891
 4982SOL     OW15844   3.751   1.710   4.701
 4982SOL    HW115845   3.666   1.704   4.754
 4982SOL    HW215846   3.740   1.778   4.630
 4983SOL     OW15847   5.158   3.618   2.951
 4983SOL    HW115848   5.115   3.680   2.886
 4983SOL    HW215849   5.227   3.667   3.004
 4984SOL     OW15850   5.030   3.556   5.169
 4984SOL    HW115851   5.116   3.519   5.134
 4984SOL    HW215852   4.968   3.575   5.092
 4985SOL     OW15853   4.788   6.827   2.565
 4985SOL    HW115854   4.837   6.866   2.643
 4985SOL    HW215855   4.854   6.801   2.495
 4986SOL     OW15856   1.319   5.636   1.180
 4986SOL    HW115857   1.403   5.587   1.202
 4986SOL    HW215858   1.317   5.723   1.230
 4987SOL     OW15859   2.312   3.930   1.782
 4987SOL    HW115860   2.281   3.840   1.815
 4987SOL    HW215861   2.236   3.976   1.736
 4988SOL     OW15862   6.365   5.105   3.970
 4988SOL    HW115863   6.360   5.045   3.891
 4988SOL    HW215864   6.410   5.191   3.944
 4989SOL     OW15865   6.938   0.185   4.049
 4989SOL    HW115866   7.009   0.169   4.117
 4989SOL    HW215867   6.938   0.110   3.982
 4990SOL     OW15868   4.943   1.921   6.089
 4990SOL    HW115869   4.958   1.989   6.160
 4990SOL    HW215870   4.847   1.921   6.062
 4991SOL     OW15871   2.436   5.591   5.241
 4991SOL    HW115872   2.510   5.633   5.189
 4991SOL    HW215873   2.392   5.520   5.186
 4992SOL     OW15874   2.622   2.792   5.591
 4992SOL    HW115875   2.708   2.772   5.636
 4992SOL    HW215876   2.597   2.716   5.531
 4993SOL     OW15877   2.096   5.127   3.557
 4993SOL    HW115878   2.131   5.210   3.513
 4993SOL    HW215879   2.139   5.116   3.647
 4994SOL     OW15880   2.839   4.903   5.517
 4994SOL    HW115881   2.844   4.953   5.430
 4994SOL    HW215882   2.874   4.961   5.590
 4995SOL     OW15883   0.412   2.108   5.769
 4995SOL    HW115884   0.356   2.075   5.845
 4995SOL    HW215885   0.417   2.207   5.771
 4996SOL     OW15886   0.275   0.718   4.767
 4996SOL    HW115887   0.234   0.750   4.682
 4996SOL    HW215888   0.293   0.796   4.827
 4997SOL     OW15889   3.868   1.820   0.805
 4997SOL    HW115890   3.852   1.721   0.810
 4997SOL    HW215891   3.962   1.837   0.776
 4998SOL     OW15892   0.996   3.954   3.536
 4998SOL    HW115893   0.960   4.042   3.506
 4998SOL    HW215894   1.095   3.952   3.522
 4999SOL     OW15895   6.927   2.700   3.416
 4999SOL    HW115896   0.002   2.714   3.388
 4999SOL    HW215897   6.886   2.627   3.361
 5000SOL     OW15898   3.012   6.700   2.817
 5000SOL    HW115899   3.031   6.775   2.753
 5000SOL    HW215900   2.925   6.716   2.863
 5001SOL     OW15901   0.095   5.943   3.171
 5001SOL    HW115902   0.084   6.032   3.126
 5001SOL    HW215903   0.071   5.951   3.268
 5002SOL     OW15904   1.077   5.343   4.075
 5002SOL    HW115905   1.069   5.345   4.175
 5002SOL    HW215906   0.988   5.366   4.034
 5003SOL     OW15907   3.821   1.543   0.835
 5003SOL    HW115908   3.800   1.454   0.795
 5003SOL    HW215909   3.749   1.567   0.900
 5004SOL     OW15910   4.232   6.559   0.434
 5004SOL    HW115911   4.153   6.522   0.483
 5004SOL    HW215912   4.315   6.542   0.487
 5005SOL     OW15913   4.125   3.225   0.739
 5005SOL    HW115914   4.203   3.279   0.770
 5005SOL    HW215915   4.051   3.231   0.806
 5006SOL     OW15916   4.617   0.915   2.762
 5006SOL    HW115917   4.705   0.894   2.719
 5006SOL    HW215918   4.596   0.844   2.830
 5007SOL     OW15919   6.649   5.261   2.858
 5007SOL    HW115920   6.723   5.293   2.798
 5007SOL    HW215921   6.622   5.168   2.831
 5008SOL     OW15922   4.419   6.904   3.884
 5008SOL    HW115923   4.444   6.985   3.938
 5008SOL    HW215924   4.359   6.931   3.809
 5009SOL     OW15925   0.870   1.640   6.493
 5009SOL    HW115926   0.935   1.567   6.472
 5009SOL    HW215927   0.918   1.717   6.533
 5010SOL     OW15928   5.147   4.472   1.124
 5010SOL    HW115929   5.057   4.439   1.095
 5010SOL    HW215930   5.136   4.540   1.196
 5011SOL     OW15931   1.772   2.110   5.715
 5011SOL    HW115932   1.764   2.051   5.635
 5011SOL    HW215933   1.869   2.122   5.738
 5012SOL     OW15934   5.961   2.938   5.452
 5012SOL    HW115935   6.007   3.007   5.507
 5012SOL    HW215936   5.957   2.969   5.357
 5013SOL     OW15937   5.532   6.049   5.219
 5013SOL    HW115938   5.462   6.083   5.156
 5013SOL    HW215939   5.496   6.050   5.312
 5014SOL     OW15940   5.948   3.119   0.697
 5014SOL    HW115941   5.921   3.208   0.661
 5014SOL    HW215942   6.039   3.125   0.738
 5015SOL     OW15943   6.119   5.047   4.119
 5015SOL    HW115944   6.216   5.059   4.100
 5015SOL    HW215945   6.065   5.099   4.053
 5016SOL     OW15946   0.907   1.989   6.492
 5016SOL    HW115947   0.975   1.919   6.469
 5016SOL    HW215948   0.933   2.076   6.449
 5017SOL     OW15949   1.120   2.948   1.895
 5017SOL    HW115950   1.160   2.968   1.985
 5017SOL    HW215951   1.053   3.018   1.872
 5018SOL     OW15952   0.697   0.380   0.436
 5018SOL    HW115953   0.691   0.313   0.510
 5018SOL    HW215954   0.787   0.425   0.438
 5019SOL     OW15955   1.892   4.365   3.819
 5019SOL    HW115956   1.844   4.417   3.748
 5019SOL    HW215957   1.876   4.267   3.805
 5020SOL     OW15958   1.578   6.835   3.090
 5020SOL    HW115959   1.670   6.803   3.069
 5020SOL    HW215960   1.517   6.757   3.103
 5021SOL     OW15961   2.556   0.446   1.714
 5021SOL    HW115962   2.627   0.493   1.767
 5021SOL    HW215963   2.502   0.512   1.663
 5022SOL     OW15964   0.164   3.327   1.654
 5022SOL    HW115965   0.185   3.405   1.713
 5022SOL    HW215966   0.166   3.356   1.558
 5023SOL     OW15967   1.045   2.540   2.817
 5023SOL    HW115968   1.094   2.511   2.899
 5023SOL    HW215969   1.003   2.461   2.773
 5024SOL     OW15970   4.482   4.141   0.031
 5024SOL    HW115971   4.471   4.236   0.003
 5024SOL    HW215972   4.576   4.126   0.061
 5025SOL     OW15973   5.422   2.324   4.825
 5025SOL    HW115974   5.333   2.369   4.827
 5025SOL    HW215975   5.485   2.373   4.885
 5026SOL     OW15976   5.023   5.715   4.972
 5026SOL    HW115977   4.943   5.770   4.944
 5026SOL    HW215978   5.062   5.754   5.055
 5027SOL     OW15979   5.397   6.225   1.048
 5027SOL    HW115980   5.471   6.285   1.019
 5027SOL    HW215981   5.430   6.161   1.117
 5028SOL     OW15982   6.623   1.759   2.009
 5028SOL    HW115983   6.574   1.807   2.081
 5028SOL    HW215984   6.693   1.700   2.049
 5029SOL     OW15985   5.734   2.604   3.076
 5029SOL    HW115986   5.674   2.587   3.154
 5029SOL    HW215987   5.772   2.517   3.044
 5030SOL     OW15988   0.700   2.987   1.181
 5030SOL    HW115989   0.745   2.904   1.214
 5030SOL    HW215990   0.737   3.066   1.229
 5031SOL     OW15991   6.558   0.148   6.294
 5031SOL    HW115992   6.592   0.082   6.228
 5031SOL    HW215993   6.521   0.227   6.246
 5032SOL     OW15994   2.593   4.682   6.178
 5032SOL    HW115995   2.682   4.638   6.170
 5032SOL    HW215996   2.573   4.733   6.094
 5033SOL     OW15997   1.931   6.757   3.988
 5033SOL    HW115998   1.837   6.724   3.983
 5033SOL    HW215999   1.932   6.850   4.025
 5034SOL     OW16000   4.263   5.837   3.825
 5034SOL    HW116001   4.309   5.750   3.845
 5034SOL    HW216002   4.175   5.818   3.781
 5035SOL     OW16003   1.625   3.707   3.995
 5035SOL    HW116004   1.668   3.769   3.930
 5035SOL    HW216005   1.547   3.753   4.038
 5036SOL     OW16006   1.341   3.217   4.732
 5036SOL    HW116007   1.299   3.186   4.817
 5036SOL    HW216008   1.281   3.284   4.688
 5037SOL     OW16009   5.777   4.526   1.223
 5037SOL    HW116010   5.712   4.583   1.172
 5037SOL    HW216011   5.828   4.583   1.287
 5038SOL     OW16012   3.003   3.906   4.387
 5038SOL    HW116013   3.035   3.976   4.451
 5038SOL    HW216014   2.914   3.932   4.350
 5039SOL     OW16015   0.519   3.382   6.807
 5039SOL    HW116016   0.598   3.395   6.748
 5039SOL    HW216017   0.482   3.471   6.835
 5040SOL     OW16018   0.579   1.876   5.112
 5040SOL    HW116019   0.630   1.835   5.188
 5040SOL    HW216020   0.514   1.809   5.076
 5041SOL     OW16021   6.657   2.485   1.038
 5041SOL    HW116022   6.572   2.479   0.986
 5041SOL    HW216023   6.658   2.569   1.091
 5042SOL     OW16024   1.074   1.487   5.568
 5042SOL    HW116025   1.149   1.452   5.511
 5042SOL    HW216026   1.018   1.550   5.515
 5043SOL     OW16027   3.301   0.111   1.834
 5043SOL    HW116028   3.241   0.061   1.772
 5043SOL    HW216029   3.341   0.190   1.786
 5044SOL     OW16030   0.406   6.101   1.026
 5044SOL    HW116031   0.352   6.029   0.982
 5044SOL    HW216032   0.477   6.059   1.082
 5045SOL     OW16033   6.209   3.131   1.779
 5045SOL    HW116034   6.243   3.178   1.861
 5045SOL    HW216035   6.278   3.067   1.746
 5046SOL     OW16036   4.037   3.130   2.047
 5046SOL    HW116037   4.067   3.225   2.049
 5046SOL    HW216038   4.114   3.071   2.073
 5047SOL     OW16039   2.176   4.078   3.678
 5047SOL    HW116040   2.223   3.993   3.653
 5047SOL    HW216041   2.177   4.089   3.777
 5048SOL     OW16042   2.128   0.150   5.724
 5048SOL    HW116043   2.182   0.095   5.788
 5048SOL    HW216044   2.189   0.190   5.655
 5049SOL     OW16045   3.815   1.793   6.746
 5049SOL    HW116046   3.827   1.820   6.651
 5049SOL    HW216047   3.727   1.747   6.757
 5050SOL     OW16048   1.193   0.387   1.124
 5050SOL    HW116049   1.110   0.411   1.174
 5050SOL    HW216050   1.224   0.467   1.071
 5051SOL     OW16051   4.276   4.109   0.972
 5051SOL    HW116052   4.216   4.154   1.038
 5051SOL    HW216053   4.363   4.087   1.016
 5052SOL     OW16054   1.889   3.558   4.385
 5052SOL    HW116055   1.980   3.557   4.345
 5052SOL    HW216056   1.869   3.469   4.426
 5053SOL     OW16057   6.475   0.874   0.887
 5053SOL    HW116058   6.474   0.778   0.917
 5053SOL    HW216059   6.534   0.927   0.947
 5054SOL     OW16060   4.024   5.169   3.104
 5054SOL    HW116061   3.941   5.171   3.160
 5054SOL    HW216062   4.015   5.234   3.029
 5055SOL     OW16063   6.766   4.437   5.463
 5055SOL    HW116064   6.715   4.498   5.524
 5055SOL    HW216065   6.701   4.390   5.403
 5056SOL     OW16066   6.490   4.848   3.802
 5056SOL    HW116067   6.502   4.869   3.705
 5056SOL    HW216068   6.579   4.839   3.845
 5057SOL     OW16069   6.679   6.166   2.251
 5057SOL    HW116070   6.685   6.116   2.165
 5057SOL    HW216071   6.753   6.233   2.255
 5058SOL     OW16072   3.091   5.551   5.777
 5058SOL    HW116073   3.057   5.589   5.864
 5058SOL    HW216074   3.032   5.582   5.702
 5059SOL     OW16075   6.777   6.871   1.974
 5059SOL    HW116076   6.749   6.782   2.012
 5059SOL    HW216077   6.817   6.927   2.047
 5060SOL     OW16078   0.172   2.923   6.919
 5060SOL    HW116079   0.218   2.921   6.831
 5060SOL    HW216080   0.241   2.931   6.992
 5061SOL     OW16081   5.658   3.444   0.819
 5061SOL    HW116082   5.603   3.521   0.789
 5061SOL    HW216083   5.615   3.401   0.898
 5062SOL     OW16084   6.509   0.377   0.105
 5062SOL    HW116085   6.417   0.385   0.144
 5062SOL    HW216086   6.506   0.315   0.027
 5063SOL     OW16087   0.989   6.338   2.841
 5063SOL    HW116088   0.979   6.268   2.769
 5063SOL    HW216089   0.899   6.362   2.876
 5064SOL     OW16090   5.465   4.162   0.067
 5064SOL    HW116091   5.443   4.108   7.005
 5064SOL    HW216092   5.547   4.217   0.048
 5065SOL     OW16093   2.739   6.792   6.027
 5065SOL    HW116094   2.707   6.720   6.088
 5065SOL    HW216095   2.660   6.844   5.992
 5066SOL     OW16096   4.895   4.674   0.611
 5066SOL    HW116097   4.974   4.636   0.564
 5066SOL    HW216098   4.908   4.666   0.710
 5067SOL     OW16099   5.266   0.882   6.301
 5067SOL    HW116100   5.279   0.981   6.299
 5067SOL    HW216101   5.185   0.858   6.249
 5068SOL     OW16102   2.956   5.273   1.213
 5068SOL    HW116103   2.980   5.342   1.282
 5068SOL    HW216104   2.990   5.184   1.242
 5069SOL     OW16105   0.012   5.421   3.442
 5069SOL    HW116106   0.002   5.514   3.404
 5069SOL    HW216107   6.942   5.388   3.472
 5070SOL     OW16108   5.352   2.422   3.636
 5070SOL    HW116109   5.422   2.371   3.587
 5070SOL    HW216110   5.265   2.415   3.588
 5071SOL     OW16111   4.968   0.740   1.167
 5071SOL    HW116112   5.038   0.806   1.196
 5071SOL    HW216113   5.012   0.658   1.132
 5072SOL     OW16114   0.606   4.230   2.182
 5072SOL    HW116115   0.529   4.230   2.247
 5072SOL    HW216116   0.587   4.165   2.109
 5073SOL     OW16117   3.940   2.147   3.362
 5073SOL    HW116118   3.855   2.097   3.350
 5073SOL    HW216119   3.982   2.164   3.273
 5074SOL     OW16120   4.086   4.028   5.251
 5074SOL    HW116121   4.050   3.966   5.321
 5074SOL    HW216122   4.176   4.061   5.279
 5075SOL     OW16123   6.781   0.239   4.456
 5075SOL    HW116124   6.786   0.335   4.484
 5075SOL    HW216125   6.699   0.225   4.399
 5076SOL     OW16126   5.311   0.591   0.809
 5076SOL    HW116127   5.284   0.619   0.718
 5076SOL    HW216128   5.407   0.617   0.825
 5077SOL     OW16129   6.952   1.793   2.580
 5077SOL    HW116130   6.897   1.779   2.662
 5077SOL    HW216131   6.926   1.726   2.510
 5078SOL     OW16132   0.089   1.912   4.338
 5078SOL    HW116133   0.107   1.815   4.353
 5078SOL    HW216134   0.098   1.933   4.241
 5079SOL     OW16135   4.997   5.002   4.497
 5079SOL    HW116136   5.090   4.980   4.526
 5079SOL    HW216137   4.964   5.080   4.550
 5080SOL     OW16138   5.497   0.317   5.965
 5080SOL    HW116139   5.414   0.311   5.908
 5080SOL    HW216140   5.578   0.310   5.907
 5081SOL     OW16141   3.263   3.379   3.279
 5081SOL    HW116142   3.349   3.330   3.269
 5081SOL    HW216143   3.192   3.334   3.226
 5082SOL     OW16144   0.932   2.309   5.172
 5082SOL    HW116145   0.920   2.217   5.133
 5082SOL    HW216146   0.987   2.364   5.109
 5083SOL     OW16147   1.165   3.996   2.306
 5083SOL    HW116148   1.188   3.941   2.387
 5083SOL    HW216149   1.094   3.950   2.254
 5084SOL     OW16150   1.571   5.689   2.300
 5084SOL    HW116151   1.509   5.755   2.257
 5084SOL    HW216152   1.566   5.698   2.400
 5085SOL     OW16153   6.279   3.715   0.465
 5085SOL    HW116154   6.239   3.634   0.422
 5085SOL    HW216155   6.378   3.709   0.462
 5086SOL     OW16156   6.367   5.437   4.933
 5086SOL    HW116157   6.428   5.429   4.854
 5086SOL    HW216158   6.276   5.465   4.902
 5087SOL     OW16159   5.080   5.090   5.697
 5087SOL    HW116160   5.075   4.997   5.732
 5087SOL    HW216161   4.999   5.109   5.641
 5088SOL     OW16162   5.832   1.140   6.510
 5088SOL    HW116163   5.876   1.214   6.460
 5088SOL    HW216164   5.821   1.061   6.450
 5089SOL     OW16165   5.422   2.889   4.044
 5089SOL    HW116166   5.384   2.903   4.135
 5089SOL    HW216167   5.442   2.978   4.002
 5090SOL     OW16168   0.811   4.784   0.309
 5090SOL    HW116169   0.899   4.817   0.273
 5090SOL    HW216170   0.814   4.685   0.319
 5091SOL     OW16171   0.956   6.067   3.789
 5091SOL    HW116172   0.861   6.087   3.813
 5091SOL    HW216173   0.978   6.112   3.702
 5092SOL     OW16174   3.378   2.994   0.970
 5092SOL    HW116175   3.448   2.947   0.917
 5092SOL    HW216176   3.356   2.940   1.051
 5093SOL     OW16177   0.628   1.244   2.693
 5093SOL    HW116178   0.674   1.207   2.773
 5093SOL    HW216179   0.529   1.228   2.700
 5094SOL     OW16180   1.302   0.229   6.455
 5094SOL    HW116181   1.297   0.307   6.393
 5094SOL    HW216182   1.354   0.254   6.536
 5095SOL     OW16183   3.303   6.697   5.442
 5095SOL    HW116184   3.291   6.643   5.526
 5095SOL    HW216185   3.287   6.639   5.362
 5096SOL     OW16186   3.247   6.193   2.240
 5096SOL    HW116187   3.161   6.236   2.265
 5096SOL    HW216188   3.265   6.207   2.142
 5097SOL     OW16189   1.002   2.405   6.996
 5097SOL    HW116190   1.019   2.480   0.040
 5097SOL    HW216191   1.054   2.325   0.005
 5098SOL     OW16192   1.271   2.563   2.996
 5098SOL    HW116193   1.292   2.604   2.907
 5098SOL    HW216194   1.344   2.500   3.022
 5099SOL     OW16195   0.510   1.222   4.000
 5099SOL    HW116196   0.597   1.181   3.973
 5099SOL    HW216197   0.439   1.195   3.934
 5100SOL     OW16198   5.097   4.693   5.416
 5100SOL    HW116199   5.030   4.765   5.396
 5100SOL    HW216200   5.165   4.689   5.343
 5101SOL     OW16201   5.165   5.999   0.503
 5101SOL    HW116202   5.094   6.043   0.558
 5101SOL    HW216203   5.218   5.936   0.561
 5102SOL     OW16204   3.745   6.204   4.109
 5102SOL    HW116205   3.727   6.302   4.113
 5102SOL    HW216206   3.741   6.165   4.201
 5103SOL     OW16207   1.223   2.209   3.421
 5103SOL    HW116208   1.203   2.220   3.518
 5103SOL    HW216209   1.317   2.240   3.403
 5104SOL     OW16210   0.938   0.411   0.747
 5104SOL    HW116211   0.951   0.325   0.698
 5104SOL    HW216212   0.860   0.461   0.709
 5105SOL     OW16213   1.681   2.872   0.108
 5105SOL    HW116214   1.630   2.878   0.023
 5105SOL    HW216215   1.777   2.850   0.089
 5106SOL     OW16216   2.044   6.727   2.054
 5106SOL    HW116217   2.038   6.808   2.112
 5106SOL    HW216218   2.129   6.728   2.002
 5107SOL     OW16219   1.654   0.094   5.914
 5107SOL    HW116220   1.601   0.022   5.868
 5107SOL    HW216221   1.637   0.182   5.870
 5108SOL     OW16222   3.625   3.686   4.658
 5108SOL    HW116223   3.673   3.673   4.745
 5108SOL    HW216224   3.660   3.621   4.591
 5109SOL     OW16225   0.377   2.153   2.323
 5109SOL    HW116226   0.455   2.216   2.317
 5109SOL    HW216227   0.408   2.064   2.357
 5110SOL     OW16228   1.843   5.369   5.803
 5110SOL    HW116229   1.792   5.351   5.719
 5110SOL    HW216230   1.831   5.465   5.829
 5111SOL     OW16231   1.105   0.637   6.509
 5111SOL    HW116232   1.192   0.629   6.558
 5111SOL    HW216233   1.087   0.551   6.460
 5112SOL     OW16234   0.222   0.088   3.283
 5112SOL    HW116235   0.311   0.123   3.252
 5112SOL    HW216236   0.184   0.152   3.350
 5113SOL     OW16237   0.518   1.077   6.598
 5113SOL    HW116238   0.506   1.176   6.608
 5113SOL    HW216239   0.600   1.048   6.647
 5114SOL     OW16240   4.893   5.421   6.470
 5114SOL    HW116241   4.886   5.506   6.418
 5114SOL    HW216242   4.850   5.347   6.420
 5115SOL     OW16243   2.670   3.927   5.279
 5115SOL    HW116244   2.705   3.834   5.267
 5115SOL    HW216245   2.576   3.933   5.245
 5116SOL     OW16246   6.467   3.698   1.335
 5116SOL    HW116247   6.488   3.607   1.300
 5116SOL    HW216248   6.480   3.699   1.434
 5117SOL     OW16249   2.277   5.453   2.826
 5117SOL    HW116250   2.181   5.424   2.828
 5117SOL    HW216251   2.320   5.419   2.742
 5118SOL     OW16252   4.123   0.168   1.142
 5118SOL    HW116253   4.186   0.175   1.219
 5118SOL    HW216254   4.039   0.121   1.170
 5119SOL     OW16255   6.118   0.329   2.536
 5119SOL    HW116256   6.023   0.353   2.514
 5119SOL    HW216257   6.166   0.410   2.570
 5120SOL     OW16258   3.782   1.263   0.713
 5120SOL    HW116259   3.866   1.232   0.759
 5120SOL    HW216260   3.703   1.236   0.768
 5121SOL     OW16261   0.706   3.986   4.431
 5121SOL    HW116262   0.757   3.942   4.357
 5121SOL    HW216263   0.655   4.064   4.395
 5122SOL     OW16264   2.755   5.705   2.500
 5122SOL    HW116265   2.849   5.707   2.532
 5122SOL    HW216266   2.703   5.637   2.553
 5123SOL     OW16267   6.127   3.064   2.385
 5123SOL    HW116268   6.205   3.016   2.424
 5123SOL    HW216269   6.144   3.081   2.288
 5124SOL     OW16270   3.506   6.638   0.100
 5124SOL    HW116271   3.553   6.575   0.038
 5124SOL    HW216272   3.536   6.622   0.194
 5125SOL     OW16273   0.635   1.964   6.380
 5125SOL    HW116274   0.621   2.062   6.371
 5125SOL    HW216275   0.709   1.946   6.445
 5126SOL     OW16276   4.511   1.656   0.336
 5126SOL    HW116277   4.478   1.698   0.252
 5126SOL    HW216278   4.478   1.562   0.343
 5127SOL     OW16279   5.121   3.710   5.953
 5127SOL    HW116280   5.197   3.651   5.929
 5127SOL    HW216281   5.039   3.681   5.904
 5128SOL     OW16282   6.946   0.507   0.252
 5128SOL    HW116283   6.962   0.433   0.318
 5128SOL    HW216284   7.012   0.580   0.268
 5129SOL     OW16285   4.465   2.507   3.969
 5129SOL    HW116286   4.396   2.479   4.036
 5129SOL    HW216287   4.552   2.461   3.989
 5130SOL     OW16288   2.145   6.960   4.924
 5130SOL    HW116289   2.172   6.864   4.921
 5130SOL    HW216290   2.226   7.018   4.916
 5131SOL     OW16291   2.947   4.991   2.863
 5131SOL    HW116292   2.894   5.076   2.859
 5131SOL    HW216293   2.910   4.925   2.798
 5132SOL     OW16294   3.225   1.756   6.312
 5132SOL    HW116295   3.195   1.850   6.300
 5132SOL    HW216296   3.165   1.695   6.261
 5133SOL     OW16297   4.084   4.312   6.527
 5133SOL    HW116298   4.065   4.384   6.593
 5133SOL    HW216299   4.055   4.342   6.436
 5134SOL     OW16300   6.177   5.923   0.861
 5134SOL    HW116301   6.137   6.014   0.856
 5134SOL    HW216302   6.106   5.857   0.885
 5135SOL     OW16303   0.975   2.814   2.194
 5135SOL    HW116304   0.939   2.896   2.150
 5135SOL    HW216305   0.920   2.735   2.167
 5136SOL     OW16306   6.871   0.204   4.723
 5136SOL    HW116307   6.912   0.119   4.756
 5136SOL    HW216308   6.855   0.198   4.625
 5137SOL     OW16309   5.100   0.780   3.548
 5137SOL    HW116310   5.161   0.735   3.482
 5137SOL    HW216311   5.077   0.871   3.515
 5138SOL     OW16312   3.360   3.604   2.648
 5138SOL    HW116313   3.290   3.627   2.715
 5138SOL    HW216314   3.382   3.506   2.654
 5139SOL     OW16315   5.377   1.018   4.570
 5139SOL    HW116316   5.300   1.056   4.620
 5139SOL    HW216317   5.447   0.987   4.635
 5140SOL     OW16318   2.814   3.808   5.760
 5140SOL    HW116319   2.904   3.790   5.719
 5140SOL    HW216320   2.765   3.875   5.704
 5141SOL     OW16321   0.805   2.880   1.631
 5141SOL    HW116322   0.889   2.828   1.615
 5141SOL    HW216323   0.827   2.968   1.674
 5142SOL     OW16324   0.044   6.509   2.904
 5142SOL    HW116325   0.115   6.451   2.863
 5142SOL    HW216326   0.079   6.603   2.913
 5143SOL     OW16327   6.302   6.248   2.511
 5143SOL    HW116328   6.250   6.241   2.426
 5143SOL    HW216329   6.269   6.326   2.564
 5144SOL     OW16330   1.380   2.875   5.208
 5144SOL    HW116331   1.420   2.933   5.137
 5144SOL    HW216332   1.453   2.840   5.267
 5145SOL     OW16333   1.540   4.724   6.457
 5145SOL    HW116334   1.452   4.762   6.488
 5145SOL    HW216335   1.609   4.797   6.457
 5146SOL     OW16336   5.271   5.836   6.886
 5146SOL    HW116337   5.267   5.916   6.825
 5146SOL    HW216338   5.211   5.852   6.965
 5147SOL     OW16339   4.086   1.334   2.873
 5147SOL    HW116340   3.987   1.323   2.883
 5147SOL    HW216341   4.116   1.290   2.789
 5148SOL     OW16342   5.995   1.322   0.764
 5148SOL    HW116343   6.071   1.337   0.701
 5148SOL    HW216344   6.020   1.354   0.855
 5149SOL     OW16345   2.991   6.761   3.550
 5149SOL    HW116346   3.064   6.721   3.496
 5149SOL    HW216347   2.917   6.790   3.489
 5150SOL     OW16348   6.801   0.815   4.201
 5150SOL    HW116349   6.749   0.757   4.138
 5150SOL    HW216350   6.841   0.891   4.151
 5151SOL     OW16351   5.140   4.500   2.026
 5151SOL    HW116352   5.109   4.410   1.996
 5151SOL    HW216353   5.139   4.505   2.126
 5152SOL     OW16354   2.329   1.186   0.419
 5152SOL    HW116355   2.263   1.205   0.492
 5152SOL    HW216356   2.291   1.217   0.332
 5153SOL     OW16357   2.086   2.101   0.164
 5153SOL    HW116358   2.081   2.198   0.186
 5153SOL    HW216359   2.044   2.085   0.075
 5154SOL     OW16360   0.711   3.060   6.811
 5154SOL    HW116361   0.774   2.983   6.803
 5154SOL    HW216362   0.762   3.143   6.831
 5155SOL     OW16363   1.492   0.459   0.223
 5155SOL    HW116364   1.435   0.519   0.166
 5155SOL    HW216365   1.588   0.478   0.206
 5156SOL     OW16366   5.285   3.889   5.767
 5156SOL    HW116367   5.227   3.864   5.845
 5156SOL    HW216368   5.379   3.859   5.784
 5157SOL     OW16369   3.850   1.177   1.780
 5157SOL    HW116370   3.802   1.177   1.868
 5157SOL    HW216371   3.789   1.212   1.709
 5158SOL     OW16372   1.719   3.310   2.394
 5158SOL    HW116373   1.662   3.284   2.471
 5158SOL    HW216374   1.774   3.231   2.364
 5159SOL     OW16375   6.529   2.833   5.778
 5159SOL    HW116376   6.517   2.736   5.759
 5159SOL    HW216377   6.491   2.854   5.868
 5160SOL     OW16378   6.551   0.532   3.065
 5160SOL    HW116379   6.561   0.475   2.984
 5160SOL    HW216380   6.637   0.579   3.083
 5161SOL     OW16381   1.375   1.863   6.487
 5161SOL    HW116382   1.304   1.791   6.487
 5161SOL    HW216383   1.343   1.940   6.432
 5162SOL     OW16384   0.247   0.347   5.876
 5162SOL    HW116385   0.317   0.417   5.862
 5162SOL    HW216386   0.254   0.311   5.969
 5163SOL     OW16387   3.458   0.821   1.447
 5163SOL    HW116388   3.553   0.848   1.466
 5163SOL    HW216389   3.404   0.903   1.428
 5164SOL     OW16390   2.742   2.937   0.155
 5164SOL    HW116391   2.760   2.863   0.220
 5164SOL    HW216392   2.648   2.929   0.121
 5165SOL     OW16393   1.018   5.106   5.535
 5165SOL    HW116394   1.085   5.143   5.599
 5165SOL    HW216395   1.066   5.072   5.454
 5166SOL     OW16396   6.317   6.363   5.575
 5166SOL    HW116397   6.251   6.307   5.626
 5166SOL    HW216398   6.381   6.406   5.639
 5167SOL     OW16399   6.485   3.320   5.966
 5167SOL    HW116400   6.562   3.258   5.950
 5167SOL    HW216401   6.467   3.326   6.065
 5168SOL     OW16402   5.094   1.201   3.421
 5168SOL    HW116403   5.123   1.264   3.349
 5168SOL    HW216404   4.997   1.217   3.442
 5169SOL     OW16405   5.172   6.101   4.694
 5169SOL    HW116406   5.218   6.083   4.607
 5169SOL    HW216407   5.215   6.048   4.766
 5170SOL     OW16408   2.617   3.365   6.438
 5170SOL    HW116409   2.581   3.412   6.358
 5170SOL    HW216410   2.689   3.302   6.411
 5171SOL     OW16411   1.853   6.453   5.765
 5171SOL    HW116412   1.800   6.441   5.848
 5171SOL    HW216413   1.851   6.368   5.712
 5172SOL     OW16414   4.880   4.895   5.425
 5172SOL    HW116415   4.859   4.984   5.468
 5172SOL    HW216416   4.882   4.906   5.326
 5173SOL     OW16417   4.347   6.265   3.990
 5173SOL    HW116418   4.320   6.267   3.894
 5173SOL    HW216419   4.447   6.258   3.996
 5174SOL     OW16420   0.535   5.914   3.354
 5174SOL    HW116421   0.505   5.828   3.393
 5174SOL    HW216422   0.625   5.903   3.312
 5175SOL     OW16423   2.956   2.145   5.916
 5175SOL    HW116424   2.938   2.166   6.012
 5175SOL    HW216425   2.870   2.146   5.865
 5176SOL     OW16426   5.538   6.505   6.305
 5176SOL    HW116427   5.598   6.507   6.385
 5176SOL    HW216428   5.460   6.444   6.323
 5177SOL     OW16429   5.342   5.268   1.096
 5177SOL    HW116430   5.319   5.201   1.167
 5177SOL    HW216431   5.440   5.290   1.101
 5178SOL     OW16432   0.935   4.025   0.813
 5178SOL    HW116433   1.022   4.056   0.775
 5178SOL    HW216434   0.862   4.088   0.786
 5179SOL     OW16435   4.285   5.241   2.612
 5179SOL    HW116436   4.215   5.240   2.541
 5179SOL    HW216437   4.265   5.170   2.679
 5180SOL     OW16438   2.910   5.220   1.855
 5180SOL    HW116439   2.869   5.180   1.773
 5180SOL    HW216440   3.008   5.234   1.841
 5181SOL     OW16441   6.424   1.490   5.615
 5181SOL    HW116442   6.496   1.533   5.669
 5181SOL    HW216443   6.344   1.551   5.612
 5182SOL     OW16444   2.251   6.014   2.309
 5182SOL    HW116445   2.173   5.969   2.354
 5182SOL    HW216446   2.316   5.944   2.278
 5183SOL     OW16447   5.439   1.856   3.556
 5183SOL    HW116448   5.344   1.840   3.529
 5183SOL    HW216449   5.498   1.787   3.513
 5184SOL     OW16450   3.018   1.548   1.821
 5184SOL    HW116451   2.924   1.515   1.829
 5184SOL    HW216452   3.026   1.638   1.863
 5185SOL     OW16453   6.349   0.714   1.488
 5185SOL    HW116454   6.332   0.735   1.584
 5185SOL    HW216455   6.306   0.627   1.465
 5186SOL     OW16456   5.824   2.354   6.401
 5186SOL    HW116457   5.876   2.431   6.437
 5186SOL    HW216458   5.831   2.277   6.465
 5187SOL     OW16459   1.302   4.823   5.011
 5187SOL    HW116460   1.249   4.770   4.944
 5187SOL    HW216461   1.284   4.788   5.103
 5188SOL     OW16462   0.181   0.436   2.069
 5188SOL    HW116463   0.180   0.525   2.023
 5188SOL    HW216464   0.254   0.434   2.136
 5189SOL     OW16465   5.217   6.104   6.371
 5189SOL    HW116466   5.125   6.089   6.335
 5189SOL    HW216467   5.273   6.023   6.354
 5190SOL     OW16468   1.515   5.450   0.874
 5190SOL    HW116469   1.498   5.467   0.971
 5190SOL    HW216470   1.464   5.369   0.845
 5191SOL     OW16471   3.263   3.956   1.191
 5191SOL    HW116472   3.259   4.013   1.273
 5191SOL    HW216473   3.262   4.014   1.110
 5192SOL     OW16474   0.668   4.473   2.885
 5192SOL    HW116475   0.759   4.508   2.906
 5192SOL    HW216476   0.674   4.407   2.810
 5193SOL     OW16477   3.717   0.231   4.333
 5193SOL    HW116478   3.668   0.318   4.344
 5193SOL    HW216479   3.762   0.207   4.419
 5194SOL     OW16480   4.275   1.362   5.337
 5194SOL    HW116481   4.222   1.360   5.422
 5194SOL    HW216482   4.213   1.351   5.259
 5195SOL     OW16483   2.228   1.145   4.986
 5195SOL    HW116484   2.323   1.152   4.957
 5195SOL    HW216485   2.205   1.048   5.000
 5196SOL     OW16486   5.923   6.135   2.716
 5196SOL    HW116487   5.864   6.107   2.641
 5196SOL    HW216488   5.888   6.220   2.756
 5197SOL     OW16489   2.365   3.869   5.761
 5197SOL    HW116490   2.404   3.804   5.695
 5197SOL    HW216491   2.270   3.887   5.737
 5198SOL     OW16492   6.427   5.836   4.089
 5198SOL    HW116493   6.485   5.756   4.073
 5198SOL    HW216494   6.331   5.809   4.083
 5199SOL     OW16495   0.947   5.540   1.221
 5199SOL    HW116496   1.003   5.537   1.139
 5199SOL    HW216497   0.853   5.514   1.199
 5200SOL     OW16498   6.973   3.888   5.330
 5200SOL    HW116499   6.904   3.836   5.381
 5200SOL    HW216500   0.043   3.877   5.374
 5201SOL     OW16501   0.872   5.687   4.511
 5201SOL    HW116502   0.798   5.648   4.456
 5201SOL    HW216503   0.832   5.736   4.589
 5202SOL     OW16504   0.265   5.018   1.489
 5202SOL    HW116505   0.222   5.094   1.536
 5202SOL    HW216506   0.196   4.964   1.441
 5203SOL     OW16507   6.626   3.269   6.778
 5203SOL    HW116508   6.548   3.237   6.725
 5203SOL    HW216509   6.706   3.213   6.757
 5204SOL     OW16510   5.584   5.245   6.170
 5204SOL    HW116511   5.508   5.201   6.123
 5204SOL    HW216512   5.608   5.330   6.123
 5205SOL     OW16513   2.508   5.826   0.380
 5205SOL    HW116514   2.524   5.745   0.436
 5205SOL    HW216515   2.566   5.901   0.412
 5206SOL     OW16516   0.290   4.429   4.817
 5206SOL    HW116517   0.234   4.480   4.883
 5206SOL    HW216518   0.366   4.384   4.865
 5207SOL     OW16519   1.369   6.481   2.653
 5207SOL    HW116520   1.282   6.497   2.605
 5207SOL    HW216521   1.445   6.509   2.594
 5208SOL     OW16522   4.721   2.236   0.332
 5208SOL    HW116523   4.791   2.223   0.262
 5208SOL    HW216524   4.635   2.261   0.290
 5209SOL     OW16525   6.224   5.529   3.367
 5209SOL    HW116526   6.214   5.430   3.367
 5209SOL    HW216527   6.302   5.554   3.424
 5210SOL     OW16528   4.964   3.370   3.441
 5210SOL    HW116529   4.915   3.403   3.360
 5210SOL    HW216530   5.055   3.411   3.444
 5211SOL     OW16531   2.924   4.033   1.757
 5211SOL    HW116532   2.967   4.040   1.847
 5211SOL    HW216533   2.905   4.125   1.723
 5212SOL     OW16534   1.066   0.096   6.542
 5212SOL    HW116535   0.977   0.095   6.498
 5212SOL    HW216536   1.130   0.149   6.486
 5213SOL     OW16537   4.801   1.728   6.608
 5213SOL    HW116538   4.874   1.791   6.635
 5213SOL    HW216539   4.744   1.707   6.688
 5214SOL     OW16540   4.867   2.226   0.084
 5214SOL    HW116541   4.945   2.172   0.115
 5214SOL    HW216542   4.900   2.306   0.034
 5215SOL     OW16543   5.891   5.423   4.315
 5215SOL    HW116544   5.848   5.430   4.224
 5215SOL    HW216545   5.929   5.332   4.328
 5216SOL     OW16546   3.652   6.110   1.325
 5216SOL    HW116547   3.639   6.015   1.352
 5216SOL    HW216548   3.748   6.135   1.334
 5217SOL     OW16549   2.952   5.484   3.740
 5217SOL    HW116550   2.986   5.573   3.769
 5217SOL    HW216551   2.936   5.426   3.820
 5218SOL     OW16552   0.917   0.603   3.404
 5218SOL    HW116553   0.924   0.702   3.389
 5218SOL    HW216554   0.830   0.583   3.450
 5219SOL     OW16555   3.355   0.110   1.049
 5219SOL    HW116556   3.345   0.036   0.982
 5219SOL    HW216557   3.359   0.197   1.001
 5220SOL     OW16558   0.682   6.242   2.365
 5220SOL    HW116559   0.643   6.305   2.433
 5220SOL    HW216560   0.727   6.295   2.293
 5221SOL     OW16561   4.635   0.649   0.467
 5221SOL    HW116562   4.609   0.728   0.521
 5221SOL    HW216563   4.732   0.629   0.481
 5222SOL     OW16564   6.731   5.616   2.358
 5222SOL    HW116565   6.664   5.632   2.286
 5222SOL    HW216566   6.707   5.667   2.439
 5223SOL     OW16567   4.475   6.567   1.519
 5223SOL    HW116568   4.495   6.524   1.431
 5223SOL    HW216569   4.549   6.630   1.543
 5224SOL     OW16570   5.466   0.749   3.735
 5224SOL    HW116571   5.547   0.717   3.784
 5224SOL    HW216572   5.465   0.849   3.736
 5225SOL     OW16573   0.191   6.631   5.670
 5225SOL    HW116574   0.150   6.721   5.686
 5225SOL    HW216575   0.145   6.588   5.593
 5226SOL     OW16576   2.352   0.883   3.740
 5226SOL    HW116577   2.420   0.887   3.813
 5226SOL    HW216578   2.269   0.931   3.769
 5227SOL     OW16579   5.857   3.692   4.576
 5227SOL    HW116580   5.788   3.699   4.649
 5227SOL    HW216581   5.939   3.648   4.612
 5228SOL     OW16582   4.746   6.867   1.833
 5228SOL    HW116583   4.756   6.889   1.930
 5228SOL    HW216584   4.675   6.925   1.793
 5229SOL     OW16585   0.451   4.322   4.083
 5229SOL    HW116586   0.404   4.302   3.997
 5229SOL    HW216587   0.550   4.315   4.069
 5230SOL     OW16588   0.543   1.445   6.761
 5230SOL    HW116589   0.601   1.434   6.841
 5230SOL    HW216590   0.447   1.447   6.789
 5231SOL     OW16591   3.049   3.797   3.237
 5231SOL    HW116592   3.083   3.758   3.323
 5231SOL    HW216593   3.120   3.852   3.195
 5232SOL     OW16594   5.268   2.848   4.588
 5232SOL    HW116595   5.283   2.866   4.490
 5232SOL    HW216596   5.251   2.934   4.636
 5233SOL     OW16597   0.628   6.769   2.687
 5233SOL    HW116598   0.702   6.703   2.696
 5233SOL    HW216599   0.663   6.861   2.708
 5234SOL     OW16600   3.531   4.248   1.237
 5234SOL    HW116601   3.433   4.250   1.214
 5234SOL    HW216602   3.548   4.307   1.315
 5235SOL     OW16603   0.819   1.773   1.828
 5235SOL    HW116604   0.851   1.848   1.886
 5235SOL    HW216605   0.890   1.702   1.822
 5236SOL     OW16606   6.159   3.136   0.390
 5236SOL    HW116607   6.256   3.113   0.403
 5236SOL    HW216608   6.103   3.058   0.416
 5237SOL     OW16609   1.722   1.901   2.345
 5237SOL    HW116610   1.671   1.895   2.260
 5237SOL    HW216611   1.796   1.968   2.336
 5238SOL     OW16612   1.934   3.451   1.572
 5238SOL    HW116613   1.923   3.396   1.490
 5238SOL    HW216614   1.851   3.445   1.628
 5239SOL     OW16615   2.826   3.206   5.405
 5239SOL    HW116616   2.783   3.116   5.406
 5239SOL    HW216617   2.872   3.220   5.318
 5240SOL     OW16618   3.773   1.760   3.911
 5240SOL    HW116619   3.676   1.771   3.889
 5240SOL    HW216620   3.821   1.724   3.831
 5241SOL     OW16621   4.432   5.675   5.504
 5241SOL    HW116622   4.411   5.702   5.410
 5241SOL    HW216623   4.354   5.625   5.543
 5242SOL     OW16624   3.439   0.568   5.947
 5242SOL    HW116625   3.539   0.571   5.951
 5242SOL    HW216626   3.404   0.661   5.938
 5243SOL     OW16627   1.606   4.063   0.455
 5243SOL    HW116628   1.559   3.997   0.514
 5243SOL    HW216629   1.555   4.149   0.454
 5244SOL     OW16630   6.193   3.229   6.714
 5244SOL    HW116631   6.112   3.229   6.773
 5244SOL    HW216632   6.244   3.313   6.729
 5245SOL     OW16633   4.961   4.370   5.926
 5245SOL    HW116634   4.919   4.444   5.979
 5245SOL    HW216635   4.936   4.282   5.966
 5246SOL     OW16636   1.262   3.759   3.535
 5246SOL    HW116637   1.222   3.692   3.472
 5246SOL    HW216638   1.329   3.815   3.485
 5247SOL     OW16639   0.609   4.316   6.945
 5247SOL    HW116640   0.614   4.364   0.013
 5247SOL    HW216641   0.519   4.273   6.936
 5248SOL     OW16642   5.049   1.300   0.282
 5248SOL    HW116643   5.010   1.213   0.251
 5248SOL    HW216644   4.976   1.362   0.307
 5249SOL     OW16645   0.673   5.207   0.253
 5249SOL    HW116646   0.703   5.187   0.346
 5249SOL    HW216647   0.726   5.283   0.217
 5250SOL     OW16648   1.262   1.606   5.757
 5250SOL    HW116649   1.217   1.666   5.824
 5250SOL    HW216650   1.193   1.557   5.704
 5251SOL     OW16651   0.691   2.353   1.761
 5251SOL    HW116652   0.667   2.448   1.741
 5251SOL    HW216653   0.618   2.292   1.730
 5252SOL     OW16654   5.278   5.671   1.161
 5252SOL    HW116655   5.315   5.579   1.150
 5252SOL    HW216656   5.353   5.736   1.176
 5253SOL     OW16657   6.034   3.141   3.927
 5253SOL    HW116658   5.988   3.207   3.866
 5253SOL    HW216659   5.971   3.067   3.948
 5254SOL     OW16660   5.288   0.724   4.684
 5254SOL    HW116661   5.353   0.668   4.634
 5254SOL    HW216662   5.195   0.707   4.649
 5255SOL     OW16663   2.501   6.164   3.012
 5255SOL    HW116664   2.535   6.145   2.919
 5255SOL    HW216665   2.468   6.079   3.053
 5256SOL     OW16666   4.845   6.114   2.295
 5256SOL    HW116667   4.913   6.120   2.368
 5256SOL    HW216668   4.860   6.188   2.229
 5257SOL     OW16669   2.534   1.551   2.736
 5257SOL    HW116670   2.614   1.610   2.719
 5257SOL    HW216671   2.457   1.608   2.763
 5258SOL     OW16672   5.611   2.025   1.503
 5258SOL    HW116673   5.632   2.121   1.483
 5258SOL    HW216674   5.635   1.968   1.424
 5259SOL     OW16675   5.927   5.219   1.758
 5259SOL    HW116676   6.008   5.278   1.762
 5259SOL    HW216677   5.949   5.136   1.706
 5260SOL     OW16678   5.090   2.917   1.841
 5260SOL    HW116679   5.150   2.930   1.920
 5260SOL    HW216680   5.034   2.998   1.828
 5261SOL     OW16681   2.212   2.751   4.965
 5261SOL    HW116682   2.264   2.835   4.981
 5261SOL    HW216683   2.275   2.674   4.959
 5262SOL     OW16684   1.149   0.364   1.557
 5262SOL    HW116685   1.093   0.421   1.618
 5262SOL    HW216686   1.202   0.423   1.496
 5263SOL     OW16687   1.639   6.874   6.617
 5263SOL    HW116688   1.624   6.965   6.578
 5263SOL    HW216689   1.559   6.848   6.671
 5264SOL     OW16690   1.193   0.516   0.735
 5264SOL    HW116691   1.102   0.484   0.758
 5264SOL    HW216692   1.245   0.533   0.819
 5265SOL     OW16693   5.508   4.940   3.659
 5265SOL    HW116694   5.492   4.930   3.757
 5265SOL    HW216695   5.510   4.849   3.616
 5266SOL     OW16696   1.374   6.438   1.228
 5266SOL    HW116697   1.442   6.454   1.157
 5266SOL    HW216698   1.298   6.503   1.218
 5267SOL     OW16699   3.830   3.771   4.956
 5267SOL    HW116700   3.879   3.850   4.994
 5267SOL    HW216701   3.792   3.717   5.031
 5268SOL     OW16702   5.652   5.138   5.878
 5268SOL    HW116703   5.590   5.111   5.952
 5268SOL    HW216704   5.598   5.159   5.796
 5269SOL     OW16705   2.676   5.679   5.415
 5269SOL    HW116706   2.689   5.752   5.348
 5269SOL    HW216707   2.580   5.652   5.417
 5270SOL     OW16708   6.694   1.775   2.945
 5270SOL    HW116709   6.768   1.710   2.959
 5270SOL    HW216710   6.608   1.725   2.930
 5271SOL     OW16711   5.294   3.563   5.084
 5271SOL    HW116712   5.311   3.479   5.031
 5271SOL    HW216713   5.345   3.559   5.170
 5272SOL     OW16714   2.277   2.270   3.780
 5272SOL    HW116715   2.269   2.368   3.794
 5272SOL    HW216716   2.211   2.241   3.710
 5273SOL     OW16717   0.028   0.927   5.463
 5273SOL    HW116718   7.020   0.994   5.394
 5273SOL    HW216719   0.092   0.970   5.527
 5274SOL     OW16720   0.696   4.967   4.951
 5274SOL    HW116721   0.748   4.938   5.031
 5274SOL    HW216722   0.619   4.905   4.938
 5275SOL     OW16723   2.234   6.485   0.141
 5275SOL    HW116724   2.277   6.569   0.174
 5275SOL    HW216725   2.261   6.469   0.046
 5276SOL     OW16726   0.051   0.749   0.425
 5276SOL    HW116727   0.074   0.842   0.453
 5276SOL    HW216728   0.131   0.705   0.384
 5277SOL     OW16729   0.642   1.048   1.443
 5277SOL    HW116730   0.672   0.956   1.416
 5277SOL    HW216731   0.675   1.115   1.376
 5278SOL     OW16732   6.665   4.896   6.272
 5278SOL    HW116733   6.696   4.972   6.216
 5278SOL    HW216734   6.741   4.832   6.287
 5279SOL     OW16735   2.642   6.188   0.167
 5279SOL    HW116736   2.545   6.202   0.147
 5279SOL    HW216737   2.651   6.150   0.259
 5280SOL     OW16738   4.847   6.144   5.782
 5280SOL    HW116739   4.833   6.204   5.862
 5280SOL    HW216740   4.859   6.201   5.700
 5281SOL     OW16741   2.067   6.642   4.859
 5281SOL    HW116742   2.138   6.573   4.874
 5281SOL    HW216743   1.977   6.601   4.877
 5282SOL     OW16744   6.633   5.888   0.776
 5282SOL    HW116745   6.695   5.810   0.769
 5282SOL    HW216746   6.555   5.873   0.715
 5283SOL     OW16747   1.661   0.431   4.225
 5283SOL    HW116748   1.564   0.409   4.220
 5283SOL    HW216749   1.692   0.460   4.134
 5284SOL     OW16750   4.836   3.094   2.232
 5284SOL    HW116751   4.821   3.023   2.301
 5284SOL    HW216752   4.788   3.070   2.148
 5285SOL     OW16753   2.039   1.526   4.025
 5285SOL    HW116754   2.078   1.616   4.004
 5285SOL    HW216755   1.967   1.504   3.959
 5286SOL     OW16756   0.406   3.208   1.602
 5286SOL    HW116757   0.453   3.294   1.582
 5286SOL    HW216758   0.311   3.227   1.629
 5287SOL     OW16759   0.427   5.398   2.427
 5287SOL    HW116760   0.459   5.491   2.446
 5287SOL    HW216761   0.484   5.358   2.354
 5288SOL     OW16762   4.374   0.716   1.521
 5288SOL    HW116763   4.324   0.731   1.607
 5288SOL    HW216764   4.354   0.624   1.486
 5289SOL     OW16765   1.972   4.977   6.673
 5289SOL    HW116766   1.987   4.917   6.752
 5289SOL    HW216767   2.058   5.022   6.648
 5290SOL     OW16768   1.613   2.817   5.314
 5290SOL    HW116769   1.686   2.841   5.249
 5290SOL    HW216770   1.648   2.749   5.378
 5291SOL     OW16771   3.142   6.066   4.566
 5291SOL    HW116772   3.190   6.090   4.651
 5291SOL    HW216773   3.198   6.002   4.513
 5292SOL     OW16774   0.717   4.160   4.760
 5292SOL    HW116775   0.732   4.149   4.858
 5292SOL    HW216776   0.797   4.129   4.710
 5293SOL     OW16777   2.442   0.311   3.482
 5293SOL    HW116778   2.352   0.344   3.512
 5293SOL    HW216779   2.514   0.366   3.525
 5294SOL     OW16780   4.882   0.093   4.384
 5294SOL    HW116781   4.837   0.027   4.324
 5294SOL    HW216782   4.947   0.148   4.331
 5295SOL     OW16783   2.080   0.398   1.254
 5295SOL    HW116784   2.082   0.352   1.165
 5295SOL    HW216785   2.165   0.448   1.267
 5296SOL     OW16786   4.455   5.049   2.235
 5296SOL    HW116787   4.470   5.002   2.149
 5296SOL    HW216788   4.540   5.093   2.264
 5297SOL     OW16789   3.639   4.899   5.488
 5297SOL    HW116790   3.699   4.972   5.519
 5297SOL    HW216791   3.614   4.840   5.565
 5298SOL     OW16792   3.578   1.236   7.014
 5298SOL    HW116793   3.488   1.201   0.020
 5298SOL    HW216794   3.567   1.321   6.963
 5299SOL     OW16795   1.505   0.393   1.191
 5299SOL    HW116796   1.410   0.396   1.223
 5299SOL    HW216797   1.510   0.344   1.105
 5300SOL     OW16798   2.956   4.805   0.120
 5300SOL    HW116799   2.866   4.761   0.123
 5300SOL    HW216800   2.961   4.865   0.041
 5301SOL     OW16801   6.510   6.940   6.084
 5301SOL    HW116802   6.417   6.906   6.101
 5301SOL    HW216803   6.527   6.941   5.985
 5302SOL     OW16804   5.084   5.077   3.354
 5302SOL    HW116805   5.077   5.114   3.447
 5302SOL    HW216806   5.038   4.988   3.351
 5303SOL     OW16807   1.630   6.304   5.221
 5303SOL    HW116808   1.563   6.260   5.281
 5303SOL    HW216809   1.675   6.379   5.269
 5304SOL     OW16810   0.154   0.302   3.467
 5304SOL    HW116811   0.072   0.295   3.523
 5304SOL    HW216812   0.232   0.325   3.524
 5305SOL     OW16813   6.485   5.273   4.647
 5305SOL    HW116814   6.519   5.303   4.557
 5305SOL    HW216815   6.459   5.177   4.642
 5306SOL     OW16816   1.149   1.899   6.765
 5306SOL    HW116817   1.242   1.867   6.746
 5306SOL    HW216818   1.145   1.998   6.754
 5307SOL     OW16819   0.826   1.194   1.655
 5307SOL    HW116820   0.770   1.264   1.611
 5307SOL    HW216821   0.854   1.126   1.587
 5308SOL     OW16822   2.096   4.406   2.592
 5308SOL    HW116823   2.161   4.426   2.665
 5308SOL    HW216824   2.018   4.469   2.599
 5309SOL     OW16825   5.527   6.303   3.363
 5309SOL    HW116826   5.498   6.250   3.283
 5309SOL    HW216827   5.542   6.242   3.440
 5310SOL     OW16828   6.259   1.632   3.008
 5310SOL    HW116829   6.219   1.645   2.917
 5310SOL    HW216830   6.336   1.695   3.019
 5311SOL     OW16831   5.799   7.018   0.115
 5311SOL    HW116832   5.751   6.959   0.050
 5311SOL    HW216833   5.897   7.008   0.102
 5312SOL     OW16834   5.937   6.860   0.983
 5312SOL    HW116835   5.916   6.876   0.886
 5312SOL    HW216836   5.861   6.893   1.039
 5313SOL     OW16837   1.587   6.532   5.811
 5313SOL    HW116838   1.551   6.503   5.900
 5313SOL    HW216839   1.512   6.548   5.748
 5314SOL     OW16840   5.553   1.948   2.193
 5314SOL    HW116841   5.485   2.014   2.225
 5314SOL    HW216842   5.639   1.961   2.243
 5315SOL     OW16843   4.100   2.204   3.571
 5315SOL    HW116844   4.187   2.245   3.545
 5315SOL    HW216845   4.037   2.208   3.493
 5316SOL     OW16846   0.240   2.882   5.011
 5316SOL    HW116847   0.184   2.832   5.077
 5316SOL    HW216848   0.243   2.831   4.925
 5317SOL     OW16849   5.542   3.132   1.253
 5317SOL    HW116850   5.456   3.111   1.207
 5317SOL    HW216851   5.523   3.166   1.345
 5318SOL     OW16852   6.715   4.311   5.939
 5318SOL    HW116853   6.733   4.384   5.873
 5318SOL    HW216854   6.637   4.336   5.995
 5319SOL     OW16855   4.122   6.023   2.380
 5319SOL    HW116856   4.081   5.954   2.439
 5319SOL    HW216857   4.208   5.988   2.343
 5320SOL     OW16858   4.383   5.833   0.442
 5320SOL    HW116859   4.343   5.841   0.351
 5320SOL    HW216860   4.391   5.736   0.466
 5321SOL     OW16861   1.403   4.340   5.646
 5321SOL    HW116862   1.477   4.316   5.583
 5321SOL    HW216863   1.364   4.256   5.684
 5322SOL     OW16864   4.247   6.055   1.857
 5322SOL    HW116865   4.282   6.018   1.943
 5322SOL    HW216866   4.182   5.990   1.817
 5323SOL     OW16867   3.885   0.301   6.419
 5323SOL    HW116868   3.934   0.323   6.503
 5323SOL    HW216869   3.918   0.358   6.344
 5324SOL     OW16870   1.283   1.424   2.059
 5324SOL    HW116871   1.334   1.503   2.093
 5324SOL    HW216872   1.185   1.439   2.073
 5325SOL     OW16873   2.277   2.999   4.418
 5325SOL    HW116874   2.295   2.901   4.414
 5325SOL    HW216875   2.322   3.038   4.498
 5326SOL     OW16876   6.289   6.969   1.548
 5326SOL    HW116877   6.383   6.989   1.520
 5326SOL    HW216878   6.249   6.903   1.484
 5327SOL     OW16879   0.468   2.371   5.709
 5327SOL    HW116880   0.406   2.409   5.777
 5327SOL    HW216881   0.462   2.425   5.625
 5328SOL     OW16882   3.730   5.452   0.803
 5328SOL    HW116883   3.785   5.525   0.844
 5328SOL    HW216884   3.720   5.377   0.870
 5329SOL     OW16885   2.797   5.972   6.269
 5329SOL    HW116886   2.722   5.907   6.264
 5329SOL    HW216887   2.871   5.934   6.325
 5330SOL     OW16888   2.457   5.626   1.437
 5330SOL    HW116889   2.497   5.714   1.462
 5330SOL    HW216890   2.477   5.606   1.341
 5331SOL     OW16891   6.358   1.667   6.263
 5331SOL    HW116892   6.261   1.690   6.270
 5331SOL    HW216893   6.381   1.600   6.334
 5332SOL     OW16894   0.697   4.506   2.420
 5332SOL    HW116895   0.753   4.568   2.365
 5332SOL    HW216896   0.749   4.423   2.439
 5333SOL     OW16897   1.035   6.457   4.636
 5333SOL    HW116898   1.113   6.396   4.647
 5333SOL    HW216899   1.068   6.551   4.623
 5334SOL     OW16900   3.329   6.960   5.387
 5334SOL    HW116901   3.245   7.002   5.422
 5334SOL    HW216902   3.328   6.862   5.407
 5335SOL     OW16903   6.521   6.408   0.593
 5335SOL    HW116904   6.545   6.484   0.532
 5335SOL    HW216905   6.550   6.430   0.686
 5336SOL     OW16906   0.970   3.933   1.152
 5336SOL    HW116907   0.947   3.841   1.182
 5336SOL    HW216908   0.942   3.945   1.057
 5337SOL     OW16909   5.245   4.855   1.411
 5337SOL    HW116910   5.221   4.844   1.507
 5337SOL    HW216911   5.335   4.898   1.404
 5338SOL     OW16912   5.354   2.879   0.919
 5338SOL    HW116913   5.439   2.930   0.934
 5338SOL    HW216914   5.345   2.808   0.989
 5339SOL     OW16915   6.865   0.153   2.041
 5339SOL    HW116916   6.769   0.141   2.062
 5339SOL    HW216917   6.878   0.155   1.942
 5340SOL     OW16918   5.000   2.434   7.017
 5340SOL    HW116919   5.006   2.532   0.012
 5340SOL    HW216920   5.090   2.399   6.991
 5341SOL     OW16921   4.872   0.360   0.767
 5341SOL    HW116922   4.873   0.448   0.720
 5341SOL    HW216923   4.779   0.322   0.764
 5342SOL     OW16924   2.306   0.410   5.735
 5342SOL    HW116925   2.260   0.477   5.793
 5342SOL    HW216926   2.368   0.458   5.672
 5343SOL     OW16927   3.257   4.274   1.178
 5343SOL    HW116928   3.249   4.367   1.141
 5343SOL    HW216929   3.205   4.211   1.119
 5344SOL     OW16930   2.041   2.309   2.622
 5344SOL    HW116931   2.086   2.379   2.567
 5344SOL    HW216932   1.999   2.352   2.703
 5345SOL     OW16933   4.651   0.174   3.324
 5345SOL    HW116934   4.580   0.130   3.270
 5345SOL    HW216935   4.734   0.183   3.269
 5346SOL     OW16936   2.896   0.480   3.756
 5346SOL    HW116937   2.932   0.527   3.837
 5346SOL    HW216938   2.801   0.453   3.774
 5347SOL     OW16939   6.753   1.036   1.969
 5347SOL    HW116940   6.662   1.029   1.929
 5347SOL    HW216941   6.772   1.132   1.992
 5348SOL     OW16942   6.523   1.656   6.904
 5348SOL    HW116943   6.472   1.694   6.981
 5348SOL    HW216944   6.555   1.564   6.927
 5349SOL     OW16945   5.774   0.442   0.938
 5349SOL    HW116946   5.821   0.425   0.851
 5349SOL    HW216947   5.839   0.475   1.006
 5350SOL     OW16948   2.715   0.772   6.745
 5350SOL    HW116949   2.807   0.774   6.783
 5350SOL    HW216950   2.713   0.819   6.657
 5351SOL     OW16951   4.710   1.278   2.367
 5351SOL    HW116952   4.686   1.231   2.452
 5351SOL    HW216953   4.662   1.235   2.290
 5352SOL     OW16954   3.469   0.704   3.212
 5352SOL    HW116955   3.431   0.611   3.211
 5352SOL    HW216956   3.414   0.762   3.272
 5353SOL     OW16957   6.137   0.176   6.128
 5353SOL    HW116958   6.228   0.205   6.159
 5353SOL    HW216959   6.122   0.080   6.153
 5354SOL     OW16960   1.160   3.381   1.013
 5354SOL    HW116961   1.106   3.458   0.981
 5354SOL    HW216962   1.109   3.296   1.001
 5355SOL     OW16963   4.668   1.270   5.589
 5355SOL    HW116964   4.614   1.313   5.516
 5355SOL    HW216965   4.636   1.177   5.603
 5356SOL     OW16966   6.483   3.170   1.540
 5356SOL    HW116967   6.564   3.155   1.482
 5356SOL    HW216968   6.451   3.264   1.529
 5357SOL     OW16969   3.949   6.189   0.376
 5357SOL    HW116970   3.883   6.114   0.365
 5357SOL    HW216971   4.021   6.180   0.308
 5358SOL     OW16972   5.384   4.262   1.596
 5358SOL    HW116973   5.362   4.197   1.523
 5358SOL    HW216974   5.372   4.355   1.563
 5359SOL     OW16975   3.231   0.700   5.542
 5359SOL    HW116976   3.201   0.785   5.586
 5359SOL    HW216977   3.239   0.628   5.610
 5360SOL     OW16978   4.471   2.162   0.225
 5360SOL    HW116979   4.437   2.122   0.310
 5360SOL    HW216980   4.466   2.094   0.152
 5361SOL     OW16981   1.009   1.067   6.418
 5361SOL    HW116982   1.104   1.097   6.423
 5361SOL    HW216983   0.999   0.997   6.347
 5362SOL     OW16984   4.038   5.807   3.699
 5362SOL    HW116985   4.034   5.855   3.611
 5362SOL    HW216986   3.971   5.847   3.762
 5363SOL     OW16987   0.816   5.777   4.758
 5363SOL    HW116988   0.762   5.771   4.842
 5363SOL    HW216989   0.914   5.777   4.781
 5364SOL     OW16990   1.272   5.746   6.748
 5364SOL    HW116991   1.345   5.755   6.680
 5364SOL    HW216992   1.189   5.791   6.714
 5365SOL     OW16993   3.960   2.422   5.793
 5365SOL    HW116994   3.908   2.370   5.861
 5365SOL    HW216995   4.016   2.491   5.840
 5366SOL     OW16996   3.757   3.656   6.118
 5366SOL    HW116997   3.830   3.613   6.065
 5366SOL    HW216998   3.695   3.585   6.153
 5367SOL     OW16999   0.400   4.806   0.759
 5367SOL    HW117000   0.332   4.868   0.796
 5367SOL    HW217001   0.383   4.713   0.793
 5368SOL     OW17002   0.732   0.022   3.585
 5368SOL    HW117003   0.809   0.083   3.601
 5368SOL    HW217004   0.646   0.071   3.600
 5369SOL     OW17005   1.947   3.425   2.540
 5369SOL    HW117006   1.875   3.379   2.488
 5369SOL    HW217007   1.906   3.478   2.613
 5370SOL     OW17008   3.592   2.863   1.631
 5370SOL    HW117009   3.656   2.939   1.631
 5370SOL    HW217010   3.504   2.892   1.594
 5371SOL     OW17011   2.121   4.117   5.166
 5371SOL    HW117012   2.184   4.167   5.226
 5371SOL    HW217013   2.172   4.051   5.111
 5372SOL     OW17014   3.418   6.303   2.729
 5372SOL    HW117015   3.335   6.329   2.779
 5372SOL    HW217016   3.403   6.216   2.682
 5373SOL     OW17017   2.377   4.986   3.524
 5373SOL    HW117018   2.315   5.031   3.588
 5373SOL    HW217019   2.462   5.038   3.518
 5374SOL     OW17020   3.088   2.479   0.629
 5374SOL    HW117021   3.014   2.490   0.563
 5374SOL    HW217022   3.116   2.382   0.631
 5375SOL     OW17023   1.352   4.015   5.054
 5375SOL    HW117024   1.431   3.958   5.029
 5375SOL    HW217025   1.353   4.099   4.999
 5376SOL     OW17026   2.945   4.601   6.014
 5376SOL    HW117027   2.855   4.566   5.986
 5376SOL    HW217028   2.980   4.662   5.943
 5377SOL     OW17029   0.710   2.021   1.740
 5377SOL    HW117030   0.671   1.932   1.762
 5377SOL    HW217031   0.640   2.079   1.698
 5378SOL     OW17032   5.003   0.340   6.627
 5378SOL    HW117033   4.939   0.409   6.661
 5378SOL    HW217034   5.096   0.371   6.644
 5379SOL     OW17035   0.044   7.016   0.267
 5379SOL    HW117036   0.007   0.069   0.326
 5379SOL    HW217037   0.129   6.981   0.307
 5380SOL     OW17038   2.260   1.723   5.039
 5380SOL    HW117039   2.254   1.789   4.964
 5380SOL    HW217040   2.191   1.652   5.027
 5381SOL     OW17041   6.050   3.889   1.889
 5381SOL    HW117042   5.957   3.872   1.920
 5381SOL    HW217043   6.065   3.844   1.802
 5382SOL     OW17044   1.874   6.599   1.275
 5382SOL    HW117045   1.797   6.639   1.226
 5382SOL    HW217046   1.849   6.584   1.371
 5383SOL     OW17047   2.031   2.504   4.818
 5383SOL    HW117048   1.934   2.526   4.814
 5383SOL    HW217049   2.065   2.487   4.726
 5384SOL     OW17050   5.213   6.552   4.602
 5384SOL    HW117051   5.177   6.523   4.690
 5384SOL    HW217052   5.233   6.650   4.604
 5385SOL     OW17053   3.400   4.108   2.274
 5385SOL    HW117054   3.306   4.130   2.249
 5385SOL    HW217055   3.425   4.158   2.357
 5386SOL     OW17056   5.721   6.557   5.871
 5386SOL    HW117057   5.769   6.614   5.939
 5386SOL    HW217058   5.788   6.506   5.817
 5387SOL     OW17059   3.797   4.793   0.748
 5387SOL    HW117060   3.862   4.850   0.798
 5387SOL    HW217061   3.739   4.852   0.691
 5388SOL     OW17062   6.085   6.183   3.470
 5388SOL    HW117063   6.058   6.169   3.375
 5388SOL    HW217064   6.183   6.199   3.476
 5389SOL     OW17065   5.818   3.402   1.484
 5389SOL    HW117066   5.794   3.436   1.393
 5389SOL    HW217067   5.807   3.303   1.487
 5390SOL     OW17068   6.391   4.958   6.440
 5390SOL    HW117069   6.318   5.025   6.447
 5390SOL    HW217070   6.475   4.995   6.480
 5391SOL     OW17071   3.545   4.688   0.258
 5391SOL    HW117072   3.630   4.659   0.214
 5391SOL    HW217073   3.507   4.612   0.311
 5392SOL     OW17074   0.666   2.791   3.498
 5392SOL    HW117075   0.582   2.757   3.540
 5392SOL    HW217076   0.650   2.881   3.458
 5393SOL     OW17077   6.584   6.695   6.368
 5393SOL    HW117078   6.535   6.617   6.327
 5393SOL    HW217079   6.518   6.765   6.395
 5394SOL     OW17080   1.971   3.758   6.167
 5394SOL    HW117081   2.057   3.797   6.134
 5394SOL    HW217082   1.978   3.658   6.167
 5395SOL     OW17083   4.805   0.344   1.250
 5395SOL    HW117084   4.805   0.401   1.332
 5395SOL    HW217085   4.736   0.378   1.186
 5396SOL     OW17086   4.763   2.436   1.473
 5396SOL    HW117087   4.675   2.480   1.457
 5396SOL    HW217088   4.749   2.346   1.514
 5397SOL     OW17089   1.098   2.532   1.732
 5397SOL    HW117090   1.023   2.467   1.746
 5397SOL    HW217091   1.183   2.481   1.714
 5398SOL     OW17092   3.246   3.787   2.304
 5398SOL    HW117093   3.325   3.835   2.341
 5398SOL    HW217094   3.209   3.726   2.374
 5399SOL     OW17095   0.447   5.366   0.251
 5399SOL    HW117096   0.539   5.331   0.233
 5399SOL    HW217097   0.404   5.392   0.164
 5400SOL     OW17098   2.489   3.746   6.654
 5400SOL    HW117099   2.421   3.695   6.603
 5400SOL    HW217100   2.462   3.753   6.750
 5401SOL     OW17101   6.416   1.721   0.585
 5401SOL    HW117102   6.470   1.661   0.644
 5401SOL    HW217103   6.414   1.813   0.625
 5402SOL     OW17104   1.028   5.975   2.172
 5402SOL    HW117105   1.041   5.877   2.158
 5402SOL    HW217106   1.094   6.026   2.117
 5403SOL     OW17107   6.422   2.676   6.363
 5403SOL    HW117108   6.508   2.628   6.343
 5403SOL    HW217109   6.438   2.744   6.435
 5404SOL     OW17110   0.872   2.754   2.921
 5404SOL    HW117111   0.936   2.678   2.914
 5404SOL    HW217112   0.804   2.734   2.991
 5405SOL     OW17113   6.547   4.338   5.288
 5405SOL    HW117114   6.462   4.348   5.237
 5405SOL    HW217115   6.528   4.293   5.376
 5406SOL     OW17116   1.484   0.011   2.881
 5406SOL    HW117117   1.456   6.998   2.791
 5406SOL    HW217118   1.513   6.953   2.937
 5407SOL     OW17119   4.068   3.447   6.266
 5407SOL    HW117120   4.016   3.362   6.282
 5407SOL    HW217121   4.144   3.451   6.330
 5408SOL     OW17122   4.083   0.698   6.676
 5408SOL    HW117123   3.998   0.650   6.655
 5408SOL    HW217124   4.099   0.696   6.775
 5409SOL     OW17125   4.781   0.559   1.477
 5409SOL    HW117126   4.727   0.621   1.534
 5409SOL    HW217127   4.865   0.604   1.448
 5410SOL     OW17128   1.375   2.666   2.760
 5410SOL    HW117129   1.445   2.734   2.781
 5410SOL    HW217130   1.404   2.612   2.681
 5411SOL     OW17131   2.519   4.763   4.801
 5411SOL    HW117132   2.577   4.736   4.724
 5411SOL    HW217133   2.576   4.801   4.874
 5412SOL     OW17134   6.147   1.952   2.462
 5412SOL    HW117135   6.201   1.884   2.412
 5412SOL    HW217136   6.130   1.918   2.555
 5413SOL     OW17137   1.535   6.523   2.434
 5413SOL    HW117138   1.484   6.593   2.384
 5413SOL    HW217139   1.629   6.521   2.400
 5414SOL     OW17140   4.112   0.196   6.091
 5414SOL    HW117141   4.207   0.216   6.112
 5414SOL    HW217142   4.061   0.181   6.176
 5415SOL     OW17143   6.315   3.409   3.036
 5415SOL    HW117144   6.368   3.488   3.005
 5415SOL    HW217145   6.253   3.380   2.963
 5416SOL     OW17146   4.032   4.815   4.522
 5416SOL    HW117147   4.067   4.894   4.572
 5416SOL    HW217148   3.935   4.829   4.500
 5417SOL     OW17149   2.784   6.750   5.676
 5417SOL    HW117150   2.822   6.747   5.768
 5417SOL    HW217151   2.684   6.747   5.681
 5418SOL     OW17152   3.537   1.354   3.457
 5418SOL    HW117153   3.606   1.282   3.451
 5418SOL    HW217154   3.448   1.317   3.430
 5419SOL     OW17155   3.349   4.443   0.039
 5419SOL    HW117156   3.310   4.510   0.103
 5419SOL    HW217157   3.276   4.404   7.003
 5420SOL     OW17158   1.210   2.755   2.496
 5420SOL    HW117159   1.237   2.849   2.519
 5420SOL    HW217160   1.263   2.723   2.418
 5421SOL     OW17161   2.567   2.698   0.640
 5421SOL    HW117162   2.585   2.796   0.655
 5421SOL    HW217163   2.606   2.645   0.715
 5422SOL     OW17164   0.659   2.980   0.348
 5422SOL    HW117165   0.592   2.943   0.411
 5422SOL    HW217166   0.746   2.994   0.395
 5423SOL     OW17167   3.811   3.104   6.201
 5423SOL    HW117168   3.717   3.124   6.176
 5423SOL    HW217169   3.838   3.160   6.279
 5424SOL     OW17170   5.648   3.214   5.570
 5424SOL    HW117171   5.710   3.286   5.601
 5424SOL    HW217172   5.677   3.126   5.608
 5425SOL     OW17173   5.328   1.360   4.787
 5425SOL    HW117174   5.347   1.378   4.883
 5425SOL    HW217175   5.230   1.341   4.775
 5426SOL     OW17176   0.568   6.974   4.754
 5426SOL    HW117177   0.606   0.039   4.792
 5426SOL    HW217178   0.472   6.966   4.780
 5427SOL     OW17179   3.745   6.854   0.350
 5427SOL    HW117180   3.787   6.764   0.361
 5427SOL    HW217181   3.761   6.908   0.433
 5428SOL     OW17182   2.358   0.667   0.346
 5428SOL    HW117183   2.318   0.724   0.417
 5428SOL    HW217184   2.434   0.715   0.303
 5429SOL     OW17185   1.150   2.384   6.036
 5429SOL    HW117186   1.218   2.325   5.991
 5429SOL    HW217187   1.186   2.477   6.041
 5430SOL     OW17188   2.169   2.754   5.403
 5430SOL    HW117189   2.176   2.841   5.354
 5430SOL    HW217190   2.250   2.699   5.385
 5431SOL     OW17191   3.445   5.666   4.388
 5431SOL    HW117192   3.545   5.672   4.394
 5431SOL    HW217193   3.419   5.622   4.302
 5432SOL     OW17194   5.918   4.658   1.437
 5432SOL    HW117195   5.881   4.713   1.512
 5432SOL    HW217196   6.013   4.684   1.420
 5433SOL     OW17197   1.392   1.917   3.665
 5433SOL    HW117198   1.345   1.909   3.577
 5433SOL    HW217199   1.402   1.826   3.706
 5434SOL     OW17200   2.181   6.015   5.377
 5434SOL    HW117201   2.241   5.960   5.318
 5434SOL    HW217202   2.118   5.955   5.426
 5435SOL     OW17203   4.535   0.858   2.346
 5435SOL    HW117204   4.541   0.841   2.248
 5435SOL    HW217205   4.622   0.832   2.389
 5436SOL     OW17206   5.242   4.083   2.741
 5436SOL    HW117207   5.253   4.101   2.839
 5436SOL    HW217208   5.144   4.086   2.718
 5437SOL     OW17209   3.896   4.775   6.036
 5437SOL    HW117210   3.980   4.739   6.077
 5437SOL    HW217211   3.919   4.848   5.972
 5438SOL     OW17212   6.463   0.892   0.607
 5438SOL    HW117213   6.463   0.918   0.704
 5438SOL    HW217214   6.479   0.793   0.599
 5439SOL     OW17215   1.558   2.706   0.542
 5439SOL    HW117216   1.484   2.716   0.475
 5439SOL    HW217217   1.644   2.739   0.501
 5440SOL     OW17218   2.287   0.550   1.336
 5440SOL    HW117219   2.277   0.638   1.290
 5440SOL    HW217220   2.377   0.512   1.315
 5441SOL     OW17221   3.988   1.865   4.762
 5441SOL    HW117222   4.048   1.811   4.820
 5441SOL    HW217223   3.907   1.810   4.738
 5442SOL     OW17224   3.671   1.235   1.577
 5442SOL    HW117225   3.662   1.188   1.489
 5442SOL    HW217226   3.677   1.333   1.562
 5443SOL     OW17227   1.347   6.614   5.692
 5443SOL    HW117228   1.271   6.641   5.752
 5443SOL    HW217229   1.357   6.681   5.619
 5444SOL     OW17230   0.496   0.604   3.973
 5444SOL    HW117231   0.443   0.619   3.889
 5444SOL    HW217232   0.452   0.534   4.028
 5445SOL     OW17233   6.189   3.586   2.048
 5445SOL    HW117234   6.093   3.605   2.069
 5445SOL    HW217235   6.231   3.538   2.125
 5446SOL     OW17236   6.425   6.225   6.256
 5446SOL    HW117237   6.393   6.295   6.194
 5446SOL    HW217238   6.357   6.210   6.328
 5447SOL     OW17239   3.310   2.847   1.223
 5447SOL    HW117240   3.281   2.923   1.280
 5447SOL    HW217241   3.371   2.787   1.275
 5448SOL     OW17242   5.169   1.598   6.539
 5448SOL    HW117243   5.111   1.523   6.573
 5448SOL    HW217244   5.193   1.658   6.615
 5449SOL     OW17245   0.237   2.607   6.982
 5449SOL    HW117246   0.327   2.576   6.952
 5449SOL    HW217247   0.228   2.705   6.965
 5450SOL     OW17248   2.335   6.251   0.979
 5450SOL    HW117249   2.277   6.329   0.999
 5450SOL    HW217250   2.279   6.169   0.969
 5451SOL     OW17251   2.821   0.532   2.250
 5451SOL    HW117252   2.878   0.541   2.332
 5451SOL    HW217253   2.733   0.491   2.276
 5452SOL     OW17254   3.045   3.749   5.656
 5452SOL    HW117255   3.066   3.815   5.584
 5452SOL    HW217256   3.123   3.688   5.669
 5453SOL     OW17257   0.524   5.339   5.472
 5453SOL    HW117258   0.570   5.348   5.383
 5453SOL    HW217259   0.462   5.261   5.470
 5454SOL     OW17260   0.771   3.892   5.880
 5454SOL    HW117261   0.805   3.859   5.968
 5454SOL    HW217262   0.845   3.887   5.812
 5455SOL     OW17263   6.407   1.697   1.073
 5455SOL    HW117264   6.442   1.781   1.032
 5455SOL    HW217265   6.307   1.703   1.083
 5456SOL     OW17266   3.780   0.033   1.271
 5456SOL    HW117267   3.860   6.993   1.264
 5456SOL    HW217268   3.702   7.000   1.306
 5457SOL     OW17269   6.430   3.454   1.192
 5457SOL    HW117270   6.424   3.404   1.279
 5457SOL    HW217271   6.338   3.474   1.159
 5458SOL     OW17272   1.433   4.163   6.257
 5458SOL    HW117273   1.380   4.214   6.189
 5458SOL    HW217274   1.461   4.075   6.219
 5459SOL     OW17275   2.150   4.067   6.207
 5459SOL    HW117276   2.177   3.985   6.157
 5459SOL    HW217277   2.097   4.127   6.147
 5460SOL     OW17278   4.071   0.287   4.436
 5460SOL    HW117279   3.976   0.303   4.464
 5460SOL    HW217280   4.087   0.330   4.348
 5461SOL     OW17281   3.919   6.637   4.915
 5461SOL    HW117282   3.857   6.665   4.842
 5461SOL    HW217283   4.007   6.610   4.875
 5462SOL     OW17284   0.243   0.735   1.754
 5462SOL    HW117285   0.181   0.793   1.702
 5462SOL    HW217286   0.231   0.640   1.726
 5463SOL     OW17287   6.910   3.076   1.007
 5463SOL    HW117288   6.885   3.065   0.911
 5463SOL    HW217289   6.973   3.003   1.033
 5464SOL     OW17290   1.534   6.466   4.675
 5464SOL    HW117291   1.622   6.465   4.629
 5464SOL    HW217292   1.546   6.442   4.771
 5465SOL     OW17293   2.727   5.779   6.952
 5465SOL    HW117294   2.682   5.784   6.863
 5465SOL    HW217295   2.657   5.768   0.004
 5466SOL     OW17296   5.001   6.661   4.112
 5466SOL    HW117297   4.994   6.580   4.169
 5466SOL    HW217298   5.096   6.674   4.083
 5467SOL     OW17299   6.225   1.649   1.732
 5467SOL    HW117300   6.219   1.640   1.831
 5467SOL    HW217301   6.280   1.574   1.695
 5468SOL     OW17302   4.462   1.558   6.714
 5468SOL    HW117303   4.480   1.465   6.746
 5468SOL    HW217304   4.505   1.572   6.625
 5469SOL     OW17305   4.800   4.633   1.444
 5469SOL    HW117306   4.773   4.697   1.516
 5469SOL    HW217307   4.757   4.661   1.358
 5470SOL     OW17308   0.619   4.828   3.647
 5470SOL    HW117309   0.694   4.858   3.706
 5470SOL    HW217310   0.586   4.739   3.679
 5471SOL     OW17311   6.787   4.144   2.123
 5471SOL    HW117312   6.844   4.158   2.042
 5471SOL    HW217313   6.718   4.217   2.129
 5472SOL     OW17314   3.511   5.371   5.625
 5472SOL    HW117315   3.517   5.313   5.706
 5472SOL    HW217316   3.420   5.412   5.621
 5473SOL     OW17317   2.082   4.547   3.916
 5473SOL    HW117318   2.015   4.477   3.891
 5473SOL    HW217319   2.089   4.551   4.016
 5474SOL     OW17320   0.757   5.977   3.187
 5474SOL    HW117321   0.709   6.064   3.199
 5474SOL    HW217322   0.846   5.994   3.143
 5475SOL     OW17323   3.340   2.077   1.474
 5475SOL    HW117324   3.415   2.140   1.490
 5475SOL    HW217325   3.369   2.007   1.408
 5476SOL     OW17326   2.315   3.170   6.746
 5476SOL    HW117327   2.254   3.198   6.820
 5476SOL    HW217328   2.307   3.235   6.670
 5477SOL     OW17329   2.129   2.454   2.250
 5477SOL    HW117330   2.112   2.548   2.278
 5477SOL    HW217331   2.219   2.425   2.281
 5478SOL     OW17332   0.035   5.663   5.234
 5478SOL    HW117333   0.043   5.604   5.315
 5478SOL    HW217334   0.037   5.606   5.152
 5479SOL     OW17335   4.300   6.188   5.672
 5479SOL    HW117336   4.395   6.217   5.660
 5479SOL    HW217337   4.241   6.240   5.610
 5480SOL     OW17338   0.076   2.253   5.876
 5480SOL    HW117339   0.037   2.163   5.858
 5480SOL    HW217340   0.043   2.288   5.964
 5481SOL     OW17341   4.369   6.414   3.028
 5481SOL    HW117342   4.331   6.346   3.091
 5481SOL    HW217343   4.304   6.489   3.018
 5482SOL     OW17344   1.471   6.021   2.100
 5482SOL    HW117345   1.555   6.057   2.141
 5482SOL    HW217346   1.474   6.037   2.001
 5483SOL     OW17347   0.871   2.322   6.627
 5483SOL    HW117348   0.863   2.412   6.586
 5483SOL    HW217349   0.905   2.257   6.559
 5484SOL     OW17350   5.172   0.098   5.167
 5484SOL    HW117351   5.145   0.168   5.233
 5484SOL    HW217352   5.272   0.099   5.157
 5485SOL     OW17353   3.400   0.667   4.722
 5485SOL    HW117354   3.403   0.732   4.798
 5485SOL    HW217355   3.390   0.574   4.757
 5486SOL     OW17356   2.601   5.474   4.062
 5486SOL    HW117357   2.652   5.557   4.083
 5486SOL    HW217358   2.531   5.459   4.133
 5487SOL     OW17359   3.784   6.236   5.155
 5487SOL    HW117360   3.695   6.193   5.141
 5487SOL    HW217361   3.855   6.165   5.158
 5488SOL     OW17362   4.799   1.893   6.385
 5488SOL    HW117363   4.782   1.991   6.386
 5488SOL    HW217364   4.760   1.851   6.467
 5489SOL     OW17365   6.635   2.603   3.758
 5489SOL    HW117366   6.582   2.604   3.673
 5489SOL    HW217367   6.576   2.632   3.834
 5490SOL     OW17368   0.695   5.093   2.053
 5490SOL    HW117369   0.784   5.066   2.090
 5490SOL    HW217370   0.641   5.138   2.124
 5491SOL     OW17371   6.551   4.084   0.734
 5491SOL    HW117372   6.484   4.037   0.676
 5491SOL    HW217373   6.602   4.150   0.679
 5492SOL     OW17374   0.943   1.793   0.060
 5492SOL    HW117375   1.037   1.813   0.090
 5492SOL    HW217376   0.884   1.783   0.140
 5493SOL     OW17377   4.174   3.889   6.149
 5493SOL    HW117378   4.168   3.959   6.077
 5493SOL    HW217379   4.219   3.808   6.112
 5494SOL     OW17380   5.711   2.046   4.959
 5494SOL    HW117381   5.681   2.026   4.866
 5494SOL    HW217382   5.808   2.025   4.969
 5495SOL     OW17383   5.690   1.000   0.487
 5495SOL    HW117384   5.625   0.924   0.481
 5495SOL    HW217385   5.647   1.077   0.533
 5496SOL     OW17386   4.284   6.422   6.160
 5496SOL    HW117387   4.281   6.362   6.081
 5496SOL    HW217388   4.228   6.383   6.233
 5497SOL     OW17389   0.894   0.173   6.184
 5497SOL    HW117390   0.902   0.272   6.195
 5497SOL    HW217391   0.984   0.133   6.169
 5498SOL     OW17392   0.092   5.838   1.932
 5498SOL    HW117393   0.183   5.797   1.943
 5498SOL    HW217394   0.023   5.772   1.962
 5499SOL     OW17395   2.106   0.168   3.430
 5499SOL    HW117396   2.029   0.118   3.391
 5499SOL    HW217397   2.117   0.255   3.382
 5500SOL     OW17398   1.086   6.141   1.594
 5500SOL    HW117399   1.142   6.224   1.589
 5500SOL    HW217400   0.994   6.165   1.625
 5501SOL     OW17401   5.286   3.417   0.864
 5501SOL    HW117402   5.309   3.324   0.892
 5501SOL    HW217403   5.190   3.422   0.838
 5502SOL     OW17404   4.605   3.679   0.183
 5502SOL    HW117405   4.600   3.582   0.162
 5502SOL    HW217406   4.513   3.715   0.196
 5503SOL     OW17407   6.518   2.904   1.246
 5503SOL    HW117408   6.598   2.952   1.282
 5503SOL    HW217409   6.437   2.961   1.260
 5504SOL     OW17410   3.007   2.307   7.009
 5504SOL    HW117411   3.064   2.308   6.927
 5504SOL    HW217412   3.041   2.375   0.055
 5505SOL     OW17413   2.602   5.326   2.341
 5505SOL    HW117414   2.523   5.387   2.337
 5505SOL    HW217415   2.596   5.269   2.423
 5506SOL     OW17416   6.942   2.711   6.636
 5506SOL    HW117417   0.008   2.674   6.599
 5506SOL    HW217418   6.883   2.636   6.665
 5507SOL     OW17419   4.043   6.087   0.119
 5507SOL    HW117420   3.946   6.065   0.116
 5507SOL    HW217421   4.064   6.155   0.049
 5508SOL     OW17422   6.649   2.501   6.338
 5508SOL    HW117423   6.727   2.464   6.388
 5508SOL    HW217424   6.674   2.590   6.299
 5509SOL     OW17425   6.224   4.213   6.997
 5509SOL    HW117426   6.223   4.306   0.016
 5509SOL    HW217427   6.131   4.177   6.995
 5510SOL     OW17428   5.634   6.137   6.881
 5510SOL    HW117429   5.732   6.147   6.863
 5510SOL    HW217430   5.583   6.208   6.832
 5511SOL     OW17431   0.941   2.814   6.441
 5511SOL    HW117432   0.862   2.857   6.398
 5511SOL    HW217433   1.000   2.884   6.480
 5512SOL     OW17434   3.299   6.888   2.101
 5512SOL    HW117435   3.399   6.891   2.101
 5512SOL    HW217436   3.267   6.821   2.167
 5513SOL     OW17437   3.976   4.640   6.532
 5513SOL    HW117438   3.948   4.593   6.449
 5513SOL    HW217439   3.968   4.578   6.610
 5514SOL     OW17440   3.951   1.645   6.960
 5514SOL    HW117441   3.897   1.668   0.021
 5514SOL    HW217442   3.931   1.710   6.886
 5515SOL     OW17443   3.373   4.898   2.765
 5515SOL    HW117444   3.366   4.835   2.842
 5515SOL    HW217445   3.296   4.882   2.703
 5516SOL     OW17446   0.620   3.138   6.319
 5516SOL    HW117447   0.590   3.045   6.344
 5516SOL    HW217448   0.627   3.145   6.220
 5517SOL     OW17449   0.974   2.046   4.458
 5517SOL    HW117450   0.928   2.003   4.536
 5517SOL    HW217451   1.069   2.017   4.454
 5518SOL     OW17452   4.276   4.159   5.591
 5518SOL    HW117453   4.187   4.131   5.628
 5518SOL    HW217454   4.297   4.252   5.623
 5519SOL     OW17455   5.306   2.652   5.582
 5519SOL    HW117456   5.243   2.642   5.659
 5519SOL    HW217457   5.260   2.625   5.498
 5520SOL     OW17458   4.929   5.650   1.736
 5520SOL    HW117459   4.842   5.641   1.783
 5520SOL    HW217460   4.915   5.691   1.646
 5521SOL     OW17461   4.374   0.019   2.157
 5521SOL    HW117462   4.369   0.053   2.251
 5521SOL    HW217463   4.465   6.999   2.141
 5522SOL     OW17464   4.743   6.372   6.712
 5522SOL    HW117465   4.700   6.289   6.746
 5522SOL    HW217466   4.836   6.379   6.748
 5523SOL     OW17467   5.380   1.640   0.406
 5523SOL    HW117468   5.477   1.618   0.415
 5523SOL    HW217469   5.357   1.715   0.469
 5524SOL     OW17470   2.049   1.917   2.512
 5524SOL    HW117471   2.041   1.941   2.415
 5524SOL    HW217472   2.131   1.959   2.550
 5525SOL     OW17473   6.339   1.085   0.940
 5525SOL    HW117474   6.390   1.008   0.901
 5525SOL    HW217475   6.299   1.058   1.027
 5526SOL     OW17476   5.074   4.024   3.792
 5526SOL    HW117477   5.002   4.046   3.727
 5526SOL    HW217478   5.154   3.988   3.743
 5527SOL     OW17479   6.472   0.001   2.594
 5527SOL    HW117480   6.381   7.010   2.632
 5527SOL    HW217481   6.540   6.988   2.660
 5528SOL     OW17482   2.011   1.377   0.288
 5528SOL    HW117483   2.091   1.330   0.253
 5528SOL    HW217484   1.936   1.369   0.222
 5529SOL     OW17485   3.442   0.776   2.242
 5529SOL    HW117486   3.418   0.816   2.330
 5529SOL    HW217487   3.539   0.751   2.242
 5530SOL     OW17488   1.031   1.422   1.174
 5530SOL    HW117489   1.051   1.469   1.089
 5530SOL    HW217490   1.011   1.326   1.156
 5531SOL     OW17491   1.140   4.676   0.132
 5531SOL    HW117492   1.191   4.687   0.218
 5531SOL    HW217493   1.077   4.752   0.122
 5532SOL     OW17494   0.158   4.751   6.144
 5532SOL    HW117495   0.072   4.792   6.174
 5532SOL    HW217496   0.140   4.661   6.106
 5533SOL     OW17497   3.273   1.121   3.694
 5533SOL    HW117498   3.371   1.104   3.687
 5533SOL    HW217499   3.252   1.154   3.787
 5534SOL     OW17500   1.390   0.565   4.325
 5534SOL    HW117501   1.440   0.518   4.398
 5534SOL    HW217502   1.291   0.552   4.339
 5535SOL     OW17503   0.708   1.702   2.501
 5535SOL    HW117504   0.730   1.735   2.593
 5535SOL    HW217505   0.641   1.628   2.508
 5536SOL     OW17506   4.305   0.510   4.552
 5536SOL    HW117507   4.247   0.454   4.611
 5536SOL    HW217508   4.251   0.586   4.515
 5537SOL     OW17509   2.630   2.297   2.782
 5537SOL    HW117510   2.652   2.340   2.869
 5537SOL    HW217511   2.715   2.275   2.733
 5538SOL     OW17512   3.749   5.413   4.000
 5538SOL    HW117513   3.702   5.327   3.980
 5538SOL    HW217514   3.810   5.401   4.078
 5539SOL     OW17515   2.589   3.802   0.250
 5539SOL    HW117516   2.515   3.854   0.293
 5539SOL    HW217517   2.633   3.858   0.180
 5540SOL     OW17518   3.851   5.773   1.189
 5540SOL    HW117519   3.764   5.778   1.139
 5540SOL    HW217520   3.920   5.826   1.141
 5541SOL     OW17521   4.552   0.551   6.781
 5541SOL    HW117522   4.498   0.631   6.757
 5541SOL    HW217523   4.648   0.567   6.757
 5542SOL     OW17524   5.661   3.769   6.726
 5542SOL    HW117525   5.670   3.682   6.677
 5542SOL    HW217526   5.569   3.778   6.763
 5543SOL     OW17527   0.696   2.625   5.225
 5543SOL    HW117528   0.675   2.528   5.233
 5543SOL    HW217529   0.795   2.638   5.224
 5544SOL     OW17530   5.547   6.724   0.101
 5544SOL    HW117531   5.582   6.795   0.040
 5544SOL    HW217532   5.610   6.647   0.103
 5545SOL     OW17533   2.566   2.408   2.045
 5545SOL    HW117534   2.666   2.405   2.041
 5545SOL    HW217535   2.529   2.332   1.992
 5546SOL     OW17536   3.218   5.658   4.626
 5546SOL    HW117537   3.170   5.655   4.538
 5546SOL    HW217538   3.241   5.752   4.648
 5547SOL     OW17539   2.779   5.033   3.592
 5547SOL    HW117540   2.832   5.083   3.661
 5547SOL    HW217541   2.832   4.956   3.559
 5548SOL     OW17542   6.509   1.577   4.405
 5548SOL    HW117543   6.515   1.497   4.465
 5548SOL    HW217544   6.586   1.577   4.342
 5549SOL     OW17545   3.537   4.764   5.748
 5549SOL    HW117546   3.517   4.688   5.809
 5549SOL    HW217547   3.515   4.850   5.793
 5550SOL     OW17548   3.101   6.046   2.657
 5550SOL    HW117549   3.016   6.061   2.606
 5550SOL    HW217550   3.177   6.036   2.594
 5551SOL     OW17551   0.566   1.486   2.516
 5551SOL    HW117552   0.608   1.395   2.517
 5551SOL    HW217553   0.469   1.478   2.537
 5552SOL     OW17554   2.136   2.319   1.993
 5552SOL    HW117555   2.159   2.396   1.934
 5552SOL    HW217556   2.127   2.351   2.087
 5553SOL     OW17557   4.800   6.642   5.898
 5553SOL    HW117558   4.719   6.695   5.871
 5553SOL    HW217559   4.856   6.624   5.817
 5554SOL     OW17560   3.124   0.214   5.896
 5554SOL    HW117561   3.212   0.216   5.849
 5554SOL    HW217562   3.138   0.203   5.994
 5555SOL     OW17563   1.242   5.550   1.617
 5555SOL    HW117564   1.236   5.452   1.635
 5555SOL    HW217565   1.163   5.579   1.564
 5556SOL     OW17566   0.091   1.270   4.908
 5556SOL    HW117567   0.091   1.208   4.986
 5556SOL    HW217568   7.019   1.277   4.870
 5557SOL     OW17569   3.522   0.863   2.573
 5557SOL    HW117570   3.515   0.962   2.560
 5557SOL    HW217571   3.618   0.837   2.585
 5558SOL     OW17572   5.195   2.708   6.867
 5558SOL    HW117573   5.218   2.711   6.965
 5558SOL    HW217574   5.236   2.627   6.826
 5559SOL     OW17575   3.595   1.199   0.908
 5559SOL    HW117576   3.521   1.227   0.969
 5559SOL    HW217577   3.668   1.157   0.962
 5560SOL     OW17578   0.039   2.162   4.641
 5560SOL    HW117579   0.002   2.239   4.693
 5560SOL    HW217580   7.001   2.145   4.561
 5561SOL     OW17581   2.181   4.491   2.296
 5561SOL    HW117582   2.232   4.460   2.216
 5561SOL    HW217583   2.099   4.436   2.307
 5562SOL     OW17584   4.577   2.477   0.252
 5562SOL    HW117585   4.561   2.560   0.306
 5562SOL    HW217586   4.493   2.450   0.205
 5563SOL     OW17587   3.811   4.390   1.174
 5563SOL    HW117588   3.740   4.320   1.184
 5563SOL    HW217589   3.843   4.420   1.264
 5564SOL     OW17590   6.538   0.903   2.201
 5564SOL    HW117591   6.525   0.822   2.259
 5564SOL    HW217592   6.636   0.919   2.190
 5565SOL     OW17593   1.622   2.819   5.968
 5565SOL    HW117594   1.648   2.801   6.062
 5565SOL    HW217595   1.702   2.812   5.909
 5566SOL     OW17596   2.218   4.362   0.680
 5566SOL    HW117597   2.273   4.445   0.694
 5566SOL    HW217598   2.210   4.312   0.767
 5567SOL     OW17599   1.238   5.704   3.378
 5567SOL    HW117600   1.244   5.620   3.325
 5567SOL    HW217601   1.294   5.775   3.335
 5568SOL     OW17602   4.197   2.747   6.696
 5568SOL    HW117603   4.294   2.758   6.671
 5568SOL    HW217604   4.190   2.699   6.784
 5569SOL     OW17605   4.638   1.186   6.081
 5569SOL    HW117606   4.559   1.228   6.036
 5569SOL    HW217607   4.703   1.155   6.012
 5570SOL     OW17608   2.053   2.078   5.765
 5570SOL    HW117609   2.116   2.119   5.832
 5570SOL    HW217610   2.075   1.981   5.754
 5571SOL     OW17611   0.450   4.736   6.591
 5571SOL    HW117612   0.426   4.690   6.506
 5571SOL    HW217613   0.481   4.668   6.658
 5572SOL     OW17614   1.003   3.813   5.696
 5572SOL    HW117615   1.000   3.728   5.748
 5572SOL    HW217616   1.028   3.794   5.601
 5573SOL     OW17617   0.178   3.649   6.979
 5573SOL    HW117618   0.100   3.615   0.012
 5573SOL    HW217619   0.146   3.712   6.909
 5574SOL     OW17620   2.201   6.306   4.553
 5574SOL    HW117621   2.121   6.319   4.493
 5574SOL    HW217622   2.170   6.286   4.646
 5575SOL     OW17623   0.949   1.394   2.774
 5575SOL    HW117624   1.006   1.323   2.733
 5575SOL    HW217625   1.003   1.445   2.841
 5576SOL     OW17626   5.412   6.862   6.269
 5576SOL    HW117627   5.396   6.955   6.235
 5576SOL    HW217628   5.480   6.866   6.342
 5577SOL     OW17629   1.384   5.094   4.962
 5577SOL    HW117630   1.484   5.101   4.966
 5577SOL    HW217631   1.356   5.006   5.000
 5578SOL     OW17632   4.266   1.854   6.117
 5578SOL    HW117633   4.317   1.930   6.155
 5578SOL    HW217634   4.192   1.828   6.179
 5579SOL     OW17635   4.709   4.827   1.925
 5579SOL    HW117636   4.775   4.776   1.980
 5579SOL    HW217637   4.755   4.904   1.881
 5580SOL     OW17638   6.521   1.259   2.085
 5580SOL    HW117639   6.519   1.348   2.041
 5580SOL    HW217640   6.429   1.232   2.113
 5581SOL     OW17641   3.465   3.272   0.772
 5581SOL    HW117642   3.394   3.225   0.824
 5581SOL    HW217643   3.473   3.232   0.681
 5582SOL     OW17644   3.006   3.611   5.065
 5582SOL    HW117645   3.020   3.580   4.971
 5582SOL    HW217646   3.005   3.532   5.126
 5583SOL     OW17647   4.269   1.356   6.444
 5583SOL    HW117648   4.349   1.393   6.491
 5583SOL    HW217649   4.198   1.426   6.440
 5584SOL     OW17650   4.931   3.408   4.433
 5584SOL    HW117651   4.915   3.318   4.473
 5584SOL    HW217652   4.907   3.479   4.499
 5585SOL     OW17653   6.840   0.821   3.693
 5585SOL    HW117654   6.891   0.880   3.756
 5585SOL    HW217655   6.781   0.878   3.635
 5586SOL     OW17656   1.756   0.944   0.423
 5586SOL    HW117657   1.744   0.882   0.501
 5586SOL    HW217658   1.678   1.006   0.418
 5587SOL     OW17659   3.736   6.836   3.392
 5587SOL    HW117660   3.812   6.854   3.454
 5587SOL    HW217661   3.717   6.918   3.337
 5588SOL     OW17662   4.665   5.551   0.462
 5588SOL    HW117663   4.665   5.469   0.520
 5588SOL    HW217664   4.690   5.525   0.369
 5589SOL     OW17665   1.443   2.667   6.468
 5589SOL    HW117666   1.515   2.688   6.403
 5589SOL    HW217667   1.425   2.568   6.466
 5590SOL     OW17668   5.815   0.577   3.519
 5590SOL    HW117669   5.892   0.517   3.498
 5590SOL    HW217670   5.838   0.634   3.598
 5591SOL     OW17671   5.229   1.359   6.198
 5591SOL    HW117672   5.149   1.417   6.182
 5591SOL    HW217673   5.312   1.408   6.170
 5592SOL     OW17674   1.347   3.565   2.677
 5592SOL    HW117675   1.328   3.570   2.579
 5592SOL    HW217676   1.260   3.564   2.727
 5593SOL     OW17677   2.208   3.304   5.447
 5593SOL    HW117678   2.220   3.379   5.382
 5593SOL    HW217679   2.294   3.254   5.457
 5594SOL     OW17680   2.693   1.033   5.960
 5594SOL    HW117681   2.759   1.097   5.998
 5594SOL    HW217682   2.711   1.021   5.862
 5595SOL     OW17683   6.895   3.468   0.740
 5595SOL    HW117684   6.930   3.523   0.815
 5595SOL    HW217685   6.807   3.503   0.710
 5596SOL     OW17686   5.174   3.617   3.997
 5596SOL    HW117687   5.180   3.571   3.908
 5596SOL    HW217688   5.178   3.716   3.983
 5597SOL     OW17689   0.516   2.093   6.894
 5597SOL    HW117690   0.511   1.993   6.886
 5597SOL    HW217691   0.569   2.118   6.975
 5598SOL     OW17692   6.485   0.000   3.390
 5598SOL    HW117693   6.455   6.931   3.356
 5598SOL    HW217694   6.582   0.013   3.369
 5599SOL     OW17695   4.832   2.865   2.699
 5599SOL    HW117696   4.785   2.829   2.779
 5599SOL    HW217697   4.842   2.964   2.708
 5600SOL     OW17698   2.123   3.258   2.182
 5600SOL    HW117699   2.109   3.274   2.279
 5600SOL    HW217700   2.149   3.344   2.137
 5601SOL     OW17701   5.325   2.504   6.746
 5601SOL    HW117702   5.403   2.482   6.688
 5601SOL    HW217703   5.344   2.473   6.839
 5602SOL     OW17704   5.684   0.887   2.703
 5602SOL    HW117705   5.628   0.967   2.683
 5602SOL    HW217706   5.639   0.832   2.774
 5603SOL     OW17707   3.894   1.322   6.518
 5603SOL    HW117708   3.943   1.391   6.465
 5603SOL    HW217709   3.924   1.231   6.490
 5604SOL     OW17710   1.943   4.060   3.560
 5604SOL    HW117711   1.856   4.051   3.609
 5604SOL    HW217712   2.017   4.071   3.626
 5605SOL     OW17713   2.863   6.808   4.360
 5605SOL    HW117714   2.940   6.863   4.328
 5605SOL    HW217715   2.873   6.790   4.458
 5606SOL     OW17716   4.262   4.404   1.102
 5606SOL    HW117717   4.180   4.348   1.113
 5606SOL    HW217718   4.332   4.353   1.054
 5607SOL     OW17719   1.550   1.868   1.723
 5607SOL    HW117720   1.534   1.810   1.802
 5607SOL    HW217721   1.645   1.899   1.722
 5608SOL     OW17722   6.769   6.438   4.020
 5608SOL    HW117723   6.697   6.423   3.952
 5608SOL    HW217724   6.805   6.350   4.050
 5609SOL     OW17725   0.114   1.079   0.528
 5609SOL    HW117726   0.126   1.097   0.625
 5609SOL    HW217727   0.191   1.119   0.477
 5610SOL     OW17728   5.298   6.398   6.345
 5610SOL    HW117729   5.309   6.302   6.319
 5610SOL    HW217730   5.203   6.425   6.336
 5611SOL     OW17731   0.236   4.305   1.843
 5611SOL    HW117732   0.195   4.234   1.785
 5611SOL    HW217733   0.309   4.265   1.899
 5612SOL     OW17734   5.547   2.004   1.064
 5612SOL    HW117735   5.589   1.967   1.147
 5612SOL    HW217736   5.559   1.939   0.989
 5613SOL     OW17737   6.858   5.358   5.347
 5613SOL    HW117738   6.854   5.337   5.250
 5613SOL    HW217739   6.769   5.337   5.390
 5614SOL     OW17740   5.497   2.467   4.478
 5614SOL    HW117741   5.537   2.443   4.566
 5614SOL    HW217742   5.525   2.399   4.410
 5615SOL     OW17743   0.920   3.226   2.648
 5615SOL    HW117744   0.953   3.319   2.632
 5615SOL    HW217745   0.906   3.213   2.746
 5616SOL     OW17746   1.970   3.111   1.788
 5616SOL    HW117747   2.054   3.100   1.841
 5616SOL    HW217748   1.934   3.021   1.763
 5617SOL     OW17749   0.277   5.075   5.071
 5617SOL    HW117750   0.325   5.089   4.984
 5617SOL    HW217751   0.188   5.033   5.053
 5618SOL     OW17752   5.159   1.187   3.133
 5618SOL    HW117753   5.210   1.103   3.114
 5618SOL    HW217754   5.094   1.203   3.059
 5619SOL     OW17755   3.664   4.083   3.876
 5619SOL    HW117756   3.726   4.147   3.920
 5619SOL    HW217757   3.658   3.999   3.930
 5620SOL     OW17758   4.975   4.460   5.470
 5620SOL    HW117759   4.992   4.376   5.418
 5620SOL    HW217760   5.035   4.533   5.437
 5621SOL     OW17761   0.694   3.291   0.378
 5621SOL    HW117762   0.628   3.218   0.366
 5621SOL    HW217763   0.767   3.283   0.310
 5622SOL     OW17764   5.399   5.606   3.776
 5622SOL    HW117765   5.305   5.638   3.763
 5622SOL    HW217766   5.409   5.567   3.867
 5623SOL     OW17767   4.650   4.323   3.508
 5623SOL    HW117768   4.659   4.281   3.599
 5623SOL    HW217769   4.589   4.402   3.513
 5624SOL     OW17770   4.916   3.817   4.023
 5624SOL    HW117771   4.902   3.744   4.090
 5624SOL    HW217772   5.004   3.861   4.040
 5625SOL     OW17773   4.017   0.082   6.330
 5625SOL    HW117774   3.975   7.011   6.335
 5625SOL    HW217775   3.947   0.151   6.350
 5626SOL     OW17776   1.788   4.292   5.911
 5626SOL    HW117777   1.731   4.217   5.878
 5626SOL    HW217778   1.873   4.255   5.950
 5627SOL     OW17779   0.648   5.427   0.664
 5627SOL    HW117780   0.699   5.341   0.656
 5627SOL    HW217781   0.702   5.501   0.623
 5628SOL     OW17782   0.869   2.833   6.835
 5628SOL    HW117783   0.786   2.779   6.836
 5628SOL    HW217784   0.949   2.772   6.840
 5629SOL     OW17785   0.814   3.615   5.214
 5629SOL    HW117786   0.793   3.588   5.120
 5629SOL    HW217787   0.873   3.546   5.256
 5630SOL     OW17788   0.975   4.670   6.737
 5630SOL    HW117789   0.988   4.618   6.821
 5630SOL    HW217790   1.041   4.640   6.668
 5631SOL     OW17791   2.681   0.706   3.814
 5631SOL    HW117792   2.733   0.781   3.773
 5631SOL    HW217793   2.631   0.739   3.894
 5632SOL     OW17794   2.708   6.376   6.538
 5632SOL    HW117795   2.682   6.293   6.489
 5632SOL    HW217796   2.627   6.432   6.554
 5633SOL     OW17797   1.797   5.439   4.954
 5633SOL    HW117798   1.848   5.356   4.935
 5633SOL    HW217799   1.722   5.448   4.888
 5634SOL     OW17800   2.277   0.329   1.503
 5634SOL    HW117801   2.189   0.283   1.514
 5634SOL    HW217802   2.262   0.419   1.461
 5635SOL     OW17803   4.279   0.877   2.947
 5635SOL    HW117804   4.231   0.910   3.028
 5635SOL    HW217805   4.275   0.947   2.876
 5636SOL     OW17806   4.952   0.471   4.384
 5636SOL    HW117807   4.870   0.494   4.332
 5636SOL    HW217808   4.980   0.551   4.438
 5637SOL     OW17809   6.215   0.115   5.852
 5637SOL    HW117810   6.171   0.133   5.941
 5637SOL    HW217811   6.292   0.177   5.840
 5638SOL     OW17812   1.455   6.733   0.002
 5638SOL    HW117813   1.552   6.713   7.019
 5638SOL    HW217814   1.416   6.701   0.088
 5639SOL     OW17815   3.873   6.940   1.548
 5639SOL    HW117816   3.867   6.852   1.501
 5639SOL    HW217817   3.874   7.014   1.481
 5640SOL     OW17818   4.544   6.485   4.283
 5640SOL    HW117819   4.573   6.563   4.227
 5640SOL    HW217820   4.446   6.470   4.271
 5641SOL     OW17821   6.522   4.519   3.906
 5641SOL    HW117822   6.547   4.611   3.876
 5641SOL    HW217823   6.500   4.463   3.826
 5642SOL     OW17824   2.364   2.026   6.454
 5642SOL    HW117825   2.334   1.959   6.386
 5642SOL    HW217826   2.296   2.033   6.527
 5643SOL     OW17827   5.118   2.415   3.506
 5643SOL    HW117828   5.073   2.502   3.524
 5643SOL    HW217829   5.059   2.358   3.447
 5644SOL     OW17830   2.764   0.928   5.721
 5644SOL    HW117831   2.751   0.842   5.671
 5644SOL    HW217832   2.770   1.003   5.656
 5645SOL     OW17833   6.249   6.259   4.515
 5645SOL    HW117834   6.301   6.180   4.481
 5645SOL    HW217835   6.271   6.340   4.460
 5646SOL     OW17836   6.752   0.864   2.498
 5646SOL    HW117837   6.761   0.884   2.401
 5646SOL    HW217838   6.841   0.876   2.543
 5647SOL     OW17839   5.952   3.522   6.763
 5647SOL    HW117840   5.989   3.601   6.713
 5647SOL    HW217841   6.024   3.455   6.778
 5648SOL     OW17842   1.556   1.951   4.091
 5648SOL    HW117843   1.591   1.873   4.038
 5648SOL    HW217844   1.471   1.924   4.136
 5649SOL     OW17845   6.745   0.657   4.745
 5649SOL    HW117846   6.728   0.572   4.795
 5649SOL    HW217847   6.825   0.703   4.785
 5650SOL     OW17848   6.143   4.766   5.758
 5650SOL    HW117849   6.052   4.755   5.719
 5650SOL    HW217850   6.136   4.805   5.850
 5651SOL     OW17851   5.898   0.632   3.051
 5651SOL    HW117852   5.995   0.609   3.039
 5651SOL    HW217853   5.889   0.729   3.072
 5652SOL     OW17854   4.323   4.373   6.722
 5652SOL    HW117855   4.228   4.362   6.694
 5652SOL    HW217856   4.375   4.291   6.698
 5653SOL     OW17857   2.210   6.488   5.867
 5653SOL    HW117858   2.243   6.557   5.932
 5653SOL    HW217859   2.112   6.499   5.853
 5654SOL     OW17860   2.600   6.585   0.280
 5654SOL    HW117861   2.670   6.643   0.321
 5654SOL    HW217862   2.514   6.636   0.272
 5655SOL     OW17863   6.057   5.486   2.360
 5655SOL    HW117864   6.079   5.392   2.333
 5655SOL    HW217865   5.982   5.485   2.426
 5656SOL     OW17866   2.915   4.778   6.527
 5656SOL    HW117867   2.975   4.857   6.515
 5656SOL    HW217868   2.874   4.754   6.439
 5657SOL     OW17869   5.272   5.606   2.324
 5657SOL    HW117870   5.350   5.578   2.268
 5657SOL    HW217871   5.227   5.524   2.361
 5658SOL     OW17872   4.560   6.732   5.790
 5658SOL    HW117873   4.531   6.806   5.850
 5658SOL    HW217874   4.505   6.651   5.808
 5659SOL     OW17875   2.870   3.380   2.359
 5659SOL    HW117876   2.926   3.298   2.346
 5659SOL    HW217877   2.833   3.410   2.271
 5660SOL     OW17878   0.591   4.905   1.798
 5660SOL    HW117879   0.644   4.962   1.861
 5660SOL    HW217880   0.522   4.854   1.849
 5661SOL     OW17881   5.904   5.841   4.947
 5661SOL    HW117882   5.889   5.869   4.853
 5661SOL    HW217883   5.816   5.839   4.995
 5662SOL     OW17884   1.857   4.101   4.770
 5662SOL    HW117885   1.766   4.139   4.785
 5662SOL    HW217886   1.888   4.056   4.854
 5663SOL     OW17887   2.402   3.879   0.557
 5663SOL    HW117888   2.325   3.840   0.609
 5663SOL    HW217889   2.368   3.951   0.497
 5664SOL     OW17890   6.598   6.949   1.115
 5664SOL    HW117891   6.568   6.854   1.122
 5664SOL    HW217892   6.518   7.009   1.110
 5665SOL     OW17893   1.467   0.635   5.806
 5665SOL    HW117894   1.425   0.590   5.727
 5665SOL    HW217895   1.488   0.730   5.783
 5666SOL     OW17896   5.067   5.915   6.555
 5666SOL    HW117897   5.031   5.989   6.499
 5666SOL    HW217898   5.002   5.839   6.558
 5667SOL     OW17899   5.126   4.668   3.407
 5667SOL    HW117900   5.189   4.635   3.477
 5667SOL    HW217901   5.163   4.752   3.366
 5668SOL     OW17902   6.237   2.573   6.531
 5668SOL    HW117903   6.144   2.569   6.493
 5668SOL    HW217904   6.301   2.600   6.459
 5669SOL     OW17905   0.668   2.317   5.516
 5669SOL    HW117906   0.688   2.282   5.608
 5669SOL    HW217907   0.578   2.285   5.487
 5670SOL     OW17908   1.461   2.818   2.064
 5670SOL    HW117909   1.367   2.848   2.077
 5670SOL    HW217910   1.515   2.892   2.025
 5671SOL     OW17911   0.606   0.436   6.094
 5671SOL    HW117912   0.574   0.495   6.020
 5671SOL    HW217913   0.614   0.342   6.062
 5672SOL     OW17914   4.539   4.466   5.663
 5672SOL    HW117915   4.555   4.530   5.737
 5672SOL    HW217916   4.584   4.499   5.580
 5673SOL     OW17917   1.912   6.443   1.044
 5673SOL    HW117918   1.885   6.493   1.127
 5673SOL    HW217919   1.851   6.365   1.030
 5674SOL     OW17920   0.779   3.094   0.740
 5674SOL    HW117921   0.819   3.135   0.822
 5674SOL    HW217922   0.824   3.006   0.721
 5675SOL     OW17923   4.132   1.386   5.572
 5675SOL    HW117924   4.041   1.413   5.540
 5675SOL    HW217925   4.124   1.314   5.640
 5676SOL     OW17926   2.107   6.433   2.011
 5676SOL    HW117927   2.145   6.354   2.059
 5676SOL    HW217928   2.053   6.488   2.074
 5677SOL     OW17929   5.667   0.279   3.011
 5677SOL    HW117930   5.694   0.183   3.020
 5677SOL    HW217931   5.604   0.303   3.085
 5678SOL     OW17932   1.600   5.521   2.830
 5678SOL    HW117933   1.588   5.426   2.860
 5678SOL    HW217934   1.521   5.549   2.776
 5679SOL     OW17935   3.937   5.706   5.557
 5679SOL    HW117936   3.955   5.802   5.577
 5679SOL    HW217937   3.849   5.679   5.596
 5680SOL     OW17938   1.533   0.394   6.116
 5680SOL    HW117939   1.623   0.434   6.136
 5680SOL    HW217940   1.462   0.459   6.143
 5681SOL     OW17941   3.202   3.643   0.269
 5681SOL    HW117942   3.271   3.578   0.301
 5681SOL    HW217943   3.207   3.726   0.324
 5682SOL     OW17944   2.054   3.939   4.613
 5682SOL    HW117945   2.058   3.948   4.514
 5682SOL    HW217946   1.959   3.943   4.644
 5683SOL     OW17947   3.392   3.416   4.923
 5683SOL    HW117948   3.435   3.506   4.924
 5683SOL    HW217949   3.459   3.346   4.948
 5684SOL     OW17950   3.255   3.911   2.599
 5684SOL    HW117951   3.327   3.973   2.569
 5684SOL    HW217952   3.290   3.818   2.605
 5685SOL     OW17953   0.135   6.742   1.898
 5685SOL    HW117954   0.089   6.829   1.877
 5685SOL    HW217955   0.150   6.691   1.813
 5686SOL     OW17956   3.736   4.844   6.295
 5686SOL    HW117957   3.745   4.757   6.344
 5686SOL    HW217958   3.746   4.828   6.197
 5687SOL     OW17959   4.779   6.345   5.947
 5687SOL    HW117960   4.774   6.442   5.925
 5687SOL    HW217961   4.770   6.333   6.046
 5688SOL     OW17962   5.406   1.346   2.334
 5688SOL    HW117963   5.460   1.262   2.347
 5688SOL    HW217964   5.309   1.323   2.328
 5689SOL     OW17965   3.756   2.877   5.150
 5689SOL    HW117966   3.802   2.945   5.093
 5689SOL    HW217967   3.711   2.810   5.091
 5690SOL     OW17968   3.378   0.412   3.138
 5690SOL    HW117969   3.472   0.380   3.123
 5690SOL    HW217970   3.334   0.356   3.208
 5691SOL     OW17971   3.244   0.505   4.549
 5691SOL    HW117972   3.310   0.432   4.531
 5691SOL    HW217973   3.289   0.577   4.602
 5692SOL     OW17974   5.616   2.962   0.471
 5692SOL    HW117975   5.519   2.989   0.466
 5692SOL    HW217976   5.629   2.902   0.550
 5693SOL     OW17977   5.666   3.302   1.849
 5693SOL    HW117978   5.590   3.248   1.813
 5693SOL    HW217979   5.716   3.344   1.773
 5694SOL     OW17980   1.953   2.734   5.060
 5694SOL    HW117981   2.048   2.736   5.027
 5694SOL    HW217982   1.905   2.656   5.020
 5695SOL     OW17983   1.835   3.073   3.578
 5695SOL    HW117984   1.747   3.040   3.545
 5695SOL    HW217985   1.909   3.028   3.527
 5696SOL     OW17986   3.306   1.529   6.687
 5696SOL    HW117987   3.216   1.567   6.664
 5696SOL    HW217988   3.359   1.516   6.603
 5697SOL     OW17989   6.682   3.937   0.928
 5697SOL    HW117990   6.632   3.987   0.857
 5697SOL    HW217991   6.617   3.888   0.986
 5698SOL     OW17992   1.790   4.491   4.183
 5698SOL    HW117993   1.792   4.467   4.280
 5698SOL    HW217994   1.701   4.529   4.160
 5699SOL     OW17995   0.664   2.370   5.272
 5699SOL    HW117996   0.671   2.359   5.371
 5699SOL    HW217997   0.749   2.337   5.229
 5700SOL     OW17998   1.313   5.142   4.321
 5700SOL    HW117999   1.343   5.236   4.336
 5700SOL    HW218000   1.393   5.085   4.301
 5701SOL     OW18001   4.606   2.124   2.624
 5701SOL    HW118002   4.517   2.136   2.581
 5701SOL    HW218003   4.678   2.142   2.557
 5702SOL     OW18004   4.179   0.423   6.829
 5702SOL    HW118005   4.271   0.389   6.812
 5702SOL    HW218006   4.184   0.512   6.876
 5703SOL     OW18007   5.125   3.895   2.429
 5703SOL    HW118008   5.101   3.918   2.524
 5703SOL    HW218009   5.075   3.814   2.400
 5704SOL     OW18010   5.310   3.582   3.313
 5704SOL    HW118011   5.310   3.485   3.338
 5704SOL    HW218012   5.366   3.595   3.232
 5705SOL     OW18013   6.581   0.962   3.870
 5705SOL    HW118014   6.603   0.880   3.924
 5705SOL    HW218015   6.543   0.935   3.782
 5706SOL     OW18016   2.116   1.388   5.576
 5706SOL    HW118017   2.172   1.371   5.657
 5706SOL    HW218018   2.172   1.430   5.505
 5707SOL     OW18019   4.473   0.854   1.287
 5707SOL    HW118020   4.422   0.819   1.365
 5707SOL    HW218021   4.558   0.897   1.318
 5708SOL     OW18022   1.009   6.808   0.588
 5708SOL    HW118023   0.974   6.794   0.496
 5708SOL    HW218024   1.061   6.728   0.617
 5709SOL     OW18025   0.593   2.898   0.934
 5709SOL    HW118026   0.603   2.925   1.030
 5709SOL    HW218027   0.563   2.977   0.880
 5710SOL     OW18028   3.476   5.076   6.584
 5710SOL    HW118029   3.519   5.163   6.560
 5710SOL    HW218030   3.459   5.023   6.501
 5711SOL     OW18031   4.868   1.367   4.907
 5711SOL    HW118032   4.905   1.443   4.960
 5711SOL    HW218033   4.780   1.393   4.868
 5712SOL     OW18034   5.263   6.886   5.819
 5712SOL    HW118035   5.342   6.940   5.790
 5712SOL    HW218036   5.279   6.852   5.912
 5713SOL     OW18037   0.427   3.613   2.486
 5713SOL    HW118038   0.388   3.678   2.421
 5713SOL    HW218039   0.353   3.558   2.526
 5714SOL     OW18040   2.639   0.657   1.427
 5714SOL    HW118041   2.660   0.559   1.431
 5714SOL    HW218042   2.550   0.674   1.469
 5715SOL     OW18043   0.707   6.024   4.115
 5715SOL    HW118044   0.703   5.954   4.186
 5715SOL    HW218045   0.786   6.083   4.131
 5716SOL     OW18046   1.404   2.785   4.797
 5716SOL    HW118047   1.393   2.864   4.858
 5716SOL    HW218048   1.453   2.712   4.846
 5717SOL     OW18049   0.467   4.190   5.790
 5717SOL    HW118050   0.370   4.203   5.811
 5717SOL    HW218051   0.480   4.193   5.691
 5718SOL     OW18052   3.158   5.880   6.111
 5718SOL    HW118053   3.141   5.932   6.195
 5718SOL    HW218054   3.234   5.817   6.127
 5719SOL     OW18055   2.052   0.822   6.832
 5719SOL    HW118056   1.982   0.893   6.839
 5719SOL    HW218057   2.116   0.832   6.909
 5720SOL     OW18058   2.087   5.788   4.188
 5720SOL    HW118059   2.007   5.784   4.128
 5720SOL    HW218060   2.168   5.809   4.134
 5721SOL     OW18061   6.245   5.415   6.571
 5721SOL    HW118062   6.303   5.357   6.628
 5721SOL    HW218063   6.297   5.445   6.491
 5722SOL     OW18064   5.428   0.815   4.399
 5722SOL    HW118065   5.386   0.879   4.463
 5722SOL    HW218066   5.463   0.864   4.319
 5723SOL     OW18067   6.663   4.898   0.989
 5723SOL    HW118068   6.644   4.878   1.085
 5723SOL    HW218069   6.755   4.937   0.982
 5724SOL     OW18070   4.455   2.992   6.194
 5724SOL    HW118071   4.497   3.060   6.255
 5724SOL    HW218072   4.526   2.930   6.161
 5725SOL     OW18073   6.265   6.876   5.722
 5725SOL    HW118074   6.215   6.946   5.772
 5725SOL    HW218075   6.284   6.908   5.629
 5726SOL     OW18076   3.922   5.394   5.566
 5726SOL    HW118077   3.974   5.449   5.501
 5726SOL    HW218078   3.841   5.444   5.595
 5727SOL     OW18079   5.329   3.171   3.596
 5727SOL    HW118080   5.398   3.162   3.668
 5727SOL    HW218081   5.240   3.143   3.631
 5728SOL     OW18082   3.910   1.038   5.462
 5728SOL    HW118083   4.008   1.059   5.463
 5728SOL    HW218084   3.870   1.065   5.550
 5729SOL     OW18085   2.730   2.271   3.829
 5729SOL    HW118086   2.781   2.204   3.775
 5729SOL    HW218087   2.639   2.235   3.851
 5730SOL     OW18088   3.885   4.661   0.293
 5730SOL    HW118089   3.964   4.616   0.334
 5730SOL    HW218090   3.907   4.756   0.273
 5731SOL     OW18091   4.499   1.214   5.089
 5731SOL    HW118092   4.584   1.181   5.048
 5731SOL    HW218093   4.455   1.280   5.028
 5732SOL     OW18094   6.845   3.596   4.441
 5732SOL    HW118095   6.901   3.630   4.366
 5732SOL    HW218096   6.900   3.594   4.525
 5733SOL     OW18097   2.215   6.475   1.089
 5733SOL    HW118098   2.261   6.564   1.084
 5733SOL    HW218099   2.118   6.487   1.068
 5734SOL     OW18100   1.558   0.243   5.625
 5734SOL    HW118101   1.574   0.321   5.684
 5734SOL    HW218102   1.625   0.243   5.550
 5735SOL     OW18103   5.281   1.428   0.955
 5735SOL    HW118104   5.269   1.512   0.901
 5735SOL    HW218105   5.253   1.350   0.900
 5736SOL     OW18106   4.509   3.484   6.462
 5736SOL    HW118107   4.416   3.453   6.482
 5736SOL    HW218108   4.559   3.496   6.548
 5737SOL     OW18109   5.481   5.533   2.785
 5737SOL    HW118110   5.506   5.444   2.824
 5737SOL    HW218111   5.519   5.541   2.693
 5738SOL     OW18112   3.188   1.851   0.918
 5738SOL    HW118113   3.089   1.858   0.903
 5738SOL    HW218114   3.224   1.774   0.866
 5739SOL     OW18115   2.247   1.393   5.799
 5739SOL    HW118116   2.206   1.478   5.831
 5739SOL    HW218117   2.250   1.327   5.874
 5740SOL     OW18118   5.082   2.804   2.442
 5740SOL    HW118119   4.986   2.826   2.425
 5740SOL    HW218120   5.106   2.719   2.394
 5741SOL     OW18121   1.335   3.579   4.308
 5741SOL    HW118122   1.423   3.572   4.354
 5741SOL    HW218123   1.334   3.517   4.229
 5742SOL     OW18124   6.321   4.320   2.250
 5742SOL    HW118125   6.244   4.366   2.294
 5742SOL    HW218126   6.346   4.238   2.301
 5743SOL     OW18127   3.315   6.478   6.397
 5743SOL    HW118128   3.378   6.417   6.351
 5743SOL    HW218129   3.355   6.510   6.483
 5744SOL     OW18130   5.559   5.471   3.590
 5744SOL    HW118131   5.501   5.542   3.630
 5744SOL    HW218132   5.506   5.386   3.581
 5745SOL     OW18133   1.817   3.683   2.532
 5745SOL    HW118134   1.831   3.699   2.434
 5745SOL    HW218135   1.906   3.686   2.578
 5746SOL     OW18136   5.299   0.734   3.366
 5746SOL    HW118137   5.331   0.814   3.314
 5746SOL    HW218138   5.314   0.651   3.313
 5747SOL     OW18139   1.337   6.569   1.782
 5747SOL    HW118140   1.269   6.637   1.754
 5747SOL    HW218141   1.330   6.555   1.881
 5748SOL     OW18142   6.716   6.936   0.334
 5748SOL    HW118143   6.677   7.010   0.389
 5748SOL    HW218144   6.693   6.848   0.375
 5749SOL     OW18145   1.787   6.300   6.016
 5749SOL    HW118146   1.871   6.248   6.023
 5749SOL    HW218147   1.800   6.391   6.055
 5750SOL     OW18148   6.158   2.411   4.159
 5750SOL    HW118149   6.220   2.380   4.232
 5750SOL    HW218150   6.154   2.511   4.159
 5751SOL     OW18151   6.977   3.742   4.033
 5751SOL    HW118152   6.990   3.702   4.124
 5751SOL    HW218153   0.038   3.795   4.007
 5752SOL     OW18154   5.639   1.666   6.564
 5752SOL    HW118155   5.720   1.639   6.513
 5752SOL    HW218156   5.566   1.693   6.500
 5753SOL     OW18157   3.756   3.135   4.030
 5753SOL    HW118158   3.709   3.142   3.942
 5753SOL    HW218159   3.718   3.060   4.083
 5754SOL     OW18160   6.018   0.199   0.897
 5754SOL    HW118161   6.103   0.149   0.881
 5754SOL    HW218162   6.020   0.286   0.848
 5755SOL     OW18163   0.526   3.719   6.331
 5755SOL    HW118164   0.572   3.645   6.283
 5755SOL    HW218165   0.466   3.681   6.401
 5756SOL     OW18166   5.706   6.624   1.806
 5756SOL    HW118167   5.610   6.600   1.795
 5756SOL    HW218168   5.761   6.540   1.809
 5757SOL     OW18169   1.255   2.004   4.472
 5757SOL    HW118170   1.313   1.923   4.471
 5757SOL    HW218171   1.304   2.081   4.430
 5758SOL     OW18172   6.291   6.664   2.876
 5758SOL    HW118173   6.355   6.657   2.799
 5758SOL    HW218174   6.279   6.573   2.917
 5759SOL     OW18175   2.505   6.338   2.710
 5759SOL    HW118176   2.494   6.368   2.805
 5759SOL    HW218177   2.493   6.416   2.649
 5760SOL     OW18178   0.623   2.329   0.312
 5760SOL    HW118179   0.681   2.281   0.378
 5760SOL    HW218180   0.578   2.406   0.357
 5761SOL     OW18181   6.303   6.756   5.206
 5761SOL    HW118182   6.330   6.707   5.289
 5761SOL    HW218183   6.378   6.815   5.176
 5762SOL     OW18184   0.828   6.323   5.734
 5762SOL    HW118185   0.732   6.302   5.716
 5762SOL    HW218186   0.840   6.343   5.831
 5763SOL     OW18187   4.900   0.534   0.188
 5763SOL    HW118188   4.887   0.485   0.102
 5763SOL    HW218189   4.859   0.481   0.262
 5764SOL     OW18190   4.075   6.270   4.135
 5764SOL    HW118191   4.132   6.190   4.154
 5764SOL    HW218192   4.020   6.291   4.216
 5765SOL     OW18193   6.698   6.727   2.627
 5765SOL    HW118194   6.736   6.661   2.691
 5765SOL    HW218195   6.660   6.805   2.677
 5766SOL     OW18196   1.043   1.005   4.612
 5766SOL    HW118197   1.131   0.976   4.575
 5766SOL    HW218198   1.046   1.000   4.712
 5767SOL     OW18199   6.259   6.825   0.348
 5767SOL    HW118200   6.230   6.848   0.440
 5767SOL    HW218201   6.291   6.730   0.345
 5768SOL     OW18202   1.506   0.401   4.541
 5768SOL    HW118203   1.601   0.374   4.524
 5768SOL    HW218204   1.504   0.467   4.616
 5769SOL     OW18205   1.324   1.850   6.072
 5769SOL    HW118206   1.238   1.813   6.037
 5769SOL    HW218207   1.401   1.800   6.033
 5770SOL     OW18208   1.165   3.861   2.526
 5770SOL    HW118209   1.096   3.795   2.557
 5770SOL    HW218210   1.221   3.889   2.604
 5771SOL     OW18211   2.722   6.447   3.037
 5771SOL    HW118212   2.628   6.416   3.029
 5771SOL    HW218213   2.728   6.543   3.008
 5772SOL     OW18214   2.586   0.496   3.590
 5772SOL    HW118215   2.635   0.511   3.676
 5772SOL    HW218216   2.518   0.568   3.578
 5773SOL     OW18217   6.122   0.655   4.596
 5773SOL    HW118218   6.050   0.682   4.661
 5773SOL    HW218219   6.079   0.617   4.514
 5774SOL     OW18220   1.230   5.955   3.556
 5774SOL    HW118221   1.171   6.031   3.581
 5774SOL    HW218222   1.177   5.886   3.507
 5775SOL     OW18223   5.344   4.510   2.773
 5775SOL    HW118224   5.437   4.476   2.789
 5775SOL    HW218225   5.281   4.468   2.839
 5776SOL     OW18226   3.651   0.567   4.145
 5776SOL    HW118227   3.686   0.486   4.099
 5776SOL    HW218228   3.602   0.625   4.080
 5777SOL     OW18229   0.666   0.439   1.751
 5777SOL    HW118230   0.614   0.470   1.831
 5777SOL    HW218231   0.762   0.466   1.762
 5778SOL     OW18232   0.325   1.034   0.220
 5778SOL    HW118233   0.239   0.992   0.191
 5778SOL    HW218234   0.390   1.033   0.144
 5779SOL     OW18235   5.799   1.579   0.229
 5779SOL    HW118236   5.804   1.665   0.178
 5779SOL    HW218237   5.767   1.506   0.168
 5780SOL     OW18238   5.515   4.944   4.686
 5780SOL    HW118239   5.490   5.001   4.607
 5780SOL    HW218240   5.452   4.963   4.761
 5781SOL     OW18241   1.429   5.820   5.895
 5781SOL    HW118242   1.342   5.780   5.865
 5781SOL    HW218243   1.417   5.918   5.909
 5782SOL     OW18244   5.541   0.757   1.293
 5782SOL    HW118245   5.617   0.744   1.229
 5782SOL    HW218246   5.475   0.683   1.280
 5783SOL     OW18247   2.549   2.477   6.582
 5783SOL    HW118248   2.516   2.568   6.555
 5783SOL    HW218249   2.487   2.439   6.650
 5784SOL     OW18250   6.928   6.371   0.359
 5784SOL    HW118251   6.884   6.398   0.273
 5784SOL    HW218252   6.885   6.287   0.393
 5785SOL     OW18253   1.739   1.145   2.213
 5785SOL    HW118254   1.813   1.208   2.189
 5785SOL    HW218255   1.778   1.055   2.235
 5786SOL     OW18256   5.742   5.141   2.328
 5786SOL    HW118257   5.647   5.166   2.312
 5786SOL    HW218258   5.799   5.175   2.253
 5787SOL     OW18259   1.774   3.085   6.806
 5787SOL    HW118260   1.722   3.150   6.861
 5787SOL    HW218261   1.714   3.012   6.776
 5788SOL     OW18262   3.405   0.527   3.501
 5788SOL    HW118263   3.332   0.595   3.510
 5788SOL    HW218264   3.374   0.452   3.443
 5789SOL     OW18265   3.249   4.739   6.205
 5789SOL    HW118266   3.325   4.702   6.258
 5789SOL    HW218267   3.170   4.678   6.211
 5790SOL     OW18268   1.725   3.501   4.117
 5790SOL    HW118269   1.705   3.575   4.052
 5790SOL    HW218270   1.785   3.536   4.189
 5791SOL     OW18271   0.867   1.253   3.147
 5791SOL    HW118272   0.826   1.327   3.094
 5791SOL    HW218273   0.863   1.275   3.245
 5792SOL     OW18274   0.539   1.947   3.426
 5792SOL    HW118275   0.537   2.010   3.504
 5792SOL    HW218276   0.616   1.884   3.436
 5793SOL     OW18277   6.252   1.660   5.287
 5793SOL    HW118278   6.261   1.568   5.250
 5793SOL    HW218279   6.315   1.672   5.364
 5794SOL     OW18280   0.181   4.115   6.710
 5794SOL    HW118281   0.216   4.114   6.804
 5794SOL    HW218282   0.211   4.032   6.662
 5795SOL     OW18283   6.558   4.592   0.169
 5795SOL    HW118284   6.593   4.504   0.202
 5795SOL    HW218285   6.542   4.586   0.070
 5796SOL     OW18286   2.766   2.098   0.570
 5796SOL    HW118287   2.722   2.078   0.482
 5796SOL    HW218288   2.865   2.096   0.559
 5797SOL     OW18289   3.393   3.341   5.403
 5797SOL    HW118290   3.344   3.256   5.383
 5797SOL    HW218291   3.355   3.415   5.346
 5798SOL     OW18292   6.447   4.759   4.130
 5798SOL    HW118293   6.415   4.779   4.223
 5798SOL    HW218294   6.482   4.666   4.126
 5799SOL     OW18295   5.443   0.525   4.585
 5799SOL    HW118296   5.403   0.446   4.538
 5799SOL    HW218297   5.525   0.555   4.536
 5800SOL     OW18298   5.663   6.578   6.823
 5800SOL    HW118299   5.609   6.503   6.785
 5800SOL    HW218300   5.725   6.541   6.893
 5801SOL     OW18301   1.493   1.165   2.117
 5801SOL    HW118302   1.586   1.172   2.153
 5801SOL    HW218303   1.481   1.229   2.042
 5802SOL     OW18304   0.176   2.787   4.762
 5802SOL    HW118305   0.266   2.806   4.722
 5802SOL    HW218306   0.106   2.839   4.713
 5803SOL     OW18307   1.543   5.264   1.369
 5803SOL    HW118308   1.504   5.234   1.456
 5803SOL    HW218309   1.629   5.215   1.353
 5804SOL     OW18310   0.288   3.060   6.426
 5804SOL    HW118311   0.189   3.079   6.426
 5804SOL    HW218312   0.338   3.143   6.449
 5805SOL     OW18313   4.664   3.143   6.931
 5805SOL    HW118314   4.569   3.163   6.905
 5805SOL    HW218315   4.676   3.162   0.009
 5806SOL     OW18316   6.053   6.404   6.389
 5806SOL    HW118317   6.101   6.319   6.406
 5806SOL    HW218318   6.037   6.416   6.291
 5807SOL     OW18319   2.595   4.175   1.647
 5807SOL    HW118320   2.590   4.076   1.658
 5807SOL    HW218321   2.684   4.207   1.679
 5808SOL     OW18322   6.726   1.596   3.776
 5808SOL    HW118323   6.698   1.611   3.682
 5808SOL    HW218324   6.646   1.593   3.835
 5809SOL     OW18325   1.010   3.546   4.058
 5809SOL    HW118326   1.029   3.492   3.976
 5809SOL    HW218327   1.071   3.625   4.061
 5810SOL     OW18328   3.229   1.775   2.353
 5810SOL    HW118329   3.301   1.715   2.387
 5810SOL    HW218330   3.200   1.744   2.262
 5811SOL     OW18331   2.623   0.130   1.645
 5811SOL    HW118332   2.542   0.182   1.673
 5811SOL    HW218333   2.605   0.084   1.558
 5812SOL     OW18334   4.193   1.068   4.309
 5812SOL    HW118335   4.271   1.065   4.246
 5812SOL    HW218336   4.110   1.042   4.259
 5813SOL     OW18337   1.662   2.205   4.942
 5813SOL    HW118338   1.587   2.223   4.878
 5813SOL    HW218339   1.675   2.285   5.001
 5814SOL     OW18340   0.703   5.476   1.452
 5814SOL    HW118341   0.795   5.512   1.437
 5814SOL    HW218342   0.636   5.545   1.425
 5815SOL     OW18343   4.023   6.411   4.636
 5815SOL    HW118344   4.053   6.505   4.650
 5815SOL    HW218345   4.096   6.347   4.662
 5816SOL     OW18346   5.261   6.039   0.084
 5816SOL    HW118347   5.360   6.027   0.089
 5816SOL    HW218348   5.216   5.952   0.104
 5817SOL     OW18349   5.659   2.504   6.252
 5817SOL    HW118350   5.712   2.429   6.291
 5817SOL    HW218351   5.619   2.476   6.165
 5818SOL     OW18352   5.733   6.854   5.127
 5818SOL    HW118353   5.832   6.841   5.132
 5818SOL    HW218354   5.688   6.798   5.196
 5819SOL     OW18355   6.485   0.372   1.357
 5819SOL    HW118356   6.507   0.462   1.321
 5819SOL    HW218357   6.566   0.332   1.401
 5820SOL     OW18358   5.156   4.742   1.870
 5820SOL    HW118359   5.186   4.655   1.910
 5820SOL    HW218360   5.103   4.725   1.788
 5821SOL     OW18361   3.023   6.946   2.644
 5821SOL    HW118362   3.101   6.910   2.593
 5821SOL    HW218363   2.976   7.015   2.589
 5822SOL     OW18364   0.454   0.877   2.501
 5822SOL    HW118365   0.414   0.817   2.571
 5822SOL    HW218366   0.503   0.821   2.434
 5823SOL     OW18367   1.763   2.909   3.926
 5823SOL    HW118368   1.821   2.985   3.898
 5823SOL    HW218369   1.668   2.940   3.931
 5824SOL     OW18370   4.639   0.375   3.695
 5824SOL    HW118371   4.620   0.400   3.600
 5824SOL    HW218372   4.671   0.455   3.745
 5825SOL     OW18373   3.439   1.358   1.405
 5825SOL    HW118374   3.472   1.356   1.311
 5825SOL    HW218375   3.343   1.386   1.407
 5826SOL     OW18376   0.576   6.533   3.273
 5826SOL    HW118377   0.569   6.613   3.333
 5826SOL    HW218378   0.537   6.453   3.319
 5827SOL     OW18379   1.912   4.871   5.707
 5827SOL    HW118380   1.986   4.904   5.765
 5827SOL    HW218381   1.836   4.841   5.764
 5828SOL     OW18382   6.125   1.704   1.134
 5828SOL    HW118383   6.074   1.788   1.115
 5828SOL    HW218384   6.106   1.673   1.227
 5829SOL     OW18385   2.048   0.912   1.754
 5829SOL    HW118386   1.983   0.947   1.821
 5829SOL    HW218387   2.043   0.967   1.671
 5830SOL     OW18388   1.430   0.931   5.674
 5830SOL    HW118389   1.335   0.958   5.684
 5830SOL    HW218390   1.489   1.006   5.704
 5831SOL     OW18391   5.822   5.629   2.964
 5831SOL    HW118392   5.877   5.676   2.894
 5831SOL    HW218393   5.795   5.539   2.930
 5832SOL     OW18394   3.682   3.483   4.480
 5832SOL    HW118395   3.584   3.499   4.470
 5832SOL    HW218396   3.726   3.490   4.391
 5833SOL     OW18397   3.013   3.258   4.786
 5833SOL    HW118398   3.067   3.215   4.713
 5833SOL    HW218399   3.036   3.355   4.791
 5834SOL     OW18400   5.573   1.165   6.577
 5834SOL    HW118401   5.672   1.153   6.571
 5834SOL    HW218402   5.528   1.091   6.528
 5835SOL     OW18403   5.222   2.767   3.849
 5835SOL    HW118404   5.263   2.675   3.845
 5835SOL    HW218405   5.280   2.826   3.905
 5836SOL     OW18406   3.682   6.875   3.705
 5836SOL    HW118407   3.713   6.794   3.655
 5836SOL    HW218408   3.713   6.868   3.800
 5837SOL     OW18409   4.260   3.872   6.444
 5837SOL    HW118410   4.171   3.870   6.489
 5837SOL    HW218411   4.249   3.851   6.347
 5838SOL     OW18412   0.550   1.059   6.182
 5838SOL    HW118413   0.575   0.973   6.138
 5838SOL    HW218414   0.475   1.044   6.246
 5839SOL     OW18415   6.582   2.347   2.050
 5839SOL    HW118416   6.601   2.304   2.139
 5839SOL    HW218417   6.626   2.437   2.047
 5840SOL     OW18418   3.058   5.918   0.446
 5840SOL    HW118419   3.139   5.860   0.456
 5840SOL    HW218420   2.983   5.881   0.501
 5841SOL     OW18421   6.475   1.924   3.518
 5841SOL    HW118422   6.385   1.960   3.546
 5841SOL    HW218423   6.545   1.958   3.581
 5842SOL     OW18424   3.466   2.106   1.102
 5842SOL    HW118425   3.507   2.113   1.011
 5842SOL    HW218426   3.531   2.138   1.171
 5843SOL     OW18427   0.298   2.561   1.437
 5843SOL    HW118428   0.248   2.617   1.370
 5843SOL    HW218429   0.342   2.621   1.503
 5844SOL     OW18430   1.619   6.129   6.121
 5844SOL    HW118431   1.690   6.193   6.091
 5844SOL    HW218432   1.562   6.173   6.191
 5845SOL     OW18433   1.897   3.044   4.582
 5845SOL    HW118434   1.927   3.074   4.672
 5845SOL    HW218435   1.948   2.962   4.555
 5846SOL     OW18436   0.690   3.911   0.422
 5846SOL    HW118437   0.725   3.993   0.377
 5846SOL    HW218438   0.610   3.877   0.373
 5847SOL     OW18439   1.506   2.682   4.417
 5847SOL    HW118440   1.520   2.595   4.463
 5847SOL    HW218441   1.594   2.725   4.398
 5848SOL     OW18442   0.721   4.385   3.952
 5848SOL    HW118443   0.693   4.315   3.886
 5848SOL    HW218444   0.744   4.469   3.903
 5849SOL     OW18445   2.425   0.153   5.866
 5849SOL    HW118446   2.395   0.220   5.798
 5849SOL    HW218447   2.409   0.189   5.958
 5850SOL     OW18448   0.652   4.575   3.286
 5850SOL    HW118449   0.653   4.545   3.381
 5850SOL    HW218450   0.561   4.561   3.247
 5851SOL     OW18451   6.619   2.776   1.733
 5851SOL    HW118452   6.638   2.826   1.817
 5851SOL    HW218453   6.681   2.808   1.661
 5852SOL     OW18454   4.194   6.268   3.188
 5852SOL    HW118455   4.142   6.315   3.116
 5852SOL    HW218456   4.193   6.169   3.170
 5853SOL     OW18457   5.064   3.798   5.260
 5853SOL    HW118458   5.053   3.713   5.210
 5853SOL    HW218459   5.073   3.779   5.358
 5854SOL     OW18460   1.624   1.402   6.719
 5854SOL    HW118461   1.633   1.379   6.622
 5854SOL    HW218462   1.527   1.403   6.744
 5855SOL     OW18463   1.607   1.956   4.632
 5855SOL    HW118464   1.704   1.952   4.606
 5855SOL    HW218465   1.598   1.932   4.728
 5856SOL     OW18466   1.083   6.286   3.249
 5856SOL    HW118467   1.089   6.358   3.180
 5856SOL    HW218468   1.002   6.300   3.305
 5857SOL     OW18469   0.645   2.143   5.110
 5857SOL    HW118470   0.593   2.058   5.123
 5857SOL    HW218471   0.635   2.201   5.191
 5858SOL     OW18472   3.088   0.160   3.893
 5858SOL    HW118473   2.995   0.193   3.905
 5858SOL    HW218474   3.118   0.112   3.976
 5859SOL     OW18475   5.921   5.024   2.049
 5859SOL    HW118476   5.896   5.118   2.073
 5859SOL    HW218477   6.008   5.000   2.094
 5860SOL     OW18478   6.732   4.704   0.780
 5860SOL    HW118479   6.709   4.781   0.841
 5860SOL    HW218480   6.822   4.668   0.806
 5861SOL     OW18481   6.126   1.830   4.096
 5861SOL    HW118482   6.061   1.904   4.078
 5861SOL    HW218483   6.145   1.827   4.194
 5862SOL     OW18484   5.717   5.447   4.093
 5862SOL    HW118485   5.717   5.413   3.999
 5862SOL    HW218486   5.652   5.395   4.147
 5863SOL     OW18487   2.511   1.386   0.660
 5863SOL    HW118488   2.559   1.384   0.572
 5863SOL    HW218489   2.417   1.357   0.647
 5864SOL     OW18490   4.688   5.024   0.914
 5864SOL    HW118491   4.651   4.939   0.877
 5864SOL    HW218492   4.686   5.021   1.014
 5865SOL     OW18493   4.414   0.659   3.566
 5865SOL    HW118494   4.334   0.624   3.518
 5865SOL    HW218495   4.434   0.752   3.536
 5866SOL     OW18496   3.561   1.681   6.799
 5866SOL    HW118497   3.569   1.691   6.898
 5866SOL    HW218498   3.527   1.589   6.777
 5867SOL     OW18499   6.815   2.884   1.580
 5867SOL    HW118500   6.894   2.945   1.593
 5867SOL    HW218501   6.845   2.801   1.532
 5868SOL     OW18502   0.478   6.004   5.383
 5868SOL    HW118503   0.381   6.000   5.356
 5868SOL    HW218504   0.485   5.995   5.482
 5869SOL     OW18505   2.348   5.119   4.742
 5869SOL    HW118506   2.339   5.103   4.840
 5869SOL    HW218507   2.433   5.079   4.709
 5870SOL     OW18508   5.258   6.019   3.990
 5870SOL    HW118509   5.176   6.000   3.937
 5870SOL    HW218510   5.279   6.117   3.988
 5871SOL     OW18511   3.369   4.644   0.627
 5871SOL    HW118512   3.392   4.616   0.720
 5871SOL    HW218513   3.430   4.718   0.598
 5872SOL     OW18514   4.115   5.551   3.648
 5872SOL    HW118515   4.065   5.488   3.708
 5872SOL    HW218516   4.071   5.640   3.649
 5873SOL     OW18517   2.232   2.974   0.474
 5873SOL    HW118518   2.196   3.032   0.401
 5873SOL    HW218519   2.230   3.025   0.560
 5874SOL     OW18520   0.528   4.377   6.514
 5874SOL    HW118521   0.581   4.395   6.431
 5874SOL    HW218522   0.513   4.279   6.522
 5875SOL     OW18523   3.960   2.319   1.182
 5875SOL    HW118524   3.955   2.414   1.152
 5875SOL    HW218525   3.945   2.314   1.281
 5876SOL     OW18526   4.439   4.117   5.972
 5876SOL    HW118527   4.362   4.083   5.918
 5876SOL    HW218528   4.495   4.039   6.001
 5877SOL     OW18529   5.512   6.768   3.193
 5877SOL    HW118530   5.523   6.790   3.096
 5877SOL    HW218531   5.442   6.827   3.234
 5878SOL     OW18532   4.817   3.001   2.989
 5878SOL    HW118533   4.769   2.916   2.967
 5878SOL    HW218534   4.832   3.052   2.905
 5879SOL     OW18535   3.149   4.799   5.092
 5879SOL    HW118536   3.216   4.734   5.126
 5879SOL    HW218537   3.061   4.753   5.079
 5880SOL     OW18538   6.235   2.030   0.382
 5880SOL    HW118539   6.144   1.991   0.399
 5880SOL    HW218540   6.287   2.032   0.468
 5881SOL     OW18541   1.067   5.569   2.904
 5881SOL    HW118542   0.985   5.533   2.948
 5881SOL    HW218543   1.073   5.668   2.922
 5882SOL     OW18544   1.303   5.572   5.721
 5882SOL    HW118545   1.239   5.648   5.709
 5882SOL    HW218546   1.351   5.556   5.635
 5883SOL     OW18547   0.189   5.955   0.025
 5883SOL    HW118548   0.159   5.894   6.972
 5883SOL    HW218549   0.261   5.910   0.078
 5884SOL     OW18550   0.808   0.760   1.854
 5884SOL    HW118551   0.715   0.797   1.847
 5884SOL    HW218552   0.859   0.813   1.922
 5885SOL     OW18553   0.284   5.704   1.662
 5885SOL    HW118554   0.279   5.624   1.722
 5885SOL    HW218555   0.369   5.701   1.609
 5886SOL     OW18556   1.348   4.375   3.490
 5886SOL    HW118557   1.291   4.295   3.507
 5886SOL    HW218558   1.439   4.346   3.462
 5887SOL     OW18559   2.146   3.909   0.978
 5887SOL    HW118560   2.209   3.836   0.951
 5887SOL    HW218561   2.072   3.870   1.033
 5888SOL     OW18562   2.893   6.458   1.783
 5888SOL    HW118563   2.881   6.550   1.746
 5888SOL    HW218564   2.866   6.391   1.715
 5889SOL     OW18565   5.088   1.113   1.963
 5889SOL    HW118566   5.148   1.079   1.891
 5889SOL    HW218567   4.997   1.131   1.926
 5890SOL     OW18568   2.533   4.581   2.849
 5890SOL    HW118569   2.466   4.524   2.802
 5890SOL    HW218570   2.532   4.560   2.947
 5891SOL     OW18571   2.596   3.066   6.918
 5891SOL    HW118572   2.524   2.997   6.914
 5891SOL    HW218573   2.675   3.036   6.864
 5892SOL     OW18574   0.452   2.756   1.599
 5892SOL    HW118575   0.497   2.757   1.510
 5892SOL    HW218576   0.493   2.685   1.657
 5893SOL     OW18577   0.230   6.444   1.209
 5893SOL    HW118578   0.157   6.378   1.229
 5893SOL    HW218579   0.297   6.402   1.148
 5894SOL     OW18580   2.837   4.961   6.911
 5894SOL    HW118581   2.813   5.056   6.930
 5894SOL    HW218582   2.920   4.958   6.855
 5895SOL     OW18583   5.649   2.530   4.110
 5895SOL    HW118584   5.632   2.581   4.195
 5895SOL    HW218585   5.567   2.534   4.053
 5896SOL     OW18586   5.243   2.376   1.021
 5896SOL    HW118587   5.334   2.336   1.023
 5896SOL    HW218588   5.179   2.317   1.071
 5897SOL     OW18589   3.674   4.041   6.847
 5897SOL    HW118590   3.576   4.059   6.844
 5897SOL    HW218591   3.689   3.943   6.862
 5898SOL     OW18592   3.842   0.523   6.710
 5898SOL    HW118593   3.812   0.435   6.673
 5898SOL    HW218594   3.763   0.570   6.750
 5899SOL     OW18595   0.588   0.162   0.302
 5899SOL    HW118596   0.660   0.097   0.277
 5899SOL    HW218597   0.625   0.255   0.300
 5900SOL     OW18598   5.557   6.580   2.867
 5900SOL    HW118599   5.596   6.510   2.927
 5900SOL    HW218600   5.594   6.568   2.775
 5901SOL     OW18601   1.574   0.558   4.768
 5901SOL    HW118602   1.597   0.498   4.845
 5901SOL    HW218603   1.653   0.616   4.746
 5902SOL     OW18604   4.424   3.705   5.853
 5902SOL    HW118605   4.404   3.778   5.787
 5902SOL    HW218606   4.501   3.650   5.821
 5903SOL     OW18607   5.577   0.916   5.767
 5903SOL    HW118608   5.555   0.827   5.806
 5903SOL    HW218609   5.670   0.942   5.792
 5904SOL     OW18610   0.133   5.208   1.907
 5904SOL    HW118611   0.145   5.114   1.940
 5904SOL    HW218612   0.109   5.207   1.810
 5905SOL     OW18613   6.367   1.797   4.669
 5905SOL    HW118614   6.339   1.796   4.765
 5905SOL    HW218615   6.393   1.705   4.641
 5906SOL     OW18616   4.055   0.000   4.465
 5906SOL    HW118617   3.997   0.060   4.409
 5906SOL    HW218618   4.143   0.045   4.482
 5907SOL     OW18619   0.446   3.393   5.935
 5907SOL    HW118620   0.393   3.457   5.881
 5907SOL    HW218621   0.385   3.328   5.979
 5908SOL     OW18622   4.513   3.069   6.618
 5908SOL    HW118623   4.498   2.971   6.605
 5908SOL    HW218624   4.519   3.114   6.528
 5909SOL     OW18625   6.639   4.877   3.549
 5909SOL    HW118626   6.646   4.813   3.472
 5909SOL    HW218627   6.621   4.969   3.515
 5910SOL     OW18628   2.385   4.165   1.959
 5910SOL    HW118629   2.483   4.182   1.951
 5910SOL    HW218630   2.359   4.090   1.899
 5911SOL     OW18631   6.839   1.254   5.628
 5911SOL    HW118632   6.814   1.160   5.604
 5911SOL    HW218633   6.777   1.318   5.584
 5912SOL     OW18634   0.367   3.784   6.107
 5912SOL    HW118635   0.421   3.766   6.189
 5912SOL    HW218636   0.423   3.831   6.039
 5913SOL     OW18637   1.692   2.957   4.888
 5913SOL    HW118638   1.722   2.967   4.983
 5913SOL    HW218639   1.770   2.929   4.832
 5914SOL     OW18640   1.081   5.513   0.225
 5914SOL    HW118641   0.985   5.491   0.246
 5914SOL    HW218642   1.120   5.441   0.168
 5915SOL     OW18643   5.555   4.137   4.380
 5915SOL    HW118644   5.585   4.169   4.470
 5915SOL    HW218645   5.570   4.038   4.373
 5916SOL     OW18646   3.240   0.885   6.630
 5916SOL    HW118647   3.186   0.963   6.600
 5916SOL    HW218648   3.266   0.830   6.550
 5917SOL     OW18649   3.740   3.839   1.839
 5917SOL    HW118650   3.681   3.775   1.887
 5917SOL    HW218651   3.701   3.931   1.845
 5918SOL     OW18652   3.164   1.799   4.196
 5918SOL    HW118653   3.226   1.751   4.135
 5918SOL    HW218654   3.088   1.837   4.143
 5919SOL     OW18655   1.542   2.019   6.121
 5919SOL    HW118656   1.574   2.082   6.050
 5919SOL    HW218657   1.444   2.030   6.134
 5920SOL     OW18658   2.408   4.027   0.044
 5920SOL    HW118659   2.313   4.058   0.038
 5920SOL    HW218660   2.461   4.065   6.988
 5921SOL     OW18661   3.754   6.360   4.704
 5921SOL    HW118662   3.744   6.282   4.765
 5921SOL    HW218663   3.850   6.387   4.699
 5922SOL     OW18664   6.630   5.359   2.112
 5922SOL    HW118665   6.621   5.351   2.211
 5922SOL    HW218666   6.727   5.355   2.087
 5923SOL     OW18667   0.728   0.698   3.071
 5923SOL    HW118668   0.761   0.759   3.143
 5923SOL    HW218669   0.793   0.701   2.994
 5924SOL     OW18670   5.742   1.985   4.627
 5924SOL    HW118671   5.664   2.046   4.617
 5924SOL    HW218672   5.717   1.905   4.681
 5925SOL     OW18673   6.783   6.185   0.552
 5925SOL    HW118674   6.860   6.173   0.615
 5925SOL    HW218675   6.702   6.211   0.603
 5926SOL     OW18676   3.167   6.571   2.202
 5926SOL    HW118677   3.249   6.528   2.241
 5926SOL    HW218678   3.087   6.541   2.253
 5927SOL     OW18679   2.039   5.365   1.215
 5927SOL    HW118680   1.948   5.362   1.174
 5927SOL    HW218681   2.106   5.329   1.151
 5928SOL     OW18682   6.688   6.374   0.878
 5928SOL    HW118683   6.683   6.385   0.977
 5928SOL    HW218684   6.703   6.278   0.856
 5929SOL     OW18685   0.288   6.945   5.923
 5929SOL    HW118686   0.193   6.940   5.952
 5929SOL    HW218687   0.341   6.997   5.990
 5930SOL     OW18688   6.474   1.404   4.758
 5930SOL    HW118689   6.416   1.472   4.802
 5930SOL    HW218690   6.440   1.312   4.779
 5931SOL     OW18691   5.812   4.548   0.363
 5931SOL    HW118692   5.758   4.466   0.383
 5931SOL    HW218693   5.811   4.609   0.442
 5932SOL     OW18694   2.460   0.376   0.512
 5932SOL    HW118695   2.400   0.427   0.449
 5932SOL    HW218696   2.502   0.300   0.463
 5933SOL     OW18697   5.581   2.206   3.157
 5933SOL    HW118698   5.674   2.220   3.124
 5933SOL    HW218699   5.581   2.132   3.225
 5934SOL     OW18700   4.263   3.258   1.511
 5934SOL    HW118701   4.352   3.275   1.468
 5934SOL    HW218702   4.273   3.190   1.583
 5935SOL     OW18703   3.749   3.310   2.698
 5935SOL    HW118704   3.722   3.269   2.611
 5935SOL    HW218705   3.833   3.266   2.731
 5936SOL     OW18706   6.400   6.002   6.917
 5936SOL    HW118707   6.481   6.059   6.903
 5936SOL    HW218708   6.342   6.044   6.987
 5937SOL     OW18709   0.742   4.222   0.749
 5937SOL    HW118710   0.749   4.228   0.650
 5937SOL    HW218711   0.647   4.206   0.775
 5938SOL     OW18712   2.714   5.331   1.136
 5938SOL    HW118713   2.809   5.309   1.156
 5938SOL    HW218714   2.654   5.268   1.186
 5939SOL     OW18715   0.907   0.090   2.432
 5939SOL    HW118716   0.914   0.181   2.391
 5939SOL    HW218717   0.988   0.037   2.409
 5940SOL     OW18718   4.374   4.534   3.087
 5940SOL    HW118719   4.289   4.492   3.117
 5940SOL    HW218720   4.370   4.549   2.988
 5941SOL     OW18721   6.071   2.720   3.935
 5941SOL    HW118722   5.976   2.690   3.941
 5941SOL    HW218723   6.117   2.706   4.023
 5942SOL     OW18724   6.839   1.389   4.524
 5942SOL    HW118725   6.897   1.344   4.456
 5942SOL    HW218726   6.866   1.485   4.531
 5943SOL     OW18727   1.945   5.848   0.939
 5943SOL    HW118728   2.020   5.909   0.963
 5943SOL    HW218729   1.908   5.806   1.021
 5944SOL     OW18730   5.370   2.646   3.092
 5944SOL    HW118731   5.456   2.614   3.133
 5944SOL    HW218732   5.300   2.576   3.103
 5945SOL     OW18733   6.629   5.960   6.001
 5945SOL    HW118734   6.565   6.035   5.983
 5945SOL    HW218735   6.667   5.927   5.915
 5946SOL     OW18736   4.038   2.535   5.350
 5946SOL    HW118737   3.963   2.601   5.353
 5946SOL    HW218738   4.114   2.573   5.297
 5947SOL     OW18739   5.795   3.572   2.681
 5947SOL    HW118740   5.781   3.536   2.773
 5947SOL    HW218741   5.770   3.503   2.613
 5948SOL     OW18742   3.163   5.772   3.085
 5948SOL    HW118743   3.123   5.803   3.171
 5948SOL    HW218744   3.112   5.693   3.051
 5949SOL     OW18745   4.854   4.022   2.943
 5949SOL    HW118746   4.833   3.948   3.007
 5949SOL    HW218747   4.887   4.102   2.993
 5950SOL     OW18748   6.972   1.637   4.587
 5950SOL    HW118749   6.899   1.705   4.601
 5950SOL    HW218750   0.016   1.640   4.664
 5951SOL     OW18751   2.050   0.406   3.332
 5951SOL    HW118752   2.038   0.484   3.393
 5951SOL    HW218753   2.136   0.416   3.281
 5952SOL     OW18754   0.393   6.627   4.509
 5952SOL    HW118755   0.408   6.553   4.443
 5952SOL    HW218756   0.378   6.588   4.600
 5953SOL     OW18757   0.855   3.464   5.978
 5953SOL    HW118758   0.938   3.430   5.934
 5953SOL    HW218759   0.784   3.478   5.910
 5954SOL     OW18760   1.721   4.527   6.423
 5954SOL    HW118761   1.663   4.607   6.440
 5954SOL    HW218762   1.687   4.449   6.476
 5955SOL     OW18763   3.982   5.197   2.199
 5955SOL    HW118764   3.887   5.180   2.173
 5955SOL    HW218765   4.033   5.111   2.202
 5956SOL     OW18766   0.227   1.864   0.436
 5956SOL    HW118767   0.228   1.904   0.528
 5956SOL    HW218768   0.291   1.914   0.377
 5957SOL     OW18769   4.391   6.528   5.880
 5957SOL    HW118770   4.408   6.493   5.972
 5957SOL    HW218771   4.292   6.527   5.862
 5958SOL     OW18772   1.173   5.661   2.426
 5958SOL    HW118773   1.116   5.733   2.466
 5958SOL    HW218774   1.218   5.696   2.344
 5959SOL     OW18775   1.717   0.727   5.864
 5959SOL    HW118776   1.721   0.784   5.946
 5959SOL    HW218777   1.627   0.685   5.857
 5960SOL     OW18778   3.472   5.875   5.135
 5960SOL    HW118779   3.527   5.801   5.173
 5960SOL    HW218780   3.379   5.842   5.118
 5961SOL     OW18781   2.754   1.173   5.475
 5961SOL    HW118782   2.728   1.270   5.476
 5961SOL    HW218783   2.854   1.166   5.471
 5962SOL     OW18784   5.391   4.231   2.568
 5962SOL    HW118785   5.353   4.181   2.646
 5962SOL    HW218786   5.481   4.268   2.593
 5963SOL     OW18787   4.224   4.344   1.680
 5963SOL    HW118788   4.175   4.260   1.656
 5963SOL    HW218789   4.284   4.326   1.758
 5964SOL     OW18790   1.208   3.468   5.208
 5964SOL    HW118791   1.180   3.502   5.118
 5964SOL    HW218792   1.129   3.430   5.255
 5965SOL     OW18793   2.103   2.383   4.566
 5965SOL    HW118794   2.186   2.343   4.525
 5965SOL    HW218795   2.032   2.313   4.573
 5966SOL     OW18796   1.572   6.130   4.317
 5966SOL    HW118797   1.537   6.037   4.324
 5966SOL    HW218798   1.510   6.193   4.363
 5967SOL     OW18799   4.736   5.473   1.052
 5967SOL    HW118800   4.690   5.414   0.986
 5967SOL    HW218801   4.815   5.426   1.090
 5968SOL     OW18802   1.637   2.197   4.073
 5968SOL    HW118803   1.563   2.264   4.065
 5968SOL    HW218804   1.600   2.109   4.103
 5969SOL     OW18805   0.944   2.265   2.827
 5969SOL    HW118806   0.958   2.196   2.897
 5969SOL    HW218807   0.894   2.225   2.750
 5970SOL     OW18808   2.147   4.254   3.183
 5970SOL    HW118809   2.084   4.323   3.217
 5970SOL    HW218810   2.103   4.164   3.185
 5971SOL     OW18811   3.090   5.689   3.820
 5971SOL    HW118812   3.125   5.651   3.906
 5971SOL    HW218813   3.161   5.746   3.778
 5972SOL     OW18814   5.952   0.124   1.910
 5972SOL    HW118815   5.903   0.164   1.832
 5972SOL    HW218816   6.022   0.060   1.876
 5973SOL     OW18817   2.256   4.672   3.471
 5973SOL    HW118818   2.223   4.715   3.388
 5973SOL    HW218819   2.283   4.742   3.537
 5974SOL     OW18820   1.147   4.318   6.443
 5974SOL    HW118821   1.121   4.231   6.401
 5974SOL    HW218822   1.234   4.349   6.404
 5975SOL     OW18823   2.089   2.301   6.541
 5975SOL    HW118824   2.141   2.309   6.456
 5975SOL    HW218825   2.090   2.389   6.589
 5976SOL     OW18826   3.440   3.555   4.390
 5976SOL    HW118827   3.376   3.552   4.467
 5976SOL    HW218828   3.429   3.642   4.341
 5977SOL     OW18829   0.325   3.874   2.591
 5977SOL    HW118830   0.371   3.792   2.558
 5977SOL    HW218831   0.381   3.917   2.662
 5978SOL     OW18832   5.073   5.316   1.437
 5978SOL    HW118833   5.142   5.388   1.429
 5978SOL    HW218834   5.105   5.234   1.389
 5979SOL     OW18835   0.695   1.427   1.538
 5979SOL    HW118836   0.755   1.495   1.580
 5979SOL    HW218837   0.606   1.430   1.583
 5980SOL     OW18838   6.118   2.641   5.213
 5980SOL    HW118839   6.192   2.707   5.215
 5980SOL    HW218840   6.087   2.622   5.306
 5981SOL     OW18841   3.408   2.039   0.622
 5981SOL    HW118842   3.325   2.073   0.579
 5981SOL    HW218843   3.437   2.103   0.694
 5982SOL     OW18844   6.222   2.901   6.941
 5982SOL    HW118845   6.211   2.864   6.849
 5982SOL    HW218846   6.256   2.995   6.935
 5983SOL     OW18847   0.687   0.541   4.296
 5983SOL    HW118848   0.729   0.450   4.296
 5983SOL    HW218849   0.596   0.536   4.335
 5984SOL     OW18850   0.690   0.177   5.993
 5984SOL    HW118851   0.738   0.199   5.908
 5984SOL    HW218852   0.756   0.152   6.063
 5985SOL     OW18853   5.724   3.185   4.011
 5985SOL    HW118854   5.738   3.224   3.920
 5985SOL    HW218855   5.719   3.086   4.004
 5986SOL     OW18856   3.360   3.513   2.187
 5986SOL    HW118857   3.336   3.456   2.108
 5986SOL    HW218858   3.323   3.605   2.175
 5987SOL     OW18859   3.795   0.069   5.234
 5987SOL    HW118860   3.849   0.122   5.168
 5987SOL    HW218861   3.727   0.014   5.185
 5988SOL     OW18862   3.695   6.636   6.002
 5988SOL    HW118863   3.757   6.689   5.944
 5988SOL    HW218864   3.661   6.694   6.076
 5989SOL     OW18865   2.995   1.799   6.786
 5989SOL    HW118866   3.017   1.766   6.694
 5989SOL    HW218867   3.077   1.799   6.842
 5990SOL     OW18868   3.034   6.174   3.609
 5990SOL    HW118869   3.070   6.169   3.702
 5990SOL    HW218870   3.102   6.138   3.545
 5991SOL     OW18871   3.636   4.899   3.321
 5991SOL    HW118872   3.587   4.903   3.234
 5991SOL    HW218873   3.571   4.899   3.396
 5992SOL     OW18874   3.957   1.670   4.291
 5992SOL    HW118875   4.013   1.630   4.364
 5992SOL    HW218876   4.011   1.740   4.243
 5993SOL     OW18877   2.940   5.172   4.331
 5993SOL    HW118878   3.006   5.228   4.282
 5993SOL    HW218879   2.988   5.114   4.397
 5994SOL     OW18880   6.536   1.983   0.176
 5994SOL    HW118881   6.562   2.025   0.263
 5994SOL    HW218882   6.528   2.053   0.106
 5995SOL     OW18883   0.390   3.707   1.548
 5995SOL    HW118884   0.372   3.679   1.453
 5995SOL    HW218885   0.478   3.755   1.552
 5996SOL     OW18886   1.375   5.955   6.212
 5996SOL    HW118887   1.373   6.017   6.134
 5996SOL    HW218888   1.345   5.864   6.184
 5997SOL     OW18889   0.799   0.422   1.480
 5997SOL    HW118890   0.870   0.362   1.517
 5997SOL    HW218891   0.737   0.449   1.554
 5998SOL     OW18892   5.113   3.053   3.181
 5998SOL    HW118893   5.073   3.125   3.125
 5998SOL    HW218894   5.058   3.040   3.264
 5999SOL     OW18895   2.049   2.889   3.081
 5999SOL    HW118896   1.995   2.805   3.082
 5999SOL    HW218897   1.993   2.965   3.113
 6000SOL     OW18898   5.365   1.139   3.485
 6000SOL    HW118899   5.266   1.157   3.485
 6000SOL    HW218900   5.414   1.227   3.486
 6001SOL     OW18901   5.742   1.339   0.057
 6001SOL    HW118902   5.675   1.284   0.008
 6001SOL    HW218903   5.769   1.292   0.141
 6002SOL     OW18904   2.401   0.257   2.432
 6002SOL    HW118905   2.359   0.238   2.343
 6002SOL    HW218906   2.425   0.354   2.437
 6003SOL     OW18907   5.013   4.463   4.063
 6003SOL    HW118908   4.950   4.508   4.127
 6003SOL    HW218909   4.960   4.403   4.003
 6004SOL     OW18910   0.496   3.739   2.032
 6004SOL    HW118911   0.549   3.704   2.110
 6004SOL    HW218912   0.411   3.687   2.024
 6005SOL     OW18913   2.472   6.317   2.321
 6005SOL    HW118914   2.392   6.259   2.337
 6005SOL    HW218915   2.531   6.275   2.253
 6006SOL     OW18916   2.014   6.278   6.785
 6006SOL    HW118917   2.114   6.278   6.795
 6006SOL    HW218918   1.972   6.248   6.871
 6007SOL     OW18919   5.661   3.712   4.774
 6007SOL    HW118920   5.569   3.674   4.762
 6007SOL    HW218921   5.654   3.807   4.802
 6008SOL     OW18922   4.856   3.940   1.991
 6008SOL    HW118923   4.820   4.000   2.062
 6008SOL    HW218924   4.786   3.925   1.921
 6009SOL     OW18925   3.830   1.351   4.679
 6009SOL    HW118926   3.742   1.318   4.644
 6009SOL    HW218927   3.830   1.451   4.679
 6010SOL     OW18928   1.897   4.980   3.668
 6010SOL    HW118929   1.960   4.920   3.718
 6010SOL    HW218930   1.949   5.048   3.617
 6011SOL     OW18931   6.276   2.220   1.832
 6011SOL    HW118932   6.368   2.192   1.803
 6011SOL    HW218933   6.276   2.235   1.931
 6012SOL     OW18934   0.966   2.453   1.342
 6012SOL    HW118935   1.044   2.416   1.290
 6012SOL    HW218936   0.935   2.384   1.407
 6013SOL     OW18937   5.412   0.572   2.563
 6013SOL    HW118938   5.392   0.540   2.470
 6013SOL    HW218939   5.345   0.641   2.589
 6014SOL     OW18940   6.209   1.270   0.568
 6014SOL    HW118941   6.189   1.172   0.577
 6014SOL    HW218942   6.186   1.300   0.475
 6015SOL     OW18943   6.254   0.156   4.739
 6015SOL    HW118944   6.345   0.197   4.726
 6015SOL    HW218945   6.190   0.227   4.770
 6016SOL     OW18946   1.339   0.166   5.473
 6016SOL    HW118947   1.425   0.177   5.522
 6016SOL    HW218948   1.332   0.235   5.401
 6017SOL     OW18949   0.299   3.757   2.313
 6017SOL    HW118950   0.218   3.698   2.307
 6017SOL    HW218951   0.275   3.850   2.284
 6018SOL     OW18952   3.623   5.112   1.461
 6018SOL    HW118953   3.688   5.186   1.480
 6018SOL    HW218954   3.612   5.102   1.362
 6019SOL     OW18955   6.656   0.065   3.701
 6019SOL    HW118956   6.607   6.998   3.696
 6019SOL    HW218957   6.754   0.048   3.688
 6020SOL     OW18958   2.311   6.184   2.555
 6020SOL    HW118959   2.390   6.229   2.595
 6020SOL    HW218960   2.341   6.108   2.497
 6021SOL     OW18961   3.150   0.214   3.228
 6021SOL    HW118962   3.126   0.171   3.315
 6021SOL    HW218963   3.140   0.147   3.154
 6022SOL     OW18964   3.601   1.888   5.807
 6022SOL    HW118965   3.592   1.797   5.846
 6022SOL    HW218966   3.558   1.955   5.868
 6023SOL     OW18967   0.181   2.065   1.832
 6023SOL    HW118968   0.089   2.033   1.812
 6023SOL    HW218969   0.186   2.164   1.821
 6024SOL     OW18970   6.210   5.358   2.599
 6024SOL    HW118971   6.253   5.287   2.656
 6024SOL    HW218972   6.175   5.316   2.515
 6025SOL     OW18973   4.268   1.953   2.705
 6025SOL    HW118974   4.313   2.002   2.631
 6025SOL    HW218975   4.198   2.011   2.746
 6026SOL     OW18976   0.942   4.312   5.715
 6026SOL    HW118977   0.873   4.268   5.773
 6026SOL    HW218978   0.962   4.403   5.751
 6027SOL     OW18979   4.278   4.394   0.354
 6027SOL    HW118980   4.358   4.447   0.327
 6027SOL    HW218981   4.308   4.303   0.385
 6028SOL     OW18982   0.659   4.128   6.202
 6028SOL    HW118983   0.587   4.061   6.187
 6028SOL    HW218984   0.735   4.085   6.251
 6029SOL     OW18985   1.305   5.185   1.842
 6029SOL    HW118986   1.350   5.103   1.807
 6029SOL    HW218987   1.265   5.236   1.766
 6030SOL     OW18988   1.796   6.450   1.765
 6030SOL    HW118989   1.893   6.471   1.754
 6030SOL    HW218990   1.785   6.352   1.782
 6031SOL     OW18991   4.554   0.727   4.404
 6031SOL    HW118992   4.634   0.709   4.461
 6031SOL    HW218993   4.501   0.642   4.393
 6032SOL     OW18994   1.413   2.422   2.008
 6032SOL    HW118995   1.451   2.512   1.987
 6032SOL    HW218996   1.448   2.355   1.942
 6033SOL     OW18997   0.192   6.833   4.586
 6033SOL    HW118998   0.242   6.753   4.553
 6033SOL    HW218999   0.096   6.809   4.597
 6034SOL     OW19000   2.472   4.524   4.518
 6034SOL    HW119001   2.533   4.599   4.540
 6034SOL    HW219002   2.442   4.480   4.603
 6035SOL     OW19003   4.664   0.350   4.096
 6035SOL    HW119004   4.715   0.264   4.109
 6035SOL    HW219005   4.590   0.334   4.031
 6036SOL     OW19006   5.566   0.662   5.217
 6036SOL    HW119007   5.665   0.669   5.229
 6036SOL    HW219008   5.520   0.673   5.305
 6037SOL     OW19009   0.442   5.838   4.790
 6037SOL    HW119010   0.400   5.840   4.700
 6037SOL    HW219011   0.525   5.782   4.786
 6038SOL     OW19012   0.525   3.885   6.586
 6038SOL    HW119013   0.506   3.979   6.558
 6038SOL    HW219014   0.585   3.841   6.518
 6039SOL     OW19015   3.293   3.464   3.867
 6039SOL    HW119016   3.385   3.427   3.881
 6039SOL    HW219017   3.225   3.397   3.897
 6040SOL     OW19018   1.437   0.911   0.445
 6040SOL    HW119019   1.507   0.842   0.459
 6040SOL    HW219020   1.479   0.996   0.415
 6041SOL     OW19021   0.663   3.185   0.090
 6041SOL    HW119022   0.658   3.186   7.010
 6041SOL    HW219023   0.585   3.133   0.127
 6042SOL     OW19024   5.250   5.679   4.820
 6042SOL    HW119025   5.154   5.685   4.848
 6042SOL    HW219026   5.255   5.650   4.725
 6043SOL     OW19027   0.090   4.744   3.614
 6043SOL    HW119028   0.042   4.774   3.696
 6043SOL    HW219029   0.189   4.745   3.630
 6044SOL     OW19030   1.633   0.687   0.473
 6044SOL    HW119031   1.691   0.620   0.427
 6044SOL    HW219032   1.552   0.641   0.509
 6045SOL     OW19033   6.318   3.827   6.564
 6045SOL    HW119034   6.293   3.871   6.651
 6045SOL    HW219035   6.268   3.871   6.489
 6046SOL     OW19036   1.115   3.500   6.876
 6046SOL    HW119037   1.190   3.564   6.855
 6046SOL    HW219038   1.153   3.414   6.909
 6047SOL     OW19039   1.421   6.019   5.163
 6047SOL    HW119040   1.391   6.055   5.252
 6047SOL    HW219041   1.362   6.055   5.091
 6048SOL     OW19042   4.786   6.070   3.828
 6048SOL    HW119043   4.707   6.050   3.769
 6048SOL    HW219044   4.843   6.140   3.785
 6049SOL     OW19045   6.741   5.608   0.030
 6049SOL    HW119046   6.823   5.552   0.017
 6049SOL    HW219047   6.671   5.580   6.984
 6050SOL     OW19048   5.919   4.174   5.217
 6050SOL    HW119049   5.898   4.077   5.208
 6050SOL    HW219050   5.904   4.220   5.129
 6051SOL     OW19051   3.056   1.919   3.628
 6051SOL    HW119052   3.105   1.929   3.542
 6051SOL    HW219053   3.080   1.832   3.671
 6052SOL     OW19054   0.530   1.815   6.868
 6052SOL    HW119055   0.494   1.816   6.774
 6052SOL    HW219056   0.626   1.787   6.867
 6053SOL     OW19057   0.974   0.411   6.381
 6053SOL    HW119058   0.878   0.420   6.356
 6053SOL    HW219059   0.981   0.372   6.473
 6054SOL     OW19060   0.514   4.303   6.047
 6054SOL    HW119061   0.525   4.276   5.952
 6054SOL    HW219062   0.580   4.254   6.104
 6055SOL     OW19063   5.608   6.850   2.924
 6055SOL    HW119064   5.611   6.900   2.838
 6055SOL    HW219065   5.599   6.752   2.906
 6056SOL     OW19066   5.175   3.015   6.038
 6056SOL    HW119067   5.210   3.104   6.067
 6056SOL    HW219068   5.075   3.018   6.032
 6057SOL     OW19069   4.506   0.948   6.848
 6057SOL    HW119070   4.538   1.004   6.771
 6057SOL    HW219071   4.543   0.985   6.933
 6058SOL     OW19072   5.340   2.215   5.642
 6058SOL    HW119073   5.419   2.188   5.587
 6058SOL    HW219074   5.371   2.271   5.719
 6059SOL     OW19075   0.177   6.367   6.725
 6059SOL    HW119076   0.096   6.397   6.674
 6059SOL    HW219077   0.259   6.390   6.673
 6060SOL     OW19078   3.177   5.256   6.513
 6060SOL    HW119079   3.125   5.327   6.560
 6060SOL    HW219080   3.254   5.297   6.464
 6061SOL     OW19081   2.221   1.250   0.173
 6061SOL    HW119082   2.251   1.327   0.116
 6061SOL    HW219083   2.221   1.167   0.119
 6062SOL     OW19084   1.229   0.445   3.425
 6062SOL    HW119085   1.230   0.531   3.373
 6062SOL    HW219086   1.269   0.372   3.369
 6063SOL     OW19087   6.068   5.816   6.881
 6063SOL    HW119088   6.161   5.797   6.912
 6063SOL    HW219089   6.047   5.759   6.801
 6064SOL     OW19090   1.057   5.410   2.425
 6064SOL    HW119091   1.107   5.497   2.423
 6064SOL    HW219092   1.004   5.404   2.509
 6065SOL     OW19093   5.376   0.269   1.194
 6065SOL    HW119094   5.306   0.199   1.181
 6065SOL    HW219095   5.448   0.257   1.126
 6066SOL     OW19096   4.464   2.428   5.568
 6066SOL    HW119097   4.414   2.342   5.579
 6066SOL    HW219098   4.402   2.504   5.584
 6067SOL     OW19099   4.791   1.777   6.927
 6067SOL    HW119100   4.771   1.761   0.004
 6067SOL    HW219101   4.845   1.701   6.891
 6068SOL     OW19102   5.012   0.805   5.403
 6068SOL    HW119103   4.960   0.749   5.468
 6068SOL    HW219104   5.089   0.752   5.368
 6069SOL     OW19105   6.784   5.707   3.743
 6069SOL    HW119106   6.881   5.681   3.745
 6069SOL    HW219107   6.776   5.804   3.718
 6070SOL     OW19108   5.062   3.393   1.112
 6070SOL    HW119109   5.038   3.460   1.042
 6070SOL    HW219110   5.043   3.301   1.077
 6071SOL     OW19111   4.756   0.390   5.051
 6071SOL    HW119112   4.712   0.478   5.072
 6071SOL    HW219113   4.723   0.321   5.115
 6072SOL     OW19114   6.071   1.229   1.584
 6072SOL    HW119115   6.052   1.274   1.671
 6072SOL    HW219116   6.110   1.139   1.600
 6073SOL     OW19117   5.880   1.042   0.950
 6073SOL    HW119118   5.974   1.008   0.959
 6073SOL    HW219119   5.870   1.091   0.863
 6074SOL     OW19120   0.481   0.572   5.878
 6074SOL    HW119121   0.542   0.647   5.904
 6074SOL    HW219122   0.432   0.595   5.794
 6075SOL     OW19123   5.398   3.561   5.668
 6075SOL    HW119124   5.394   3.473   5.620
 6075SOL    HW219125   5.313   3.611   5.653
 6076SOL     OW19126   2.683   0.359   3.845
 6076SOL    HW119127   2.721   0.289   3.905
 6076SOL    HW219128   2.589   0.334   3.819
 6077SOL     OW19129   4.924   4.848   3.413
 6077SOL    HW119130   4.988   4.771   3.402
 6077SOL    HW219131   4.859   4.827   3.485
 6078SOL     OW19132   1.868   4.622   4.612
 6078SOL    HW119133   1.962   4.621   4.646
 6078SOL    HW219134   1.840   4.717   4.598
 6079SOL     OW19135   3.018   1.979   0.522
 6079SOL    HW119136   3.031   1.880   0.535
 6079SOL    HW219137   3.078   2.011   0.450
 6080SOL     OW19138   5.986   3.505   3.454
 6080SOL    HW119139   6.025   3.563   3.526
 6080SOL    HW219140   6.034   3.522   3.368
 6081SOL     OW19141   0.935   4.478   1.955
 6081SOL    HW119142   0.988   4.414   2.011
 6081SOL    HW219143   0.982   4.492   1.868
 6082SOL     OW19144   4.906   1.998   5.002
 6082SOL    HW119145   4.809   1.975   5.000
 6082SOL    HW219146   4.951   1.960   4.921
 6083SOL     OW19147   2.038   6.845   6.587
 6083SOL    HW119148   1.953   6.811   6.628
 6083SOL    HW219149   2.111   6.842   6.656
 6084SOL     OW19150   0.150   5.775   6.256
 6084SOL    HW119151   0.140   5.859   6.202
 6084SOL    HW219152   0.238   5.777   6.303
 6085SOL     OW19153   5.486   5.178   1.752
 6085SOL    HW119154   5.537   5.213   1.674
 6085SOL    HW219155   5.537   5.102   1.793
 6086SOL     OW19156   3.275   2.135   2.218
 6086SOL    HW119157   3.241   2.175   2.133
 6086SOL    HW219158   3.361   2.088   2.201
 6087SOL     OW19159   3.861   0.951   0.748
 6087SOL    HW119160   3.833   0.855   0.747
 6087SOL    HW219161   3.832   0.994   0.834
 6088SOL     OW19162   0.557   0.948   5.001
 6088SOL    HW119163   0.482   0.906   5.053
 6088SOL    HW219164   0.520   1.021   4.943
 6089SOL     OW19165   6.735   3.796   1.261
 6089SOL    HW119166   6.774   3.733   1.194
 6089SOL    HW219167   6.673   3.746   1.322
 6090SOL     OW19168   6.897   6.175   4.063
 6090SOL    HW119169   6.969   6.131   4.117
 6090SOL    HW219170   6.821   6.112   4.051
 6091SOL     OW19171   6.841   1.841   1.837
 6091SOL    HW119172   6.895   1.759   1.817
 6091SOL    HW219173   6.764   1.816   1.896
 6092SOL     OW19174   0.793   3.337   0.972
 6092SOL    HW119175   0.763   3.391   0.893
 6092SOL    HW219176   0.717   3.328   1.037
 6093SOL     OW19177   0.548   4.575   0.534
 6093SOL    HW119178   0.497   4.646   0.486
 6093SOL    HW219179   0.555   4.598   0.631
 6094SOL     OW19180   0.499   1.397   0.881
 6094SOL    HW119181   0.545   1.485   0.887
 6094SOL    HW219182   0.528   1.339   0.957
 6095SOL     OW19183   0.278   3.853   5.144
 6095SOL    HW119184   0.263   3.914   5.066
 6095SOL    HW219185   0.278   3.907   5.228
 6096SOL     OW19186   5.636   1.891   2.632
 6096SOL    HW119187   5.594   1.951   2.563
 6096SOL    HW219188   5.722   1.854   2.595
 6097SOL     OW19189   3.767   1.584   2.474
 6097SOL    HW119190   3.785   1.675   2.435
 6097SOL    HW219191   3.770   1.590   2.574
 6098SOL     OW19192   0.313   0.631   6.828
 6098SOL    HW119193   0.267   0.718   6.814
 6098SOL    HW219194   0.307   0.605   6.924
 6099SOL     OW19195   6.085   3.923   4.622
 6099SOL    HW119196   6.031   3.949   4.542
 6099SOL    HW219197   6.180   3.910   4.595
 6100SOL     OW19198   6.942   2.905   1.311
 6100SOL    HW119199   0.013   2.871   1.339
 6100SOL    HW219200   6.942   3.005   1.312
 6101SOL     OW19201   6.294   6.410   3.764
 6101SOL    HW119202   6.338   6.496   3.791
 6101SOL    HW219203   6.231   6.380   3.835
 6102SOL     OW19204   3.469   6.314   4.893
 6102SOL    HW119205   3.519   6.398   4.873
 6102SOL    HW219206   3.518   6.264   4.965
 6103SOL     OW19207   5.511   1.671   5.227
 6103SOL    HW119208   5.583   1.652   5.160
 6103SOL    HW219209   5.526   1.761   5.268
 6104SOL     OW19210   2.194   3.094   1.487
 6104SOL    HW119211   2.277   3.039   1.481
 6104SOL    HW219212   2.197   3.151   1.570
 6105SOL     OW19213   3.319   4.911   4.456
 6105SOL    HW119214   3.230   4.868   4.443
 6105SOL    HW219215   3.317   4.969   4.538
 6106SOL     OW19216   2.204   5.043   4.281
 6106SOL    HW119217   2.141   5.021   4.207
 6106SOL    HW219218   2.254   4.961   4.307
 6107SOL     OW19219   2.200   4.953   6.247
 6107SOL    HW119220   2.115   5.003   6.228
 6107SOL    HW219221   2.266   4.969   6.174
 6108SOL     OW19222   5.509   1.965   5.143
 6108SOL    HW119223   5.415   1.974   5.110
 6108SOL    HW219224   5.572   1.993   5.071
 6109SOL     OW19225   0.176   4.574   1.748
 6109SOL    HW119226   0.176   4.589   1.649
 6109SOL    HW219227   0.229   4.492   1.769
 6110SOL     OW19228   3.506   1.870   3.924
 6110SOL    HW119229   3.495   1.918   4.011
 6110SOL    HW219230   3.488   1.933   3.849
 6111SOL     OW19231   0.664   4.471   3.541
 6111SOL    HW119232   0.650   4.376   3.568
 6111SOL    HW219233   0.615   4.531   3.604
 6112SOL     OW19234   1.297   0.851   1.102
 6112SOL    HW119235   1.292   0.922   1.032
 6112SOL    HW219236   1.354   0.882   1.178
 6113SOL     OW19237   1.431   4.579   5.769
 6113SOL    HW119238   1.493   4.637   5.717
 6113SOL    HW219239   1.409   4.497   5.716
 6114SOL     OW19240   3.472   4.326   0.955
 6114SOL    HW119241   3.506   4.312   1.048
 6114SOL    HW219242   3.423   4.413   0.950
 6115SOL     OW19243   0.194   4.388   2.430
 6115SOL    HW119244   0.218   4.478   2.395
 6115SOL    HW219245   0.095   4.374   2.422
 6116SOL     OW19246   4.184   2.558   0.956
 6116SOL    HW119247   4.094   2.554   1.001
 6116SOL    HW219248   4.203   2.652   0.928
 6117SOL     OW19249   5.467   5.839   4.092
 6117SOL    HW119250   5.403   5.900   4.045
 6117SOL    HW219251   5.526   5.893   4.152
 6118SOL     OW19252   6.308   0.216   3.919
 6118SOL    HW119253   6.314   0.125   3.876
 6118SOL    HW219254   6.392   0.267   3.901
 6119SOL     OW19255   5.557   5.295   4.841
 6119SOL    HW119256   5.508   5.225   4.789
 6119SOL    HW219257   5.503   5.320   4.921
 6120SOL     OW19258   2.300   1.994   2.775
 6120SOL    HW119259   2.237   2.057   2.820
 6120SOL    HW219260   2.367   2.046   2.722
 6121SOL     OW19261   6.707   2.031   3.078
 6121SOL    HW119262   6.790   2.086   3.075
 6121SOL    HW219263   6.728   1.938   3.048
 6122SOL     OW19264   3.901   5.317   4.208
 6122SOL    HW119265   3.906   5.220   4.185
 6122SOL    HW219266   3.956   5.335   4.290
 6123SOL     OW19267   6.164   1.895   2.744
 6123SOL    HW119268   6.158   1.994   2.737
 6123SOL    HW219269   6.090   1.861   2.803
 6124SOL     OW19270   2.767   0.478   5.374
 6124SOL    HW119271   2.685   0.509   5.324
 6124SOL    HW219272   2.799   0.392   5.334
 6125SOL     OW19273   1.166   4.144   2.694
 6125SOL    HW119274   1.101   4.067   2.693
 6125SOL    HW219275   1.182   4.172   2.789
 6126SOL     OW19276   3.574   6.679   3.511
 6126SOL    HW119277   3.483   6.670   3.470
 6126SOL    HW219278   3.629   6.742   3.457
 6127SOL     OW19279   1.885   5.764   1.203
 6127SOL    HW119280   1.895   5.847   1.257
 6127SOL    HW219281   1.842   5.693   1.258
 6128SOL     OW19282   5.592   4.253   1.788
 6128SOL    HW119283   5.567   4.194   1.864
 6128SOL    HW219284   5.524   4.244   1.715
 6129SOL     OW19285   6.746   3.609   3.536
 6129SOL    HW119286   6.764   3.705   3.515
 6129SOL    HW219287   6.786   3.552   3.464
 6130SOL     OW19288   5.474   3.282   2.750
 6130SOL    HW119289   5.448   3.224   2.827
 6130SOL    HW219290   5.509   3.370   2.784
 6131SOL     OW19291   0.357   1.325   5.344
 6131SOL    HW119292   0.349   1.242   5.398
 6131SOL    HW219293   0.379   1.301   5.249
 6132SOL     OW19294   7.009   2.479   0.467
 6132SOL    HW119295   0.058   2.444   0.404
 6132SOL    HW219296   0.000   2.434   0.556
 6133SOL     OW19297   1.508   4.886   0.508
 6133SOL    HW119298   1.553   4.812   0.557
 6133SOL    HW219299   1.561   4.909   0.426
 6134SOL     OW19300   4.840   3.873   6.265
 6134SOL    HW119301   4.792   3.857   6.351
 6134SOL    HW219302   4.845   3.788   6.213
 6135SOL     OW19303   5.961   6.844   2.220
 6135SOL    HW119304   5.977   6.942   2.209
 6135SOL    HW219305   5.865   6.828   2.242
 6136SOL     OW19306   1.252   2.129   2.577
 6136SOL    HW119307   1.236   2.228   2.582
 6136SOL    HW219308   1.339   2.107   2.621
 6137SOL     OW19309   3.526   0.109   6.220
 6137SOL    HW119310   3.431   0.136   6.235
 6137SOL    HW219311   3.572   0.100   6.308
 6138SOL     OW19312   4.554   0.837   3.026
 6138SOL    HW119313   4.586   0.883   3.109
 6138SOL    HW219314   4.464   0.872   3.001
 6139SOL     OW19315   2.382   6.212   3.749
 6139SOL    HW119316   2.287   6.189   3.771
 6139SOL    HW219317   2.387   6.240   3.653
 6140SOL     OW19318   2.216   6.068   1.264
 6140SOL    HW119319   2.143   6.002   1.284
 6140SOL    HW219320   2.188   6.159   1.293
 6141SOL     OW19321   0.739   6.207   4.892
 6141SOL    HW119322   0.786   6.180   4.976
 6141SOL    HW219323   0.768   6.299   4.865
 6142SOL     OW19324   6.915   3.196   4.273
 6142SOL    HW119325   6.905   3.097   4.269
 6142SOL    HW219326   6.865   3.231   4.353
 6143SOL     OW19327   6.394   5.744   6.440
 6143SOL    HW119328   6.371   5.657   6.397
 6143SOL    HW219329   6.422   5.810   6.370
 6144SOL     OW19330   0.316   5.855   4.558
 6144SOL    HW119331   0.369   5.916   4.500
 6144SOL    HW219332   0.233   5.901   4.588
 6145SOL     OW19333   6.002   5.192   3.917
 6145SOL    HW119334   5.924   5.130   3.913
 6145SOL    HW219335   5.969   5.287   3.912
 6146SOL     OW19336   5.937   1.930   3.582
 6146SOL    HW119337   5.927   2.011   3.524
 6146SOL    HW219338   5.966   1.852   3.527
 6147SOL     OW19339   1.098   3.715   3.741
 6147SOL    HW119340   1.175   3.754   3.691
 6147SOL    HW219341   1.016   3.770   3.723
 6148SOL     OW19342   6.090   6.620   3.355
 6148SOL    HW119343   5.997   6.654   3.339
 6148SOL    HW219344   6.144   6.691   3.400
 6149SOL     OW19345   1.413   6.006   4.616
 6149SOL    HW119346   1.430   5.948   4.536
 6149SOL    HW219347   1.371   5.950   4.688
 6150SOL     OW19348   4.656   6.712   6.195
 6150SOL    HW119349   4.706   6.775   6.254
 6150SOL    HW219350   4.586   6.761   6.144
 6151SOL     OW19351   3.844   0.216   4.569
 6151SOL    HW119352   3.845   0.159   4.650
 6151SOL    HW219353   3.797   0.302   4.589
 6152SOL     OW19354   6.386   4.072   6.086
 6152SOL    HW119355   6.459   4.059   6.153
 6152SOL    HW219356   6.417   4.042   5.996
 6153SOL     OW19357   3.708   5.555   5.659
 6153SOL    HW119358   3.633   5.490   5.647
 6153SOL    HW219359   3.672   5.638   5.702
 6154SOL     OW19360   5.165   2.877   3.462
 6154SOL    HW119361   5.089   2.936   3.435
 6154SOL    HW219362   5.229   2.869   3.386
 6155SOL     OW19363   2.829   4.777   4.788
 6155SOL    HW119364   2.863   4.702   4.845
 6155SOL    HW219365   2.856   4.865   4.828
 6156SOL     OW19366   5.823   0.610   4.546
 6156SOL    HW119367   5.838   0.533   4.485
 6156SOL    HW219368   5.782   0.578   4.632
 6157SOL     OW19369   1.544   0.869   4.580
 6157SOL    HW119370   1.620   0.900   4.523
 6157SOL    HW219371   1.458   0.900   4.540
 6158SOL     OW19372   5.000   6.429   6.815
 6158SOL    HW119373   5.033   6.523   6.826
 6158SOL    HW219374   5.057   6.367   6.869
 6159SOL     OW19375   5.081   3.876   6.170
 6159SOL    HW119376   5.083   3.857   6.072
 6159SOL    HW219377   4.988   3.899   6.198
 6160SOL     OW19378   6.466   5.317   0.234
 6160SOL    HW119379   6.476   5.243   0.300
 6160SOL    HW219380   6.410   5.390   0.274
 6161SOL     OW19381   5.736   0.138   6.189
 6161SOL    HW119382   5.662   0.164   6.250
 6161SOL    HW219383   5.700   0.077   6.118
 6162SOL     OW19384   5.911   5.668   3.589
 6162SOL    HW119385   5.950   5.578   3.573
 6162SOL    HW219386   5.957   5.736   3.531
 6163SOL     OW19387   6.897   4.058   3.196
 6163SOL    HW119388   6.871   4.138   3.249
 6163SOL    HW219389   6.864   3.975   3.241
 6164SOL     OW19390   4.733   3.259   1.305
 6164SOL    HW119391   4.722   3.263   1.206
 6164SOL    HW219392   4.648   3.289   1.349
 6165SOL     OW19393   3.866   6.759   0.807
 6165SOL    HW119394   3.849   6.848   0.850
 6165SOL    HW219395   3.964   6.748   0.793
 6166SOL     OW19396   3.180   0.877   0.483
 6166SOL    HW119397   3.213   0.798   0.534
 6166SOL    HW219398   3.106   0.921   0.533
 6167SOL     OW19399   0.215   5.092   3.630
 6167SOL    HW119400   0.156   5.040   3.569
 6167SOL    HW219401   0.159   5.145   3.694
 6168SOL     OW19402   0.096   2.678   1.823
 6168SOL    HW119403   0.141   2.592   1.797
 6168SOL    HW219404   0.145   2.719   1.900
 6169SOL     OW19405   1.151   4.154   1.113
 6169SOL    HW119406   1.107   4.064   1.110
 6169SOL    HW219407   1.222   4.159   1.043
 6170SOL     OW19408   6.259   2.290   3.444
 6170SOL    HW119409   6.272   2.210   3.503
 6170SOL    HW219410   6.190   2.350   3.485
 6171SOL     OW19411   5.404   2.327   6.217
 6171SOL    HW119412   5.444   2.237   6.232
 6171SOL    HW219413   5.453   2.375   6.144
 6172SOL     OW19414   0.251   4.765   3.834
 6172SOL    HW119415   0.341   4.732   3.808
 6172SOL    HW219416   0.192   4.687   3.857
 6173SOL     OW19417   5.288   6.503   2.881
 6173SOL    HW119418   5.298   6.404   2.877
 6173SOL    HW219419   5.379   6.546   2.883
 6174SOL     OW19420   0.291   2.311   3.331
 6174SOL    HW119421   0.306   2.288   3.235
 6174SOL    HW219422   0.194   2.299   3.353
 6175SOL     OW19423   4.325   2.689   6.260
 6175SOL    HW119424   4.254   2.676   6.191
 6175SOL    HW219425   4.415   2.680   6.217
 6176SOL     OW19426   2.956   5.055   5.726
 6176SOL    HW119427   3.036   5.102   5.687
 6176SOL    HW219428   2.950   5.075   5.824
 6177SOL     OW19429   5.818   5.487   1.850
 6177SOL    HW119430   5.884   5.436   1.794
 6177SOL    HW219431   5.865   5.528   1.928
 6178SOL     OW19432   4.294   4.636   1.817
 6178SOL    HW119433   4.288   4.702   1.743
 6178SOL    HW219434   4.262   4.547   1.785
 6179SOL     OW19435   4.895   5.220   4.631
 6179SOL    HW119436   4.982   5.270   4.630
 6179SOL    HW219437   4.871   5.198   4.726
 6180SOL     OW19438   1.889   3.624   6.821
 6180SOL    HW119439   1.825   3.601   6.894
 6180SOL    HW219440   1.967   3.675   6.859
 6181SOL     OW19441   0.055   6.466   0.102
 6181SOL    HW119442   0.081   6.387   0.159
 6181SOL    HW219443   0.093   6.549   0.142
 6182SOL     OW19444   2.757   2.664   6.069
 6182SOL    HW119445   2.740   2.756   6.034
 6182SOL    HW219446   2.849   2.635   6.043
 6183SOL     OW19447   0.450   0.667   0.607
 6183SOL    HW119448   0.530   0.610   0.626
 6183SOL    HW219449   0.469   0.762   0.634
 6184SOL     OW19450   3.455   6.253   5.359
 6184SOL    HW119451   3.367   6.293   5.335
 6184SOL    HW219452   3.502   6.310   5.426
 6185SOL     OW19453   3.059   3.108   3.687
 6185SOL    HW119454   3.151   3.103   3.651
 6185SOL    HW219455   3.041   3.028   3.744
 6186SOL     OW19456   1.040   1.517   2.110
 6186SOL    HW119457   0.962   1.473   2.065
 6186SOL    HW219458   1.007   1.574   2.185
 6187SOL     OW19459   3.626   2.380   5.629
 6187SOL    HW119460   3.691   2.451   5.602
 6187SOL    HW219461   3.662   2.330   5.708
 6188SOL     OW19462   1.174   1.227   6.114
 6188SOL    HW119463   1.256   1.192   6.070
 6188SOL    HW219464   1.178   1.208   6.212
 6189SOL     OW19465   6.871   5.652   0.788
 6189SOL    HW119466   6.952   5.601   0.761
 6189SOL    HW219467   6.789   5.603   0.757
 6190SOL     OW19468   0.861   3.075   4.000
 6190SOL    HW119469   0.817   3.150   3.950
 6190SOL    HW219470   0.817   3.064   4.088
 6191SOL     OW19471   3.252   4.624   0.247
 6191SOL    HW119472   3.314   4.581   0.312
 6191SOL    HW219473   3.213   4.707   0.287
 6192SOL     OW19474   2.594   1.920   1.362
 6192SOL    HW119475   2.517   1.899   1.422
 6192SOL    HW219476   2.600   1.851   1.290
 6193SOL     OW19477   4.477   5.302   6.940
 6193SOL    HW119478   4.441   5.252   6.862
 6193SOL    HW219479   4.488   5.240   7.018
 6194SOL     OW19480   5.918   6.733   5.980
 6194SOL    HW119481   5.902   6.766   6.073
 6194SOL    HW219482   5.898   6.806   5.914
 6195SOL     OW19483   4.847   5.161   5.491
 6195SOL    HW119484   4.762   5.213   5.498
 6195SOL    HW219485   4.922   5.223   5.465
 6196SOL     OW19486   6.898   3.548   3.310
 6196SOL    HW119487   6.889   3.451   3.288
 6196SOL    HW219488   6.991   3.566   3.344
 6197SOL     OW19489   0.816   5.637   0.457
 6197SOL    HW119490   0.896   5.614   0.513
 6197SOL    HW219491   0.806   5.737   0.454
 6198SOL     OW19492   6.617   1.927   5.844
 6198SOL    HW119493   6.590   2.023   5.838
 6198SOL    HW219494   6.599   1.893   5.937
 6199SOL     OW19495   2.314   0.183   6.113
 6199SOL    HW119496   2.255   0.107   6.087
 6199SOL    HW219497   2.388   0.148   6.171
 6200SOL     OW19498   1.900   7.001   6.376
 6200SOL    HW119499   1.967   0.054   6.360
 6200SOL    HW219500   1.929   6.946   6.454
 6201SOL     OW19501   0.712   4.657   3.880
 6201SOL    HW119502   0.670   4.736   3.925
 6201SOL    HW219503   0.802   4.684   3.845
 6202SOL     OW19504   5.369   0.956   1.352
 6202SOL    HW119505   5.424   0.876   1.326
 6202SOL    HW219506   5.396   1.034   1.295
 6203SOL     OW19507   0.242   1.260   2.335
 6203SOL    HW119508   0.237   1.346   2.384
 6203SOL    HW219509   0.301   1.271   2.255
 6204SOL     OW19510   1.124   6.071   4.719
 6204SOL    HW119511   1.026   6.079   4.698
 6204SOL    HW219512   1.168   6.015   4.649
 6205SOL     OW19513   0.069   4.350   3.644
 6205SOL    HW119514   0.030   4.440   3.621
 6205SOL    HW219515   0.158   4.340   3.599
 6206SOL     OW19516   5.037   2.097   3.562
 6206SOL    HW119517   5.023   2.029   3.634
 6206SOL    HW219518   4.950   2.113   3.515
 6207SOL     OW19519   1.924   5.675   3.430
 6207SOL    HW119520   1.903   5.769   3.401
 6207SOL    HW219521   1.951   5.675   3.526
 6208SOL     OW19522   3.824   4.337   5.903
 6208SOL    HW119523   3.805   4.399   5.980
 6208SOL    HW219524   3.758   4.262   5.903
 6209SOL     OW19525   3.145   1.143   2.592
 6209SOL    HW119526   3.222   1.190   2.549
 6209SOL    HW219527   3.112   1.071   2.531
 6210SOL     OW19528   5.120   0.137   4.219
 6210SOL    HW119529   5.213   0.126   4.255
 6210SOL    HW219530   5.120   0.208   4.149
 6211SOL     OW19531   5.509   2.951   5.270
 6211SOL    HW119532   5.523   2.904   5.357
 6211SOL    HW219533   5.547   3.043   5.276
 6212SOL     OW19534   4.776   4.062   4.457
 6212SOL    HW119535   4.790   3.965   4.440
 6212SOL    HW219536   4.749   4.076   4.553
 6213SOL     OW19537   5.355   5.876   0.735
 6213SOL    HW119538   5.332   5.782   0.761
 6213SOL    HW219539   5.296   5.940   0.784
 6214SOL     OW19540   6.701   6.260   6.183
 6214SOL    HW119541   6.622   6.226   6.233
 6214SOL    HW219542   6.739   6.339   6.230
 6215SOL     OW19543   5.685   2.538   5.167
 6215SOL    HW119544   5.748   2.552   5.243
 6215SOL    HW219545   5.591   2.546   5.199
 6216SOL     OW19546   5.361   2.822   6.087
 6216SOL    HW119547   5.400   2.798   5.998
 6216SOL    HW219548   5.298   2.898   6.077
 6217SOL     OW19549   0.394   4.224   2.358
 6217SOL    HW119550   0.377   4.195   2.264
 6217SOL    HW219551   0.317   4.279   2.391
 6218SOL     OW19552   5.399   6.805   1.650
 6218SOL    HW119553   5.462   6.880   1.669
 6218SOL    HW219554   5.311   6.824   1.694
 6219SOL     OW19555   2.604   0.821   0.443
 6219SOL    HW119556   2.664   0.900   0.434
 6219SOL    HW219557   2.649   0.740   0.406
 6220SOL     OW19558   2.888   0.397   2.677
 6220SOL    HW119559   2.918   0.478   2.627
 6220SOL    HW219560   2.809   0.421   2.735
 6221SOL     OW19561   4.558   4.941   5.021
 6221SOL    HW119562   4.475   4.887   5.006
 6221SOL    HW219563   4.538   5.014   5.086
 6222SOL     OW19564   0.496   1.014   2.135
 6222SOL    HW119565   0.487   1.113   2.147
 6222SOL    HW219566   0.592   0.988   2.144
 6223SOL     OW19567   6.425   5.320   3.749
 6223SOL    HW119568   6.478   5.405   3.753
 6223SOL    HW219569   6.470   5.257   3.686
 6224SOL     OW19570   4.074   0.020   6.831
 6224SOL    HW119571   4.002   6.998   6.775
 6224SOL    HW219572   4.033   0.056   6.915
 6225SOL     OW19573   5.693   5.309   6.443
 6225SOL    HW119574   5.658   5.290   6.351
 6225SOL    HW219575   5.779   5.259   6.457
 6226SOL     OW19576   1.311   1.201   4.107
 6226SOL    HW119577   1.362   1.266   4.050
 6226SOL    HW219578   1.324   1.108   4.072
 6227SOL     OW19579   2.420   4.133   6.163
 6227SOL    HW119580   2.474   4.213   6.188
 6227SOL    HW219581   2.327   4.143   6.201
 6228SOL     OW19582   0.585   2.824   4.072
 6228SOL    HW119583   0.520   2.758   4.109
 6228SOL    HW219584   0.547   2.866   3.990
 6229SOL     OW19585   0.287   4.586   4.611
 6229SOL    HW119586   0.327   4.554   4.525
 6229SOL    HW219587   0.295   4.515   4.681
 6230SOL     OW19588   0.944   0.570   0.968
 6230SOL    HW119589   0.916   0.495   0.908
 6230SOL    HW219590   0.944   0.539   1.063
 6231SOL     OW19591   1.744   5.329   5.531
 6231SOL    HW119592   1.722   5.351   5.436
 6231SOL    HW219593   1.799   5.245   5.534
 6232SOL     OW19594   4.005   1.116   6.368
 6232SOL    HW119595   4.018   1.025   6.406
 6232SOL    HW219596   4.089   1.145   6.322
 6233SOL     OW19597   6.873   4.398   1.081
 6233SOL    HW119598   6.914   4.316   1.121
 6233SOL    HW219599   6.863   4.468   1.151
 6234SOL     OW19600   4.857   5.191   2.844
 6234SOL    HW119601   4.827   5.163   2.752
 6234SOL    HW219602   4.852   5.291   2.851
 6235SOL     OW19603   0.915   0.873   1.527
 6235SOL    HW119604   0.882   0.811   1.456
 6235SOL    HW219605   0.900   0.832   1.617
 6236SOL     OW19606   6.009   5.891   1.451
 6236SOL    HW119607   6.082   5.937   1.401
 6236SOL    HW219608   5.985   5.807   1.403
 6237SOL     OW19609   4.481   1.189   2.981
 6237SOL    HW119610   4.437   1.254   3.043
 6237SOL    HW219611   4.548   1.135   3.031
 6238SOL     OW19612   2.043   6.794   3.738
 6238SOL    HW119613   2.011   6.776   3.831
 6238SOL    HW219614   2.135   6.833   3.740
 6239SOL     OW19615   3.868   1.367   4.310
 6239SOL    HW119616   3.871   1.463   4.282
 6239SOL    HW219617   3.948   1.346   4.367
 6240SOL     OW19618   4.006   3.152   4.409
 6240SOL    HW119619   4.016   3.167   4.507
 6240SOL    HW219620   4.065   3.215   4.359
 6241SOL     OW19621   4.004   0.030   3.318
 6241SOL    HW119622   3.994   6.968   3.376
 6241SOL    HW219623   4.102   0.050   3.306
 6242SOL     OW19624   3.415   2.104   4.747
 6242SOL    HW119625   3.461   2.106   4.659
 6242SOL    HW219626   3.317   2.120   4.734
 6243SOL     OW19627   3.094   0.764   0.071
 6243SOL    HW119628   3.175   0.789   0.124
 6243SOL    HW219629   3.020   0.739   0.133
 6244SOL     OW19630   5.079   2.528   1.616
 6244SOL    HW119631   5.069   2.430   1.598
 6244SOL    HW219632   5.066   2.579   1.531
 6245SOL     OW19633   6.956   4.883   1.525
 6245SOL    HW119634   6.897   4.834   1.589
 6245SOL    HW219635   6.990   4.819   1.456
 6246SOL     OW19636   1.030   5.744   5.387
 6246SOL    HW119637   0.964   5.808   5.427
 6246SOL    HW219638   1.072   5.785   5.306
 6247SOL     OW19639   5.837   5.474   2.560
 6247SOL    HW119640   5.817   5.377   2.548
 6247SOL    HW219641   5.907   5.485   2.631
 6248SOL     OW19642   4.523   2.626   6.091
 6248SOL    HW119643   4.575   2.705   6.058
 6248SOL    HW219644   4.581   2.544   6.087
 6249SOL     OW19645   5.321   2.242   2.901
 6249SOL    HW119646   5.241   2.209   2.951
 6249SOL    HW219647   5.364   2.315   2.954
 6250SOL     OW19648   4.937   6.972   5.189
 6250SOL    HW119649   4.908   6.945   5.097
 6250SOL    HW219650   5.018   0.011   5.183
 6251SOL     OW19651   2.931   0.933   3.728
 6251SOL    HW119652   2.965   0.935   3.822
 6251SOL    HW219653   2.948   1.021   3.684
 6252SOL     OW19654   2.361   4.586   0.484
 6252SOL    HW119655   2.450   4.578   0.528
 6252SOL    HW219656   2.360   4.665   0.423
 6253SOL     OW19657   4.750   6.090   3.497
 6253SOL    HW119658   4.723   6.184   3.480
 6253SOL    HW219659   4.825   6.065   3.435
 6254SOL     OW19660   6.890   6.800   1.488
 6254SOL    HW119661   6.819   6.816   1.556
 6254SOL    HW219662   6.899   6.701   1.473
 6255SOL     OW19663   2.600   0.759   1.123
 6255SOL    HW119664   2.603   0.718   1.214
 6255SOL    HW219665   2.687   0.743   1.076
 6256SOL     OW19666   0.017   4.578   2.187
 6256SOL    HW119667   6.984   4.505   2.232
 6256SOL    HW219668   0.097   4.600   2.243
 6257SOL     OW19669   4.095   4.198   0.496
 6257SOL    HW119670   4.073   4.246   0.581
 6257SOL    HW219671   4.040   4.236   0.421
 6258SOL     OW19672   4.232   4.989   3.484
 6258SOL    HW119673   4.247   4.901   3.439
 6258SOL    HW219674   4.285   5.060   3.437
 6259SOL     OW19675   5.108   0.377   4.814
 6259SOL    HW119676   5.055   0.434   4.876
 6259SOL    HW219677   5.112   0.284   4.849
 6260SOL     OW19678   3.629   2.612   6.767
 6260SOL    HW119679   3.573   2.538   6.732
 6260SOL    HW219680   3.707   2.627   6.707
 6261SOL     OW19681   4.817   6.484   1.477
 6261SOL    HW119682   4.744   6.427   1.516
 6261SOL    HW219683   4.897   6.427   1.457
 6262SOL     OW19684   6.382   1.538   3.704
 6262SOL    HW119685   6.344   1.566   3.792
 6262SOL    HW219686   6.426   1.616   3.659
 6263SOL     OW19687   6.068   6.482   5.955
 6263SOL    HW119688   6.046   6.448   5.864
 6263SOL    HW219689   5.998   6.547   5.985
 6264SOL     OW19690   1.111   6.463   1.406
 6264SOL    HW119691   1.102   6.528   1.331
 6264SOL    HW219692   1.034   6.398   1.403
 6265SOL     OW19693   3.945   6.234   6.679
 6265SOL    HW119694   4.003   6.200   6.752
 6265SOL    HW219695   3.866   6.174   6.667
 6266SOL     OW19696   2.679   5.003   3.294
 6266SOL    HW119697   2.707   5.081   3.238
 6266SOL    HW219698   2.741   4.995   3.373
 6267SOL     OW19699   0.731   6.427   4.245
 6267SOL    HW119700   0.796   6.448   4.173
 6267SOL    HW219701   0.779   6.390   4.324
 6268SOL     OW19702   3.236   1.971   1.150
 6268SOL    HW119703   3.221   1.907   1.075
 6268SOL    HW219704   3.319   2.024   1.133
 6269SOL     OW19705   0.064   6.089   0.336
 6269SOL    HW119706   0.161   6.116   0.331
 6269SOL    HW219707   0.050   6.027   0.413
 6270SOL     OW19708   1.171   6.086   0.718
 6270SOL    HW119709   1.233   6.053   0.646
 6270SOL    HW219710   1.151   6.012   0.782
 6271SOL     OW19711   6.676   3.726   6.093
 6271SOL    HW119712   6.751   3.688   6.039
 6271SOL    HW219713   6.714   3.773   6.173
 6272SOL     OW19714   6.829   0.761   1.204
 6272SOL    HW119715   6.851   0.720   1.292
 6272SOL    HW219716   6.731   0.750   1.185
 6273SOL     OW19717   0.368   6.640   2.702
 6273SOL    HW119718   0.309   6.712   2.667
 6273SOL    HW219719   0.460   6.676   2.720
 6274SOL     OW19720   3.388   5.880   4.012
 6274SOL    HW119721   3.428   5.794   4.044
 6274SOL    HW219722   3.313   5.861   3.949
 6275SOL     OW19723   3.244   5.693   1.521
 6275SOL    HW119724   3.274   5.606   1.482
 6275SOL    HW219725   3.160   5.678   1.575
 6276SOL     OW19726   1.529   4.499   2.553
 6276SOL    HW119727   1.606   4.446   2.515
 6276SOL    HW219728   1.538   4.594   2.526
 6277SOL     OW19729   5.481   2.276   1.117
 6277SOL    HW119730   5.554   2.341   1.094
 6277SOL    HW219731   5.503   2.187   1.077
 6278SOL     OW19732   3.885   3.128   0.084
 6278SOL    HW119733   3.940   3.167   0.010
 6278SOL    HW219734   3.792   3.163   0.079
 6279SOL     OW19735   0.797   6.205   1.904
 6279SOL    HW119736   0.800   6.105   1.905
 6279SOL    HW219737   0.825   6.238   1.813
 6280SOL     OW19738   5.026   0.873   6.914
 6280SOL    HW119739   4.945   0.889   6.972
 6280SOL    HW219740   5.105   0.855   6.972
 6281SOL     OW19741   5.694   3.864   6.322
 6281SOL    HW119742   5.690   3.907   6.412
 6281SOL    HW219743   5.790   3.852   6.295
 6282SOL     OW19744   0.121   4.525   5.835
 6282SOL    HW119745   0.067   4.473   5.769
 6282SOL    HW219746   0.152   4.464   5.908
 6283SOL     OW19747   2.683   6.621   4.274
 6283SOL    HW119748   2.664   6.640   4.177
 6283SOL    HW219749   2.748   6.688   4.309
 6284SOL     OW19750   1.955   4.127   6.397
 6284SOL    HW119751   2.022   4.101   6.328
 6284SOL    HW219752   1.882   4.180   6.354
 6285SOL     OW19753   1.477   4.264   3.980
 6285SOL    HW119754   1.411   4.334   3.951
 6285SOL    HW219755   1.541   4.246   3.905
 6286SOL     OW19756   1.197   3.274   0.007
 6286SOL    HW119757   1.248   3.206   0.058
 6286SOL    HW219758   1.101   3.271   0.034
 6287SOL     OW19759   4.079   5.297   5.025
 6287SOL    HW119760   4.088   5.393   5.000
 6287SOL    HW219761   4.167   5.252   5.016
 6288SOL     OW19762   3.232   4.039   6.136
 6288SOL    HW119763   3.222   3.974   6.060
 6288SOL    HW219764   3.146   4.047   6.185
 6289SOL     OW19765   2.746   5.265   5.659
 6289SOL    HW119766   2.807   5.321   5.603
 6289SOL    HW219767   2.796   5.186   5.694
 6290SOL     OW19768   6.320   0.617   3.184
 6290SOL    HW119769   6.403   0.587   3.137
 6290SOL    HW219770   6.304   0.714   3.165
 6291SOL     OW19771   3.081   3.177   2.052
 6291SOL    HW119772   3.044   3.121   1.977
 6291SOL    HW219773   3.087   3.122   2.135
 6292SOL     OW19774   0.775   4.129   5.019
 6292SOL    HW119775   0.847   4.197   5.029
 6292SOL    HW219776   0.759   4.084   5.106
 6293SOL     OW19777   2.600   1.421   0.362
 6293SOL    HW119778   2.527   1.479   0.326
 6293SOL    HW219779   2.588   1.328   0.330
 6294SOL     OW19780   1.366   6.997   2.370
 6294SOL    HW119781   1.389   0.062   2.321
 6294SOL    HW219782   1.393   7.007   2.466
 6295SOL     OW19783   4.651   2.616   5.694
 6295SOL    HW119784   4.568   2.669   5.710
 6295SOL    HW219785   4.628   2.524   5.664
 6296SOL     OW19786   6.977   1.907   0.302
 6296SOL    HW119787   0.010   1.868   0.377
 6296SOL    HW219788   6.959   1.837   0.233
 6297SOL     OW19789   0.315   1.154   4.576
 6297SOL    HW119790   0.224   1.154   4.536
 6297SOL    HW219791   0.383   1.147   4.503
 6298SOL     OW19792   6.924   0.809   6.633
 6298SOL    HW119793   6.836   0.808   6.680
 6298SOL    HW219794   6.941   0.900   6.594
 6299SOL     OW19795   3.039   1.690   3.838
 6299SOL    HW119796   3.093   1.609   3.857
 6299SOL    HW219797   3.007   1.731   3.923
 6300SOL     OW19798   2.872   2.510   0.831
 6300SOL    HW119799   2.915   2.463   0.754
 6300SOL    HW219800   2.933   2.508   0.910
 6301SOL     OW19801   3.984   6.298   0.947
 6301SOL    HW119802   3.917   6.299   0.873
 6301SOL    HW219803   4.052   6.227   0.929
 6302SOL     OW19804   1.537   3.901   0.667
 6302SOL    HW119805   1.558   3.968   0.738
 6302SOL    HW219806   1.620   3.852   0.640
 6303SOL     OW19807   6.447   4.556   4.940
 6303SOL    HW119808   6.496   4.470   4.951
 6303SOL    HW219809   6.356   4.539   4.903
 6304SOL     OW19810   1.752   2.574   4.843
 6304SOL    HW119811   1.682   2.558   4.774
 6304SOL    HW219812   1.790   2.666   4.832
 6305SOL     OW19813   1.067   5.902   5.070
 6305SOL    HW119814   1.063   5.832   4.999
 6305SOL    HW219815   1.140   5.967   5.049
 6306SOL     OW19816   1.050   4.133   3.865
 6306SOL    HW119817   0.973   4.092   3.915
 6306SOL    HW219818   1.136   4.101   3.904
 6307SOL     OW19819   3.508   3.335   2.829
 6307SOL    HW119820   3.585   3.331   2.766
 6307SOL    HW219821   3.423   3.348   2.778
 6308SOL     OW19822   1.112   0.697   1.302
 6308SOL    HW119823   1.114   0.771   1.235
 6308SOL    HW219824   1.201   0.688   1.345
 6309SOL     OW19825   1.678   5.932   5.177
 6309SOL    HW119826   1.733   5.953   5.258
 6309SOL    HW219827   1.594   5.986   5.179
 6310SOL     OW19828   0.840   6.596   2.696
 6310SOL    HW119829   0.899   6.535   2.643
 6310SOL    HW219830   0.890   6.629   2.777
 6311SOL     OW19831   5.654   1.223   5.921
 6311SOL    HW119832   5.681   1.203   5.827
 6311SOL    HW219833   5.687   1.150   5.981
 6312SOL     OW19834   4.024   4.976   1.550
 6312SOL    HW119835   4.008   5.073   1.535
 6312SOL    HW219836   4.107   4.948   1.502
 6313SOL     OW19837   5.304   4.848   3.242
 6313SOL    HW119838   5.268   4.802   3.162
 6313SOL    HW219839   5.311   4.947   3.224
 6314SOL     OW19840   2.107   6.004   2.923
 6314SOL    HW119841   2.131   6.019   3.019
 6314SOL    HW219842   2.125   5.909   2.898
 6315SOL     OW19843   1.883   2.268   2.853
 6315SOL    HW119844   1.835   2.211   2.786
 6315SOL    HW219845   1.973   2.230   2.870
 6316SOL     OW19846   4.872   0.798   5.139
 6316SOL    HW119847   4.889   0.894   5.118
 6316SOL    HW219848   4.906   0.777   5.231
 6317SOL     OW19849   4.885   3.540   3.671
 6317SOL    HW119850   4.921   3.479   3.600
 6317SOL    HW219851   4.862   3.487   3.752
 6318SOL     OW19852   5.587   6.308   0.135
 6318SOL    HW119853   5.553   6.259   0.215
 6318SOL    HW219854   5.511   6.356   0.091
 6319SOL     OW19855   4.743   2.412   3.949
 6319SOL    HW119856   4.774   2.424   4.043
 6319SOL    HW219857   4.814   2.443   3.886
 6320SOL     OW19858   5.897   2.204   6.632
 6320SOL    HW119859   5.872   2.123   6.579
 6320SOL    HW219860   5.992   2.197   6.661
 6321SOL     OW19861   1.030   3.571   0.399
 6321SOL    HW119862   1.015   3.639   0.327
 6321SOL    HW219863   1.054   3.618   0.484
 6322SOL     OW19864   1.618   0.920   2.985
 6322SOL    HW119865   1.630   1.014   2.954
 6322SOL    HW219866   1.691   0.863   2.947
 6323SOL     OW19867   1.996   6.233   0.800
 6323SOL    HW119868   1.945   6.306   0.755
 6323SOL    HW219869   1.999   6.250   0.898
 6324SOL     OW19870   5.401   3.955   1.577
 6324SOL    HW119871   5.392   3.934   1.675
 6324SOL    HW219872   5.490   3.996   1.560
 6325SOL     OW19873   0.798   3.277   3.822
 6325SOL    HW119874   0.858   3.357   3.832
 6325SOL    HW219875   0.732   3.293   3.749
 6326SOL     OW19876   5.302   5.253   4.624
 6326SOL    HW119877   5.212   5.258   4.580
 6326SOL    HW219878   5.361   5.324   4.587
 6327SOL     OW19879   1.234   0.767   2.765
 6327SOL    HW119880   1.260   0.767   2.862
 6327SOL    HW219881   1.138   0.741   2.757
 6328SOL     OW19882   4.078   3.497   4.645
 6328SOL    HW119883   4.081   3.419   4.708
 6328SOL    HW219884   4.124   3.575   4.688
 6329SOL     OW19885   0.314   3.194   4.756
 6329SOL    HW119886   0.369   3.111   4.747
 6329SOL    HW219887   0.240   3.177   4.822
 6330SOL     OW19888   4.190   1.516   3.076
 6330SOL    HW119889   4.196   1.467   2.989
 6330SOL    HW219890   4.198   1.614   3.060
 6331SOL     OW19891   1.934   3.100   3.839
 6331SOL    HW119892   1.919   3.189   3.881
 6331SOL    HW219893   1.927   3.108   3.740
 6332SOL     OW19894   4.224   2.143   6.797
 6332SOL    HW119895   4.169   2.176   6.720
 6332SOL    HW219896   4.318   2.129   6.767
 6333SOL     OW19897   5.879   1.833   6.880
 6333SOL    HW119898   5.971   1.842   6.919
 6333SOL    HW219899   5.877   1.757   6.816
 6334SOL     OW19900   2.469   1.177   2.200
 6334SOL    HW119901   2.524   1.176   2.284
 6334SOL    HW219902   2.372   1.168   2.224
 6335SOL     OW19903   5.985   2.223   5.381
 6335SOL    HW119904   5.970   2.322   5.387
 6335SOL    HW219905   6.058   2.204   5.316
 6336SOL     OW19906   1.073   5.987   5.979
 6336SOL    HW119907   1.047   5.890   5.971
 6336SOL    HW219908   0.991   6.043   5.983
 6337SOL     OW19909   6.387   0.332   5.771
 6337SOL    HW119910   6.351   0.425   5.775
 6337SOL    HW219911   6.468   0.325   5.829
 6338SOL     OW19912   1.016   0.639   2.385
 6338SOL    HW119913   0.996   0.737   2.389
 6338SOL    HW219914   0.990   0.597   2.472
 6339SOL     OW19915   0.079   4.050   3.662
 6339SOL    HW119916   0.073   4.148   3.681
 6339SOL    HW219917   0.075   4.036   3.563
 6340SOL     OW19918   2.400   5.368   6.849
 6340SOL    HW119919   2.467   5.358   6.776
 6340SOL    HW219920   2.438   5.426   6.921
 6341SOL     OW19921   1.016   4.390   3.221
 6341SOL    HW119922   0.918   4.411   3.219
 6341SOL    HW219923   1.032   4.304   3.171
 6342SOL     OW19924   2.303   6.866   1.486
 6342SOL    HW119925   2.367   6.940   1.507
 6342SOL    HW219926   2.349   6.796   1.431
 6343SOL     OW19927   1.574   4.193   7.001
 6343SOL    HW119928   1.515   4.239   6.935
 6343SOL    HW219929   1.660   4.167   6.957
 6344SOL     OW19930   1.861   1.301   3.874
 6344SOL    HW119931   1.913   1.322   3.791
 6344SOL    HW219932   1.859   1.202   3.888
 6345SOL     OW19933   0.186   3.192   3.553
 6345SOL    HW119934   0.097   3.146   3.559
 6345SOL    HW219935   0.206   3.238   3.640
 6346SOL     OW19936   0.360   4.789   4.196
 6346SOL    HW119937   0.293   4.803   4.269
 6346SOL    HW219938   0.348   4.698   4.156
 6347SOL     OW19939   1.783   1.540   2.320
 6347SOL    HW119940   1.852   1.505   2.258
 6347SOL    HW219941   1.714   1.470   2.338
 6348SOL     OW19942   0.668   2.573   0.615
 6348SOL    HW119943   0.759   2.533   0.605
 6348SOL    HW219944   0.601   2.515   0.567
 6349SOL     OW19945   6.088   1.415   1.010
 6349SOL    HW119946   6.175   1.374   1.035
 6349SOL    HW219947   6.094   1.514   1.018
 6350SOL     OW19948   0.488   6.856   1.696
 6350SOL    HW119949   0.522   6.892   1.610
 6350SOL    HW219950   0.460   6.932   1.755
 6351SOL     OW19951   6.321   2.339   2.100
 6351SOL    HW119952   6.269   2.423   2.087
 6351SOL    HW219953   6.419   2.358   2.093
 6352SOL     OW19954   3.941   0.616   5.132
 6352SOL    HW119955   3.964   0.687   5.065
 6352SOL    HW219956   4.024   0.585   5.178
 6353SOL     OW19957   3.869   5.937   5.796
 6353SOL    HW119958   3.939   6.006   5.810
 6353SOL    HW219959   3.814   5.961   5.716
 6354SOL     OW19960   5.981   4.816   3.043
 6354SOL    HW119961   5.887   4.783   3.042
 6354SOL    HW219962   6.005   4.845   3.136
 6355SOL     OW19963   4.793   6.677   6.627
 6355SOL    HW119964   4.878   6.700   6.579
 6355SOL    HW219965   4.794   6.580   6.652
 6356SOL     OW19966   0.504   6.780   6.348
 6356SOL    HW119967   0.516   6.786   6.249
 6356SOL    HW219968   0.588   6.807   6.394
 6357SOL     OW19969   5.021   1.670   3.208
 6357SOL    HW119970   4.962   1.642   3.133
 6357SOL    HW219971   5.061   1.590   3.252
 6358SOL     OW19972   1.480   1.348   4.877
 6358SOL    HW119973   1.488   1.397   4.963
 6358SOL    HW219974   1.421   1.268   4.889
 6359SOL     OW19975   6.757   4.266   0.886
 6359SOL    HW119976   6.658   4.264   0.902
 6359SOL    HW219977   6.802   4.313   0.962
 6360SOL     OW19978   2.913   3.023   0.925
 6360SOL    HW119979   2.820   3.028   0.960
 6360SOL    HW219980   2.956   2.939   0.956
 6361SOL     OW19981   6.815   1.989   2.768
 6361SOL    HW119982   6.910   1.974   2.793
 6361SOL    HW219983   6.755   1.948   2.838
 6362SOL     OW19984   1.824   5.712   0.295
 6362SOL    HW119985   1.787   5.620   0.309
 6362SOL    HW219986   1.749   5.774   0.270
 6363SOL     OW19987   0.487   1.837   1.330
 6363SOL    HW119988   0.439   1.922   1.351
 6363SOL    HW219989   0.447   1.794   1.249
 6364SOL     OW19990   2.843   2.065   3.680
 6364SOL    HW119991   2.817   2.104   3.592
 6364SOL    HW219992   2.930   2.017   3.671
 6365SOL     OW19993   6.188   6.658   1.857
 6365SOL    HW119994   6.121   6.719   1.813
 6365SOL    HW219995   6.276   6.704   1.864
 6366SOL     OW19996   6.287   1.428   5.152
 6366SOL    HW119997   6.275   1.375   5.067
 6366SOL    HW219998   6.375   1.475   5.150
 6367SOL     OW19999   1.718   3.700   4.811
 6367SOL    HW120000   1.709   3.758   4.731
 6367SOL    HW220001   1.639   3.713   4.872
 6368SOL     OW20002   5.206   3.460   4.733
 6368SOL    HW120003   5.115   3.446   4.773
 6368SOL    HW220004   5.205   3.429   4.638
 6369SOL     OW20005   3.040   4.489   0.836
 6369SOL    HW120006   2.966   4.423   0.848
 6369SOL    HW220007   3.049   4.511   0.739
 6370SOL     OW20008   6.619   3.112   4.748
 6370SOL    HW120009   6.598   3.204   4.782
 6370SOL    HW220010   6.575   3.099   4.660
 6371SOL     OW20011   5.852   4.553   0.930
 6371SOL    HW120012   5.941   4.532   0.970
 6371SOL    HW220013   5.783   4.554   1.001
 6372SOL     OW20014   5.659   1.369   1.747
 6372SOL    HW120015   5.714   1.372   1.664
 6372SOL    HW220016   5.604   1.452   1.755
 6373SOL     OW20017   5.427   1.598   1.127
 6373SOL    HW120018   5.389   1.533   1.061
 6373SOL    HW220019   5.353   1.638   1.181
 6374SOL     OW20020   3.639   3.403   6.216
 6374SOL    HW120021   3.594   3.352   6.290
 6374SOL    HW220022   3.595   3.380   6.129
 6375SOL     OW20023   5.191   0.996   1.755
 6375SOL    HW120024   5.115   0.998   1.690
 6375SOL    HW220025   5.266   1.052   1.719
 6376SOL     OW20026   3.053   6.829   6.908
 6376SOL    HW120027   3.055   6.730   6.896
 6376SOL    HW220028   3.043   6.850   7.005
 6377SOL     OW20029   7.012   1.231   0.037
 6377SOL    HW120030   6.947   1.194   0.104
 6377SOL    HW220031   0.052   1.298   0.082
 6378SOL     OW20032   6.142   3.422   2.796
 6378SOL    HW120033   6.176   3.341   2.748
 6378SOL    HW220034   6.165   3.504   2.743
 6379SOL     OW20035   2.313   4.477   6.964
 6379SOL    HW120036   2.322   4.515   6.872
 6379SOL    HW220037   2.235   4.520   7.010
 6380SOL     OW20038   1.861   2.799   4.735
 6380SOL    HW120039   1.820   2.792   4.644
 6380SOL    HW220040   1.954   2.764   4.733
 6381SOL     OW20041   3.584   4.616   0.864
 6381SOL    HW120042   3.646   4.561   0.919
 6381SOL    HW220043   3.635   4.665   0.794
 6382SOL     OW20044   1.843   1.201   0.995
 6382SOL    HW120045   1.936   1.232   1.016
 6382SOL    HW220046   1.845   1.106   0.966
 6383SOL     OW20047   2.739   1.817   1.998
 6383SOL    HW120048   2.726   1.791   2.094
 6383SOL    HW220049   2.745   1.916   1.991
 6384SOL     OW20050   0.243   1.685   2.243
 6384SOL    HW120051   0.331   1.665   2.199
 6384SOL    HW220052   0.237   1.633   2.329
 6385SOL     OW20053   0.298   4.116   2.083
 6385SOL    HW120054   0.224   4.066   2.128
 6385SOL    HW220055   0.369   4.051   2.055
 6386SOL     OW20056   2.764   4.991   1.007
 6386SOL    HW120057   2.814   4.916   0.964
 6386SOL    HW220058   2.803   5.078   0.977
 6387SOL     OW20059   6.250   1.259   5.619
 6387SOL    HW120060   6.168   1.303   5.658
 6387SOL    HW220061   6.321   1.328   5.607
 6388SOL     OW20062   6.653   5.046   2.129
 6388SOL    HW120063   6.686   5.063   2.036
 6388SOL    HW220064   6.723   5.075   2.194
 6389SOL     OW20065   6.555   6.852   0.589
 6389SOL    HW120066   6.551   6.771   0.531
 6389SOL    HW220067   6.607   6.832   0.671
 6390SOL     OW20068   4.429   6.170   0.276
 6390SOL    HW120069   4.494   6.227   0.226
 6390SOL    HW220070   4.375   6.116   0.211
 6391SOL     OW20071   0.711   1.943   4.890
 6391SOL    HW120072   0.685   1.927   4.985
 6391SOL    HW220073   0.723   2.041   4.874
 6392SOL     OW20074   4.474   6.089   3.158
 6392SOL    HW120075   4.508   6.144   3.234
 6392SOL    HW220076   4.408   6.022   3.193
 6393SOL     OW20077   2.393   4.228   0.443
 6393SOL    HW120078   2.368   4.312   0.492
 6393SOL    HW220079   2.339   4.152   0.478
 6394SOL     OW20080   1.611   5.162   1.969
 6394SOL    HW120081   1.697   5.111   1.977
 6394SOL    HW220082   1.539   5.113   2.017
 6395SOL     OW20083   1.032   3.797   5.052
 6395SOL    HW120084   1.021   3.869   5.120
 6395SOL    HW220085   1.003   3.831   4.962
 6396SOL     OW20086   0.929   3.891   4.225
 6396SOL    HW120087   0.991   3.816   4.201
 6396SOL    HW220088   0.980   3.962   4.274
 6397SOL     OW20089   0.731   3.366   4.547
 6397SOL    HW120090   0.650   3.376   4.604
 6397SOL    HW220091   0.759   3.270   4.544
 6398SOL     OW20092   0.430   0.047   2.431
 6398SOL    HW120093   0.492   0.078   2.359
 6398SOL    HW220094   0.425   6.967   2.430
 6399SOL     OW20095   2.567   0.238   6.522
 6399SOL    HW120096   2.594   0.285   6.606
 6399SOL    HW220097   2.648   0.201   6.477
 6400SOL     OW20098   0.954   5.986   2.979
 6400SOL    HW120099   1.039   5.935   2.991
 6400SOL    HW220100   0.969   6.059   2.911
 6401SOL     OW20101   4.022   4.759   1.106
 6401SOL    HW120102   3.933   4.749   1.152
 6401SOL    HW220103   4.007   4.761   1.007
 6402SOL     OW20104   3.187   3.282   6.229
 6402SOL    HW120105   3.212   3.312   6.137
 6402SOL    HW220106   3.089   3.294   6.244
 6403SOL     OW20107   3.568   5.202   5.819
 6403SOL    HW120108   3.649   5.167   5.773
 6403SOL    HW220109   3.516   5.126   5.857
 6404SOL     OW20110   5.220   6.049   6.071
 6404SOL    HW120111   5.278   6.009   6.143
 6404SOL    HW220112   5.270   6.048   5.984
 6405SOL     OW20113   4.704   0.802   3.375
 6405SOL    HW120114   4.616   0.836   3.409
 6405SOL    HW220115   4.752   0.753   3.448
 6406SOL     OW20116   0.514   3.274   2.427
 6406SOL    HW120117   0.444   3.342   2.407
 6406SOL    HW220118   0.473   3.194   2.470
 6407SOL     OW20119   0.434   6.998   2.910
 6407SOL    HW120120   0.371   7.016   2.986
 6407SOL    HW220121   0.450   6.900   2.904
 6408SOL     OW20122   0.116   0.949   2.175
 6408SOL    HW120123   0.195   0.989   2.221
 6408SOL    HW220124   0.145   0.869   2.122
 6409SOL     OW20125   6.505   4.182   4.224
 6409SOL    HW120126   6.501   4.149   4.319
 6409SOL    HW220127   6.600   4.184   4.194
 6410SOL     OW20128   1.685   0.661   6.981
 6410SOL    HW120129   1.692   0.566   7.011
 6410SOL    HW220130   1.606   0.671   6.922
 6411SOL     OW20131   1.080   2.548   4.321
 6411SOL    HW120132   1.101   2.500   4.405
 6411SOL    HW220133   1.162   2.594   4.287
 6412SOL     OW20134   4.376   0.294   0.136
 6412SOL    HW120135   4.366   0.228   0.061
 6412SOL    HW220136   4.287   0.307   0.179
 6413SOL     OW20137   4.653   5.670   3.427
 6413SOL    HW120138   4.596   5.594   3.395
 6413SOL    HW220139   4.597   5.753   3.432
 6414SOL     OW20140   3.495   0.144   6.923
 6414SOL    HW120141   3.404   0.101   6.925
 6414SOL    HW220142   3.502   0.211   6.996
 6415SOL     OW20143   6.935   1.985   3.344
 6415SOL    HW120144   6.961   1.903   3.293
 6415SOL    HW220145   6.838   2.003   3.331
 6416SOL     OW20146   2.759   4.282   0.506
 6416SOL    HW120147   2.790   4.217   0.576
 6416SOL    HW220148   2.715   4.232   0.431
 6417SOL     OW20149   4.900   3.638   5.794
 6417SOL    HW120150   4.962   3.633   5.716
 6417SOL    HW220151   4.865   3.546   5.815
 6418SOL     OW20152   4.806   5.495   0.223
 6418SOL    HW120153   4.795   5.568   0.157
 6418SOL    HW220154   4.850   5.416   0.180
 6419SOL     OW20155   1.691   0.117   6.504
 6419SOL    HW120156   1.749   0.089   6.427
 6419SOL    HW220157   1.701   0.216   6.518
 6420SOL     OW20158   2.151   4.996   3.307
 6420SOL    HW120159   2.240   4.964   3.342
 6420SOL    HW220160   2.103   5.045   3.380
 6421SOL     OW20161   5.003   6.602   1.711
 6421SOL    HW120162   5.094   6.598   1.668
 6421SOL    HW220163   4.935   6.568   1.647
 6422SOL     OW20164   1.098   0.683   5.468
 6422SOL    HW120165   1.183   0.677   5.521
 6422SOL    HW220166   1.114   0.740   5.387
 6423SOL     OW20167   1.126   3.805   4.554
 6423SOL    HW120168   1.221   3.796   4.525
 6423SOL    HW220169   1.070   3.738   4.504
 6424SOL     OW20170   6.169   4.223   5.563
 6424SOL    HW120171   6.231   4.290   5.521
 6424SOL    HW220172   6.133   4.260   5.649
 6425SOL     OW20173   0.928   0.218   4.617
 6425SOL    HW120174   0.875   0.295   4.651
 6425SOL    HW220175   0.867   0.140   4.600
 6426SOL     OW20176   3.059   5.129   3.891
 6426SOL    HW120177   3.076   5.035   3.921
 6426SOL    HW220178   3.066   5.134   3.791
 6427SOL     OW20179   3.260   3.581   3.045
 6427SOL    HW120180   3.192   3.593   2.973
 6427SOL    HW220181   3.221   3.526   3.119
 6428SOL     OW20182   6.458   3.218   6.545
 6428SOL    HW120183   6.370   3.175   6.566
 6428SOL    HW220184   6.443   3.301   6.491
 6429SOL     OW20185   2.732   1.705   4.176
 6429SOL    HW120186   2.796   1.646   4.224
 6429SOL    HW220187   2.664   1.649   4.128
 6430SOL     OW20188   6.492   1.266   4.007
 6430SOL    HW120189   6.489   1.250   4.106
 6430SOL    HW220190   6.502   1.178   3.960
 6431SOL     OW20191   3.388   5.005   3.433
 6431SOL    HW120192   3.443   4.984   3.514
 6431SOL    HW220193   3.396   5.102   3.411
 6432SOL     OW20194   4.277   3.666   6.965
 6432SOL    HW120195   4.178   3.666   6.954
 6432SOL    HW220196   4.307   3.756   6.997
 6433SOL     OW20197   4.023   5.535   6.279
 6433SOL    HW120198   4.058   5.525   6.373
 6433SOL    HW220199   3.923   5.538   6.281
 6434SOL     OW20200   6.384   4.736   6.620
 6434SOL    HW120201   6.369   4.817   6.563
 6434SOL    HW220202   6.402   4.764   6.714
 6435SOL     OW20203   4.344   1.226   0.768
 6435SOL    HW120204   4.416   1.222   0.700
 6435SOL    HW220205   4.309   1.134   0.786
 6436SOL     OW20206   0.716   1.760   3.871
 6436SOL    HW120207   0.691   1.721   3.782
 6436SOL    HW220208   0.699   1.692   3.943
 6437SOL     OW20209   1.020   3.198   6.686
 6437SOL    HW120210   0.983   3.122   6.633
 6437SOL    HW220211   0.946   3.241   6.738
 6438SOL     OW20212   0.923   5.681   1.735
 6438SOL    HW120213   0.970   5.618   1.796
 6438SOL    HW220214   0.948   5.662   1.640
 6439SOL     OW20215   4.282   5.921   2.866
 6439SOL    HW120216   4.244   5.834   2.836
 6439SOL    HW220217   4.382   5.915   2.866
 6440SOL     OW20218   2.117   2.243   5.558
 6440SOL    HW120219   2.094   2.180   5.633
 6440SOL    HW220220   2.125   2.190   5.473
 6441SOL     OW20221   1.467   1.379   1.736
 6441SOL    HW120222   1.530   1.373   1.814
 6441SOL    HW220223   1.517   1.411   1.656
 6442SOL     OW20224   3.033   2.211   4.287
 6442SOL    HW120225   3.066   2.303   4.267
 6442SOL    HW220226   3.013   2.164   4.201
 6443SOL     OW20227   2.246   2.194   5.936
 6443SOL    HW120228   2.298   2.119   5.977
 6443SOL    HW220229   2.305   2.244   5.873
 6444SOL     OW20230   6.977   4.450   5.624
 6444SOL    HW120231   6.922   4.454   5.540
 6444SOL    HW220232   6.926   4.491   5.699
 6445SOL     OW20233   3.194   2.965   3.448
 6445SOL    HW120234   3.141   2.908   3.511
 6445SOL    HW220235   3.285   2.925   3.437
 6446SOL     OW20236   0.839   6.974   1.995
 6446SOL    HW120237   0.856   6.887   1.949
 6446SOL    HW220238   0.768   0.005   1.945
 6447SOL     OW20239   0.194   3.908   1.526
 6447SOL    HW120240   0.207   3.939   1.432
 6447SOL    HW220241   0.265   3.842   1.550
 6448SOL     OW20242   4.101   4.102   1.606
 6448SOL    HW120243   4.096   4.007   1.636
 6448SOL    HW220244   4.009   4.140   1.598
 6449SOL     OW20245   4.554   5.995   6.971
 6449SOL    HW120246   4.637   5.969   0.000
 6449SOL    HW220247   4.476   5.991   0.014
 6450SOL     OW20248   4.192   3.571   0.824
 6450SOL    HW120249   4.148   3.523   0.748
 6450SOL    HW220250   4.150   3.542   0.910
 6451SOL     OW20251   4.098   3.453   1.593
 6451SOL    HW120252   4.168   3.390   1.560
 6451SOL    HW220253   4.123   3.486   1.683
 6452SOL     OW20254   4.439   1.636   4.200
 6452SOL    HW120255   4.415   1.638   4.103
 6452SOL    HW220256   4.425   1.727   4.239
 6453SOL     OW20257   3.293   1.107   2.872
 6453SOL    HW120258   3.235   1.142   2.798
 6453SOL    HW220259   3.325   1.015   2.847
 6454SOL     OW20260   4.814   3.450   5.568
 6454SOL    HW120261   4.852   3.393   5.640
 6454SOL    HW220262   4.720   3.475   5.591
 6455SOL     OW20263   0.115   3.090   5.580
 6455SOL    HW120264   0.031   3.061   5.536
 6455SOL    HW220265   0.129   3.188   5.565
 6456SOL     OW20266   6.238   1.859   3.275
 6456SOL    HW120267   6.142   1.863   3.246
 6456SOL    HW220268   6.241   1.844   3.374
 6457SOL     OW20269   1.549   6.258   3.318
 6457SOL    HW120270   1.569   6.269   3.415
 6457SOL    HW220271   1.472   6.195   3.306
 6458SOL     OW20272   1.148   0.115   4.716
 6458SOL    HW120273   1.090   0.073   4.786
 6458SOL    HW220274   1.093   0.171   4.655
 6459SOL     OW20275   0.213   3.239   3.137
 6459SOL    HW120276   0.151   3.162   3.144
 6459SOL    HW220277   0.296   3.220   3.190
 6460SOL     OW20278   1.473   5.196   5.485
 6460SOL    HW120279   1.550   5.258   5.496
 6460SOL    HW220280   1.488   5.138   5.406
 6461SOL     OW20281   6.919   6.938   2.212
 6461SOL    HW120282   6.937   0.012   2.182
 6461SOL    HW220283   6.867   6.939   2.297
 6462SOL     OW20284   2.956   4.090   5.634
 6462SOL    HW120285   2.946   4.095   5.535
 6462SOL    HW220286   2.877   4.131   5.679
 6463SOL     OW20287   4.914   3.130   1.830
 6463SOL    HW120288   4.851   3.096   1.900
 6463SOL    HW220289   4.862   3.177   1.758
 6464SOL     OW20290   0.728   3.648   3.282
 6464SOL    HW120291   0.790   3.582   3.241
 6464SOL    HW220292   0.665   3.682   3.212
 6465SOL     OW20293   2.238   1.249   2.667
 6465SOL    HW120294   2.282   1.290   2.747
 6465SOL    HW220295   2.307   1.235   2.595
 6466SOL     OW20296   6.385   5.272   6.723
 6466SOL    HW120297   6.339   5.213   6.789
 6466SOL    HW220298   6.431   5.347   6.771
 6467SOL     OW20299   2.578   3.455   5.749
 6467SOL    HW120300   2.570   3.553   5.734
 6467SOL    HW220301   2.673   3.427   5.733
 6468SOL     OW20302   1.026   1.003   0.203
 6468SOL    HW120303   1.113   1.049   0.187
 6468SOL    HW220304   0.979   0.989   0.116
 6469SOL     OW20305   3.187   0.809   0.958
 6469SOL    HW120306   3.210   0.720   0.998
 6469SOL    HW220307   3.182   0.877   1.031
 6470SOL     OW20308   6.228   0.515   6.240
 6470SOL    HW120309   6.298   0.550   6.303
 6470SOL    HW220310   6.152   0.478   6.294
 6471SOL     OW20311   0.760   6.397   5.206
 6471SOL    HW120312   0.756   6.418   5.304
 6471SOL    HW220313   0.704   6.317   5.187
 6472SOL     OW20314   0.805   6.270   1.013
 6472SOL    HW120315   0.880   6.208   1.037
 6472SOL    HW220316   0.842   6.359   0.987
 6473SOL     OW20317   2.950   1.478   3.640
 6473SOL    HW120318   2.941   1.552   3.707
 6473SOL    HW220319   3.046   1.471   3.612
 6474SOL     OW20320   4.127   0.681   4.385
 6474SOL    HW120321   4.036   0.702   4.349
 6474SOL    HW220322   4.177   0.624   4.320
 6475SOL     OW20323   5.646   6.103   3.938
 6475SOL    HW120324   5.701   6.072   3.861
 6475SOL    HW220325   5.616   6.025   3.992
 6476SOL     OW20326   5.152   4.078   4.547
 6476SOL    HW120327   5.216   4.071   4.623
 6476SOL    HW220328   5.185   4.024   4.470
 6477SOL     OW20329   1.450   6.859   0.836
 6477SOL    HW120330   1.488   6.776   0.876
 6477SOL    HW220331   1.355   6.869   0.863
 6478SOL     OW20332   1.921   6.457   6.599
 6478SOL    HW120333   1.932   6.384   6.667
 6478SOL    HW220334   1.879   6.537   6.642
 6479SOL     OW20335   4.711   5.155   4.444
 6479SOL    HW120336   4.786   5.173   4.507
 6479SOL    HW220337   4.625   5.149   4.495
 6480SOL     OW20338   2.792   0.914   5.157
 6480SOL    HW120339   2.888   0.940   5.173
 6480SOL    HW220340   2.733   0.967   5.217
 6481SOL     OW20341   4.048   3.847   1.656
 6481SOL    HW120342   4.025   3.770   1.597
 6481SOL    HW220343   4.001   3.837   1.744
 6482SOL     OW20344   5.174   3.235   3.844
 6482SOL    HW120345   5.104   3.205   3.909
 6482SOL    HW220346   5.264   3.208   3.878
 6483SOL     OW20347   1.883   6.217   5.400
 6483SOL    HW120348   1.967   6.230   5.454
 6483SOL    HW220349   1.827   6.299   5.406
 6484SOL     OW20350   3.651   0.342   3.525
 6484SOL    HW120351   3.614   0.250   3.512
 6484SOL    HW220352   3.580   0.409   3.504
 6485SOL     OW20353   2.136   4.637   5.233
 6485SOL    HW120354   2.144   4.595   5.323
 6485SOL    HW220355   2.123   4.565   5.164
 6486SOL     OW20356   6.851   4.010   2.377
 6486SOL    HW120357   6.841   4.055   2.288
 6486SOL    HW220358   6.925   4.053   2.428
 6487SOL     OW20359   6.135   5.510   4.785
 6487SOL    HW120360   6.135   5.546   4.692
 6487SOL    HW220361   6.048   5.464   4.803
 6488SOL     OW20362   3.114   4.948   3.361
 6488SOL    HW120363   3.200   4.985   3.397
 6488SOL    HW220364   3.104   4.976   3.265
 6489SOL     OW20365   6.375   3.644   5.362
 6489SOL    HW120366   6.295   3.673   5.415
 6489SOL    HW220367   6.364   3.675   5.267
 6490SOL     OW20368   1.382   3.505   6.484
 6490SOL    HW120369   1.329   3.420   6.474
 6490SOL    HW220370   1.423   3.507   6.575
 6491SOL     OW20371   1.111   6.942   2.346
 6491SOL    HW120372   1.110   6.856   2.295
 6491SOL    HW220373   1.204   6.961   2.378
 6492SOL     OW20374   4.125   3.328   3.118
 6492SOL    HW120375   4.134   3.412   3.171
 6492SOL    HW220376   4.142   3.349   3.021
 6493SOL     OW20377   1.593   4.726   3.939
 6493SOL    HW120378   1.620   4.716   3.844
 6493SOL    HW220379   1.501   4.765   3.944
 6494SOL     OW20380   0.033   0.869   1.603
 6494SOL    HW120381   6.956   0.847   1.589
 6494SOL    HW220382   0.048   0.966   1.584
 6495SOL     OW20383   6.149   6.473   2.545
 6495SOL    HW120384   6.104   6.419   2.474
 6495SOL    HW220385   6.090   6.549   2.571
 6496SOL     OW20386   2.659   2.847   1.404
 6496SOL    HW120387   2.734   2.897   1.360
 6496SOL    HW220388   2.660   2.865   1.502
 6497SOL     OW20389   6.741   2.549   0.659
 6497SOL    HW120390   6.641   2.555   0.668
 6497SOL    HW220391   6.764   2.475   0.596
 6498SOL     OW20392   2.587   4.945   4.397
 6498SOL    HW120393   2.510   4.915   4.342
 6498SOL    HW220394   2.667   4.957   4.339
 6499SOL     OW20395   5.621   2.274   2.776
 6499SOL    HW120396   5.676   2.318   2.705
 6499SOL    HW220397   5.526   2.305   2.768
 6500SOL     OW20398   1.796   3.669   3.114
 6500SOL    HW120399   1.772   3.580   3.075
 6500SOL    HW220400   1.890   3.665   3.149
 6501SOL     OW20401   6.568   1.275   2.488
 6501SOL    HW120402   6.627   1.315   2.418
 6501SOL    HW220403   6.514   1.201   2.447
 6502SOL     OW20404   0.959   2.855   2.490
 6502SOL    HW120405   1.044   2.805   2.506
 6502SOL    HW220406   0.937   2.852   2.393
 6503SOL     OW20407   0.485   2.925   6.060
 6503SOL    HW120408   0.536   3.011   6.059
 6503SOL    HW220409   0.521   2.863   5.990
 6504SOL     OW20410   4.224   6.269   5.934
 6504SOL    HW120411   4.177   6.355   5.912
 6504SOL    HW220412   4.221   6.209   5.855
 6505SOL     OW20413   0.847   6.973   6.766
 6505SOL    HW120414   0.747   6.980   6.771
 6505SOL    HW220415   0.888   0.015   6.834
 6506SOL     OW20416   0.411   4.697   2.201
 6506SOL    HW120417   0.506   4.730   2.206
 6506SOL    HW220418   0.406   4.619   2.139
 6507SOL     OW20419   5.584   5.288   0.848
 6507SOL    HW120420   5.524   5.345   0.792
 6507SOL    HW220421   5.558   5.192   0.839
 6508SOL     OW20422   0.111   0.898   4.599
 6508SOL    HW120423   0.059   0.839   4.537
 6508SOL    HW220424   0.048   0.957   4.650
 6509SOL     OW20425   2.435   1.674   6.658
 6509SOL    HW120426   2.349   1.713   6.689
 6509SOL    HW220427   2.492   1.652   6.737
 6510SOL     OW20428   4.051   4.983   4.063
 6510SOL    HW120429   4.112   5.039   4.117
 6510SOL    HW220430   4.101   4.904   4.026
 6511SOL     OW20431   3.673   3.319   0.014
 6511SOL    HW120432   3.594   3.306   0.075
 6511SOL    HW220433   3.645   3.373   6.954
 6512SOL     OW20434   5.364   1.590   2.020
 6512SOL    HW120435   5.330   1.677   1.985
 6512SOL    HW220436   5.449   1.604   2.070
 6513SOL     OW20437   3.518   4.995   1.894
 6513SOL    HW120438   3.570   4.911   1.913
 6513SOL    HW220439   3.498   5.000   1.796
 6514SOL     OW20440   5.116   5.627   5.634
 6514SOL    HW120441   5.109   5.635   5.734
 6514SOL    HW220442   5.045   5.683   5.591
 6515SOL     OW20443   0.806   5.170   2.379
 6515SOL    HW120444   0.876   5.117   2.330
 6515SOL    HW220445   0.819   5.159   2.477
 6516SOL     OW20446   5.513   1.386   3.442
 6516SOL    HW120447   5.520   1.462   3.378
 6516SOL    HW220448   5.549   1.414   3.531
 6517SOL     OW20449   6.727   4.231   0.606
 6517SOL    HW120450   6.734   4.266   0.699
 6517SOL    HW220451   6.788   4.283   0.546
 6518SOL     OW20452   1.146   1.990   1.900
 6518SOL    HW120453   1.112   1.991   1.806
 6518SOL    HW220454   1.073   1.958   1.961
 6519SOL     OW20455   1.476   2.334   3.365
 6519SOL    HW120456   1.433   2.413   3.410
 6519SOL    HW220457   1.548   2.297   3.423
 6520SOL     OW20458   5.985   6.866   6.786
 6520SOL    HW120459   5.998   6.786   6.728
 6520SOL    HW220460   6.058   6.870   6.854
 6521SOL     OW20461   1.633   4.476   4.687
 6521SOL    HW120462   1.648   4.433   4.598
 6521SOL    HW220463   1.717   4.523   4.716
 6522SOL     OW20464   2.209   2.983   5.263
 6522SOL    HW120465   2.168   3.056   5.209
 6522SOL    HW220466   2.300   2.962   5.228
 6523SOL     OW20467   4.993   6.419   0.489
 6523SOL    HW120468   5.061   6.468   0.434
 6523SOL    HW220469   4.937   6.361   0.430
 6524SOL     OW20470   3.873   1.973   1.031
 6524SOL    HW120471   3.915   2.060   1.005
 6524SOL    HW220472   3.858   1.917   0.949
 6525SOL     OW20473   2.906   4.818   3.504
 6525SOL    HW120474   2.978   4.823   3.435
 6525SOL    HW220475   2.826   4.772   3.465
 6526SOL     OW20476   6.111   6.632   0.591
 6526SOL    HW120477   6.156   6.611   0.505
 6526SOL    HW220478   6.179   6.661   0.658
 6527SOL     OW20479   5.447   2.235   0.674
 6527SOL    HW120480   5.454   2.330   0.704
 6527SOL    HW220481   5.417   2.232   0.579
 6528SOL     OW20482   4.704   6.840   0.580
 6528SOL    HW120483   4.768   6.843   0.503
 6528SOL    HW220484   4.626   6.899   0.560
 6529SOL     OW20485   3.977   6.562   1.415
 6529SOL    HW120486   3.915   6.504   1.468
 6529SOL    HW220487   4.061   6.510   1.395
 6530SOL     OW20488   0.326   2.822   4.260
 6530SOL    HW120489   0.352   2.894   4.325
 6530SOL    HW220490   0.277   2.862   4.183
 6531SOL     OW20491   2.963   3.636   4.124
 6531SOL    HW120492   3.060   3.619   4.106
 6531SOL    HW220493   2.908   3.596   4.050
 6532SOL     OW20494   1.028   5.858   6.652
 6532SOL    HW120495   0.993   5.801   6.578
 6532SOL    HW220496   0.978   5.838   6.737
 6533SOL     OW20497   5.609   4.668   1.071
 6533SOL    HW120498   5.658   4.754   1.060
 6533SOL    HW220499   5.526   4.669   1.017
 6534SOL     OW20500   6.398   3.068   4.470
 6534SOL    HW120501   6.425   2.978   4.435
 6534SOL    HW220502   6.305   3.063   4.506
 6535SOL     OW20503   5.685   3.472   6.644
 6535SOL    HW120504   5.701   3.373   6.636
 6535SOL    HW220505   5.752   3.510   6.708
 6536SOL     OW20506   6.862   5.862   5.261
 6536SOL    HW120507   6.924   5.796   5.218
 6536SOL    HW220508   6.787   5.882   5.199
 6537SOL     OW20509   6.632   5.360   4.396
 6537SOL    HW120510   6.655   5.267   4.368
 6537SOL    HW220511   6.708   5.421   4.375
 6538SOL     OW20512   0.935   3.790   3.037
 6538SOL    HW120513   0.895   3.817   3.125
 6538SOL    HW220514   1.004   3.719   3.052
 6539SOL     OW20515   5.700   6.448   5.252
 6539SOL    HW120516   5.671   6.390   5.328
 6539SOL    HW220517   5.684   6.544   5.275
 6540SOL     OW20518   1.096   2.557   5.364
 6540SOL    HW120519   1.136   2.467   5.346
 6540SOL    HW220520   1.021   2.547   5.430
 6541SOL     OW20521   3.673   2.017   5.544
 6541SOL    HW120522   3.597   2.005   5.481
 6541SOL    HW220523   3.645   1.989   5.636
 6542SOL     OW20524   1.722   4.635   2.098
 6542SOL    HW120525   1.816   4.612   2.071
 6542SOL    HW220526   1.711   4.735   2.095
 6543SOL     OW20527   3.696   1.719   4.351
 6543SOL    HW120528   3.789   1.699   4.320
 6543SOL    HW220529   3.696   1.804   4.403
 6544SOL     OW20530   1.316   0.704   1.664
 6544SOL    HW120531   1.283   0.790   1.626
 6544SOL    HW220532   1.326   0.713   1.763
 6545SOL     OW20533   6.447   4.706   0.493
 6545SOL    HW120534   6.431   4.754   0.580
 6545SOL    HW220535   6.530   4.650   0.500
 6546SOL     OW20536   4.244   5.250   3.949
 6546SOL    HW120537   4.172   5.223   3.884
 6546SOL    HW220538   4.234   5.196   4.033
 6547SOL     OW20539   0.446   6.511   5.320
 6547SOL    HW120540   0.479   6.443   5.386
 6547SOL    HW220541   0.509   6.515   5.242
 6548SOL     OW20542   1.606   1.092   5.103
 6548SOL    HW120543   1.608   1.019   5.171
 6548SOL    HW220544   1.700   1.112   5.074
 6549SOL     OW20545   2.121   1.610   2.512
 6549SOL    HW120546   2.035   1.559   2.504
 6549SOL    HW220547   2.100   1.706   2.530
 6550SOL     OW20548   5.739   6.967   1.957
 6550SOL    HW120549   5.691   6.947   1.871
 6550SOL    HW220550   5.817   0.007   1.938
 6551SOL     OW20551   2.340   5.803   1.092
 6551SOL    HW120552   2.253   5.758   1.113
 6551SOL    HW220553   2.371   5.854   1.171
 6552SOL     OW20554   2.711   3.709   6.945
 6552SOL    HW120555   2.807   3.716   6.919
 6552SOL    HW220556   2.662   3.792   6.918
 6553SOL     OW20557   0.000   1.799   3.181
 6553SOL    HW120558   6.988   1.712   3.144
 6553SOL    HW220559   0.081   1.784   3.237
 6554SOL     OW20560   2.136   1.789   4.004
 6554SOL    HW120561   2.156   1.806   4.101
 6554SOL    HW220562   2.221   1.784   3.952
 6555SOL     OW20563   2.174   3.714   1.855
 6555SOL    HW120564   2.121   3.716   1.770
 6555SOL    HW220565   2.156   3.629   1.904
 6556SOL     OW20566   4.961   3.058   3.425
 6556SOL    HW120567   4.910   3.116   3.362
 6556SOL    HW220568   4.938   3.083   3.519
 6557SOL     OW20569   1.742   6.544   2.255
 6557SOL    HW120570   1.766   6.553   2.158
 6557SOL    HW220571   1.816   6.581   2.311
 6558SOL     OW20572   4.826   5.496   0.745
 6558SOL    HW120573   4.854   5.554   0.668
 6558SOL    HW220574   4.907   5.471   0.798
 6559SOL     OW20575   0.195   1.876   6.255
 6559SOL    HW120576   0.243   1.911   6.335
 6559SOL    HW220577   0.117   1.820   6.284
 6560SOL     OW20578   6.479   4.723   6.248
 6560SOL    HW120579   6.408   4.755   6.310
 6560SOL    HW220580   6.558   4.784   6.253
 6561SOL     OW20581   2.563   5.199   0.079
 6561SOL    HW120582   2.592   5.188   7.003
 6561SOL    HW220583   2.610   5.278   0.119
 6562SOL     OW20584   4.540   2.659   1.219
 6562SOL    HW120585   4.562   2.679   1.314
 6562SOL    HW220586   4.459   2.601   1.215
 6563SOL     OW20587   5.932   4.501   5.632
 6563SOL    HW120588   5.951   4.594   5.599
 6563SOL    HW220589   5.909   4.443   5.554
 6564SOL     OW20590   6.237   3.942   2.108
 6564SOL    HW120591   6.311   3.879   2.135
 6564SOL    HW220592   6.179   3.898   2.040
 6565SOL     OW20593   5.260   5.337   1.687
 6565SOL    HW120594   5.335   5.279   1.719
 6565SOL    HW220595   5.264   5.345   1.588
 6566SOL     OW20596   5.395   5.537   4.030
 6566SOL    HW120597   5.319   5.479   4.059
 6566SOL    HW220598   5.368   5.633   4.034
 6567SOL     OW20599   2.596   0.671   2.536
 6567SOL    HW120600   2.695   0.687   2.540
 6567SOL    HW220601   2.554   0.702   2.621
 6568SOL     OW20602   5.350   1.699   0.146
 6568SOL    HW120603   5.372   1.613   0.100
 6568SOL    HW220604   5.339   1.682   0.244
 6569SOL     OW20605   1.560   4.031   3.329
 6569SOL    HW120606   1.629   4.026   3.257
 6569SOL    HW220607   1.572   3.954   3.392
 6570SOL     OW20608   4.444   0.178   2.695
 6570SOL    HW120609   4.450   0.079   2.704
 6570SOL    HW220610   4.535   0.219   2.708
 6571SOL     OW20611   2.505   6.827   2.714
 6571SOL    HW120612   2.419   6.791   2.679
 6571SOL    HW220613   2.525   6.915   2.671
 6572SOL     OW20614   1.060   6.382   3.723
 6572SOL    HW120615   0.974   6.432   3.732
 6572SOL    HW220616   1.071   6.350   3.629
 6573SOL     OW20617   1.156   2.884   3.747
 6573SOL    HW120618   1.072   2.904   3.696
 6573SOL    HW220619   1.205   2.969   3.765
 6574SOL     OW20620   1.118   4.685   1.805
 6574SOL    HW120621   1.134   4.588   1.787
 6574SOL    HW220622   1.037   4.696   1.862
 6575SOL     OW20623   6.863   1.023   4.014
 6575SOL    HW120624   6.813   1.109   4.025
 6575SOL    HW220625   6.959   1.043   3.995
 6576SOL     OW20626   4.099   0.778   2.724
 6576SOL    HW120627   4.190   0.743   2.747
 6576SOL    HW220628   4.031   0.707   2.739
 6577SOL     OW20629   3.019   1.124   5.473
 6577SOL    HW120630   3.050   1.213   5.505
 6577SOL    HW220631   3.068   1.052   5.521
 6578SOL     OW20632   0.863   6.000   0.191
 6578SOL    HW120633   0.789   6.066   0.177
 6578SOL    HW220634   0.877   5.986   0.289
 6579SOL     OW20635   1.880   1.973   2.860
 6579SOL    HW120636   1.810   1.906   2.883
 6579SOL    HW220637   1.886   1.981   2.760
 6580SOL     OW20638   2.942   2.733   6.871
 6580SOL    HW120639   2.955   2.831   6.887
 6580SOL    HW220640   2.845   2.714   6.859
 6581SOL     OW20641   0.972   2.289   1.716
 6581SOL    HW120642   0.881   2.306   1.754
 6581SOL    HW220643   0.962   2.237   1.630
 6582SOL     OW20644   3.627   6.553   3.181
 6582SOL    HW120645   3.550   6.614   3.197
 6582SOL    HW220646   3.697   6.567   3.251
 6583SOL     OW20647   2.306   4.435   1.101
 6583SOL    HW120648   2.345   4.348   1.128
 6583SOL    HW220649   2.322   4.503   1.172
 6584SOL     OW20650   4.593   3.582   5.662
 6584SOL    HW120651   4.639   3.671   5.657
 6584SOL    HW220652   4.507   3.586   5.612
 6585SOL     OW20653   5.038   6.921   2.070
 6585SOL    HW120654   5.017   7.007   2.026
 6585SOL    HW220655   5.137   6.912   2.079
 6586SOL     OW20656   6.811   1.720   6.632
 6586SOL    HW120657   6.855   1.797   6.677
 6586SOL    HW220658   6.767   1.750   6.547
 6587SOL     OW20659   2.559   4.824   5.445
 6587SOL    HW120660   2.574   4.744   5.386
 6587SOL    HW220661   2.644   4.847   5.492
 6588SOL     OW20662   1.314   2.400   0.482
 6588SOL    HW120663   1.217   2.411   0.459
 6588SOL    HW220664   1.323   2.394   0.582
 6589SOL     OW20665   5.805   0.078   0.822
 6589SOL    HW120666   5.891   0.119   0.852
 6589SOL    HW220667   5.767   0.130   0.745
 6590SOL     OW20668   0.977   6.038   4.431
 6590SOL    HW120669   0.916   6.016   4.508
 6590SOL    HW220670   0.952   6.127   4.393
 6591SOL     OW20671   6.520   3.441   3.401
 6591SOL    HW120672   6.516   3.532   3.358
 6591SOL    HW220673   6.441   3.387   3.373
 6592SOL     OW20674   0.174   0.153   4.482
 6592SOL    HW120675   0.255   0.120   4.434
 6592SOL    HW220676   0.100   0.088   4.471
 6593SOL     OW20677   1.005   0.386   3.182
 6593SOL    HW120678   0.982   0.439   3.263
 6593SOL    HW220679   1.065   0.310   3.207
 6594SOL     OW20680   5.372   0.034   6.587
 6594SOL    HW120681   5.295   0.059   6.645
 6594SOL    HW220682   5.402   6.960   6.609
 6595SOL     OW20683   0.736   0.150   4.857
 6595SOL    HW120684   0.816   0.092   4.847
 6595SOL    HW220685   0.739   0.224   4.789
 6596SOL     OW20686   5.093   0.491   3.127
 6596SOL    HW120687   5.045   0.559   3.182
 6596SOL    HW220688   5.183   0.525   3.103
 6597SOL     OW20689   1.147   5.293   1.659
 6597SOL    HW120690   1.057   5.303   1.701
 6597SOL    HW220691   1.136   5.266   1.563
 6598SOL     OW20692   1.567   5.293   1.704
 6598SOL    HW120693   1.592   5.284   1.800
 6598SOL    HW220694   1.521   5.209   1.674
 6599SOL     OW20695   0.675   6.133   6.593
 6599SOL    HW120696   0.607   6.061   6.574
 6599SOL    HW220697   0.689   6.140   6.692
 6600SOL     OW20698   5.169   0.301   4.530
 6600SOL    HW120699   5.116   0.363   4.472
 6600SOL    HW220700   5.142   0.314   4.626
 6601SOL     OW20701   0.855   2.618   3.603
 6601SOL    HW120702   0.774   2.673   3.582
 6601SOL    HW220703   0.828   2.523   3.618
 6602SOL     OW20704   6.335   6.191   0.616
 6602SOL    HW120705   6.402   6.262   0.595
 6602SOL    HW220706   6.358   6.108   0.564
 6603SOL     OW20707   6.717   4.697   2.421
 6603SOL    HW120708   6.695   4.603   2.447
 6603SOL    HW220709   6.808   4.700   2.381
 6604SOL     OW20710   2.526   4.893   2.208
 6604SOL    HW120711   2.439   4.865   2.248
 6604SOL    HW220712   2.527   4.993   2.200
 6605SOL     OW20713   6.997   5.879   0.840
 6605SOL    HW120714   6.933   5.802   0.835
 6605SOL    HW220715   0.010   5.902   0.749
 6606SOL     OW20716   1.522   5.131   3.215
 6606SOL    HW120717   1.531   5.036   3.188
 6606SOL    HW220718   1.425   5.155   3.222
 6607SOL     OW20719   0.050   2.761   4.368
 6607SOL    HW120720   0.037   2.670   4.408
 6607SOL    HW220721   0.144   2.769   4.334
 6608SOL     OW20722   2.031   0.629   5.368
 6608SOL    HW120723   2.052   0.699   5.436
 6608SOL    HW220724   2.087   0.547   5.386
 6609SOL     OW20725   2.676   1.827   0.315
 6609SOL    HW120726   2.688   1.924   0.295
 6609SOL    HW220727   2.580   1.809   0.335
 6610SOL     OW20728   3.258   5.909   0.749
 6610SOL    HW120729   3.216   5.882   0.836
 6610SOL    HW220730   3.357   5.906   0.757
 6611SOL     OW20731   2.879   1.473   5.019
 6611SOL    HW120732   2.794   1.420   5.016
 6611SOL    HW220733   2.873   1.540   5.093
 6612SOL     OW20734   6.060   0.585   0.001
 6612SOL    HW120735   6.157   0.599   7.005
 6612SOL    HW220736   6.044   0.492   0.033
 6613SOL     OW20737   5.083   6.874   1.039
 6613SOL    HW120738   5.103   6.810   1.113
 6613SOL    HW220739   5.143   6.856   0.961
 6614SOL     OW20740   4.439   5.119   0.660
 6614SOL    HW120741   4.406   5.081   0.746
 6614SOL    HW220742   4.498   5.052   0.615
 6615SOL     OW20743   3.660   5.619   6.084
 6615SOL    HW120744   3.596   5.557   6.039
 6615SOL    HW220745   3.741   5.631   6.027
 6616SOL     OW20746   3.833   2.159   6.580
 6616SOL    HW120747   3.754   2.186   6.525
 6616SOL    HW220748   3.872   2.240   6.625
 6617SOL     OW20749   3.612   1.282   4.257
 6617SOL    HW120750   3.699   1.315   4.293
 6617SOL    HW220751   3.619   1.273   4.157
 6618SOL     OW20752   6.293   2.705   3.784
 6618SOL    HW120753   6.308   2.783   3.723
 6618SOL    HW220754   6.207   2.718   3.833
 6619SOL     OW20755   4.515   4.767   3.572
 6619SOL    HW120756   4.475   4.784   3.482
 6619SOL    HW220757   4.454   4.707   3.624
 6620SOL     OW20758   1.106   3.272   3.630
 6620SOL    HW120759   1.091   3.175   3.646
 6620SOL    HW220760   1.162   3.284   3.548
 6621SOL     OW20761   3.637   3.650   3.205
 6621SOL    HW120762   3.589   3.581   3.150
 6621SOL    HW220763   3.672   3.722   3.145
 6622SOL     OW20764   6.759   5.056   1.889
 6622SOL    HW120765   6.840   5.014   1.930
 6622SOL    HW220766   6.726   4.998   1.815
 6623SOL     OW20767   3.273   3.270   4.081
 6623SOL    HW120768   3.355   3.290   4.135
 6623SOL    HW220769   3.192   3.290   4.136
 6624SOL     OW20770   2.517   2.484   2.604
 6624SOL    HW120771   2.525   2.424   2.684
 6624SOL    HW220772   2.562   2.441   2.526
 6625SOL     OW20773   0.988   5.153   6.069
 6625SOL    HW120774   1.071   5.205   6.087
 6625SOL    HW220775   1.011   5.056   6.061
 6626SOL     OW20776   3.523   5.755   5.747
 6626SOL    HW120777   3.467   5.757   5.664
 6626SOL    HW220778   3.493   5.828   5.808
 6627SOL     OW20779   2.865   0.500   4.542
 6627SOL    HW120780   2.788   0.507   4.606
 6627SOL    HW220781   2.931   0.434   4.578
 6628SOL     OW20782   3.651   5.991   3.947
 6628SOL    HW120783   3.560   5.969   3.981
 6628SOL    HW220784   3.687   6.070   3.997
 6629SOL     OW20785   5.080   6.082   5.086
 6629SOL    HW120786   5.024   6.085   5.003
 6629SOL    HW220787   5.030   6.126   5.161
 6630SOL     OW20788   1.887   0.319   0.485
 6630SOL    HW120789   1.816   0.278   0.542
 6630SOL    HW220790   1.974   0.275   0.505
 6631SOL     OW20791   1.501   1.483   5.791
 6631SOL    HW120792   1.560   1.535   5.731
 6631SOL    HW220793   1.406   1.513   5.779
 6632SOL     OW20794   1.336   0.494   5.615
 6632SOL    HW120795   1.356   0.468   5.520
 6632SOL    HW220796   1.262   0.436   5.650
 6633SOL     OW20797   4.882   6.905   6.019
 6633SOL    HW120798   4.978   6.906   6.046
 6633SOL    HW220799   4.851   6.810   6.010
 6634SOL     OW20800   2.953   2.177   4.023
 6634SOL    HW120801   2.873   2.210   3.973
 6634SOL    HW220802   3.029   2.164   3.958
 6635SOL     OW20803   4.875   5.630   6.287
 6635SOL    HW120804   4.823   5.681   6.219
 6635SOL    HW220805   4.973   5.636   6.267
 6636SOL     OW20806   4.589   1.471   1.370
 6636SOL    HW120807   4.581   1.505   1.276
 6636SOL    HW220808   4.686   1.466   1.394
 6637SOL     OW20809   0.504   3.586   0.173
 6637SOL    HW120810   0.528   3.537   0.258
 6637SOL    HW220811   0.477   3.520   0.103
 6638SOL     OW20812   2.964   3.262   4.161
 6638SOL    HW120813   2.870   3.235   4.141
 6638SOL    HW220814   2.965   3.314   4.247
 6639SOL     OW20815   5.710   2.974   2.170
 6639SOL    HW120816   5.696   2.914   2.091
 6639SOL    HW220817   5.757   2.923   2.242
 6640SOL     OW20818   0.452   3.603   3.879
 6640SOL    HW120819   0.550   3.606   3.900
 6640SOL    HW220820   0.405   3.550   3.950
 6641SOL     OW20821   5.121   2.153   0.439
 6641SOL    HW120822   5.151   2.247   0.456
 6641SOL    HW220823   5.080   2.116   0.522
 6642SOL     OW20824   0.705   4.989   6.413
 6642SOL    HW120825   0.755   4.912   6.452
 6642SOL    HW220826   0.770   5.053   6.370
 6643SOL     OW20827   5.619   5.573   5.585
 6643SOL    HW120828   5.697   5.556   5.645
 6643SOL    HW220829   5.535   5.567   5.639
 6644SOL     OW20830   2.058   6.140   3.630
 6644SOL    HW120831   2.090   6.157   3.724
 6644SOL    HW220832   1.960   6.125   3.630
 6645SOL     OW20833   4.885   2.840   5.372
 6645SOL    HW120834   4.894   2.850   5.471
 6645SOL    HW220835   4.883   2.743   5.348
 6646SOL     OW20836   4.678   0.094   6.081
 6646SOL    HW120837   4.686   0.139   6.170
 6646SOL    HW220838   4.751   0.027   6.071
 6647SOL     OW20839   2.722   5.115   0.689
 6647SOL    HW120840   2.785   5.143   0.761
 6647SOL    HW220841   2.748   5.024   0.656
 6648SOL     OW20842   3.201   5.810   5.218
 6648SOL    HW120843   3.115   5.764   5.238
 6648SOL    HW220844   3.200   5.901   5.260
 6649SOL     OW20845   5.815   2.740   5.038
 6649SOL    HW120846   5.840   2.802   5.113
 6649SOL    HW220847   5.759   2.666   5.074
 6650SOL     OW20848   2.658   0.756   4.949
 6650SOL    HW120849   2.696   0.830   5.004
 6650SOL    HW220850   2.621   0.793   4.864
 6651SOL     OW20851   6.161   1.021   3.396
 6651SOL    HW120852   6.190   1.093   3.459
 6651SOL    HW220853   6.137   0.939   3.447
 6652SOL     OW20854   6.700   5.363   6.543
 6652SOL    HW120855   6.677   5.460   6.554
 6652SOL    HW220856   6.796   5.349   6.569
 6653SOL     OW20857   5.861   3.576   0.045
 6653SOL    HW120858   5.829   3.529   6.982
 6653SOL    HW220859   5.941   3.632   0.022
 6654SOL     OW20860   6.719   1.703   3.275
 6654SOL    HW120861   6.761   1.704   3.185
 6654SOL    HW220862   6.776   1.756   3.338
 6655SOL     OW20863   6.910   5.461   1.647
 6655SOL    HW120864   6.937   5.518   1.725
 6655SOL    HW220865   6.919   5.365   1.671
 6656SOL     OW20866   5.153   1.340   2.246
 6656SOL    HW120867   5.069   1.293   2.217
 6656SOL    HW220868   5.137   1.439   2.246
 6657SOL     OW20869   4.604   1.932   4.085
 6657SOL    HW120870   4.638   2.004   4.024
 6657SOL    HW220871   4.669   1.855   4.084
 6658SOL     OW20872   6.364   6.091   4.162
 6658SOL    HW120873   6.385   6.093   4.260
 6658SOL    HW220874   6.404   6.009   4.121
 6659SOL     OW20875   0.868   6.542   0.972
 6659SOL    HW120876   0.884   6.636   0.942
 6659SOL    HW220877   0.786   6.539   1.029
 6660SOL     OW20878   1.386   0.816   3.846
 6660SOL    HW120879   1.440   0.899   3.834
 6660SOL    HW220880   1.427   0.758   3.916
 6661SOL     OW20881   3.993   6.399   3.601
 6661SOL    HW120882   4.034   6.390   3.692
 6661SOL    HW220883   3.899   6.433   3.611
 6662SOL     OW20884   4.144   6.278   1.610
 6662SOL    HW120885   4.188   6.368   1.615
 6662SOL    HW220886   4.205   6.214   1.564
 6663SOL     OW20887   1.644   4.017   5.151
 6663SOL    HW120888   1.642   3.924   5.189
 6663SOL    HW220889   1.695   4.017   5.065
 6664SOL     OW20890   3.454   6.886   1.671
 6664SOL    HW120891   3.380   6.851   1.729
 6664SOL    HW220892   3.496   6.965   1.715
 6665SOL     OW20893   2.892   0.403   6.493
 6665SOL    HW120894   2.851   0.493   6.479
 6665SOL    HW220895   2.942   0.403   6.580
 6666SOL     OW20896   2.985   6.785   5.907
 6666SOL    HW120897   3.041   6.854   5.861
 6666SOL    HW220898   2.910   6.830   5.955
 6667SOL     OW20899   1.681   5.640   6.967
 6667SOL    HW120900   1.626   5.724   6.972
 6667SOL    HW220901   1.758   5.654   6.904
 6668SOL     OW20902   0.179   3.791   5.887
 6668SOL    HW120903   0.235   3.795   5.970
 6668SOL    HW220904   0.089   3.830   5.906
 6669SOL     OW20905   0.484   3.518   3.632
 6669SOL    HW120906   0.472   3.564   3.720
 6669SOL    HW220907   0.574   3.541   3.595
 6670SOL     OW20908   2.532   4.099   0.776
 6670SOL    HW120909   2.515   4.060   0.686
 6670SOL    HW220910   2.548   4.197   0.767
 6671SOL     OW20911   5.058   5.009   0.605
 6671SOL    HW120912   5.123   5.069   0.559
 6671SOL    HW220913   5.099   4.918   0.617
 6672SOL     OW20914   1.816   2.412   0.915
 6672SOL    HW120915   1.820   2.312   0.919
 6672SOL    HW220916   1.771   2.440   0.830
 6673SOL     OW20917   5.577   3.868   4.424
 6673SOL    HW120918   5.640   3.810   4.476
 6673SOL    HW220919   5.519   3.810   4.366
 6674SOL     OW20920   6.340   1.345   6.860
 6674SOL    HW120921   6.338   1.384   6.768
 6674SOL    HW220922   6.287   1.403   6.922
 6675SOL     OW20923   5.066   1.085   0.725
 6675SOL    HW120924   5.134   1.023   0.765
 6675SOL    HW220925   4.979   1.074   0.772
 6676SOL     OW20926   0.861   3.489   5.600
 6676SOL    HW120927   0.938   3.481   5.665
 6676SOL    HW220928   0.789   3.544   5.642
 6677SOL     OW20929   0.737   2.318   0.042
 6677SOL    HW120930   0.711   2.312   0.139
 6677SOL    HW220931   0.811   2.255   0.023
 6678SOL     OW20932   3.232   4.357   6.673
 6678SOL    HW120933   3.330   4.350   6.656
 6678SOL    HW220934   3.184   4.378   6.588
 6679SOL     OW20935   1.558   0.186   3.536
 6679SOL    HW120936   1.643   0.238   3.533
 6679SOL    HW220937   1.523   0.173   3.443
 6680SOL     OW20938   6.454   5.621   1.811
 6680SOL    HW120939   6.457   5.548   1.744
 6680SOL    HW220940   6.547   5.654   1.829
 6681SOL     OW20941   3.261   6.142   0.959
 6681SOL    HW120942   3.337   6.129   1.023
 6681SOL    HW220943   3.174   6.130   1.007
 6682SOL     OW20944   2.595   4.917   6.483
 6682SOL    HW120945   2.499   4.931   6.508
 6682SOL    HW220946   2.610   4.820   6.463
 6683SOL     OW20947   6.852   6.155   6.474
 6683SOL    HW120948   6.872   6.071   6.523
 6683SOL    HW220949   6.936   6.190   6.432
 6684SOL     OW20950   2.966   6.972   6.133
 6684SOL    HW120951   2.955   6.897   6.199
 6684SOL    HW220952   3.063   6.987   6.116
 6685SOL     OW20953   3.956   2.986   0.986
 6685SOL    HW120954   3.876   2.961   1.041
 6685SOL    HW220955   3.943   3.077   0.947
 6686SOL     OW20956   4.701   4.515   5.436
 6686SOL    HW120957   4.676   4.534   5.341
 6686SOL    HW220958   4.794   4.479   5.439
 6687SOL     OW20959   0.021   2.809   0.987
 6687SOL    HW120960   0.085   2.872   0.943
 6687SOL    HW220961   6.963   2.793   0.927
 6688SOL     OW20962   5.616   6.110   0.366
 6688SOL    HW120963   5.690   6.048   0.337
 6688SOL    HW220964   5.656   6.197   0.396
 6689SOL     OW20965   3.795   4.468   5.677
 6689SOL    HW120966   3.874   4.529   5.683
 6689SOL    HW220967   3.782   4.423   5.765
 6690SOL     OW20968   1.353   0.057   6.881
 6690SOL    HW120969   1.298   0.029   6.959
 6690SOL    HW220970   1.387   6.996   6.833
 6691SOL     OW20971   2.041   1.953   2.254
 6691SOL    HW120972   2.005   2.044   2.237
 6691SOL    HW220973   2.135   1.948   2.221
 6692SOL     OW20974   4.072   6.210   2.089
 6692SOL    HW120975   4.157   6.166   2.119
 6692SOL    HW220976   4.067   6.205   1.989
 6693SOL     OW20977   2.885   1.174   6.075
 6693SOL    HW120978   2.935   1.146   6.157
 6693SOL    HW220979   2.871   1.273   6.077
 6694SOL     OW20980   4.452   4.073   1.693
 6694SOL    HW120981   4.425   4.152   1.748
 6694SOL    HW220982   4.493   4.106   1.607
 6695SOL     OW20983   3.288   2.275   0.153
 6695SOL    HW120984   3.237   2.361   0.156
 6695SOL    HW220985   3.364   2.284   0.088
 6696SOL     OW20986   3.435   3.154   5.092
 6696SOL    HW120987   3.438   3.087   5.165
 6696SOL    HW220988   3.514   3.140   5.031
 6697SOL     OW20989   4.980   1.058   2.810
 6697SOL    HW120990   4.923   1.034   2.888
 6697SOL    HW220991   4.937   1.132   2.758
 6698SOL     OW20992   3.014   3.728   1.410
 6698SOL    HW120993   3.083   3.700   1.343
 6698SOL    HW220994   3.050   3.803   1.465
 6699SOL     OW20995   1.179   3.634   6.245
 6699SOL    HW120996   1.270   3.659   6.276
 6699SOL    HW220997   1.163   3.537   6.266
 6700SOL     OW20998   5.169   0.115   1.122
 6700SOL    HW120999   5.122   0.197   1.090
 6700SOL    HW221000   5.135   0.035   1.072
 6701SOL     OW21001   6.369   6.645   1.559
 6701SOL    HW121002   6.300   6.682   1.496
 6701SOL    HW221003   6.380   6.707   1.636
 6702SOL     OW21004   4.974   2.595   1.355
 6702SOL    HW121005   4.884   2.557   1.377
 6702SOL    HW221006   5.012   2.547   1.275
 6703SOL     OW21007   0.136   1.118   0.823
 6703SOL    HW121008   0.092   1.036   0.859
 6703SOL    HW221009   0.137   1.189   0.893
 6704SOL     OW21010   2.604   6.170   6.399
 6704SOL    HW121011   2.639   6.125   6.317
 6704SOL    HW221012   2.531   6.234   6.374
 6705SOL     OW21013   1.203   4.191   2.967
 6705SOL    HW121014   1.139   4.159   3.036
 6705SOL    HW221015   1.219   4.289   2.979
 6706SOL     OW21016   0.513   5.717   1.520
 6706SOL    HW121017   0.457   5.744   1.442
 6706SOL    HW221018   0.581   5.788   1.538
 6707SOL     OW21019   5.014   0.784   2.815
 6707SOL    HW121020   4.989   0.873   2.777
 6707SOL    HW221021   5.102   0.792   2.862
 6708SOL     OW21022   0.232   3.309   0.949
 6708SOL    HW121023   0.170   3.282   0.875
 6708SOL    HW221024   0.237   3.408   0.954
 6709SOL     OW21025   2.133   4.057   1.638
 6709SOL    HW121026   2.038   4.030   1.651
 6709SOL    HW221027   2.155   4.055   1.541
 6710SOL     OW21028   4.672   2.124   2.089
 6710SOL    HW121029   4.731   2.121   2.008
 6710SOL    HW221030   4.694   2.205   2.143
 6711SOL     OW21031   4.516   5.561   5.980
 6711SOL    HW121032   4.518   5.660   5.988
 6711SOL    HW221033   4.485   5.521   6.066
 6712SOL     OW21034   5.653   3.680   1.104
 6712SOL    HW121035   5.704   3.601   1.139
 6712SOL    HW221036   5.628   3.663   1.008
 6713SOL     OW21037   2.221   4.641   4.404
 6713SOL    HW121038   2.215   4.656   4.502
 6713SOL    HW221039   2.301   4.584   4.384
 6714SOL     OW21040   6.124   1.035   2.455
 6714SOL    HW121041   6.026   1.015   2.447
 6714SOL    HW221042   6.169   0.965   2.510
 6715SOL     OW21043   0.884   6.604   5.397
 6715SOL    HW121044   0.844   6.657   5.471
 6715SOL    HW221045   0.938   6.665   5.338
 6716SOL     OW21046   1.528   4.576   1.898
 6716SOL    HW121047   1.613   4.574   1.951
 6716SOL    HW221048   1.491   4.483   1.891
 6717SOL     OW21049   6.250   2.376   5.338
 6717SOL    HW121050   6.319   2.445   5.314
 6717SOL    HW221051   6.237   2.314   5.261
 6718SOL     OW21052   4.700   2.309   0.848
 6718SOL    HW121053   4.617   2.361   0.870
 6718SOL    HW221054   4.778   2.350   0.895
 6719SOL     OW21055   1.758   0.473   0.272
 6719SOL    HW121056   1.784   0.451   0.178
 6719SOL    HW221057   1.835   0.452   0.333
 6720SOL     OW21058   1.414   1.771   4.483
 6720SOL    HW121059   1.491   1.806   4.537
 6720SOL    HW221060   1.448   1.733   4.397
 6721SOL     OW21061   6.282   6.559   0.398
 6721SOL    HW121062   6.381   6.570   0.385
 6721SOL    HW221063   6.254   6.469   0.363
 6722SOL     OW21064   6.769   4.026   1.459
 6722SOL    HW121065   6.801   4.028   1.554
 6722SOL    HW221066   6.772   3.932   1.425
 6723SOL     OW21067   2.121   3.595   4.257
 6723SOL    HW121068   2.140   3.605   4.355
 6723SOL    HW221069   2.144   3.502   4.228
 6724SOL     OW21070   1.909   3.204   5.182
 6724SOL    HW121071   1.912   3.259   5.266
 6724SOL    HW221072   1.916   3.264   5.102
 6725SOL     OW21073   4.555   2.631   3.488
 6725SOL    HW121074   4.502   2.702   3.442
 6725SOL    HW221075   4.587   2.565   3.421
 6726SOL     OW21076   0.029   1.354   6.811
 6726SOL    HW121077   0.128   1.365   6.795
 6726SOL    HW221078   0.015   1.302   6.895
 6727SOL     OW21079   0.833   5.283   5.558
 6727SOL    HW121080   0.897   5.207   5.552
 6727SOL    HW221081   0.867   5.361   5.505
 6728SOL     OW21082   3.533   1.461   5.050
 6728SOL    HW121083   3.531   1.517   5.133
 6728SOL    HW221084   3.628   1.453   5.018
 6729SOL     OW21085   4.112   1.211   2.615
 6729SOL    HW121086   4.047   1.191   2.541
 6729SOL    HW221087   4.162   1.128   2.638
 6730SOL     OW21088   0.302   2.046   1.387
 6730SOL    HW121089   0.282   2.120   1.451
 6730SOL    HW221090   0.227   1.979   1.389
 6731SOL     OW21091   3.706   0.580   5.930
 6731SOL    HW121092   3.772   0.653   5.946
 6731SOL    HW221093   3.726   0.503   5.992
 6732SOL     OW21094   5.939   5.002   5.973
 6732SOL    HW121095   5.858   5.007   6.031
 6732SOL    HW221096   5.912   4.984   5.879
 6733SOL     OW21097   5.382   4.709   5.638
 6733SOL    HW121098   5.291   4.749   5.652
 6733SOL    HW221099   5.396   4.693   5.541
 6734SOL     OW21100   5.435   1.853   5.584
 6734SOL    HW121101   5.483   1.896   5.508
 6734SOL    HW221102   5.474   1.762   5.601
 6735SOL     OW21103   5.858   2.745   4.769
 6735SOL    HW121104   5.951   2.710   4.754
 6735SOL    HW221105   5.833   2.733   4.865
 6736SOL     OW21106   3.834   3.499   0.363
 6736SOL    HW121107   3.836   3.585   0.414
 6736SOL    HW221108   3.803   3.425   0.423
 6737SOL     OW21109   6.305   3.114   1.260
 6737SOL    HW121110   6.254   3.192   1.223
 6737SOL    HW221111   6.283   3.102   1.357
 6738SOL     OW21112   1.912   6.822   3.477
 6738SOL    HW121113   1.980   6.831   3.550
 6738SOL    HW221114   1.824   6.798   3.516
 6739SOL     OW21115   0.541   0.265   5.468
 6739SOL    HW121116   0.502   0.191   5.414
 6739SOL    HW221117   0.641   0.257   5.469
 6740SOL     OW21118   0.917   6.744   1.879
 6740SOL    HW121119   0.829   6.701   1.857
 6740SOL    HW221120   0.957   6.700   1.959
 6741SOL     OW21121   3.180   2.058   0.272
 6741SOL    HW121122   3.226   2.122   0.211
 6741SOL    HW221123   3.084   2.051   0.247
 6742SOL     OW21124   6.775   5.231   2.563
 6742SOL    HW121125   6.831   5.149   2.579
 6742SOL    HW221126   6.821   5.290   2.497
 6743SOL     OW21127   3.516   4.325   6.847
 6743SOL    HW121128   3.464   4.369   6.920
 6743SOL    HW221129   3.475   4.237   6.824
 6744SOL     OW21130   6.806   6.312   5.934
 6744SOL    HW121131   6.865   6.236   5.906
 6744SOL    HW221132   6.760   6.288   6.019
 6745SOL     OW21133   5.630   3.352   5.053
 6745SOL    HW121134   5.634   3.321   5.148
 6745SOL    HW221135   5.536   3.342   5.018
 6746SOL     OW21136   1.621   2.528   2.637
 6746SOL    HW121137   1.706   2.561   2.678
 6746SOL    HW221138   1.572   2.470   2.702
 6747SOL     OW21139   0.842   5.947   5.497
 6747SOL    HW121140   0.824   5.919   5.591
 6747SOL    HW221141   0.861   6.046   5.495
 6748SOL     OW21142   1.376   2.636   3.774
 6748SOL    HW121143   1.294   2.596   3.815
 6748SOL    HW221144   1.355   2.730   3.744
 6749SOL     OW21145   3.558   5.028   2.579
 6749SOL    HW121146   3.544   5.017   2.480
 6749SOL    HW221147   3.496   4.968   2.629
 6750SOL     OW21148   3.981   0.225   5.369
 6750SOL    HW121149   3.970   0.289   5.445
 6750SOL    HW221150   3.891   0.206   5.328
 6751SOL     OW21151   3.933   1.089   4.212
 6751SOL    HW121152   3.877   1.139   4.278
 6751SOL    HW221153   3.916   1.125   4.120
 6752SOL     OW21154   2.076   5.258   2.911
 6752SOL    HW121155   1.989   5.297   2.882
 6752SOL    HW221156   2.060   5.195   2.987
 6753SOL     OW21157   3.453   4.645   6.807
 6753SOL    HW121158   3.357   4.663   6.786
 6753SOL    HW221159   3.486   4.567   6.754
 6754SOL     OW21160   5.820   0.484   0.496
 6754SOL    HW121161   5.812   0.583   0.509
 6754SOL    HW221162   5.752   0.454   0.428
 6755SOL     OW21163   3.335   5.602   5.333
 6755SOL    HW121164   3.308   5.679   5.275
 6755SOL    HW221165   3.360   5.635   5.424
 6756SOL     OW21166   4.273   3.182   5.351
 6756SOL    HW121167   4.267   3.236   5.267
 6756SOL    HW221168   4.333   3.104   5.336
 6757SOL     OW21169   4.127   6.905   1.665
 6757SOL    HW121170   4.122   6.807   1.684
 6757SOL    HW221171   4.048   6.932   1.609
 6758SOL     OW21172   5.401   2.358   3.314
 6758SOL    HW121173   5.334   2.299   3.359
 6758SOL    HW221174   5.463   2.303   3.258
 6759SOL     OW21175   1.580   2.628   1.931
 6759SOL    HW121176   1.584   2.656   1.835
 6759SOL    HW221177   1.537   2.700   1.985
 6760SOL     OW21178   5.096   1.777   5.939
 6760SOL    HW121179   5.046   1.840   5.998
 6760SOL    HW221180   5.090   1.809   5.844
 6761SOL     OW21181   2.437   0.334   5.130
 6761SOL    HW121182   2.521   0.315   5.079
 6761SOL    HW221183   2.438   0.430   5.160
 6762SOL     OW21184   5.368   4.619   4.298
 6762SOL    HW121185   5.272   4.593   4.305
 6762SOL    HW221186   5.410   4.576   4.218
 6763SOL     OW21187   5.757   5.537   3.410
 6763SOL    HW121188   5.693   5.502   3.478
 6763SOL    HW221189   5.781   5.631   3.430
 6764SOL     OW21190   1.142   4.608   2.114
 6764SOL    HW121191   1.142   4.508   2.115
 6764SOL    HW221192   1.063   4.641   2.063
 6765SOL     OW21193   6.913   4.635   3.288
 6765SOL    HW121194   6.816   4.657   3.283
 6765SOL    HW221195   6.945   4.601   3.200
 6766SOL     OW21196   6.116   0.157   1.485
 6766SOL    HW121197   6.193   0.093   1.480
 6766SOL    HW221198   6.091   0.187   1.393
 6767SOL     OW21199   3.403   0.361   1.401
 6767SOL    HW121200   3.442   0.403   1.482
 6767SOL    HW221201   3.348   0.282   1.428
 6768SOL     OW21202   2.087   0.207   6.364
 6768SOL    HW121203   2.164   0.177   6.308
 6768SOL    HW221204   2.117   0.218   6.458
 6769SOL     OW21205   5.653   2.833   1.319
 6769SOL    HW121206   5.691   2.880   1.240
 6769SOL    HW221207   5.649   2.896   1.397
 6770SOL     OW21208   0.211   1.740   1.610
 6770SOL    HW121209   0.240   1.663   1.554
 6770SOL    HW221210   0.184   1.816   1.550
 6771SOL     OW21211   4.848   1.238   3.489
 6771SOL    HW121212   4.787   1.304   3.534
 6771SOL    HW221213   4.843   1.150   3.537
 6772SOL     OW21214   3.347   1.255   4.893
 6772SOL    HW121215   3.291   1.257   4.976
 6772SOL    HW221216   3.360   1.348   4.859
 6773SOL     OW21217   6.935   3.438   2.057
 6773SOL    HW121218   6.984   3.499   1.994
 6773SOL    HW221219   6.957   3.463   2.151
 6774SOL     OW21220   1.676   1.826   5.899
 6774SOL    HW121221   1.681   1.923   5.876
 6774SOL    HW221222   1.678   1.772   5.815
 6775SOL     OW21223   0.300   3.245   0.517
 6775SOL    HW121224   0.280   3.256   0.419
 6775SOL    HW221225   0.344   3.157   0.531
 6776SOL     OW21226   5.864   6.307   6.544
 6776SOL    HW121227   5.793   6.270   6.484
 6776SOL    HW221228   5.944   6.332   6.490
 6777SOL     OW21229   4.358   4.800   6.938
 6777SOL    HW121230   4.265   4.781   6.970
 6777SOL    HW221231   4.374   4.899   6.940
 6778SOL     OW21232   6.616   5.364   3.113
 6778SOL    HW121233   6.530   5.325   3.147
 6778SOL    HW221234   6.626   5.343   3.016
 6779SOL     OW21235   5.296   3.178   6.417
 6779SOL    HW121236   5.354   3.259   6.425
 6779SOL    HW221237   5.333   3.119   6.345
 6780SOL     OW21238   0.998   2.703   1.564
 6780SOL    HW121239   0.944   2.657   1.493
 6780SOL    HW221240   1.036   2.635   1.626
 6781SOL     OW21241   5.469   4.296   5.366
 6781SOL    HW121242   5.469   4.396   5.362
 6781SOL    HW221243   5.531   4.265   5.438
 6782SOL     OW21244   6.232   1.564   3.914
 6782SOL    HW121245   6.244   1.580   4.012
 6782SOL    HW221246   6.146   1.606   3.885
 6783SOL     OW21247   1.333   5.471   6.734
 6783SOL    HW121248   1.278   5.551   6.710
 6783SOL    HW221249   1.275   5.390   6.737
 6784SOL     OW21250   4.392   3.524   0.340
 6784SOL    HW121251   4.301   3.555   0.366
 6784SOL    HW221252   4.394   3.509   0.241
 6785SOL     OW21253   5.446   5.646   1.893
 6785SOL    HW121254   5.357   5.634   1.936
 6785SOL    HW221255   5.505   5.702   1.952
 6786SOL     OW21256   1.641   3.477   5.254
 6786SOL    HW121257   1.693   3.430   5.326
 6786SOL    HW221258   1.670   3.443   5.165
 6787SOL     OW21259   0.968   3.913   2.145
 6787SOL    HW121260   0.936   4.007   2.132
 6787SOL    HW221261   0.891   3.855   2.171
 6788SOL     OW21262   2.628   3.949   0.969
 6788SOL    HW121263   2.717   3.970   1.011
 6788SOL    HW221264   2.614   4.008   0.890
 6789SOL     OW21265   2.040   4.555   3.018
 6789SOL    HW121266   1.976   4.631   3.031
 6789SOL    HW221267   2.083   4.533   3.105
 6790SOL     OW21268   1.106   3.147   0.406
 6790SOL    HW121269   1.050   3.184   0.332
 6790SOL    HW221270   1.126   3.220   0.472
 6791SOL     OW21271   3.741   3.889   5.785
 6791SOL    HW121272   3.779   3.956   5.722
 6791SOL    HW221273   3.802   3.810   5.791
 6792SOL     OW21274   0.474   5.228   0.489
 6792SOL    HW121275   0.464   5.283   0.406
 6792SOL    HW221276   0.571   5.207   0.504
 6793SOL     OW21277   5.649   1.238   1.051
 6793SOL    HW121278   5.741   1.210   1.023
 6793SOL    HW221279   5.655   1.311   1.119
 6794SOL     OW21280   3.035   1.567   4.805
 6794SOL    HW121281   3.124   1.586   4.847
 6794SOL    HW221282   2.969   1.544   4.877
 6795SOL     OW21283   3.889   5.906   6.921
 6795SOL    HW121284   3.959   5.911   6.849
 6795SOL    HW221285   3.813   5.848   6.889
 6796SOL     OW21286   4.096   1.891   2.434
 6796SOL    HW121287   4.081   1.985   2.464
 6796SOL    HW221288   4.110   1.833   2.514
 6797SOL     OW21289   6.562   2.751   2.730
 6797SOL    HW121290   6.591   2.844   2.711
 6797SOL    HW221291   6.576   2.695   2.648
 6798SOL     OW21292   6.291   6.903   2.207
 6798SOL    HW121293   6.256   6.814   2.236
 6798SOL    HW221294   6.315   6.900   2.110
 6799SOL     OW21295   5.093   6.077   2.455
 6799SOL    HW121296   5.114   5.986   2.418
 6799SOL    HW221297   5.144   6.090   2.540
 6800SOL     OW21298   3.523   3.977   6.431
 6800SOL    HW121299   3.536   3.883   6.464
 6800SOL    HW221300   3.576   4.040   6.488
 6801SOL     OW21301   0.670   2.906   3.136
 6801SOL    HW121302   0.621   2.905   3.048
 6801SOL    HW221303   0.706   2.815   3.156
 6802SOL     OW21304   3.244   4.985   2.524
 6802SOL    HW121305   3.197   5.070   2.546
 6802SOL    HW221306   3.184   4.928   2.467
 6803SOL     OW21307   4.063   2.504   0.222
 6803SOL    HW121308   4.108   2.583   0.263
 6803SOL    HW221309   3.996   2.536   0.155
 6804SOL     OW21310   1.679   5.787   3.825
 6804SOL    HW121311   1.628   5.840   3.893
 6804SOL    HW221312   1.625   5.780   3.741
 6805SOL     OW21313   6.220   1.658   5.584
 6805SOL    HW121314   6.287   1.730   5.602
 6805SOL    HW221315   6.158   1.649   5.662
 6806SOL     OW21316   4.774   6.009   5.103
 6806SOL    HW121317   4.749   6.106   5.110
 6806SOL    HW221318   4.734   5.970   5.020
 6807SOL     OW21319   4.213   3.449   6.802
 6807SOL    HW121320   4.292   3.405   6.759
 6807SOL    HW221321   4.243   3.526   6.858
 6808SOL     OW21322   2.474   4.543   4.204
 6808SOL    HW121323   2.436   4.458   4.240
 6808SOL    HW221324   2.487   4.535   4.105
 6809SOL     OW21325   1.483   3.405   0.029
 6809SOL    HW121326   1.385   3.406   0.046
 6809SOL    HW221327   1.529   3.355   0.103
 6810SOL     OW21328   6.154   1.395   3.597
 6810SOL    HW121329   6.093   1.425   3.670
 6810SOL    HW221330   6.245   1.435   3.610
 6811SOL     OW21331   5.388   6.151   2.643
 6811SOL    HW121332   5.376   6.055   2.621
 6811SOL    HW221333   5.486   6.171   2.653
 6812SOL     OW21334   3.840   2.989   2.822
 6812SOL    HW121335   3.854   2.987   2.723
 6812SOL    HW221336   3.916   3.036   2.865
 6813SOL     OW21337   5.355   3.872   1.055
 6813SOL    HW121338   5.278   3.824   1.012
 6813SOL    HW221339   5.336   3.970   1.055
 6814SOL     OW21340   2.303   2.597   0.593
 6814SOL    HW121341   2.316   2.526   0.524
 6814SOL    HW221342   2.391   2.642   0.611
 6815SOL     OW21343   1.789   0.129   0.264
 6815SOL    HW121344   1.706   0.153   0.213
 6815SOL    HW221345   1.806   0.199   0.334
 6816SOL     OW21346   5.069   4.661   1.314
 6816SOL    HW121347   5.130   4.737   1.335
 6816SOL    HW221348   5.021   4.633   1.396
 6817SOL     OW21349   1.827   2.464   5.963
 6817SOL    HW121350   1.888   2.392   5.996
 6817SOL    HW221351   1.792   2.517   6.040
 6818SOL     OW21352   4.261   4.968   1.406
 6818SOL    HW121353   4.255   4.935   1.311
 6818SOL    HW221354   4.300   5.060   1.406
 6819SOL     OW21355   2.381   1.785   3.868
 6819SOL    HW121356   2.476   1.755   3.866
 6819SOL    HW221357   2.373   1.872   3.820
 6820SOL     OW21358   1.582   5.212   4.775
 6820SOL    HW121359   1.551   5.145   4.707
 6820SOL    HW221360   1.617   5.293   4.728
 6821SOL     OW21361   2.349   2.748   3.916
 6821SOL    HW121362   2.333   2.755   4.014
 6821SOL    HW221363   2.366   2.839   3.878
 6822SOL     OW21364   5.070   1.370   5.787
 6822SOL    HW121365   5.078   1.440   5.716
 6822SOL    HW221366   5.065   1.279   5.745
 6823SOL     OW21367   4.095   3.426   2.044
 6823SOL    HW121368   4.140   3.493   1.985
 6823SOL    HW221369   4.004   3.459   2.070
 6824SOL     OW21370   0.493   5.592   5.247
 6824SOL    HW121371   0.418   5.659   5.251
 6824SOL    HW221372   0.455   5.502   5.224
 6825SOL     OW21373   5.627   0.737   4.974
 6825SOL    HW121374   5.713   0.785   4.993
 6825SOL    HW221375   5.583   0.711   5.060
 6826SOL     OW21376   0.849   3.070   3.429
 6826SOL    HW121377   0.751   3.059   3.410
 6826SOL    HW221378   0.872   3.022   3.514
 6827SOL     OW21379   4.289   5.122   5.048
 6827SOL    HW121380   4.278   5.066   4.966
 6827SOL    HW221381   4.385   5.148   5.059
 6828SOL     OW21382   2.220   1.916   0.786
 6828SOL    HW121383   2.246   1.824   0.816
 6828SOL    HW221384   2.296   1.958   0.736
 6829SOL     OW21385   5.840   4.805   3.676
 6829SOL    HW121386   5.854   4.742   3.752
 6829SOL    HW221387   5.816   4.895   3.712
 6830SOL     OW21388   5.218   1.522   3.643
 6830SOL    HW121389   5.220   1.503   3.545
 6830SOL    HW221390   5.192   1.439   3.693
 6831SOL     OW21391   0.615   1.837   6.036
 6831SOL    HW121392   0.567   1.925   6.039
 6831SOL    HW221393   0.594   1.785   6.119
 6832SOL     OW21394   2.434   5.286   1.219
 6832SOL    HW121395   2.356   5.224   1.232
 6832SOL    HW221396   2.408   5.360   1.157
 6833SOL     OW21397   4.296   5.979   0.103
 6833SOL    HW121398   4.284   5.881   0.121
 6833SOL    HW221399   4.209   6.026   0.115
 6834SOL     OW21400   2.576   5.020   2.606
 6834SOL    HW121401   2.563   4.922   2.622
 6834SOL    HW221402   2.618   5.062   2.686
 6835SOL     OW21403   3.375   6.726   4.597
 6835SOL    HW121404   3.434   6.649   4.619
 6835SOL    HW221405   3.340   6.716   4.504
 6836SOL     OW21406   3.910   5.710   0.107
 6836SOL    HW121407   3.907   5.764   0.023
 6836SOL    HW221408   3.842   5.745   0.171
 6837SOL     OW21409   0.421   3.461   2.984
 6837SOL    HW121410   0.468   3.388   2.935
 6837SOL    HW221411   0.394   3.429   3.075
 6838SOL     OW21412   2.541   1.972   0.910
 6838SOL    HW121413   2.552   2.054   0.967
 6838SOL    HW221414   2.502   1.999   0.822
 6839SOL     OW21415   3.722   1.173   2.032
 6839SOL    HW121416   3.704   1.085   2.076
 6839SOL    HW221417   3.649   1.237   2.054
 6840SOL     OW21418   0.846   0.582   5.792
 6840SOL    HW121419   0.911   0.554   5.862
 6840SOL    HW221420   0.851   0.681   5.779
 6841SOL     OW21421   7.004   3.051   5.868
 6841SOL    HW121422   0.046   2.994   5.815
 6841SOL    HW221423   0.003   3.148   5.850
 6842SOL     OW21424   2.551   4.757   2.645
 6842SOL    HW121425   2.470   4.735   2.592
 6842SOL    HW221426   2.554   4.699   2.727
 6843SOL     OW21427   4.743   6.903   1.321
 6843SOL    HW121428   4.648   6.934   1.325
 6843SOL    HW221429   4.803   6.982   1.311
 6844SOL     OW21430   5.549   0.496   5.664
 6844SOL    HW121431   5.586   0.415   5.617
 6844SOL    HW221432   5.593   0.505   5.753
 6845SOL     OW21433   5.429   2.095   2.477
 6845SOL    HW121434   5.418   2.176   2.534
 6845SOL    HW221435   5.356   2.093   2.408
 6846SOL     OW21436   2.074   3.603   0.119
 6846SOL    HW121437   2.083   3.625   0.022
 6846SOL    HW221438   1.982   3.567   0.137
 6847SOL     OW21439   6.818   2.390   3.469
 6847SOL    HW121440   6.729   2.355   3.497
 6847SOL    HW221441   6.810   2.437   3.381
 6848SOL     OW21442   6.737   5.146   4.284
 6848SOL    HW121443   6.742   5.046   4.280
 6848SOL    HW221444   6.664   5.178   4.224
 6849SOL     OW21445   3.058   3.914   5.425
 6849SOL    HW121446   2.977   3.955   5.383
 6849SOL    HW221447   3.109   3.862   5.356
 6850SOL     OW21448   5.520   0.862   4.746
 6850SOL    HW121449   5.586   0.813   4.803
 6850SOL    HW221450   5.434   0.809   4.742
 6851SOL     OW21451   2.014   4.457   3.300
 6851SOL    HW121452   1.925   4.413   3.314
 6851SOL    HW221453   2.061   4.466   3.387
 6852SOL     OW21454   4.672   2.997   0.617
 6852SOL    HW121455   4.756   2.943   0.624
 6852SOL    HW221456   4.678   3.058   0.537
 6853SOL     OW21457   4.345   5.070   5.796
 6853SOL    HW121458   4.306   4.998   5.852
 6853SOL    HW221459   4.301   5.157   5.818
 6854SOL     OW21460   5.104   6.310   5.260
 6854SOL    HW121461   5.198   6.345   5.253
 6854SOL    HW221462   5.095   6.256   5.344
 6855SOL     OW21463   3.707   5.445   2.595
 6855SOL    HW121464   3.735   5.349   2.591
 6855SOL    HW221465   3.691   5.480   2.503
 6856SOL     OW21466   6.460   2.771   0.564
 6856SOL    HW121467   6.376   2.799   0.518
 6856SOL    HW221468   6.447   2.681   0.606
 6857SOL     OW21469   1.978   4.759   6.272
 6857SOL    HW121470   2.046   4.831   6.274
 6857SOL    HW221471   1.979   4.708   6.358
 6858SOL     OW21472   1.101   3.664   2.029
 6858SOL    HW121473   1.081   3.756   1.994
 6858SOL    HW221474   1.169   3.671   2.102
 6859SOL     OW21475   2.458   2.406   0.991
 6859SOL    HW121476   2.389   2.388   1.062
 6859SOL    HW221477   2.414   2.406   0.901
 6860SOL     OW21478   0.428   0.055   0.081
 6860SOL    HW121479   0.363   0.075   0.154
 6860SOL    HW221480   0.496   0.128   0.075
 6861SOL     OW21481   6.499   3.369   6.985
 6861SOL    HW121482   6.525   3.323   6.900
 6861SOL    HW221483   6.450   3.453   6.964
 6862SOL     OW21484   0.896   4.666   3.216
 6862SOL    HW121485   0.939   4.699   3.300
 6862SOL    HW221486   0.799   4.646   3.233
 6863SOL     OW21487   5.040   1.111   5.681
 6863SOL    HW121488   5.040   1.042   5.754
 6863SOL    HW221489   5.126   1.103   5.629
 6864SOL     OW21490   2.250   3.323   6.497
 6864SOL    HW121491   2.226   3.270   6.416
 6864SOL    HW221492   2.318   3.392   6.473
 6865SOL     OW21493   1.743   0.494   3.163
 6865SOL    HW121494   1.819   0.458   3.109
 6865SOL    HW221495   1.662   0.437   3.148
 6866SOL     OW21496   1.897   4.817   0.147
 6866SOL    HW121497   1.911   4.727   0.188
 6866SOL    HW221498   1.984   4.867   0.146
 6867SOL     OW21499   2.056   2.601   6.396
 6867SOL    HW121500   2.100   2.624   6.310
 6867SOL    HW221501   1.990   2.527   6.382
 6868SOL     OW21502   3.812   5.121   3.298
 6868SOL    HW121503   3.789   5.192   3.365
 6868SOL    HW221504   3.742   5.050   3.299
 6869SOL     OW21505   1.536   0.504   5.153
 6869SOL    HW121506   1.558   0.461   5.066
 6869SOL    HW221507   1.614   0.498   5.215
 6870SOL     OW21508   5.882   2.981   6.724
 6870SOL    HW121509   5.925   3.034   6.796
 6870SOL    HW221510   5.912   2.886   6.730
 6871SOL     OW21511   6.119   2.281   3.220
 6871SOL    HW121512   6.149   2.270   3.315
 6871SOL    HW221513   6.123   2.378   3.195
 6872SOL     OW21514   1.723   5.104   0.983
 6872SOL    HW121515   1.769   5.106   0.894
 6872SOL    HW221516   1.634   5.061   0.974
 6873SOL     OW21517   0.780   3.738   2.201
 6873SOL    HW121518   0.799   3.640   2.207
 6873SOL    HW221519   0.704   3.762   2.262
 6874SOL     OW21520   4.006   5.892   1.814
 6874SOL    HW121521   3.976   5.900   1.719
 6874SOL    HW221522   3.954   5.955   1.871
 6875SOL     OW21523   3.003   1.469   6.404
 6875SOL    HW121524   2.930   1.403   6.421
 6875SOL    HW221525   3.072   1.428   6.345
 6876SOL     OW21526   5.498   5.267   3.372
 6876SOL    HW121527   5.504   5.228   3.280
 6876SOL    HW221528   5.537   5.359   3.371
 6877SOL     OW21529   0.926   4.545   1.573
 6877SOL    HW121530   0.999   4.611   1.558
 6877SOL    HW221531   0.954   4.479   1.642
 6878SOL     OW21532   1.829   0.698   3.619
 6878SOL    HW121533   1.759   0.670   3.553
 6878SOL    HW221534   1.821   0.641   3.702
 6879SOL     OW21535   1.111   1.410   1.434
 6879SOL    HW121536   1.167   1.327   1.434
 6879SOL    HW221537   1.096   1.441   1.340
 6880SOL     OW21538   1.783   6.532   0.251
 6880SOL    HW121539   1.785   6.556   0.348
 6880SOL    HW221540   1.823   6.441   0.239
 6881SOL     OW21541   6.898   3.499   1.142
 6881SOL    HW121542   6.860   3.420   1.095
 6881SOL    HW221543   6.941   3.560   1.075
 6882SOL     OW21544   2.807   6.422   0.149
 6882SOL    HW121545   2.766   6.333   0.129
 6882SOL    HW221546   2.734   6.489   0.163
 6883SOL     OW21547   4.787   6.595   0.937
 6883SOL    HW121548   4.863   6.588   0.874
 6883SOL    HW221549   4.821   6.613   1.030
 6884SOL     OW21550   1.236   5.154   3.301
 6884SOL    HW121551   1.169   5.089   3.265
 6884SOL    HW221552   1.278   5.117   3.383
 6885SOL     OW21553   5.742   4.801   4.605
 6885SOL    HW121554   5.797   4.779   4.686
 6885SOL    HW221555   5.663   4.857   4.633
 6886SOL     OW21556   5.631   3.978   0.891
 6886SOL    HW121557   5.608   3.966   0.795
 6886SOL    HW221558   5.559   3.939   0.948
 6887SOL     OW21559   5.102   6.767   5.568
 6887SOL    HW121560   5.085   6.752   5.470
 6887SOL    HW221561   5.122   6.863   5.584
 6888SOL     OW21562   6.495   4.218   0.995
 6888SOL    HW121563   6.448   4.173   0.919
 6888SOL    HW221564   6.482   4.166   1.079
 6889SOL     OW21565   0.401   2.945   5.415
 6889SOL    HW121566   0.488   2.983   5.382
 6889SOL    HW221567   0.410   2.846   5.424
 6890SOL     OW21568   4.652   4.533   4.133
 6890SOL    HW121569   4.715   4.598   4.090
 6890SOL    HW221570   4.698   4.446   4.147
 6891SOL     OW21571   1.473   1.335   1.242
 6891SOL    HW121572   1.512   1.256   1.195
 6891SOL    HW221573   1.469   1.413   1.179
 6892SOL     OW21574   1.643   0.852   5.222
 6892SOL    HW121575   1.600   0.886   5.306
 6892SOL    HW221576   1.674   0.758   5.236
 6893SOL     OW21577   5.566   3.197   0.699
 6893SOL    HW121578   5.605   3.281   0.738
 6893SOL    HW221579   5.577   3.122   0.764
 6894SOL     OW21580   5.780   5.124   6.860
 6894SOL    HW121581   5.807   5.078   6.945
 6894SOL    HW221582   5.775   5.223   6.876
 6895SOL     OW21583   1.510   5.695   2.569
 6895SOL    HW121584   1.425   5.647   2.591
 6895SOL    HW221585   1.536   5.753   2.645
 6896SOL     OW21586   5.006   0.913   6.463
 6896SOL    HW121587   4.950   0.995   6.475
 6896SOL    HW221588   4.947   0.837   6.435
 6897SOL     OW21589   4.322   2.361   4.795
 6897SOL    HW121590   4.268   2.370   4.879
 6897SOL    HW221591   4.368   2.447   4.775
 6898SOL     OW21592   1.683   6.929   1.496
 6898SOL    HW121593   1.720   6.839   1.476
 6898SOL    HW221594   1.725   6.965   1.579
 6899SOL     OW21595   5.346   5.222   2.501
 6899SOL    HW121596   5.325   5.257   2.592
 6899SOL    HW221597   5.298   5.135   2.487
 6900SOL     OW21598   6.934   4.279   4.672
 6900SOL    HW121599   6.906   4.304   4.765
 6900SOL    HW221600   0.009   4.247   4.672
 6901SOL     OW21601   5.410   4.124   6.617
 6901SOL    HW121602   5.342   4.072   6.566
 6901SOL    HW221603   5.383   4.221   6.620
 6902SOL     OW21604   0.354   5.752   5.493
 6902SOL    HW121605   0.338   5.759   5.395
 6902SOL    HW221606   0.448   5.777   5.515
 6903SOL     OW21607   1.259   6.378   5.364
 6903SOL    HW121608   1.304   6.467   5.374
 6903SOL    HW221609   1.194   6.383   5.288
 6904SOL     OW21610   0.521   0.166   6.379
 6904SOL    HW121611   0.439   0.222   6.367
 6904SOL    HW221612   0.602   0.225   6.378
 6905SOL     OW21613   4.502   5.796   5.199
 6905SOL    HW121614   4.579   5.793   5.134
 6905SOL    HW221615   4.474   5.891   5.212
 6906SOL     OW21616   3.028   1.740   3.158
 6906SOL    HW121617   3.003   1.835   3.179
 6906SOL    HW221618   2.967   1.678   3.208
 6907SOL     OW21619   5.533   3.201   0.183
 6907SOL    HW121620   5.584   3.225   0.266
 6907SOL    HW221621   5.455   3.263   0.173
 6908SOL     OW21622   3.932   5.660   0.837
 6908SOL    HW121623   3.855   5.707   0.794
 6908SOL    HW221624   3.971   5.593   0.773
 6909SOL     OW21625   5.647   4.361   2.672
 6909SOL    HW121626   5.708   4.439   2.660
 6909SOL    HW221627   5.696   4.277   2.651
 6910SOL     OW21628   1.841   2.748   2.071
 6910SOL    HW121629   1.912   2.755   2.001
 6910SOL    HW221630   1.771   2.818   2.054
 6911SOL     OW21631   2.476   6.751   5.059
 6911SOL    HW121632   2.447   6.721   4.968
 6911SOL    HW221633   2.400   6.799   5.103
 6912SOL     OW21634   2.572   4.112   6.507
 6912SOL    HW121635   2.637   4.142   6.437
 6912SOL    HW221636   2.493   4.174   6.508
 6913SOL     OW21637   4.194   5.663   5.844
 6913SOL    HW121638   4.176   5.639   5.749
 6913SOL    HW221639   4.239   5.752   5.848
 6914SOL     OW21640   0.800   2.228   2.218
 6914SOL    HW121641   0.766   2.185   2.134
 6914SOL    HW221642   0.899   2.240   2.211
 6915SOL     OW21643   6.514   3.328   4.555
 6915SOL    HW121644   6.477   3.421   4.553
 6915SOL    HW221645   6.448   3.265   4.515
 6916SOL     OW21646   4.639   5.906   5.518
 6916SOL    HW121647   4.575   5.832   5.502
 6916SOL    HW221648   4.690   5.926   5.434
 6917SOL     OW21649   3.766   5.652   1.948
 6917SOL    HW121650   3.684   5.594   1.952
 6917SOL    HW221651   3.742   5.744   1.978
 6918SOL     OW21652   2.128   3.755   6.889
 6918SOL    HW121653   2.061   3.814   6.935
 6918SOL    HW221654   2.218   3.798   6.895
 6919SOL     OW21655   6.356   5.953   3.252
 6919SOL    HW121656   6.366   5.894   3.171
 6919SOL    HW221657   6.421   5.924   3.322
 6920SOL     OW21658   0.403   3.099   5.694
 6920SOL    HW121659   0.432   3.193   5.678
 6920SOL    HW221660   0.389   3.053   5.606
 6921SOL     OW21661   3.483   0.495   5.242
 6921SOL    HW121662   3.459   0.412   5.293
 6921SOL    HW221663   3.417   0.567   5.263
 6922SOL     OW21664   3.174   4.643   6.494
 6922SOL    HW121665   3.078   4.671   6.495
 6922SOL    HW221666   3.183   4.556   6.446
 6923SOL     OW21667   5.322   6.980   3.335
 6923SOL    HW121668   5.328   0.001   3.244
 6923SOL    HW221669   5.229   6.950   3.353
 6924SOL     OW21670   2.874   5.206   1.518
 6924SOL    HW121671   2.854   5.108   1.507
 6924SOL    HW221672   2.796   5.260   1.487
 6925SOL     OW21673   6.161   6.772   4.804
 6925SOL    HW121674   6.243   6.812   4.846
 6925SOL    HW221675   6.184   6.739   4.712
 6926SOL     OW21676   3.018   2.621   0.361
 6926SOL    HW121677   2.934   2.673   0.371
 6926SOL    HW221678   3.096   2.679   0.386
 6927SOL     OW21679   3.316   6.542   5.670
 6927SOL    HW121680   3.224   6.503   5.683
 6927SOL    HW221681   3.345   6.587   5.754
 6928SOL     OW21682   4.209   5.706   0.841
 6928SOL    HW121683   4.118   5.673   0.819
 6928SOL    HW221684   4.266   5.630   0.872
 6929SOL     OW21685   4.554   5.712   3.102
 6929SOL    HW121686   4.640   5.661   3.099
 6929SOL    HW221687   4.565   5.792   3.161
 6930SOL     OW21688   0.463   6.258   1.954
 6930SOL    HW121689   0.535   6.190   1.939
 6930SOL    HW221690   0.381   6.230   1.903
 6931SOL     OW21691   3.906   3.091   0.366
 6931SOL    HW121692   3.886   3.111   0.270
 6931SOL    HW221693   3.875   3.166   0.423
 6932SOL     OW21694   3.816   0.993   0.034
 6932SOL    HW121695   3.749   0.946   6.997
 6932SOL    HW221696   3.769   1.046   0.105
 6933SOL     OW21697   3.922   6.268   5.746
 6933SOL    HW121698   3.903   6.307   5.656
 6933SOL    HW221699   3.861   6.310   5.814
 6934SOL     OW21700   4.433   5.360   0.307
 6934SOL    HW121701   4.508   5.295   0.297
 6934SOL    HW221702   4.456   5.445   0.259
 6935SOL     OW21703   4.286   5.334   2.889
 6935SOL    HW121704   4.308   5.350   2.793
 6935SOL    HW221705   4.187   5.336   2.901
 6936SOL     OW21706   1.196   1.634   6.894
 6936SOL    HW121707   1.133   1.613   6.969
 6936SOL    HW221708   1.205   1.733   6.883
 6937SOL     OW21709   6.213   4.450   0.124
 6937SOL    HW121710   6.305   4.450   0.162
 6937SOL    HW221711   6.214   4.493   0.034
 6938SOL     OW21712   3.019   6.837   5.321
 6938SOL    HW121713   3.004   6.874   5.229
 6938SOL    HW221714   3.031   6.913   5.385
 6939SOL     OW21715   5.806   3.032   3.405
 6939SOL    HW121716   5.713   3.029   3.368
 6939SOL    HW221717   5.838   3.126   3.407
 6940SOL     OW21718   1.267   6.363   1.615
 6940SOL    HW121719   1.200   6.411   1.558
 6940SOL    HW221720   1.302   6.426   1.684
 6941SOL     OW21721   3.381   2.879   2.435
 6941SOL    HW121722   3.413   2.929   2.515
 6941SOL    HW221723   3.364   2.783   2.461
 6942SOL     OW21724   6.835   4.948   2.793
 6942SOL    HW121725   6.826   5.007   2.872
 6942SOL    HW221726   6.902   4.876   2.813
 6943SOL     OW21727   2.971   5.640   5.235
 6943SOL    HW121728   2.996   5.544   5.250
 6943SOL    HW221729   2.903   5.667   5.302
 6944SOL     OW21730   0.525   4.951   5.544
 6944SOL    HW121731   0.516   4.857   5.576
 6944SOL    HW221732   0.560   5.008   5.618
 6945SOL     OW21733   4.236   1.958   0.930
 6945SOL    HW121734   4.201   2.018   1.002
 6945SOL    HW221735   4.178   1.966   0.849
 6946SOL     OW21736   5.774   5.399   3.818
 6946SOL    HW121737   5.690   5.402   3.765
 6946SOL    HW221738   5.850   5.433   3.762
 6947SOL     OW21739   6.572   3.556   5.532
 6947SOL    HW121740   6.494   3.574   5.471
 6947SOL    HW221741   6.543   3.566   5.627
 6948SOL     OW21742   0.124   5.231   6.540
 6948SOL    HW121743   0.047   5.173   6.512
 6948SOL    HW221744   0.114   5.322   6.498
 6949SOL     OW21745   2.340   1.130   3.098
 6949SOL    HW121746   2.337   1.173   3.188
 6949SOL    HW221747   2.259   1.072   3.086
 6950SOL     OW21748   1.892   1.539   4.615
 6950SOL    HW121749   1.822   1.475   4.647
 6950SOL    HW221750   1.854   1.597   4.544
 6951SOL     OW21751   1.529   3.796   0.335
 6951SOL    HW121752   1.602   3.757   0.278
 6951SOL    HW221753   1.496   3.881   0.294
 6952SOL     OW21754   4.085   4.733   3.234
 6952SOL    HW121755   4.006   4.716   3.294
 6952SOL    HW221756   4.059   4.799   3.163
 6953SOL     OW21757   0.922   0.888   2.079
 6953SOL    HW121758   0.931   0.966   2.017
 6953SOL    HW221759   0.891   0.920   2.169
 6954SOL     OW21760   6.381   5.341   6.086
 6954SOL    HW121761   6.383   5.245   6.058
 6954SOL    HW221762   6.309   5.389   6.036
 6955SOL     OW21763   4.009   5.530   2.622
 6955SOL    HW121764   4.043   5.476   2.545
 6955SOL    HW221765   3.909   5.521   2.627
 6956SOL     OW21766   6.059   5.030   2.609
 6956SOL    HW121767   6.145   5.072   2.640
 6956SOL    HW221768   5.994   5.102   2.586
 6957SOL     OW21769   5.906   4.010   5.501
 6957SOL    HW121770   5.915   4.025   5.600
 6957SOL    HW221771   5.992   4.034   5.456
 6958SOL     OW21772   3.501   3.765   1.562
 6958SOL    HW121773   3.445   3.726   1.636
 6958SOL    HW221774   3.471   3.858   1.542
 6959SOL     OW21775   0.560   3.273   2.833
 6959SOL    HW121776   0.505   3.235   2.758
 6959SOL    HW221777   0.636   3.211   2.853
 6960SOL     OW21778   5.257   4.498   1.598
 6960SOL    HW121779   5.322   4.518   1.671
 6960SOL    HW221780   5.183   4.441   1.633
 6961SOL     OW21781   5.261   2.552   4.723
 6961SOL    HW121782   5.233   2.635   4.675
 6961SOL    HW221783   5.343   2.514   4.679
 6962SOL     OW21784   2.460   6.685   0.838
 6962SOL    HW121785   2.498   6.597   0.866
 6962SOL    HW221786   2.399   6.720   0.909
 6963SOL     OW21787   1.073   6.828   6.635
 6963SOL    HW121788   1.088   6.919   6.596
 6963SOL    HW221789   1.023   6.837   6.721
 6964SOL     OW21790   2.042   1.133   5.697
 6964SOL    HW121791   2.034   1.213   5.637
 6964SOL    HW221792   2.130   1.088   5.681
 6965SOL     OW21793   1.779   1.456   0.112
 6965SOL    HW121794   1.688   1.437   0.149
 6965SOL    HW221795   1.794   1.401   0.029
 6966SOL     OW21796   1.169   6.560   0.965
 6966SOL    HW121797   1.147   6.579   1.061
 6966SOL    HW221798   1.135   6.469   0.940
 6967SOL     OW21799   3.909   6.916   6.675
 6967SOL    HW121800   3.892   6.842   6.610
 6967SOL    HW221801   3.822   6.957   6.702
 6968SOL     OW21802   4.086   0.488   2.369
 6968SOL    HW121803   4.096   0.577   2.413
 6968SOL    HW221804   4.127   0.491   2.278
 6969SOL     OW21805   1.474   3.183   2.974
 6969SOL    HW121806   1.434   3.131   2.898
 6969SOL    HW221807   1.470   3.281   2.953
 6970SOL     OW21808   3.559   5.883   6.114
 6970SOL    HW121809   3.487   5.900   6.047
 6970SOL    HW221810   3.593   5.790   6.104
 6971SOL     OW21811   6.978   4.163   0.245
 6971SOL    HW121812   6.973   4.181   0.147
 6971SOL    HW221813   6.985   4.065   0.261
 6972SOL     OW21814   5.830   3.904   1.413
 6972SOL    HW121815   5.888   3.860   1.482
 6972SOL    HW221816   5.858   3.999   1.403
 6973SOL     OW21817   0.721   1.502   3.048
 6973SOL    HW121818   0.732   1.513   2.949
 6973SOL    HW221819   0.666   1.578   3.084
 6974SOL     OW21820   4.024   3.717   3.110
 6974SOL    HW121821   3.967   3.662   3.049
 6974SOL    HW221822   4.044   3.665   3.193
 6975SOL     OW21823   3.164   5.304   5.069
 6975SOL    HW121824   3.219   5.360   5.008
 6975SOL    HW221825   3.105   5.243   5.016
 6976SOL     OW21826   4.863   4.985   5.845
 6976SOL    HW121827   4.822   5.061   5.794
 6976SOL    HW221828   4.810   4.901   5.828
 6977SOL     OW21829   3.985   4.929   2.362
 6977SOL    HW121830   4.063   4.956   2.305
 6977SOL    HW221831   3.914   4.890   2.303
 6978SOL     OW21832   1.032   3.502   1.449
 6978SOL    HW121833   1.117   3.520   1.499
 6978SOL    HW221834   1.037   3.410   1.408
 6979SOL     OW21835   0.783   4.016   2.582
 6979SOL    HW121836   0.737   3.930   2.560
 6979SOL    HW221837   0.844   4.002   2.660
 6980SOL     OW21838   2.469   4.516   3.350
 6980SOL    HW121839   2.428   4.430   3.380
 6980SOL    HW221840   2.414   4.592   3.382
 6981SOL     OW21841   4.239   2.624   6.935
 6981SOL    HW121842   4.239   2.719   6.965
 6981SOL    HW221843   4.274   2.565   7.008
 6982SOL     OW21844   6.717   6.817   1.694
 6982SOL    HW121845   6.650   6.883   1.662
 6982SOL    HW221846   6.742   6.838   1.789
 6983SOL     OW21847   6.683   0.628   3.997
 6983SOL    HW121848   6.761   0.575   4.031
 6983SOL    HW221849   6.693   0.642   3.898
 6984SOL     OW21850   1.646   4.203   3.727
 6984SOL    HW121851   1.688   4.269   3.664
 6984SOL    HW221852   1.570   4.157   3.680
 6985SOL     OW21853   5.366   3.529   1.153
 6985SOL    HW121854   5.299   3.554   1.223
 6985SOL    HW221855   5.324   3.535   1.063
 6986SOL     OW21856   3.935   6.011   5.179
 6986SOL    HW121857   3.959   5.955   5.100
 6986SOL    HW221858   3.896   5.953   5.251
 6987SOL     OW21859   0.132   1.108   6.689
 6987SOL    HW121860   0.064   1.124   6.617
 6987SOL    HW221861   0.193   1.187   6.696
 6988SOL     OW21862   1.308   0.574   6.039
 6988SOL    HW121863   1.333   0.588   5.943
 6988SOL    HW221864   1.335   0.654   6.092
 6989SOL     OW21865   0.744   3.254   2.180
 6989SOL    HW121866   0.777   3.220   2.268
 6989SOL    HW221867   0.801   3.330   2.150
 6990SOL     OW21868   3.815   5.212   6.642
 6990SOL    HW121869   3.809   5.209   6.742
 6990SOL    HW221870   3.753   5.283   6.607
 6991SOL     OW21871   5.336   4.157   3.420
 6991SOL    HW121872   5.358   4.223   3.492
 6991SOL    HW221873   5.237   4.144   3.416
 6992SOL     OW21874   1.939   5.374   6.156
 6992SOL    HW121875   1.860   5.429   6.130
 6992SOL    HW221876   2.017   5.397   6.098
 6993SOL     OW21877   4.334   2.291   1.589
 6993SOL    HW121878   4.370   2.225   1.523
 6993SOL    HW221879   4.368   2.268   1.681
 6994SOL     OW21880   2.819   0.852   2.991
 6994SOL    HW121881   2.770   0.894   3.067
 6994SOL    HW221882   2.916   0.877   2.995
 6995SOL     OW21883   0.056   5.077   0.732
 6995SOL    HW121884   0.073   5.118   0.822
 6995SOL    HW221885   0.128   5.011   0.712
 6996SOL     OW21886   1.228   1.613   6.436
 6996SOL    HW121887   1.284   1.531   6.428
 6996SOL    HW221888   1.131   1.588   6.437
 6997SOL     OW21889   5.953   6.126   5.964
 6997SOL    HW121890   5.953   6.225   5.957
 6997SOL    HW221891   5.959   6.099   6.060
 6998SOL     OW21892   0.406   1.059   6.873
 6998SOL    HW121893   0.456   1.070   6.787
 6998SOL    HW221894   0.326   1.001   6.859
 6999SOL     OW21895   0.440   2.922   0.043
 6999SOL    HW121896   0.440   3.003   7.004
 6999SOL    HW221897   0.415   2.948   0.136
 7000SOL     OW21898   1.017   4.975   3.223
 7000SOL    HW121899   0.968   4.914   3.161
 7000SOL    HW221900   0.992   4.955   3.318
 7001SOL     OW21901   1.070   0.830   4.316
 7001SOL    HW121902   1.089   0.735   4.343
 7001SOL    HW221903   0.972   0.841   4.300
 7002SOL     OW21904   1.471   4.541   3.182
 7002SOL    HW121905   1.564   4.505   3.181
 7002SOL    HW221906   1.460   4.604   3.260
 7003SOL     OW21907   0.478   5.262   6.487
 7003SOL    HW121908   0.434   5.178   6.519
 7003SOL    HW221909   0.449   5.280   6.393
 7004SOL     OW21910   1.340   0.958   6.975
 7004SOL    HW121911   1.310   0.991   0.045
 7004SOL    HW221912   1.267   0.903   6.933
 7005SOL     OW21913   1.392   5.232   0.233
 7005SOL    HW121914   1.386   5.202   0.138
 7005SOL    HW221915   1.360   5.159   0.294
 7006SOL     OW21916   0.523   0.196   3.753
 7006SOL    HW121917   0.555   0.155   3.839
 7006SOL    HW221918   0.425   0.216   3.762
 7007SOL     OW21919   2.049   6.695   6.264
 7007SOL    HW121920   2.106   6.756   6.320
 7007SOL    HW221921   2.050   6.603   6.303
 7008SOL     OW21922   5.716   3.000   2.505
 7008SOL    HW121923   5.617   3.005   2.514
 7008SOL    HW221924   5.749   3.081   2.457
 7009SOL     OW21925   5.591   5.594   2.520
 7009SOL    HW121926   5.574   5.602   2.422
 7009SOL    HW221927   5.677   5.545   2.534
 7010SOL     OW21928   5.192   2.454   3.159
 7010SOL    HW121929   5.254   2.406   3.220
 7010SOL    HW221930   5.126   2.389   3.120
 7011SOL     OW21931   2.468   5.808   6.457
 7011SOL    HW121932   2.404   5.739   6.492
 7011SOL    HW221933   2.428   5.899   6.468
 7012SOL     OW21934   0.286   4.154   0.434
 7012SOL    HW121935   0.356   4.149   0.505
 7012SOL    HW221936   0.315   4.217   0.363
 7013SOL     OW21937   2.669   2.744   6.835
 7013SOL    HW121938   2.649   2.769   6.740
 7013SOL    HW221939   2.602   2.787   6.895
 7014SOL     OW21940   6.605   3.433   0.757
 7014SOL    HW121941   6.571   3.421   0.664
 7014SOL    HW221942   6.690   3.382   0.768
 7015SOL     OW21943   5.876   6.303   1.492
 7015SOL    HW121944   5.821   6.220   1.506
 7015SOL    HW221945   5.973   6.280   1.501
 7016SOL     OW21946   3.132   5.604   1.158
 7016SOL    HW121947   3.063   5.588   1.229
 7016SOL    HW221948   3.219   5.565   1.187
 7017SOL     OW21949   6.003   4.342   6.557
 7017SOL    HW121950   6.058   4.311   6.635
 7017SOL    HW221951   6.000   4.442   6.556
 7018SOL     OW21952   5.842   2.883   4.292
 7018SOL    HW121953   5.905   2.828   4.346
 7018SOL    HW221954   5.824   2.970   4.339
 7019SOL     OW21955   3.374   6.028   3.188
 7019SOL    HW121956   3.387   6.051   3.092
 7019SOL    HW221957   3.458   6.048   3.238
 7020SOL     OW21958   6.706   1.806   0.818
 7020SOL    HW121959   6.654   1.723   0.795
 7020SOL    HW221960   6.711   1.815   0.918
 7021SOL     OW21961   0.719   2.189   4.785
 7021SOL    HW121962   0.736   2.283   4.817
 7021SOL    HW221963   0.645   2.190   4.718
 7022SOL     OW21964   1.853   4.193   0.975
 7022SOL    HW121965   1.893   4.167   0.887
 7022SOL    HW221966   1.868   4.291   0.991
 7023SOL     OW21967   6.920   2.087   1.212
 7023SOL    HW121968   6.912   2.079   1.311
 7023SOL    HW221969   6.856   2.156   1.178
 7024SOL     OW21970   3.559   4.135   5.621
 7024SOL    HW121971   3.480   4.078   5.602
 7024SOL    HW221972   3.560   4.213   5.559
 7025SOL     OW21973   3.461   0.848   0.919
 7025SOL    HW121974   3.362   0.855   0.910
 7025SOL    HW221975   3.495   0.773   0.862
 7026SOL     OW21976   2.845   2.482   1.412
 7026SOL    HW121977   2.864   2.394   1.369
 7026SOL    HW221978   2.931   2.529   1.431
 7027SOL     OW21979   2.564   4.383   0.756
 7027SOL    HW121980   2.479   4.425   0.786
 7027SOL    HW221981   2.602   4.436   0.680
 7028SOL     OW21982   2.977   0.590   2.531
 7028SOL    HW121983   2.945   0.685   2.538
 7028SOL    HW221984   3.058   0.585   2.473
 7029SOL     OW21985   3.223   3.749   3.483
 7029SOL    HW121986   3.222   3.670   3.544
 7029SOL    HW221987   3.297   3.739   3.416
 7030SOL     OW21988   5.642   0.008   4.969
 7030SOL    HW121989   5.667   6.959   5.037
 7030SOL    HW221990   5.652   6.990   4.877
 7031SOL     OW21991   6.057   4.911   0.366
 7031SOL    HW121992   6.049   4.968   0.448
 7031SOL    HW221993   6.091   4.965   0.290
 7032SOL     OW21994   3.810   4.924   3.932
 7032SOL    HW121995   3.890   4.955   3.984
 7032SOL    HW221996   3.732   4.915   3.994
 7033SOL     OW21997   2.205   1.910   5.393
 7033SOL    HW121998   2.157   1.967   5.326
 7033SOL    HW221999   2.280   1.963   5.434
 7034SOL     OW22000   6.257   2.683   2.389
 7034SOL    HW122001   6.273   2.589   2.416
 7034SOL    HW222002   6.197   2.727   2.456
 7035SOL     OW22003   3.937   2.595   1.092
 7035SOL    HW122004   3.924   2.638   1.181
 7035SOL    HW222005   3.910   2.659   1.020
 7036SOL     OW22006   6.955   1.463   1.622
 7036SOL    HW122007   6.952   1.557   1.656
 7036SOL    HW222008   6.876   1.413   1.657
 7037SOL     OW22009   0.464   1.352   5.972
 7037SOL    HW122010   0.387   1.415   5.963
 7037SOL    HW222011   0.438   1.277   6.033
 7038SOL     OW22012   0.792   4.241   0.491
 7038SOL    HW122013   0.693   4.253   0.482
 7038SOL    HW222014   0.833   4.224   0.402
 7039SOL     OW22015   6.689   0.501   1.634
 7039SOL    HW122016   6.735   0.533   1.551
 7039SOL    HW222017   6.642   0.578   1.677
 7040SOL     OW22018   4.980   3.231   4.659
 7040SOL    HW122019   4.967   3.307   4.723
 7040SOL    HW222020   4.933   3.150   4.693
 7041SOL     OW22021   0.921   6.792   2.935
 7041SOL    HW122022   1.001   6.740   2.906
 7041SOL    HW222023   0.866   6.737   2.998
 7042SOL     OW22024   5.089   5.339   5.196
 7042SOL    HW122025   5.078   5.354   5.098
 7042SOL    HW222026   5.123   5.246   5.212
 7043SOL     OW22027   2.166   6.024   0.427
 7043SOL    HW122028   2.230   5.978   0.365
 7043SOL    HW222029   2.217   6.071   0.499
 7044SOL     OW22030   4.354   6.460   4.880
 7044SOL    HW122031   4.259   6.484   4.858
 7044SOL    HW222032   4.413   6.539   4.866
 7045SOL     OW22033   5.616   6.994   1.669
 7045SOL    HW122034   5.600   0.057   1.725
 7045SOL    HW222035   5.624   0.001   1.573
 7046SOL     OW22036   2.741   1.205   2.529
 7046SOL    HW122037   2.796   1.135   2.575
 7046SOL    HW222038   2.671   1.239   2.592
 7047SOL     OW22039   1.701   0.005   0.812
 7047SOL    HW122040   1.761   6.960   0.859
 7047SOL    HW222041   1.611   6.984   0.800
 7048SOL     OW22042   0.526   5.636   4.514
 7048SOL    HW122043   0.511   5.596   4.604
 7048SOL    HW222044   0.477   5.722   4.506
 7049SOL     OW22045   2.454   1.240   4.894
 7049SOL    HW122046   2.434   1.337   4.903
 7049SOL    HW222047   2.522   1.213   4.963
 7050SOL     OW22048   4.078   4.551   0.460
 7050SOL    HW122049   4.132   4.467   0.453
 7050SOL    HW222050   4.036   4.556   0.550
 7051SOL     OW22051   2.070   0.979   2.173
 7051SOL    HW122052   2.122   1.054   2.216
 7051SOL    HW222053   2.124   0.940   2.099
 7052SOL     OW22054   5.011   2.072   2.776
 7052SOL    HW122055   5.051   2.138   2.839
 7052SOL    HW222056   5.083   2.014   2.738
 7053SOL     OW22057   0.466   4.575   3.744
 7053SOL    HW122058   0.515   4.608   3.825
 7053SOL    HW222059   0.410   4.496   3.769
 7054SOL     OW22060   5.537   6.701   0.539
 7054SOL    HW122061   5.552   6.607   0.508
 7054SOL    HW222062   5.471   6.745   0.479
 7055SOL     OW22063   1.870   0.296   6.765
 7055SOL    HW122064   1.966   0.278   6.743
 7055SOL    HW222065   1.819   0.314   6.681
 7056SOL     OW22066   0.147   5.472   1.222
 7056SOL    HW122067   0.074   5.437   1.281
 7056SOL    HW222068   0.107   5.530   1.151
 7057SOL     OW22069   2.956   5.578   4.960
 7057SOL    HW122070   2.891   5.506   4.983
 7057SOL    HW222071   2.988   5.622   5.045
 7058SOL     OW22072   5.918   2.796   5.736
 7058SOL    HW122073   5.997   2.759   5.688
 7058SOL    HW222074   5.848   2.725   5.745
 7059SOL     OW22075   1.722   1.024   4.382
 7059SOL    HW122076   1.791   1.073   4.329
 7059SOL    HW222077   1.635   1.073   4.379
 7060SOL     OW22078   2.671   2.191   1.348
 7060SOL    HW122079   2.763   2.218   1.320
 7060SOL    HW222080   2.665   2.091   1.351
 7061SOL     OW22081   1.773   0.260   1.197
 7061SOL    HW122082   1.833   0.276   1.275
 7061SOL    HW222083   1.687   0.309   1.211
 7062SOL     OW22084   3.773   1.079   5.227
 7062SOL    HW122085   3.814   1.052   5.314
 7062SOL    HW222086   3.700   1.145   5.244
 7063SOL     OW22087   0.068   1.091   1.422
 7063SOL    HW122088   0.008   1.125   1.349
 7063SOL    HW222089   0.152   1.144   1.422
 7064SOL     OW22090   2.798   1.695   5.325
 7064SOL    HW122091   2.861   1.727   5.254
 7064SOL    HW222092   2.750   1.774   5.365
 7065SOL     OW22093   3.230   6.913   3.670
 7065SOL    HW122094   3.300   6.981   3.692
 7065SOL    HW222095   3.164   6.908   3.746
 7066SOL     OW22096   3.779   0.672   1.484
 7066SOL    HW122097   3.746   0.613   1.411
 7066SOL    HW222098   3.734   0.761   1.479
 7067SOL     OW22099   2.720   4.420   5.980
 7067SOL    HW122100   2.782   4.354   6.023
 7067SOL    HW222101   2.722   4.408   5.881
 7068SOL     OW22102   4.589   4.729   2.397
 7068SOL    HW122103   4.541   4.657   2.447
 7068SOL    HW222104   4.528   4.770   2.329
 7069SOL     OW22105   3.914   1.421   5.437
 7069SOL    HW122106   3.872   1.332   5.425
 7069SOL    HW222107   3.972   1.442   5.358
 7070SOL     OW22108   0.196   1.532   5.102
 7070SOL    HW122109   0.155   1.484   5.025
 7070SOL    HW222110   0.259   1.471   5.150
 7071SOL     OW22111   4.506   5.582   0.059
 7071SOL    HW122112   4.503   5.500   0.002
 7071SOL    HW222113   4.589   5.634   0.038
 7072SOL     OW22114   1.173   3.739   5.986
 7072SOL    HW122115   1.190   3.715   6.082
 7072SOL    HW222116   1.152   3.836   5.979
 7073SOL     OW22117   3.895   1.241   4.005
 7073SOL    HW122118   3.800   1.269   4.017
 7073SOL    HW222119   3.945   1.311   3.953
 7074SOL     OW22120   5.782   3.224   2.073
 7074SOL    HW122121   5.727   3.242   1.991
 7074SOL    HW222122   5.759   3.134   2.110
 7075SOL     OW22123   1.881   5.043   2.525
 7075SOL    HW122124   1.894   4.945   2.539
 7075SOL    HW222125   1.785   5.063   2.508
 7076SOL     OW22126   5.905   2.682   0.575
 7076SOL    HW122127   5.887   2.621   0.498
 7076SOL    HW222128   5.940   2.629   0.652
 7077SOL     OW22129   3.282   5.939   2.240
 7077SOL    HW122130   3.202   5.911   2.293
 7077SOL    HW222131   3.284   6.039   2.234
 7078SOL     OW22132   0.101   1.685   6.889
 7078SOL    HW122133   0.182   1.728   6.929
 7078SOL    HW222134   0.047   1.641   6.961
 7079SOL     OW22135   2.506   5.326   5.534
 7079SOL    HW122136   2.592   5.287   5.567
 7079SOL    HW222137   2.495   5.302   5.437
 7080SOL     OW22138   3.783   1.908   6.493
 7080SOL    HW122139   3.684   1.899   6.502
 7080SOL    HW222140   3.814   1.989   6.544
 7081SOL     OW22141   2.913   6.548   6.593
 7081SOL    HW122142   2.983   6.557   6.522
 7081SOL    HW222143   2.837   6.493   6.557
 7082SOL     OW22144   1.644   4.930   2.225
 7082SOL    HW122145   1.604   4.961   2.311
 7082SOL    HW222146   1.716   4.994   2.197
 7083SOL     OW22147   5.883   2.842   2.658
 7083SOL    HW122148   5.823   2.787   2.716
 7083SOL    HW222149   5.828   2.893   2.591
 7084SOL     OW22150   1.171   5.340   0.057
 7084SOL    HW122151   1.157   5.249   0.019
 7084SOL    HW222152   1.266   5.368   0.044
 7085SOL     OW22153   0.282   3.334   2.273
 7085SOL    HW122154   0.235   3.249   2.298
 7085SOL    HW222155   0.219   3.411   2.281
 7086SOL     OW22156   4.486   0.942   3.499
 7086SOL    HW122157   4.412   0.997   3.537
 7086SOL    HW222158   4.571   0.961   3.548
 7087SOL     OW22159   6.023   2.911   3.737
 7087SOL    HW122160   6.084   2.983   3.770
 7087SOL    HW222161   6.042   2.826   3.787
 7088SOL     OW22162   6.142   1.902   5.335
 7088SOL    HW122163   6.052   1.910   5.378
 7088SOL    HW222164   6.164   1.805   5.323
 7089SOL     OW22165   3.533   6.400   1.876
 7089SOL    HW122166   3.443   6.439   1.857
 7089SOL    HW222167   3.522   6.312   1.923
 7090SOL     OW22168   5.343   3.448   1.567
 7090SOL    HW122169   5.400   3.525   1.538
 7090SOL    HW222170   5.265   3.439   1.505
 7091SOL     OW22171   5.785   0.273   6.649
 7091SOL    HW122172   5.777   0.370   6.672
 7091SOL    HW222173   5.708   0.246   6.592
 7092SOL     OW22174   4.104   6.808   6.424
 7092SOL    HW122175   4.116   6.714   6.455
 7092SOL    HW222176   4.010   6.822   6.395
 7093SOL     OW22177   4.136   3.372   0.149
 7093SOL    HW122178   4.044   3.373   0.110
 7093SOL    HW222179   4.159   3.279   0.178
 7094SOL     OW22180   4.246   1.025   4.955
 7094SOL    HW122181   4.288   1.077   5.030
 7094SOL    HW222182   4.151   1.055   4.944
 7095SOL     OW22183   2.489   4.804   3.706
 7095SOL    HW122184   2.461   4.892   3.668
 7095SOL    HW222185   2.442   4.789   3.793
 7096SOL     OW22186   0.215   5.781   0.254
 7096SOL    HW122187   0.217   5.722   0.335
 7096SOL    HW222188   0.121   5.791   0.223
 7097SOL     OW22189   4.642   2.038   2.980
 7097SOL    HW122190   4.721   1.982   2.957
 7097SOL    HW222191   4.559   1.985   2.970
 7098SOL     OW22192   0.787   1.280   2.392
 7098SOL    HW122193   0.778   1.366   2.342
 7098SOL    HW222194   0.812   1.300   2.487
 7099SOL     OW22195   2.824   1.610   4.587
 7099SOL    HW122196   2.871   1.649   4.508
 7099SOL    HW222197   2.889   1.596   4.662
 7100SOL     OW22198   0.397   4.470   1.265
 7100SOL    HW122199   0.491   4.437   1.257
 7100SOL    HW222200   0.349   4.417   1.335
 7101SOL     OW22201   2.920   6.095   4.388
 7101SOL    HW122202   2.992   6.072   4.454
 7101SOL    HW222203   2.940   6.185   4.348
 7102SOL     OW22204   5.245   1.615   2.291
 7102SOL    HW122205   5.303   1.609   2.372
 7102SOL    HW222206   5.303   1.613   2.209
 7103SOL     OW22207   6.626   3.558   4.803
 7103SOL    HW122208   6.663   3.648   4.827
 7103SOL    HW222209   6.690   3.487   4.832
 7104SOL     OW22210   4.315   2.317   4.194
 7104SOL    HW122211   4.380   2.300   4.269
 7104SOL    HW222212   4.228   2.348   4.231
 7105SOL     OW22213   3.205   3.834   1.998
 7105SOL    HW122214   3.230   3.809   1.905
 7105SOL    HW222215   3.287   3.863   2.048
 7106SOL     OW22216   2.233   2.165   2.502
 7106SOL    HW122217   2.318   2.166   2.554
 7106SOL    HW222218   2.163   2.217   2.551
 7107SOL     OW22219   3.924   0.355   0.507
 7107SOL    HW122220   3.944   0.284   0.440
 7107SOL    HW222221   3.952   0.324   0.598
 7108SOL     OW22222   3.250   6.791   1.843
 7108SOL    HW122223   3.271   6.838   1.929
 7108SOL    HW222224   3.153   6.802   1.822
 7109SOL     OW22225   2.387   5.089   6.029
 7109SOL    HW122226   2.415   5.150   5.954
 7109SOL    HW222227   2.464   5.073   6.089
 7110SOL     OW22228   2.803   5.588   5.911
 7110SOL    HW122229   2.768   5.682   5.919
 7110SOL    HW222230   2.735   5.532   5.864
 7111SOL     OW22231   6.179   1.871   4.388
 7111SOL    HW122232   6.096   1.876   4.444
 7111SOL    HW222233   6.240   1.946   4.412
 7112SOL     OW22234   6.305   5.007   4.645
 7112SOL    HW122235   6.331   4.931   4.704
 7112SOL    HW222236   6.230   4.978   4.585
 7113SOL     OW22237   2.991   6.987   5.097
 7113SOL    HW122238   3.003   0.067   5.096
 7113SOL    HW222239   2.896   6.965   5.075
 7114SOL     OW22240   5.874   4.220   0.300
 7114SOL    HW122241   5.960   4.266   0.322
 7114SOL    HW222242   5.804   4.247   0.368
 7115SOL     OW22243   5.085   2.698   6.219
 7115SOL    HW122244   5.017   2.770   6.233
 7115SOL    HW222245   5.174   2.738   6.199
 7116SOL     OW22246   6.040   5.161   4.533
 7116SOL    HW122247   5.997   5.162   4.623
 7116SOL    HW222248   6.117   5.225   4.533
 7117SOL     OW22249   3.165   0.614   2.754
 7117SOL    HW122250   3.074   0.589   2.721
 7117SOL    HW222251   3.158   0.661   2.841
 7118SOL     OW22252   5.196   4.176   5.365
 7118SOL    HW122253   5.289   4.206   5.344
 7118SOL    HW222254   5.182   4.180   5.464
 7119SOL     OW22255   2.396   6.658   4.305
 7119SOL    HW122256   2.417   6.754   4.291
 7119SOL    HW222257   2.410   6.607   4.220
 7120SOL     OW22258   4.428   1.732   2.277
 7120SOL    HW122259   4.483   1.816   2.269
 7120SOL    HW222260   4.338   1.747   2.236
 7121SOL     OW22261   1.648   5.992   2.401
 7121SOL    HW122262   1.561   5.989   2.451
 7121SOL    HW222263   1.650   6.074   2.343
 7122SOL     OW22264   2.801   2.474   6.684
 7122SOL    HW122265   2.709   2.477   6.644
 7122SOL    HW222266   2.794   2.477   6.783
 7123SOL     OW22267   5.173   4.135   6.994
 7123SOL    HW122268   5.085   4.089   7.000
 7123SOL    HW222269   5.239   4.076   6.947
 7124SOL     OW22270   2.881   2.900   6.228
 7124SOL    HW122271   2.967   2.858   6.259
 7124SOL    HW222272   2.811   2.830   6.221
 7125SOL     OW22273   1.002   5.895   1.428
 7125SOL    HW122274   0.944   5.949   1.367
 7125SOL    HW222275   1.041   5.955   1.498
 7126SOL     OW22276   3.921   5.076   0.887
 7126SOL    HW122277   3.904   5.116   0.796
 7126SOL    HW222278   4.014   5.097   0.915
 7127SOL     OW22279   2.631   0.156   5.006
 7127SOL    HW122280   2.653   0.063   5.036
 7127SOL    HW222281   2.613   0.156   4.907
 7128SOL     OW22282   4.371   3.884   0.109
 7128SOL    HW122283   4.437   3.954   0.081
 7128SOL    HW222284   4.300   3.926   0.165
 7129SOL     OW22285   6.991   1.423   0.310
 7129SOL    HW122286   6.996   1.497   0.377
 7129SOL    HW222287   0.063   1.405   0.273
 7130SOL     OW22288   3.749   6.842   3.955
 7130SOL    HW122289   3.803   6.908   4.008
 7130SOL    HW222290   3.797   6.755   3.951
 7131SOL     OW22291   2.098   2.123   2.906
 7131SOL    HW122292   2.040   2.045   2.883
 7131SOL    HW222293   2.098   2.137   3.005
 7132SOL     OW22294   5.222   4.936   2.182
 7132SOL    HW122295   5.287   4.922   2.108
 7132SOL    HW222296   5.153   4.864   2.181
 7133SOL     OW22297   3.362   6.097   2.522
 7133SOL    HW122298   3.345   6.171   2.458
 7133SOL    HW222299   3.424   6.030   2.480
 7134SOL     OW22300   5.555   4.972   6.741
 7134SOL    HW122301   5.569   4.879   6.775
 7134SOL    HW222302   5.609   5.036   6.796
 7135SOL     OW22303   2.168   5.287   0.969
 7135SOL    HW122304   2.244   5.348   0.990
 7135SOL    HW222305   2.121   5.319   0.887
 7136SOL     OW22306   1.371   3.086   2.755
 7136SOL    HW122307   1.280   3.067   2.719
 7136SOL    HW222308   1.428   3.004   2.746
 7137SOL     OW22309   1.705   6.876   2.060
 7137SOL    HW122310   1.746   6.930   2.135
 7137SOL    HW222311   1.696   6.781   2.089
 7138SOL     OW22312   6.360   4.102   0.499
 7138SOL    HW122313   6.385   4.184   0.447
 7138SOL    HW222314   6.265   4.110   0.530
 7139SOL     OW22315   5.693   5.790   0.876
 7139SOL    HW122316   5.700   5.744   0.788
 7139SOL    HW222317   5.651   5.880   0.864
 7140SOL     OW22318   6.914   4.270   7.015
 7140SOL    HW122319   6.839   4.240   6.956
 7140SOL    HW222320   6.926   4.369   7.006
 7141SOL     OW22321   2.473   2.423   0.178
 7141SOL    HW122322   2.552   2.459   0.227
 7141SOL    HW222323   2.503   2.377   0.095
 7142SOL     OW22324   4.228   6.919   5.723
 7142SOL    HW122325   4.257   7.013   5.706
 7142SOL    HW222326   4.165   6.890   5.650
 7143SOL     OW22327   3.160   3.006   5.788
 7143SOL    HW122328   3.248   2.991   5.744
 7143SOL    HW222329   3.088   2.966   5.731
 7144SOL     OW22330   6.468   1.836   6.077
 7144SOL    HW122331   6.395   1.867   6.016
 7144SOL    HW222332   6.434   1.763   6.135
 7145SOL     OW22333   0.338   3.045   0.287
 7145SOL    HW122334   0.317   3.143   0.279
 7145SOL    HW222335   0.254   2.992   0.272
 7146SOL     OW22336   6.756   1.255   4.196
 7146SOL    HW122337   6.712   1.180   4.246
 7146SOL    HW222338   6.711   1.341   4.220
 7147SOL     OW22339   6.733   0.268   7.018
 7147SOL    HW122340   6.778   0.194   0.050
 7147SOL    HW222341   6.705   0.340   0.062
 7148SOL     OW22342   5.605   6.420   1.002
 7148SOL    HW122343   5.616   6.412   0.902
 7148SOL    HW222344   5.695   6.417   1.045
 7149SOL     OW22345   6.696   3.582   6.753
 7149SOL    HW122346   6.697   3.482   6.750
 7149SOL    HW222347   6.770   3.617   6.696
 7150SOL     OW22348   2.537   2.158   0.019
 7150SOL    HW122349   2.506   2.094   6.969
 7150SOL    HW222350   2.626   2.195   7.013
 7151SOL     OW22351   5.526   2.569   0.070
 7151SOL    HW122352   5.610   2.622   0.081
 7151SOL    HW222353   5.539   2.501   7.018
 7152SOL     OW22354   5.844   0.913   4.979
 7152SOL    HW122355   5.882   0.895   5.070
 7152SOL    HW222356   5.846   1.012   4.961
 7153SOL     OW22357   5.574   5.522   0.404
 7153SOL    HW122358   5.518   5.441   0.387
 7153SOL    HW222359   5.538   5.599   0.352
 7154SOL     OW22360   4.694   0.230   1.981
 7154SOL    HW122361   4.706   0.200   2.075
 7154SOL    HW222362   4.772   0.286   1.953
 7155SOL     OW22363   1.768   6.974   1.235
 7155SOL    HW122364   1.769   0.054   1.228
 7155SOL    HW222365   1.724   6.947   1.321
 7156SOL     OW22366   6.488   3.100   5.424
 7156SOL    HW122367   6.550   3.129   5.497
 7156SOL    HW222368   6.398   3.078   5.462
 7157SOL     OW22369   6.915   3.624   5.926
 7157SOL    HW122370   6.881   3.552   5.866
 7157SOL    HW222371   7.014   3.617   5.935
 7158SOL     OW22372   4.888   6.980   3.817
 7158SOL    HW122373   4.955   7.020   3.881
 7158SOL    HW222374   4.843   0.033   3.766
 7159SOL     OW22375   0.808   6.813   3.468
 7159SOL    HW122376   0.825   6.831   3.372
 7159SOL    HW222377   0.752   6.887   3.507
 7160SOL     OW22378   5.740   6.544   2.120
 7160SOL    HW122379   5.838   6.540   2.138
 7160SOL    HW222380   5.724   6.586   2.030
 7161SOL     OW22381   3.780   3.093   1.906
 7161SOL    HW122382   3.724   3.027   1.955
 7161SOL    HW222383   3.864   3.110   1.956
 7162SOL     OW22384   0.811   6.226   0.400
 7162SOL    HW122385   0.864   6.201   0.481
 7162SOL    HW222386   0.863   6.203   0.318
 7163SOL     OW22387   6.900   6.313   6.912
 7163SOL    HW122388   6.970   6.385   6.906
 7163SOL    HW222389   6.934   6.238   6.969
 7164SOL     OW22390   0.666   6.038   6.876
 7164SOL    HW122391   0.736   5.967   6.883
 7164SOL    HW222392   0.647   6.076   6.967
 7165SOL     OW22393   4.087   2.436   6.191
 7165SOL    HW122394   4.168   2.397   6.147
 7165SOL    HW222395   4.050   2.370   6.256
 7166SOL     OW22396   0.086   6.497   5.467
 7166SOL    HW122397   0.146   6.421   5.442
 7166SOL    HW222398   7.011   6.466   5.469
 7167SOL     OW22399   0.575   3.745   5.667
 7167SOL    HW122400   0.599   3.779   5.576
 7167SOL    HW222401   0.608   3.808   5.736
 7168SOL     OW22402   0.417   6.521   2.324
 7168SOL    HW122403   0.407   6.613   2.360
 7168SOL    HW222404   0.490   6.520   2.255
 7169SOL     OW22405   1.582   5.065   5.261
 7169SOL    HW122406   1.639   5.066   5.179
 7169SOL    HW222407   1.534   4.978   5.268
 7170SOL     OW22408   4.183   2.209   2.193
 7170SOL    HW122409   4.118   2.167   2.130
 7170SOL    HW222410   4.151   2.196   2.287
 7171SOL     OW22411   0.282   5.638   2.008
 7171SOL    HW122412   0.272   5.679   2.098
 7171SOL    HW222413   0.379   5.627   1.986
 7172SOL     OW22414   1.278   3.115   3.821
 7172SOL    HW122415   1.213   3.140   3.893
 7172SOL    HW222416   1.333   3.195   3.797
 7173SOL     OW22417   3.250   5.310   4.614
 7173SOL    HW122418   3.317   5.280   4.546
 7173SOL    HW222419   3.281   5.396   4.656
 7174SOL     OW22420   6.998   3.796   2.694
 7174SOL    HW122421   0.042   3.721   2.677
 7174SOL    HW222422   6.970   3.836   2.607
 7175SOL     OW22423   6.032   2.942   5.959
 7175SOL    HW122424   5.951   2.934   6.018
 7175SOL    HW222425   6.011   2.902   5.870
 7176SOL     OW22426   6.591   2.230   6.557
 7176SOL    HW122427   6.528   2.154   6.538
 7176SOL    HW222428   6.563   2.310   6.504
 7177SOL     OW22429   1.512   5.737   4.130
 7177SOL    HW122430   1.450   5.711   4.056
 7177SOL    HW222431   1.460   5.775   4.206
 7178SOL     OW22432   0.952   6.224   5.510
 7178SOL    HW122433   0.910   6.281   5.581
 7178SOL    HW222434   1.014   6.280   5.455
 7179SOL     OW22435   5.464   4.613   5.390
 7179SOL    HW122436   5.553   4.657   5.385
 7179SOL    HW222437   5.403   4.652   5.321
 7180SOL     OW22438   6.823   2.283   2.351
 7180SOL    HW122439   6.735   2.256   2.312
 7180SOL    HW222440   6.870   2.203   2.387
 7181SOL     OW22441   3.453   0.293   0.129
 7181SOL    HW122442   3.511   0.356   0.180
 7181SOL    HW222443   3.411   0.228   0.192
 7182SOL     OW22444   1.801   0.885   2.317
 7182SOL    HW122445   1.724   0.847   2.265
 7182SOL    HW222446   1.878   0.822   2.313
 7183SOL     OW22447   1.863   6.894   0.976
 7183SOL    HW122448   1.830   6.919   1.066
 7183SOL    HW222449   1.874   6.794   0.971
 7184SOL     OW22450   6.834   1.415   3.231
 7184SOL    HW122451   6.761   1.476   3.261
 7184SOL    HW222452   6.811   1.321   3.252
 7185SOL     OW22453   3.599   0.087   3.515
 7185SOL    HW122454   3.631   0.026   3.587
 7185SOL    HW222455   3.660   0.081   3.437
 7186SOL     OW22456   6.413   2.471   6.989
 7186SOL    HW122457   6.413   2.434   6.896
 7186SOL    HW222458   6.399   2.397   0.034
 7187SOL     OW22459   2.974   3.926   4.013
 7187SOL    HW122460   2.972   3.830   4.041
 7187SOL    HW222461   2.894   3.946   3.956
 7188SOL     OW22462   4.500   5.105   0.104
 7188SOL    HW122463   4.567   5.049   0.056
 7188SOL    HW222464   4.464   5.054   0.183
 7189SOL     OW22465   6.910   2.053   5.830
 7189SOL    HW122466   6.816   2.080   5.809
 7189SOL    HW222467   6.921   1.955   5.815
 7190SOL     OW22468   5.628   5.659   0.641
 7190SOL    HW122469   5.617   5.582   0.578
 7190SOL    HW222470   5.538   5.686   0.675
 7191SOL     OW22471   0.297   5.109   2.855
 7191SOL    HW122472   0.289   5.160   2.770
 7191SOL    HW222473   0.251   5.021   2.846
 7192SOL     OW22474   3.443   3.678   5.801
 7192SOL    HW122475   3.423   3.760   5.746
 7192SOL    HW222476   3.532   3.641   5.776
 7193SOL     OW22477   3.444   1.039   4.056
 7193SOL    HW122478   3.444   0.988   4.142
 7193SOL    HW222479   3.528   1.094   4.050
 7194SOL     OW22480   3.562   2.566   5.376
 7194SOL    HW122481   3.562   2.536   5.471
 7194SOL    HW222482   3.469   2.595   5.351
 7195SOL     OW22483   6.472   4.196   5.483
 7195SOL    HW122484   6.463   4.097   5.494
 7195SOL    HW222485   6.466   4.241   5.572
 7196SOL     OW22486   2.848   4.274   1.668
 7196SOL    HW122487   2.860   4.313   1.577
 7196SOL    HW222488   2.877   4.341   1.737
 7197SOL     OW22489   3.718   4.562   6.396
 7197SOL    HW122490   3.687   4.525   6.483
 7197SOL    HW222491   3.786   4.501   6.355
 7198SOL     OW22492   1.206   6.597   2.480
 7198SOL    HW122493   1.120   6.560   2.445
 7198SOL    HW222494   1.267   6.619   2.403
 7199SOL     OW22495   6.228   1.118   3.652
 7199SOL    HW122496   6.197   1.084   3.742
 7199SOL    HW222497   6.191   1.210   3.638
 7200SOL     OW22498   0.857   3.956   6.340
 7200SOL    HW122499   0.869   3.897   6.420
 7200SOL    HW222500   0.869   3.903   6.257
 7201SOL     OW22501   5.643   5.847   5.037
 7201SOL    HW122502   5.577   5.773   5.024
 7201SOL    HW222503   5.605   5.915   5.100
 7202SOL     OW22504   4.503   0.147   5.474
 7202SOL    HW122505   4.408   0.158   5.446
 7202SOL    HW222506   4.507   0.101   5.562
 7203SOL     OW22507   1.057   1.455   0.439
 7203SOL    HW122508   1.041   1.365   0.480
 7203SOL    HW222509   0.985   1.518   0.470
 7204SOL     OW22510   5.273   0.820   2.918
 7204SOL    HW122511   5.284   0.916   2.946
 7204SOL    HW222512   5.346   0.795   2.855
 7205SOL     OW22513   2.803   1.200   3.882
 7205SOL    HW122514   2.816   1.106   3.914
 7205SOL    HW222515   2.720   1.237   3.923
 7206SOL     OW22516   2.091   2.541   6.659
 7206SOL    HW122517   2.125   2.620   6.709
 7206SOL    HW222518   2.091   2.560   6.561
 7207SOL     OW22519   1.781   2.436   3.087
 7207SOL    HW122520   1.853   2.383   3.040
 7207SOL    HW222521   1.692   2.408   3.054
 7208SOL     OW22522   2.888   0.209   3.365
 7208SOL    HW122523   2.899   0.271   3.287
 7208SOL    HW222524   2.921   0.253   3.448
 7209SOL     OW22525   4.556   0.859   2.060
 7209SOL    HW122526   4.559   0.760   2.065
 7209SOL    HW222527   4.469   0.888   2.021
 7210SOL     OW22528   3.043   1.168   4.893
 7210SOL    HW122529   3.107   1.238   4.861
 7210SOL    HW222530   3.043   1.091   4.829
 7211SOL     OW22531   4.705   5.972   6.319
 7211SOL    HW122532   4.651   5.893   6.288
 7211SOL    HW222533   4.646   6.034   6.371
 7212SOL     OW22534   0.047   5.878   3.901
 7212SOL    HW122535   0.146   5.885   3.891
 7212SOL    HW222536   0.025   5.855   3.996
 7213SOL     OW22537   5.076   2.767   0.316
 7213SOL    HW122538   5.075   2.827   0.236
 7213SOL    HW222539   5.168   2.764   0.354
 7214SOL     OW22540   6.534   1.585   5.846
 7214SOL    HW122541   6.586   1.665   5.875
 7214SOL    HW222542   6.522   1.524   5.924
 7215SOL     OW22543   6.383   1.102   2.353
 7215SOL    HW122544   6.315   1.055   2.410
 7215SOL    HW222545   6.415   1.039   2.282
 7216SOL     OW22546   5.307   6.296   3.852
 7216SOL    HW122547   5.375   6.287   3.925
 7216SOL    HW222548   5.315   6.386   3.810
 7217SOL     OW22549   0.900   3.454   3.148
 7217SOL    HW122550   0.985   3.498   3.119
 7217SOL    HW222551   0.850   3.420   3.069
 7218SOL     OW22552   6.534   2.821   5.402
 7218SOL    HW122553   6.517   2.912   5.441
 7218SOL    HW222554   6.630   2.815   5.373
 7219SOL     OW22555   3.631   5.746   1.041
 7219SOL    HW122556   3.647   5.780   0.949
 7219SOL    HW222557   3.534   5.723   1.052
 7220SOL     OW22558   0.006   3.386   3.805
 7220SOL    HW122559   6.934   3.426   3.805
 7220SOL    HW222560   0.024   3.343   3.893
 7221SOL     OW22561   4.764   4.703   3.624
 7221SOL    HW122562   4.674   4.746   3.611
 7221SOL    HW222563   4.812   4.749   3.698
 7222SOL     OW22564   6.489   6.064   3.869
 7222SOL    HW122565   6.402   6.016   3.881
 7222SOL    HW222566   6.479   6.137   3.802
 7223SOL     OW22567   6.499   5.542   1.539
 7223SOL    HW122568   6.580   5.502   1.496
 7223SOL    HW222569   6.494   5.640   1.516
 7224SOL     OW22570   5.567   2.693   2.507
 7224SOL    HW122571   5.498   2.628   2.475
 7224SOL    HW222572   5.658   2.661   2.478
 7225SOL     OW22573   1.249   5.297   0.586
 7225SOL    HW122574   1.330   5.301   0.645
 7225SOL    HW222575   1.259   5.222   0.522
 7226SOL     OW22576   6.521   6.512   0.190
 7226SOL    HW122577   6.453   6.459   0.138
 7226SOL    HW222578   6.608   6.511   0.142
 7227SOL     OW22579   2.231   0.882   1.973
 7227SOL    HW122580   2.243   0.788   2.004
 7227SOL    HW222581   2.160   0.884   1.902
 7228SOL     OW22582   6.456   3.621   2.976
 7228SOL    HW122583   6.448   3.677   3.059
 7228SOL    HW222584   6.531   3.655   2.920
 7229SOL     OW22585   6.032   6.871   5.165
 7229SOL    HW122586   6.097   6.797   5.147
 7229SOL    HW222587   6.074   6.958   5.141
 7230SOL     OW22588   2.305   5.096   5.355
 7230SOL    HW122589   2.272   5.005   5.379
 7230SOL    HW222590   2.227   5.157   5.338
 7231SOL     OW22591   3.590   3.523   6.880
 7231SOL    HW122592   3.640   3.594   6.930
 7231SOL    HW222593   3.493   3.546   6.877
 7232SOL     OW22594   4.515   5.906   3.444
 7232SOL    HW122595   4.425   5.948   3.450
 7232SOL    HW222596   4.585   5.976   3.458
 7233SOL     OW22597   0.430   1.784   6.605
 7233SOL    HW122598   0.396   1.844   6.533
 7233SOL    HW222599   0.505   1.728   6.570
 7234SOL     OW22600   5.484   4.709   3.424
 7234SOL    HW122601   5.426   4.684   3.502
 7234SOL    HW222602   5.434   4.773   3.365
 7235SOL     OW22603   6.895   0.351   1.210
 7235SOL    HW122604   6.909   0.415   1.134
 7235SOL    HW222605   6.823   0.286   1.186
 7236SOL     OW22606   0.669   3.770   2.562
 7236SOL    HW122607   0.613   3.708   2.617
 7236SOL    HW222608   0.620   3.793   2.478
 7237SOL     OW22609   4.967   1.023   0.349
 7237SOL    HW122610   4.979   0.944   0.408
 7237SOL    HW222611   4.917   0.996   0.267
 7238SOL     OW22612   4.933   3.328   0.418
 7238SOL    HW122613   4.914   3.235   0.386
 7238SOL    HW222614   4.958   3.385   0.340
 7239SOL     OW22615   6.152   2.962   2.131
 7239SOL    HW122616   6.185   2.887   2.074
 7239SOL    HW222617   6.091   3.020   2.078
 7240SOL     OW22618   0.599   1.902   0.449
 7240SOL    HW122619   0.612   1.935   0.542
 7240SOL    HW222620   0.508   1.926   0.417
 7241SOL     OW22621   1.986   0.468   2.846
 7241SOL    HW122622   2.075   0.507   2.822
 7241SOL    HW222623   1.996   0.410   2.926
 7242SOL     OW22624   6.356   3.798   6.193
 7242SOL    HW122625   6.309   3.848   6.265
 7242SOL    HW222626   6.414   3.861   6.141
 7243SOL     OW22627   5.955   4.878   6.296
 7243SOL    HW122628   6.022   4.904   6.227
 7243SOL    HW222629   5.874   4.936   6.288
 7244SOL     OW22630   6.690   6.133   0.164
 7244SOL    HW122631   6.779   6.118   0.122
 7244SOL    HW222632   6.677   6.068   0.239
 7245SOL     OW22633   1.905   2.616   0.252
 7245SOL    HW122634   1.812   2.584   0.273
 7245SOL    HW222635   1.946   2.654   0.334
 7246SOL     OW22636   4.704   0.180   4.568
 7246SOL    HW122637   4.655   0.100   4.603
 7246SOL    HW222638   4.779   0.150   4.510
 7247SOL     OW22639   3.470   4.113   4.622
 7247SOL    HW122640   3.556   4.164   4.625
 7247SOL    HW222641   3.489   4.015   4.618
 7248SOL     OW22642   2.013   2.217   4.865
 7248SOL    HW122643   2.046   2.278   4.937
 7248SOL    HW222644   1.957   2.144   4.905
 7249SOL     OW22645   3.423   5.518   2.921
 7249SOL    HW122646   3.426   5.569   3.008
 7249SOL    HW222647   3.514   5.518   2.880
 7250SOL     OW22648   5.070   5.774   5.251
 7250SOL    HW122649   5.028   5.864   5.257
 7250SOL    HW222650   5.007   5.705   5.287
 7251SOL     OW22651   0.519   5.808   4.225
 7251SOL    HW122652   0.612   5.770   4.226
 7251SOL    HW222653   0.518   5.893   4.278
 7252SOL     OW22654   3.820   4.197   1.569
 7252SOL    HW122655   3.788   4.123   1.511
 7252SOL    HW222656   3.760   4.206   1.649
 7253SOL     OW22657   1.357   5.026   5.642
 7253SOL    HW122658   1.290   5.082   5.691
 7253SOL    HW222659   1.403   5.083   5.573
 7254SOL     OW22660   0.067   3.659   3.778
 7254SOL    HW122661   0.093   3.562   3.773
 7254SOL    HW222662   0.019   3.677   3.863
 7255SOL     OW22663   4.811   3.677   0.722
 7255SOL    HW122664   4.744   3.605   0.700
 7255SOL    HW222665   4.796   3.755   0.662
 7256SOL     OW22666   3.089   6.953   4.394
 7256SOL    HW122667   3.189   6.962   4.391
 7256SOL    HW222668   3.058   6.965   4.489
 7257SOL     OW22669   0.876   1.483   5.087
 7257SOL    HW122670   0.881   1.490   5.186
 7257SOL    HW222671   0.877   1.575   5.047
 7258SOL     OW22672   6.413   1.942   2.871
 7258SOL    HW122673   6.318   1.922   2.848
 7258SOL    HW222674   6.431   1.917   2.966
 7259SOL     OW22675   1.466   4.072   2.535
 7259SOL    HW122676   1.409   4.125   2.597
 7259SOL    HW222677   1.446   3.975   2.544
 7260SOL     OW22678   6.082   2.981   1.072
 7260SOL    HW122679   5.987   3.004   1.095
 7260SOL    HW222680   6.141   3.006   1.149
 7261SOL     OW22681   0.191   4.330   7.019
 7261SOL    HW122682   0.114   4.267   7.010
 7261SOL    HW222683   0.197   4.386   6.937
 7262SOL     OW22684   3.186   0.364   5.267
 7262SOL    HW122685   3.136   0.322   5.343
 7262SOL    HW222686   3.171   0.463   5.268
 7263SOL     OW22687   5.959   5.531   5.579
 7263SOL    HW122688   5.953   5.578   5.491
 7263SOL    HW222689   6.051   5.543   5.617
 7264SOL     OW22690   5.144   1.330   1.461
 7264SOL    HW122691   5.123   1.240   1.423
 7264SOL    HW222692   5.094   1.401   1.410
 7265SOL     OW22693   3.449   0.136   5.565
 7265SOL    HW122694   3.522   0.182   5.514
 7265SOL    HW222695   3.410   0.062   5.510
 7266SOL     OW22696   6.795   0.615   3.172
 7266SOL    HW122697   6.751   0.698   3.207
 7266SOL    HW222698   6.877   0.639   3.121
 7267SOL     OW22699   6.802   4.086   5.552
 7267SOL    HW122700   6.767   4.165   5.502
 7267SOL    HW222701   6.815   4.009   5.489
 7268SOL     OW22702   5.596   5.993   4.269
 7268SOL    HW122703   5.692   5.978   4.290
 7268SOL    HW222704   5.559   6.065   4.329
 7269SOL     OW22705   3.074   5.497   4.442
 7269SOL    HW122706   2.977   5.486   4.466
 7269SOL    HW222707   3.123   5.412   4.462
 7270SOL     OW22708   0.505   1.148   4.378
 7270SOL    HW122709   0.546   1.219   4.320
 7270SOL    HW222710   0.448   1.088   4.322
 7271SOL     OW22711   0.791   4.773   2.788
 7271SOL    HW122712   0.794   4.823   2.875
 7271SOL    HW222713   0.708   4.716   2.786
 7272SOL     OW22714   6.527   4.062   1.622
 7272SOL    HW122715   6.454   4.105   1.568
 7272SOL    HW222716   6.613   4.067   1.572
 7273SOL     OW22717   6.853   1.257   4.826
 7273SOL    HW122718   6.824   1.334   4.768
 7273SOL    HW222719   6.865   1.175   4.770
 7274SOL     OW22720   0.419   5.404   6.223
 7274SOL    HW122721   0.412   5.496   6.262
 7274SOL    HW222722   0.329   5.362   6.220
 7275SOL     OW22723   0.783   4.944   3.023
 7275SOL    HW122724   0.715   4.922   3.094
 7275SOL    HW222725   0.786   5.043   3.011
 7276SOL     OW22726   5.110   6.555   3.541
 7276SOL    HW122727   5.088   6.471   3.492
 7276SOL    HW222728   5.209   6.572   3.536
 7277SOL     OW22729   4.702   1.077   0.426
 7277SOL    HW122730   4.654   1.026   0.354
 7277SOL    HW222731   4.792   1.038   0.440
 7278SOL     OW22732   3.760   2.952   2.561
 7278SOL    HW122733   3.664   2.954   2.591
 7278SOL    HW222734   3.772   2.879   2.493
 7279SOL     OW22735   3.496   6.331   6.225
 7279SOL    HW122736   3.491   6.314   6.127
 7279SOL    HW222737   3.462   6.252   6.275
 7280SOL     OW22738   4.298   0.180   5.700
 7280SOL    HW122739   4.343   0.258   5.658
 7280SOL    HW222740   4.337   0.164   5.791
 7281SOL     OW22741   5.701   0.901   6.410
 7281SOL    HW122742   5.738   0.810   6.428
 7281SOL    HW222743   5.620   0.894   6.352
 7282SOL     OW22744   6.101   5.904   3.008
 7282SOL    HW122745   6.171   5.859   3.062
 7282SOL    HW222746   6.055   5.836   2.950
 7283SOL     OW22747   2.237   1.524   3.380
 7283SOL    HW122748   2.193   1.560   3.298
 7283SOL    HW222749   2.237   1.596   3.451
 7284SOL     OW22750   1.514   1.651   4.789
 7284SOL    HW122751   1.528   1.556   4.817
 7284SOL    HW222752   1.439   1.655   4.723
 7285SOL     OW22753   6.170   4.994   2.173
 7285SOL    HW122754   6.234   5.035   2.107
 7285SOL    HW222755   6.222   4.944   2.243
 7286SOL     OW22756   1.514   4.254   0.730
 7286SOL    HW122757   1.473   4.260   0.639
 7286SOL    HW222758   1.609   4.224   0.722
 7287SOL     OW22759   6.599   1.991   6.219
 7287SOL    HW122760   6.535   1.926   6.176
 7287SOL    HW222761   6.553   2.078   6.233
 7288SOL     OW22762   2.787   0.295   0.158
 7288SOL    HW122763   2.732   0.212   0.173
 7288SOL    HW222764   2.828   0.324   0.244
 7289SOL     OW22765   4.401   2.096   3.359
 7289SOL    HW122766   4.426   2.136   3.271
 7289SOL    HW222767   4.397   2.168   3.428
 7290SOL     OW22768   2.484   5.697   4.334
 7290SOL    HW122769   2.434   5.751   4.401
 7290SOL    HW222770   2.498   5.751   4.251
 7291SOL     OW22771   3.585   5.367   1.175
 7291SOL    HW122772   3.634   5.445   1.214
 7291SOL    HW222773   3.642   5.285   1.182
 7292SOL     OW22774   3.494   0.255   4.672
 7292SOL    HW122775   3.484   0.272   4.574
 7292SOL    HW222776   3.454   0.330   4.724
 7293SOL     OW22777   2.432   1.385   6.168
 7293SOL    HW122778   2.370   1.376   6.246
 7293SOL    HW222779   2.391   1.341   6.088
 7294SOL     OW22780   5.727   5.563   6.301
 7294SOL    HW122781   5.810   5.562   6.357
 7294SOL    HW222782   5.651   5.524   6.353
 7295SOL     OW22783   4.722   6.753   1.593
 7295SOL    HW122784   4.729   6.842   1.547
 7295SOL    HW222785   4.732   6.766   1.691
 7296SOL     OW22786   4.123   4.892   0.591
 7296SOL    HW122787   4.025   4.886   0.571
 7296SOL    HW222788   4.155   4.984   0.573
 7297SOL     OW22789   4.889   6.452   2.529
 7297SOL    HW122790   4.805   6.483   2.573
 7297SOL    HW222791   4.888   6.477   2.432
 7298SOL     OW22792   6.148   3.114   4.188
 7298SOL    HW122793   6.082   3.112   4.113
 7298SOL    HW222794   6.114   3.174   4.260
 7299SOL     OW22795   5.294   3.378   6.705
 7299SOL    HW122796   5.283   3.452   6.638
 7299SOL    HW222797   5.384   3.336   6.693
 7300SOL     OW22798   4.668   5.011   1.182
 7300SOL    HW122799   4.765   5.034   1.187
 7300SOL    HW222800   4.616   5.071   1.242
 7301SOL     OW22801   6.640   1.338   6.467
 7301SOL    HW122802   6.702   1.406   6.427
 7301SOL    HW222803   6.663   1.248   6.431
 7302SOL     OW22804   6.687   0.864   6.352
 7302SOL    HW122805   6.752   0.825   6.286
 7302SOL    HW222806   6.676   0.802   6.429
 7303SOL     OW22807   4.451   0.585   1.170
 7303SOL    HW122808   4.477   0.682   1.168
 7303SOL    HW222809   4.518   0.532   1.118
 7304SOL     OW22810   4.050   3.220   4.764
 7304SOL    HW122811   4.087   3.151   4.826
 7304SOL    HW222812   3.952   3.202   4.748
 7305SOL     OW22813   5.825   2.433   0.110
 7305SOL    HW122814   5.756   2.489   0.065
 7305SOL    HW222815   5.810   2.337   0.086
 7306SOL     OW22816   4.864   5.036   1.795
 7306SOL    HW122817   4.812   5.046   1.710
 7306SOL    HW222818   4.903   5.124   1.821
 7307SOL     OW22819   4.253   6.543   2.313
 7307SOL    HW122820   4.220   6.618   2.370
 7307SOL    HW222821   4.202   6.540   2.228
 7308SOL     OW22822   5.614   0.740   4.137
 7308SOL    HW122823   5.621   0.764   4.040
 7308SOL    HW222824   5.552   0.662   4.148
 7309SOL     OW22825   4.458   4.438   0.844
 7309SOL    HW122826   4.385   4.449   0.777
 7309SOL    HW222827   4.539   4.401   0.798
 7310SOL     OW22828   2.203   5.913   1.943
 7310SOL    HW122829   2.159   5.968   2.015
 7310SOL    HW222830   2.161   5.822   1.941
 7311SOL     OW22831   3.042   2.100   1.909
 7311SOL    HW122832   3.011   2.114   1.815
 7311SOL    HW222833   3.005   2.172   1.968
 7312SOL     OW22834   0.318   2.418   6.670
 7312SOL    HW122835   0.295   2.323   6.647
 7312SOL    HW222836   0.377   2.420   6.751
 7313SOL     OW22837   3.476   2.317   6.165
 7313SOL    HW122838   3.467   2.397   6.106
 7313SOL    HW222839   3.413   2.325   6.242
 7314SOL     OW22840   0.813   1.854   4.631
 7314SOL    HW122841   0.773   1.888   4.717
 7314SOL    HW222842   0.771   1.767   4.607
 7315SOL     OW22843   0.171   1.168   5.815
 7315SOL    HW122844   0.205   1.253   5.775
 7315SOL    HW222845   0.228   1.092   5.785
 7316SOL     OW22846   4.112   3.335   4.002
 7316SOL    HW122847   4.100   3.318   3.905
 7316SOL    HW222848   4.089   3.253   4.054
 7317SOL     OW22849   2.983   0.625   4.057
 7317SOL    HW122850   2.886   0.645   4.061
 7317SOL    HW222851   3.028   0.659   4.140
 7318SOL     OW22852   1.433   0.918   1.325
 7318SOL    HW122853   1.371   0.959   1.391
 7318SOL    HW222854   1.503   0.985   1.298
 7319SOL     OW22855   6.862   4.705   6.311
 7319SOL    HW122856   6.935   4.748   6.365
 7319SOL    HW222857   6.841   4.615   6.349
 7320SOL     OW22858   0.525   1.643   2.164
 7320SOL    HW122859   0.520   1.728   2.216
 7320SOL    HW222860   0.514   1.662   2.067
 7321SOL     OW22861   3.245   1.462   4.201
 7321SOL    HW122862   3.180   1.423   4.135
 7321SOL    HW222863   3.284   1.546   4.163
 7322SOL     OW22864   1.305   3.037   1.673
 7322SOL    HW122865   1.299   2.959   1.611
 7322SOL    HW222866   1.337   3.006   1.762
 7323SOL     OW22867   2.346   4.270   2.973
 7323SOL    HW122868   2.277   4.268   3.045
 7323SOL    HW222869   2.435   4.291   3.013
 7324SOL     OW22870   4.983   5.158   3.593
 7324SOL    HW122871   4.887   5.138   3.613
 7324SOL    HW222872   5.004   5.251   3.624
 7325SOL     OW22873   3.079   6.548   0.840
 7325SOL    HW122874   3.009   6.479   0.827
 7325SOL    HW222875   3.129   6.561   0.754
 7326SOL     OW22876   2.649   0.577   4.112
 7326SOL    HW122877   2.642   0.510   4.038
 7326SOL    HW222878   2.566   0.633   4.115
 7327SOL     OW22879   1.284   3.334   5.867
 7327SOL    HW122880   1.225   3.257   5.843
 7327SOL    HW222881   1.282   3.347   5.967
 7328SOL     OW22882   2.168   6.621   6.898
 7328SOL    HW122883   2.131   6.534   6.865
 7328SOL    HW222884   2.093   6.686   6.913
 7329SOL     OW22885   4.661   3.893   1.786
 7329SOL    HW122886   4.607   3.976   1.773
 7329SOL    HW222887   4.625   3.820   1.727
 7330SOL     OW22888   3.979   2.202   0.917
 7330SOL    HW122889   3.994   2.239   1.009
 7330SOL    HW222890   3.953   2.276   0.855
 7331SOL     OW22891   6.103   1.608   1.418
 7331SOL    HW122892   6.090   1.510   1.434
 7331SOL    HW222893   6.159   1.646   1.491
 7332SOL     OW22894   3.550   6.638   0.388
 7332SOL    HW122895   3.541   6.563   0.454
 7332SOL    HW222896   3.638   6.683   0.401
 7333SOL     OW22897   0.195   4.679   2.362
 7333SOL    HW122898   0.168   4.771   2.388
 7333SOL    HW222899   0.281   4.682   2.312
 7334SOL     OW22900   3.046   0.347   4.654
 7334SOL    HW122901   3.113   0.417   4.627
 7334SOL    HW222902   3.092   0.276   4.708
 7335SOL     OW22903   1.943   3.163   3.120
 7335SOL    HW122904   1.845   3.150   3.134
 7335SOL    HW222905   1.958   3.243   3.063
 7336SOL     OW22906   1.417   6.411   4.420
 7336SOL    HW122907   1.464   6.406   4.509
 7336SOL    HW222908   1.477   6.458   4.354
 7337SOL     OW22909   5.412   2.385   1.368
 7337SOL    HW122910   5.430   2.324   1.291
 7337SOL    HW222911   5.478   2.460   1.368
 7338SOL     OW22912   0.276   3.992   0.190
 7338SOL    HW122913   0.238   4.038   0.270
 7338SOL    HW222914   0.358   3.941   0.217
 7339SOL     OW22915   1.721   5.999   4.904
 7339SOL    HW122916   1.700   5.916   4.852
 7339SOL    HW222917   1.708   5.981   5.001
 7340SOL     OW22918   2.960   6.989   6.520
 7340SOL    HW122919   2.947   6.905   6.468
 7340SOL    HW222920   2.910   0.044   6.476
 7341SOL     OW22921   5.990   1.910   0.401
 7341SOL    HW122922   6.004   1.812   0.414
 7341SOL    HW222923   5.949   1.948   0.483
 7342SOL     OW22924   0.283   6.290   1.735
 7342SOL    HW122925   0.212   6.234   1.776
 7342SOL    HW222926   0.344   6.232   1.681
 7343SOL     OW22927   6.134   2.850   0.512
 7343SOL    HW122928   6.040   2.815   0.513
 7343SOL    HW222929   6.191   2.791   0.455
 7344SOL     OW22930   2.791   0.113   6.011
 7344SOL    HW122931   2.841   0.047   6.067
 7344SOL    HW222932   2.789   0.081   5.916
 7345SOL     OW22933   4.038   5.911   6.400
 7345SOL    HW122934   4.117   5.875   6.351
 7345SOL    HW222935   3.956   5.901   6.344
 7346SOL     OW22936   4.201   5.052   2.141
 7346SOL    HW122937   4.280   5.068   2.200
 7346SOL    HW222938   4.197   5.123   2.070
 7347SOL     OW22939   5.056   1.117   6.777
 7347SOL    HW122940   5.022   1.026   6.798
 7347SOL    HW222941   5.149   1.110   6.740
 7348SOL     OW22942   0.463   5.951   0.204
 7348SOL    HW122943   0.544   5.897   0.181
 7348SOL    HW222944   0.393   5.892   0.243
 7349SOL     OW22945   4.662   1.235   1.483
 7349SOL    HW122946   4.675   1.287   1.568
 7349SOL    HW222947   4.616   1.293   1.416
 7350SOL     OW22948   3.724   0.860   4.871
 7350SOL    HW122949   3.814   0.859   4.827
 7350SOL    HW222950   3.668   0.933   4.832
 7351SOL     OW22951   2.153   4.647   4.678
 7351SOL    HW122952   2.202   4.698   4.748
 7351SOL    HW222953   2.162   4.549   4.695
 7352SOL     OW22954   5.577   3.228   4.259
 7352SOL    HW122955   5.588   3.193   4.166
 7352SOL    HW222956   5.636   3.308   4.272
 7353SOL     OW22957   6.907   1.678   5.408
 7353SOL    HW122958   6.917   1.652   5.312
 7353SOL    HW222959   6.909   1.595   5.465
 7354SOL     OW22960   0.960   1.922   2.296
 7354SOL    HW122961   0.979   1.922   2.394
 7354SOL    HW222962   0.994   2.007   2.256
 7355SOL     OW22963   3.349   1.842   0.355
 7355SOL    HW122964   3.281   1.912   0.333
 7355SOL    HW222965   3.318   1.753   0.320
 7356SOL     OW22966   4.160   4.579   5.892
 7356SOL    HW122967   4.160   4.604   5.989
 7356SOL    HW222968   4.067   4.557   5.863
 7357SOL     OW22969   4.431   6.337   1.975
 7357SOL    HW122970   4.466   6.262   1.919
 7357SOL    HW222971   4.408   6.303   2.066
 7358SOL     OW22972   4.381   6.908   2.682
 7358SOL    HW122973   4.444   6.895   2.606
 7358SOL    HW222974   4.307   6.841   2.676
 7359SOL     OW22975   3.954   0.039   2.142
 7359SOL    HW122976   3.859   0.068   2.155
 7359SOL    HW222977   3.957   6.958   2.141
 7360SOL     OW22978   2.592   3.808   5.960
 7360SOL    HW122979   2.643   3.768   5.884
 7360SOL    HW222980   2.637   3.785   6.046
 7361SOL     OW22981   6.127   0.815   3.702
 7361SOL    HW122982   6.179   0.801   3.617
 7361SOL    HW222983   6.176   0.878   3.761
 7362SOL     OW22984   3.764   5.966   0.488
 7362SOL    HW122985   3.670   5.998   0.476
 7362SOL    HW222986   3.782   5.953   0.586
 7363SOL     OW22987   4.606   0.555   0.765
 7363SOL    HW122988   4.646   0.507   0.687
 7363SOL    HW222989   4.508   0.570   0.749
 7364SOL     OW22990   5.643   6.221   1.830
 7364SOL    HW122991   5.725   6.273   1.853
 7364SOL    HW222992   5.572   6.284   1.797
 7365SOL     OW22993   5.089   2.999   2.197
 7365SOL    HW122994   5.005   3.049   2.177
 7365SOL    HW222995   5.104   2.998   2.296
 7366SOL     OW22996   2.183   6.846   3.131
 7366SOL    HW122997   2.099   6.893   3.104
 7366SOL    HW222998   2.262   6.890   3.087
 7367SOL     OW22999   4.252   1.096   6.908
 7367SOL    HW123000   4.276   1.178   6.960
 7367SOL    HW223001   4.330   1.034   6.904
 7368SOL     OW23002   3.079   3.974   2.828
 7368SOL    HW123003   3.126   3.974   2.740
 7368SOL    HW223004   3.131   4.030   2.893
 7369SOL     OW23005   5.872   3.667   0.300
 7369SOL    HW123006   5.964   3.628   0.298
 7369SOL    HW223007   5.819   3.630   0.224
 7370SOL     OW23008   1.777   0.774   4.038
 7370SOL    HW123009   1.855   0.722   4.002
 7370SOL    HW223010   1.782   0.776   4.138
 7371SOL     OW23011   4.003   0.607   3.685
 7371SOL    HW123012   3.932   0.572   3.746
 7371SOL    HW223013   3.965   0.679   3.627
 7372SOL     OW23014   4.074   1.309   5.177
 7372SOL    HW123015   3.997   1.373   5.169
 7372SOL    HW223016   4.046   1.219   5.145
 7373SOL     OW23017   6.605   3.032   3.939
 7373SOL    HW123018   6.511   3.012   3.912
 7373SOL    HW223019   6.639   2.959   3.999
 7374SOL     OW23020   0.261   2.922   6.196
 7374SOL    HW123021   0.347   2.918   6.144
 7374SOL    HW223022   0.281   2.951   6.290
 7375SOL     OW23023   2.100   2.972   1.181
 7375SOL    HW123024   2.038   2.981   1.103
 7375SOL    HW223025   2.053   2.999   1.265
 7376SOL     OW23026   6.798   5.309   0.476
 7376SOL    HW123027   6.884   5.258   0.474
 7376SOL    HW223028   6.729   5.254   0.522
 7377SOL     OW23029   2.472   5.982   1.280
 7377SOL    HW123030   2.516   6.000   1.192
 7377SOL    HW223031   2.384   6.028   1.284
 7378SOL     OW23032   2.506   5.194   5.801
 7378SOL    HW123033   2.593   5.243   5.803
 7378SOL    HW223034   2.500   5.142   5.715
 7379SOL     OW23035   5.395   2.517   2.411
 7379SOL    HW123036   5.466   2.487   2.348
 7379SOL    HW223037   5.305   2.493   2.373
 7380SOL     OW23038   5.117   3.595   1.803
 7380SOL    HW123039   5.118   3.498   1.778
 7380SOL    HW223040   5.037   3.639   1.762
 7381SOL     OW23041   3.760   7.012   1.782
 7381SOL    HW123042   3.792   6.973   1.696
 7381SOL    HW223043   3.828   0.057   1.817
 7382SOL     OW23044   0.510   2.417   6.874
 7382SOL    HW123045   0.607   2.442   6.878
 7382SOL    HW223046   0.502   2.318   6.861
 7383SOL     OW23047   2.360   6.987   1.153
 7383SOL    HW123048   2.294   0.039   1.131
 7383SOL    HW223049   2.452   7.016   1.127
 7384SOL     OW23050   6.792   0.606   0.055
 7384SOL    HW123051   6.849   0.564   0.126
 7384SOL    HW223052   6.714   0.651   0.098
 7385SOL     OW23053   6.431   4.572   3.336
 7385SOL    HW123054   6.471   4.579   3.427
 7385SOL    HW223055   6.469   4.491   3.289
 7386SOL     OW23056   6.478   4.280   0.317
 7386SOL    HW123057   6.434   4.239   0.237
 7386SOL    HW223058   6.576   4.288   0.300
 7387SOL     OW23059   6.740   5.763   4.270
 7387SOL    HW123060   6.836   5.785   4.251
 7387SOL    HW223061   6.723   5.773   4.368
 7388SOL     OW23062   2.220   4.148   2.519
 7388SOL    HW123063   2.181   4.240   2.526
 7388SOL    HW223064   2.281   4.144   2.440
 7389SOL     OW23065   6.789   2.769   0.828
 7389SOL    HW123066   6.726   2.825   0.882
 7389SOL    HW223067   6.740   2.691   0.789
 7390SOL     OW23068   3.765   2.032   4.046
 7390SOL    HW123069   3.715   2.020   4.132
 7390SOL    HW223070   3.751   1.953   3.988
 7391SOL     OW23071   3.505   3.830   2.871
 7391SOL    HW123072   3.494   3.853   2.967
 7391SOL    HW223073   3.476   3.907   2.814
 7392SOL     OW23074   3.395   6.497   0.644
 7392SOL    HW123075   3.314   6.523   0.592
 7392SOL    HW223076   3.460   6.451   0.584
 7393SOL     OW23077   5.051   5.338   3.265
 7393SOL    HW123078   4.956   5.362   3.280
 7393SOL    HW223079   5.067   5.244   3.295
 7394SOL     OW23080   1.779   2.153   6.272
 7394SOL    HW123081   1.801   2.215   6.197
 7394SOL    HW223082   1.695   2.183   6.317
 7395SOL     OW23083   2.927   6.271   1.352
 7395SOL    HW123084   2.852   6.207   1.371
 7395SOL    HW223085   3.011   6.219   1.338
 7396SOL     OW23086   1.366   5.053   2.398
 7396SOL    HW123087   1.306   5.112   2.452
 7396SOL    HW223088   1.350   5.069   2.300
 7397SOL     OW23089   6.032   4.803   4.070
 7397SOL    HW123090   6.060   4.894   4.100
 7397SOL    HW223091   5.934   4.803   4.052
 7398SOL     OW23092   3.304   5.098   2.056
 7398SOL    HW123093   3.256   5.011   2.070
 7398SOL    HW223094   3.367   5.090   1.979
 7399SOL     OW23095   6.523   1.841   5.265
 7399SOL    HW123096   6.501   1.938   5.253
 7399SOL    HW223097   6.589   1.830   5.339
 7400SOL     OW23098   4.139   3.375   5.522
 7400SOL    HW123099   4.049   3.408   5.493
 7400SOL    HW223100   4.153   3.282   5.488
 7401SOL     OW23101   1.872   2.281   3.984
 7401SOL    HW123102   1.776   2.254   3.996
 7401SOL    HW223103   1.884   2.325   3.895
 7402SOL     OW23104   3.450   5.234   4.138
 7402SOL    HW123105   3.500   5.295   4.198
 7402SOL    HW223106   3.414   5.157   4.191
 7403SOL     OW23107   1.730   4.931   4.268
 7403SOL    HW123108   1.639   4.956   4.233
 7403SOL    HW223109   1.770   4.862   4.207
 7404SOL     OW23110   1.760   3.594   0.923
 7404SOL    HW123111   1.859   3.596   0.908
 7404SOL    HW223112   1.731   3.499   0.935
 7405SOL     OW23113   3.622   6.790   6.243
 7405SOL    HW123114   3.612   6.716   6.309
 7405SOL    HW223115   3.532   6.826   6.218
 7406SOL     OW23116   0.137   2.504   4.430
 7406SOL    HW123117   0.202   2.558   4.482
 7406SOL    HW223118   0.178   2.415   4.408
 7407SOL     OW23119   1.299   6.337   4.714
 7407SOL    HW123120   1.290   6.253   4.662
 7407SOL    HW223121   1.372   6.393   4.676
 7408SOL     OW23122   4.167   5.229   5.608
 7408SOL    HW123123   4.187   5.304   5.671
 7408SOL    HW223124   4.082   5.249   5.559
 7409SOL     OW23125   6.460   5.169   1.607
 7409SOL    HW123126   6.489   5.207   1.695
 7409SOL    HW223127   6.398   5.233   1.562
 7410SOL     OW23128   6.123   0.946   0.794
 7410SOL    HW123129   6.135   0.962   0.696
 7410SOL    HW223130   6.182   1.009   0.845
 7411SOL     OW23131   3.903   1.780   5.056
 7411SOL    HW123132   3.888   1.861   5.001
 7411SOL    HW223133   3.888   1.802   5.153
 7412SOL     OW23134   4.238   6.546   6.737
 7412SOL    HW123135   4.239   6.578   6.832
 7412SOL    HW223136   4.317   6.486   6.721
 7413SOL     OW23137   5.069   1.016   3.767
 7413SOL    HW123138   4.992   1.047   3.712
 7413SOL    HW223139   5.114   0.940   3.720
 7414SOL     OW23140   2.804   0.957   4.038
 7414SOL    HW123141   2.902   0.965   4.019
 7414SOL    HW223142   2.789   0.968   4.137
 7415SOL     OW23143   4.439   0.938   6.033
 7415SOL    HW123144   4.484   1.007   5.976
 7415SOL    HW223145   4.364   0.897   5.982
 7416SOL     OW23146   1.112   0.085   1.618
 7416SOL    HW123147   1.085   0.180   1.604
 7416SOL    HW223148   1.053   0.025   1.565
 7417SOL     OW23149   0.423   0.428   2.254
 7417SOL    HW123150   0.496   0.361   2.261
 7417SOL    HW223151   0.364   0.422   2.335
 7418SOL     OW23152   1.726   3.660   6.342
 7418SOL    HW123153   1.771   3.719   6.275
 7418SOL    HW223154   1.776   3.663   6.429
 7419SOL     OW23155   6.498   2.771   4.382
 7419SOL    HW123156   6.568   2.772   4.311
 7419SOL    HW223157   6.536   2.728   4.465
 7420SOL     OW23158   0.050   0.063   0.701
 7420SOL    HW123159   6.997   0.058   0.770
 7420SOL    HW223160   0.123   0.122   0.735
 7421SOL     OW23161   6.330   3.688   0.917
 7421SOL    HW123162   6.317   3.744   0.836
 7421SOL    HW223163   6.424   3.654   0.920
 7422SOL     OW23164   5.844   3.573   1.695
 7422SOL    HW123165   5.756   3.620   1.700
 7422SOL    HW223166   5.847   3.516   1.613
 7423SOL     OW23167   4.223   2.597   5.602
 7423SOL    HW123168   4.146   2.535   5.586
 7423SOL    HW223169   4.252   2.637   5.515
 7424SOL     OW23170   0.257   2.053   3.736
 7424SOL    HW123171   0.348   2.081   3.708
 7424SOL    HW223172   0.201   2.134   3.755
 7425SOL     OW23173   5.581   0.225   0.999
 7425SOL    HW123174   5.541   0.197   0.912
 7425SOL    HW223175   5.632   0.310   0.986
 7426SOL     OW23176   3.641   3.376   5.231
 7426SOL    HW123177   3.546   3.355   5.253
 7426SOL    HW223178   3.670   3.321   5.152
 7427SOL     OW23179   2.635   0.849   1.686
 7427SOL    HW123180   2.703   0.899   1.739
 7427SOL    HW223181   2.679   0.775   1.636
 7428SOL     OW23182   1.922   6.719   5.206
 7428SOL    HW123183   1.932   6.775   5.124
 7428SOL    HW223184   1.988   6.748   5.276
 7429SOL     OW23185   0.922   0.871   2.469
 7429SOL    HW123186   0.891   0.942   2.407
 7429SOL    HW223187   0.849   0.849   2.534
 7430SOL     OW23188   6.527   4.199   2.610
 7430SOL    HW123189   6.539   4.281   2.553
 7430SOL    HW223190   6.429   4.179   2.619
 7431SOL     OW23191   1.025   2.356   4.542
 7431SOL    HW123192   0.935   2.355   4.499
 7431SOL    HW223193   1.044   2.267   4.583
 7432SOL     OW23194   1.438   1.281   2.766
 7432SOL    HW123195   1.427   1.350   2.838
 7432SOL    HW223196   1.532   1.248   2.766
 7433SOL     OW23197   3.518   0.087   6.519
 7433SOL    HW123198   3.535   0.004   6.573
 7433SOL    HW223199   3.567   0.164   6.559
 7434SOL     OW23200   4.213   0.205   3.744
 7434SOL    HW123201   4.180   0.261   3.668
 7434SOL    HW223202   4.163   0.229   3.828
 7435SOL     OW23203   5.360   4.534   3.130
 7435SOL    HW123204   5.328   4.598   3.060
 7435SOL    HW223205   5.288   4.468   3.151
 7436SOL     OW23206   4.266   3.021   5.967
 7436SOL    HW123207   4.298   3.012   6.061
 7436SOL    HW223208   4.216   3.108   5.958
 7437SOL     OW23209   3.676   0.390   1.545
 7437SOL    HW123210   3.700   0.369   1.451
 7437SOL    HW223211   3.669   0.489   1.557
 7438SOL     OW23212   1.835   0.728   6.674
 7438SOL    HW123213   1.885   0.732   6.760
 7438SOL    HW223214   1.891   0.767   6.601
 7439SOL     OW23215   1.715   4.237   6.273
 7439SOL    HW123216   1.697   4.324   6.227
 7439SOL    HW223217   1.630   4.184   6.278
 7440SOL     OW23218   5.637   2.676   4.338
 7440SOL    HW123219   5.680   2.763   4.311
 7440SOL    HW223220   5.590   2.688   4.426
 7441SOL     OW23221   4.194   6.756   0.261
 7441SOL    HW123222   4.280   6.808   0.269
 7441SOL    HW223223   4.197   6.678   0.323
 7442SOL     OW23224   6.445   0.957   6.295
 7442SOL    HW123225   6.505   0.890   6.339
 7442SOL    HW223226   6.497   1.041   6.277
 7443SOL     OW23227   0.350   6.719   0.946
 7443SOL    HW123228   0.269   6.699   0.891
 7443SOL    HW223229   0.321   6.747   1.038
 7444SOL     OW23230   1.608   5.638   6.635
 7444SOL    HW123231   1.621   5.548   6.677
 7444SOL    HW223232   1.669   5.645   6.555
 7445SOL     OW23233   3.521   6.005   2.916
 7445SOL    HW123234   3.532   6.100   2.944
 7445SOL    HW223235   3.536   5.998   2.817
 7446SOL     OW23236   6.595   5.157   0.609
 7446SOL    HW123237   6.567   5.112   0.694
 7446SOL    HW223238   6.516   5.166   0.548
 7447SOL     OW23239   0.952   5.339   0.585
 7447SOL    HW123240   0.943   5.400   0.664
 7447SOL    HW223241   1.048   5.312   0.574
 7448SOL     OW23242   4.679   4.903   6.940
 7448SOL    HW123243   4.771   4.919   6.976
 7448SOL    HW223244   4.684   4.843   6.861
 7449SOL     OW23245   6.698   3.945   6.764
 7449SOL    HW123246   6.666   3.852   6.785
 7449SOL    HW223247   6.795   3.953   6.788
 7450SOL     OW23248   5.354   3.212   0.542
 7450SOL    HW123249   5.337   3.309   0.525
 7450SOL    HW223250   5.441   3.202   0.591
 7451SOL     OW23251   4.353   4.915   3.023
 7451SOL    HW123252   4.253   4.919   3.018
 7451SOL    HW223253   4.383   4.822   3.000
 7452SOL     OW23254   6.837   5.686   6.791
 7452SOL    HW123255   6.737   5.678   6.787
 7452SOL    HW223256   6.879   5.603   6.753
 7453SOL     OW23257   4.553   5.029   6.126
 7453SOL    HW123258   4.478   5.085   6.091
 7453SOL    HW223259   4.529   4.995   6.217
 7454SOL     OW23260   4.148   2.093   1.186
 7454SOL    HW123261   4.119   2.014   1.240
 7454SOL    HW223262   4.077   2.163   1.188
 7455SOL     OW23263   6.612   0.377   2.838
 7455SOL    HW123264   6.551   0.298   2.846
 7455SOL    HW223265   6.671   0.366   2.758
 7456SOL     OW23266   3.011   1.370   5.681
 7456SOL    HW123267   3.032   1.457   5.636
 7456SOL    HW223268   2.912   1.359   5.688
 7457SOL     OW23269   1.250   1.778   2.329
 7457SOL    HW123270   1.320   1.718   2.291
 7457SOL    HW223271   1.181   1.722   2.375
 7458SOL     OW23272   0.159   6.072   5.097
 7458SOL    HW123273   0.112   6.115   5.020
 7458SOL    HW223274   0.247   6.035   5.065
 7459SOL     OW23275   5.920   6.968   3.306
 7459SOL    HW123276   5.902   6.871   3.321
 7459SOL    HW223277   5.884   6.996   3.217
 7460SOL     OW23278   0.670   0.300   1.025
 7460SOL    HW123279   0.611   0.341   1.095
 7460SOL    HW223280   0.737   0.239   1.069
 7461SOL     OW23281   1.825   4.220   5.238
 7461SOL    HW123282   1.764   4.148   5.204
 7461SOL    HW223283   1.915   4.209   5.195
 7462SOL     OW23284   1.987   4.471   6.952
 7462SOL    HW123285   1.972   4.457   0.030
 7462SOL    HW223286   1.904   4.447   6.901
 7463SOL     OW23287   4.940   5.038   1.107
 7463SOL    HW123288   4.937   5.083   1.018
 7463SOL    HW223289   4.987   4.950   1.100
 7464SOL     OW23290   5.449   4.956   5.125
 7464SOL    HW123291   5.493   4.869   5.147
 7464SOL    HW223292   5.510   5.032   5.148
 7465SOL     OW23293   1.315   3.665   6.813
 7465SOL    HW123294   1.307   3.716   6.728
 7465SOL    HW223295   1.365   3.720   6.880
 7466SOL     OW23296   0.477   6.996   5.409
 7466SOL    HW123297   0.433   0.009   5.493
 7466SOL    HW223298   0.480   6.896   5.410
 7467SOL     OW23299   0.720   3.465   4.092
 7467SOL    HW123300   0.678   3.388   4.140
 7467SOL    HW223301   0.799   3.432   4.040
 7468SOL     OW23302   5.983   2.705   4.422
 7468SOL    HW123303   5.919   2.636   4.455
 7468SOL    HW223304   6.076   2.678   4.447
 7469SOL     OW23305   0.264   2.126   0.083
 7469SOL    HW123306   0.315   2.211   0.093
 7469SOL    HW223307   0.190   2.139   0.017
 7470SOL     OW23308   5.052   2.928   3.694
 7470SOL    HW123309   5.110   2.916   3.614
 7470SOL    HW223310   5.099   2.895   3.775
 7471SOL     OW23311   3.310   6.769   6.256
 7471SOL    HW123312   3.323   6.817   6.342
 7471SOL    HW223313   3.306   6.670   6.273
 7472SOL     OW23314   6.911   0.048   5.624
 7472SOL    HW123315   6.963   0.078   5.704
 7472SOL    HW223316   6.909   0.121   5.555
 7473SOL     OW23317   4.212   6.300   3.469
 7473SOL    HW123318   4.126   6.318   3.516
 7473SOL    HW223319   4.195   6.291   3.371
 7474SOL     OW23320   6.102   2.068   0.920
 7474SOL    HW123321   6.123   2.165   0.907
 7474SOL    HW223322   6.120   2.019   0.835
 7475SOL     OW23323   4.977   2.257   1.395
 7475SOL    HW123324   4.914   2.186   1.362
 7475SOL    HW223325   4.927   2.343   1.406
 7476SOL     OW23326   2.288   1.397   2.976
 7476SOL    HW123327   2.307   1.302   3.000
 7476SOL    HW223328   2.360   1.456   3.010
 7477SOL     OW23329   2.374   3.604   5.905
 7477SOL    HW123330   2.453   3.544   5.919
 7477SOL    HW223331   2.406   3.699   5.899
 7478SOL     OW23332   0.556   2.598   6.561
 7478SOL    HW123333   0.544   2.614   6.463
 7478SOL    HW223334   0.469   2.612   6.608
 7479SOL     OW23335   5.643   2.945   1.601
 7479SOL    HW123336   5.560   2.913   1.647
 7479SOL    HW223337   5.710   2.871   1.598
 7480SOL     OW23338   3.651   6.016   2.651
 7480SOL    HW123339   3.617   5.972   2.568
 7480SOL    HW223340   3.697   6.101   2.626
 7481SOL     OW23341   0.297   4.018   6.950
 7481SOL    HW123342   0.393   3.997   6.935
 7481SOL    HW223343   0.278   4.019   0.029
 7482SOL     OW23344   4.296   1.809   4.523
 7482SOL    HW123345   4.379   1.850   4.562
 7482SOL    HW223346   4.314   1.784   4.427
 7483SOL     OW23347   5.378   1.440   5.809
 7483SOL    HW123348   5.281   1.420   5.804
 7483SOL    HW223349   5.407   1.440   5.905
 7484SOL     OW23350   2.351   0.573   4.510
 7484SOL    HW123351   2.345   0.659   4.459
 7484SOL    HW223352   2.423   0.516   4.471
 7485SOL     OW23353   3.945   0.278   6.738
 7485SOL    HW123354   3.975   0.183   6.730
 7485SOL    HW223355   4.024   0.337   6.757
 7486SOL     OW23356   4.191   6.394   1.296
 7486SOL    HW123357   4.230   6.306   1.323
 7486SOL    HW223358   4.217   6.414   1.201
 7487SOL     OW23359   2.944   6.347   4.323
 7487SOL    HW123360   2.938   6.416   4.250
 7487SOL    HW223361   3.031   6.356   4.370
 7488SOL     OW23362   1.569   5.972   3.992
 7488SOL    HW123363   1.641   6.038   4.014
 7488SOL    HW223364   1.570   5.898   4.059
 7489SOL     OW23365   4.967   3.311   6.104
 7489SOL    HW123366   4.993   3.297   6.200
 7489SOL    HW223367   5.047   3.299   6.046
 7490SOL     OW23368   1.773   2.437   1.420
 7490SOL    HW123369   1.843   2.367   1.406
 7490SOL    HW223370   1.682   2.395   1.415
 7491SOL     OW23371   4.515   4.186   6.654
 7491SOL    HW123372   4.508   4.155   6.559
 7491SOL    HW223373   4.581   4.129   6.703
 7492SOL     OW23374   1.445   0.755   3.468
 7492SOL    HW123375   1.369   0.720   3.413
 7492SOL    HW223376   1.518   0.688   3.472
 7493SOL     OW23377   5.872   5.138   4.303
 7493SOL    HW123378   5.891   5.104   4.395
 7493SOL    HW223379   5.943   5.106   4.241
 7494SOL     OW23380   6.101   0.934   2.170
 7494SOL    HW123381   6.096   0.983   2.257
 7494SOL    HW223382   6.012   0.892   2.150
 7495SOL     OW23383   1.553   3.567   4.537
 7495SOL    HW123384   1.650   3.589   4.543
 7495SOL    HW223385   1.516   3.551   4.628
 7496SOL     OW23386   5.964   2.800   3.334
 7496SOL    HW123387   5.925   2.886   3.365
 7496SOL    HW223388   5.938   2.727   3.397
 7497SOL     OW23389   6.249   0.445   1.451
 7497SOL    HW123390   6.333   0.396   1.427
 7497SOL    HW223391   6.200   0.395   1.523
 7498SOL     OW23392   2.118   6.294   3.303
 7498SOL    HW123393   2.157   6.340   3.383
 7498SOL    HW223394   2.025   6.325   3.288
 7499SOL     OW23395   3.036   1.294   3.217
 7499SOL    HW123396   2.952   1.331   3.258
 7499SOL    HW223397   3.111   1.359   3.230
 7500SOL     OW23398   3.627   1.186   4.566
 7500SOL    HW123399   3.595   1.132   4.644
 7500SOL    HW223400   3.563   1.175   4.489
 7501SOL     OW23401   5.842   2.208   3.480
 7501SOL    HW123402   5.915   2.270   3.454
 7501SOL    HW223403   5.755   2.257   3.480
 7502SOL     OW23404   3.712   1.123   3.433
 7502SOL    HW123405   3.743   1.068   3.511
 7502SOL    HW223406   3.671   1.063   3.364
 7503SOL     OW23407   1.127   5.868   0.872
 7503SOL    HW123408   1.200   5.805   0.845
 7503SOL    HW223409   1.039   5.821   0.862
 7504SOL     OW23410   5.592   6.035   4.624
 7504SOL    HW123411   5.559   6.114   4.574
 7504SOL    HW223412   5.514   5.983   4.659
 7505SOL     OW23413   0.718   6.541   6.164
 7505SOL    HW123414   0.647   6.475   6.188
 7505SOL    HW223415   0.678   6.614   6.108
 7506SOL     OW23416   3.790   1.946   4.460
 7506SOL    HW123417   3.768   2.013   4.531
 7506SOL    HW223418   3.889   1.928   4.461
 7507SOL     OW23419   6.877   3.846   6.297
 7507SOL    HW123420   6.836   3.937   6.286
 7507SOL    HW223421   6.974   3.850   6.273
 7508SOL     OW23422   3.485   6.291   6.890
 7508SOL    HW123423   3.402   6.307   6.943
 7508SOL    HW223424   3.549   6.366   6.906
 7509SOL     OW23425   5.586   3.989   2.871
 7509SOL    HW123426   5.666   3.929   2.868
 7509SOL    HW223427   5.504   3.935   2.887
 7510SOL     OW23428   3.470   4.890   1.308
 7510SOL    HW123429   3.477   4.836   1.224
 7510SOL    HW223430   3.472   4.828   1.387
 7511SOL     OW23431   4.914   5.729   3.420
 7511SOL    HW123432   4.957   5.715   3.331
 7511SOL    HW223433   4.816   5.709   3.413
 7512SOL     OW23434   4.216   6.465   1.000
 7512SOL    HW123435   4.291   6.442   0.938
 7512SOL    HW223436   4.133   6.418   0.971
 7513SOL     OW23437   0.669   0.363   2.439
 7513SOL    HW123438   0.649   0.305   2.518
 7513SOL    HW223439   0.658   0.310   2.355
 7514SOL     OW23440   0.245   0.486   0.634
 7514SOL    HW123441   0.275   0.401   0.677
 7514SOL    HW223442   0.320   0.551   0.632
 7515SOL     OW23443   6.969   4.648   4.893
 7515SOL    HW123444   6.888   4.614   4.844
 7515SOL    HW223445   7.006   4.727   4.845
 7516SOL     OW23446   2.285   5.829   5.156
 7516SOL    HW123447   2.254   5.828   5.061
 7516SOL    HW223448   2.357   5.760   5.168
 7517SOL     OW23449   0.284   2.688   0.362
 7517SOL    HW123450   0.337   2.773   0.367
 7517SOL    HW223451   0.195   2.707   0.322
 7518SOL     OW23452   4.062   1.971   4.537
 7518SOL    HW123453   4.146   1.920   4.519
 7518SOL    HW223454   4.031   1.953   4.630
 7519SOL     OW23455   3.219   6.346   4.987
 7519SOL    HW123456   3.312   6.334   4.952
 7519SOL    HW223457   3.169   6.410   4.929
 7520SOL     OW23458   2.202   0.766   1.173
 7520SOL    HW123459   2.109   0.747   1.144
 7520SOL    HW223460   2.266   0.737   1.102
 7521SOL     OW23461   4.234   1.504   5.813
 7521SOL    HW123462   4.214   1.472   5.720
 7521SOL    HW223463   4.315   1.458   5.847
 7522SOL     OW23464   1.534   6.567   4.245
 7522SOL    HW123465   1.509   6.664   4.240
 7522SOL    HW223466   1.634   6.558   4.239
 7523SOL     OW23467   5.549   1.732   6.832
 7523SOL    HW123468   5.592   1.730   6.741
 7523SOL    HW223469   5.509   1.642   6.851
 7524SOL     OW23470   0.296   3.860   4.847
 7524SOL    HW123471   0.305   3.881   4.750
 7524SOL    HW223472   0.359   3.916   4.900
 7525SOL     OW23473   1.985   4.787   5.468
 7525SOL    HW123474   2.084   4.790   5.454
 7525SOL    HW223475   1.962   4.831   5.554
 7526SOL     OW23476   1.142   4.617   0.608
 7526SOL    HW123477   1.066   4.557   0.631
 7526SOL    HW223478   1.227   4.579   0.644
 7527SOL     OW23479   2.901   5.434   2.067
 7527SOL    HW123480   2.880   5.346   2.024
 7527SOL    HW223481   2.987   5.470   2.031
 7528SOL     OW23482   6.451   2.734   6.916
 7528SOL    HW123483   6.437   2.637   6.933
 7528SOL    HW223484   6.364   2.783   6.924
 7529SOL     OW23485   5.809   3.042   4.731
 7529SOL    HW123486   5.875   3.095   4.783
 7529SOL    HW223487   5.836   2.946   4.731
 7530SOL     OW23488   1.076   2.737   3.287
 7530SOL    HW123489   1.125   2.822   3.267
 7530SOL    HW223490   1.107   2.701   3.375
 7531SOL     OW23491   4.072   1.865   3.892
 7531SOL    HW123492   3.972   1.863   3.887
 7531SOL    HW223493   4.109   1.883   3.801
 7532SOL     OW23494   4.495   4.922   6.384
 7532SOL    HW123495   4.440   4.840   6.369
 7532SOL    HW223496   4.557   4.907   6.461
 7533SOL     OW23497   4.363   4.662   1.288
 7533SOL    HW123498   4.461   4.647   1.270
 7533SOL    HW223499   4.331   4.598   1.357
 7534SOL     OW23500   4.695   6.273   5.107
 7534SOL    HW123501   4.676   6.314   5.196
 7534SOL    HW223502   4.609   6.257   5.059
 7535SOL     OW23503   0.569   6.838   4.430
 7535SOL    HW123504   0.659   6.806   4.462
 7535SOL    HW223505   0.497   6.782   4.471
 7536SOL     OW23506   6.234   0.133   2.755
 7536SOL    HW123507   6.171   0.201   2.716
 7536SOL    HW223508   6.182   0.058   2.796
 7537SOL     OW23509   2.087   0.391   2.253
 7537SOL    HW123510   2.036   0.325   2.309
 7537SOL    HW223511   2.163   0.345   2.208
 7538SOL     OW23512   6.867   4.778   6.981
 7538SOL    HW123513   6.893   4.696   6.930
 7538SOL    HW223514   6.941   4.803   0.024
 7539SOL     OW23515   6.648   0.398   4.895
 7539SOL    HW123516   6.644   0.318   4.835
 7539SOL    HW223517   6.560   0.445   4.893
 7540SOL     OW23518   5.115   3.762   3.427
 7540SOL    HW123519   5.183   3.700   3.388
 7540SOL    HW223520   5.117   3.757   3.526
 7541SOL     OW23521   2.365   3.994   0.296
 7541SOL    HW123522   2.372   4.085   0.338
 7541SOL    HW223523   2.384   4.001   0.199
 7542SOL     OW23524   6.202   5.720   4.992
 7542SOL    HW123525   6.196   5.647   4.925
 7542SOL    HW223526   6.132   5.789   4.973
 7543SOL     OW23527   2.006   1.214   1.342
 7543SOL    HW123528   1.966   1.261   1.263
 7543SOL    HW223529   2.004   1.274   1.422
 7544SOL     OW23530   5.598   1.405   5.333
 7544SOL    HW123531   5.593   1.500   5.302
 7544SOL    HW223532   5.665   1.356   5.277
 7545SOL     OW23533   1.174   5.431   5.114
 7545SOL    HW123534   1.198   5.414   5.210
 7545SOL    HW223535   1.079   5.403   5.098
 7546SOL     OW23536   2.614   2.805   1.663
 7546SOL    HW123537   2.643   2.711   1.680
 7546SOL    HW223538   2.515   2.809   1.656
 7547SOL     OW23539   4.083   0.019   2.400
 7547SOL    HW123540   4.049   0.049   2.311
 7547SOL    HW223541   4.097   0.098   2.459
 7548SOL     OW23542   2.566   1.925   6.221
 7548SOL    HW123543   2.576   1.878   6.309
 7548SOL    HW223544   2.470   1.947   6.206
 7549SOL     OW23545   4.763   0.568   4.224
 7549SOL    HW123546   4.754   0.642   4.157
 7549SOL    HW223547   4.714   0.488   4.190
 7550SOL     OW23548   2.151   5.807   4.903
 7550SOL    HW123549   2.152   5.838   4.807
 7550SOL    HW223550   2.057   5.789   4.931
 7551SOL     OW23551   6.433   3.265   6.244
 7551SOL    HW123552   6.514   3.208   6.249
 7551SOL    HW223553   6.457   3.360   6.267
 7552SOL     OW23554   2.623   6.675   4.635
 7552SOL    HW123555   2.721   6.677   4.654
 7552SOL    HW223556   2.573   6.708   4.715
 7553SOL     OW23557   6.520   6.935   5.813
 7553SOL    HW123558   6.427   6.918   5.780
 7553SOL    HW223559   6.586   6.914   5.741
 7554SOL     OW23560   5.168   1.516   1.670
 7554SOL    HW123561   5.159   1.445   1.599
 7554SOL    HW223562   5.156   1.475   1.760
 7555SOL     OW23563   4.547   5.354   4.385
 7555SOL    HW123564   4.532   5.372   4.288
 7555SOL    HW223565   4.639   5.318   4.399
 7556SOL     OW23566   0.920   6.186   0.635
 7556SOL    HW123567   0.849   6.130   0.679
 7556SOL    HW223568   1.010   6.158   0.668
 7557SOL     OW23569   4.388   6.321   0.809
 7557SOL    HW123570   4.366   6.248   0.874
 7557SOL    HW223571   4.379   6.286   0.716
 7558SOL     OW23572   0.718   1.415   3.661
 7558SOL    HW123573   0.638   1.354   3.656
 7558SOL    HW223574   0.690   1.508   3.637
 7559SOL     OW23575   1.922   0.106   5.260
 7559SOL    HW123576   1.972   0.191   5.247
 7559SOL    HW223577   1.926   0.053   5.175
 7560SOL     OW23578   0.873   0.533   5.536
 7560SOL    HW123579   0.955   0.575   5.496
 7560SOL    HW223580   0.878   0.540   5.636
 7561SOL     OW23581   5.211   1.363   5.223
 7561SOL    HW123582   5.241   1.287   5.166
 7561SOL    HW223583   5.131   1.406   5.182
 7562SOL     OW23584   1.722   5.512   3.827
 7562SOL    HW123585   1.698   5.606   3.851
 7562SOL    HW223586   1.811   5.512   3.780
 7563SOL     OW23587   2.624   6.384   3.329
 7563SOL    HW123588   2.570   6.428   3.257
 7563SOL    HW223589   2.720   6.382   3.302
 7564SOL     OW23590   4.916   3.043   5.942
 7564SOL    HW123591   4.859   2.978   5.892
 7564SOL    HW223592   4.910   3.133   5.898
 7565SOL     OW23593   6.648   3.298   5.598
 7565SOL    HW123594   6.574   3.266   5.656
 7565SOL    HW223595   6.619   3.380   5.549
 7566SOL     OW23596   4.732   4.261   1.576
 7566SOL    HW123597   4.800   4.223   1.513
 7566SOL    HW223598   4.749   4.226   1.668
 7567SOL     OW23599   1.455   0.234   3.293
 7567SOL    HW123600   1.416   0.287   3.217
 7567SOL    HW223601   1.531   0.179   3.259
 7568SOL     OW23602   6.945   3.908   0.861
 7568SOL    HW123603   6.848   3.884   0.869
 7568SOL    HW223604   6.957   4.004   0.885
 7569SOL     OW23605   4.401   3.609   1.394
 7569SOL    HW123606   4.324   3.673   1.396
 7569SOL    HW223607   4.478   3.647   1.445
 7570SOL     OW23608   1.259   2.744   1.783
 7570SOL    HW123609   1.200   2.666   1.763
 7570SOL    HW223610   1.204   2.816   1.826
 7571SOL     OW23611   4.903   1.745   3.461
 7571SOL    HW123612   4.928   1.691   3.381
 7571SOL    HW223613   4.807   1.731   3.483
 7572SOL     OW23614   4.624   6.520   3.028
 7572SOL    HW123615   4.619   6.607   3.077
 7572SOL    HW223616   4.534   6.475   3.030
 7573SOL     OW23617   3.637   0.134   5.972
 7573SOL    HW123618   3.598   0.110   6.061
 7573SOL    HW223619   3.622   0.060   5.907
 7574SOL     OW23620   0.870   3.364   3.416
 7574SOL    HW123621   0.863   3.265   3.407
 7574SOL    HW223622   0.894   3.404   3.327
 7575SOL     OW23623   6.979   0.179   0.442
 7575SOL    HW123624   0.001   0.168   0.532
 7575SOL    HW223625   6.913   0.254   0.444
 7576SOL     OW23626   4.534   2.752   0.333
 7576SOL    HW123627   4.631   2.753   0.357
 7576SOL    HW223628   4.479   2.755   0.417
 7577SOL     OW23629   0.118   0.427   6.663
 7577SOL    HW123630   0.186   0.364   6.627
 7577SOL    HW223631   0.141   0.450   6.758
 7578SOL     OW23632   5.980   5.731   2.760
 7578SOL    HW123633   6.059   5.773   2.715
 7578SOL    HW223634   5.995   5.632   2.768
 7579SOL     OW23635   1.428   1.756   6.748
 7579SOL    HW123636   1.394   1.662   6.757
 7579SOL    HW223637   1.444   1.776   6.652
 7580SOL     OW23638   2.338   5.121   2.531
 7580SOL    HW123639   2.405   5.050   2.554
 7580SOL    HW223640   2.260   5.078   2.484
 7581SOL     OW23641   0.584   0.136   0.822
 7581SOL    HW123642   0.591   0.192   0.905
 7581SOL    HW223643   0.570   0.040   0.849
 7582SOL     OW23644   1.889   1.268   5.914
 7582SOL    HW123645   1.938   1.216   5.845
 7582SOL    HW223646   1.868   1.360   5.879
 7583SOL     OW23647   5.630   3.607   2.349
 7583SOL    HW123648   5.642   3.553   2.266
 7583SOL    HW223649   5.544   3.657   2.344
 7584SOL     OW23650   6.983   0.966   3.374
 7584SOL    HW123651   0.008   0.887   3.415
 7584SOL    HW223652   6.918   0.936   3.305
 7585SOL     OW23653   1.088   1.155   5.846
 7585SOL    HW123654   1.022   1.219   5.807
 7585SOL    HW223655   1.146   1.204   5.911
 7586SOL     OW23656   1.701   6.630   3.897
 7586SOL    HW123657   1.729   6.679   3.815
 7586SOL    HW223658   1.615   6.668   3.931
 7587SOL     OW23659   5.328   6.932   1.999
 7587SOL    HW123660   5.370   7.009   1.952
 7587SOL    HW223661   5.395   6.887   2.058
 7588SOL     OW23662   2.005   3.567   4.774
 7588SOL    HW123663   1.917   3.605   4.743
 7588SOL    HW223664   2.064   3.642   4.802
 7589SOL     OW23665   6.999   0.142   2.767
 7589SOL    HW123666   6.997   0.131   2.867
 7589SOL    HW223667   6.931   0.211   2.740
 7590SOL     OW23668   5.784   0.985   0.008
 7590SOL    HW123669   5.717   1.040   6.978
 7590SOL    HW223670   5.876   1.020   7.011
 7591SOL     OW23671   3.343   3.915   5.037
 7591SOL    HW123672   3.325   3.970   4.955
 7591SOL    HW223673   3.402   3.967   5.099
 7592SOL     OW23674   0.366   6.343   3.416
 7592SOL    HW123675   0.342   6.259   3.367
 7592SOL    HW223676   0.440   6.325   3.480
 7593SOL     OW23677   6.744   1.604   6.213
 7593SOL    HW123678   6.817   1.556   6.165
 7593SOL    HW223679   6.658   1.591   6.164
 7594SOL     OW23680   6.776   4.086   6.199
 7594SOL    HW123681   6.698   4.111   6.256
 7594SOL    HW223682   6.744   4.060   6.108
 7595SOL     OW23683   0.202   3.269   7.002
 7595SOL    HW123684   0.117   3.255   6.950
 7595SOL    HW223685   0.274   3.211   6.966
 7596SOL     OW23686   3.261   1.696   6.933
 7596SOL    HW123687   3.271   1.633   6.856
 7596SOL    HW223688   3.301   1.784   6.909
 7597SOL     OW23689   2.370   4.541   0.857
 7597SOL    HW123690   2.342   4.498   0.943
 7597SOL    HW223691   2.354   4.639   0.862
 7598SOL     OW23692   5.153   0.546   1.946
 7598SOL    HW123693   5.059   0.525   1.918
 7598SOL    HW223694   5.168   0.644   1.941
 7599SOL     OW23695   3.183   3.275   0.177
 7599SOL    HW123696   3.155   3.358   0.128
 7599SOL    HW223697   3.143   3.195   0.132
 7600SOL     OW23698   0.697   6.885   3.802
 7600SOL    HW123699   0.743   6.954   3.747
 7600SOL    HW223700   0.634   6.832   3.745
 7601SOL     OW23701   2.969   6.507   1.194
 7601SOL    HW123702   3.035   6.576   1.222
 7601SOL    HW223703   2.978   6.427   1.252
 7602SOL     OW23704   0.365   1.125   1.309
 7602SOL    HW123705   0.396   1.139   1.215
 7602SOL    HW223706   0.388   1.205   1.364
 7603SOL     OW23707   4.323   1.108   6.540
 7603SOL    HW123708   4.320   1.187   6.479
 7603SOL    HW223709   4.254   1.041   6.512
 7604SOL     OW23710   2.701   2.345   5.120
 7604SOL    HW123711   2.674   2.378   5.029
 7604SOL    HW223712   2.620   2.310   5.167
 7605SOL     OW23713   2.993   5.614   0.217
 7605SOL    HW123714   3.058   5.611   0.293
 7605SOL    HW223715   3.038   5.652   0.137
 7606SOL     OW23716   6.117   0.450   3.241
 7606SOL    HW123717   6.079   0.405   3.159
 7606SOL    HW223718   6.197   0.504   3.215
 7607SOL     OW23719   1.819   5.690   5.750
 7607SOL    HW123720   1.770   5.752   5.688
 7607SOL    HW223721   1.916   5.688   5.726
 7608SOL     OW23722   0.295   2.618   6.243
 7608SOL    HW123723   0.262   2.711   6.226
 7608SOL    HW223724   0.218   2.554   6.239
 7609SOL     OW23725   3.013   0.266   5.056
 7609SOL    HW123726   2.978   0.349   5.012
 7609SOL    HW223727   3.085   0.290   5.120
 7610SOL     OW23728   4.217   5.133   4.211
 7610SOL    HW123729   4.227   5.227   4.246
 7610SOL    HW223730   4.261   5.069   4.274
 7611SOL     OW23731   4.118   2.234   0.236
 7611SOL    HW123732   4.174   2.184   0.302
 7611SOL    HW223733   4.125   2.332   0.253
 7612SOL     OW23734   4.576   2.413   2.367
 7612SOL    HW123735   4.610   2.422   2.461
 7612SOL    HW223736   4.651   2.389   2.306
 7613SOL     OW23737   0.115   0.860   0.139
 7613SOL    HW123738   0.183   0.802   0.182
 7613SOL    HW223739   0.069   0.809   0.066
 7614SOL     OW23740   5.991   5.348   6.672
 7614SOL    HW123741   6.082   5.384   6.652
 7614SOL    HW223742   5.961   5.290   6.596
 7615SOL     OW23743   4.856   2.913   6.274
 7615SOL    HW123744   4.830   2.998   6.319
 7615SOL    HW223745   4.800   2.838   6.309
 7616SOL     OW23746   6.404   6.712   2.048
 7616SOL    HW123747   6.384   6.621   2.012
 7616SOL    HW223748   6.459   6.704   2.131
 7617SOL     OW23749   6.043   4.226   3.347
 7617SOL    HW123750   6.081   4.318   3.334
 7617SOL    HW223751   6.117   4.162   3.366
 7618SOL     OW23752   2.688   2.116   0.294
 7618SOL    HW123753   2.767   2.130   0.235
 7618SOL    HW223754   2.611   2.170   0.261
 7619SOL     OW23755   0.586   0.514   5.044
 7619SOL    HW123756   0.607   0.591   5.104
 7619SOL    HW223757   0.545   0.548   4.959
 7620SOL     OW23758   3.585   4.345   0.208
 7620SOL    HW123759   3.503   4.353   0.151
 7620SOL    HW223760   3.560   4.312   0.298
 7621SOL     OW23761   6.371   5.132   0.456
 7621SOL    HW123762   6.354   5.040   0.494
 7621SOL    HW223763   6.285   5.184   0.458
 7622SOL     OW23764   2.525   4.257   1.151
 7622SOL    HW123765   2.617   4.243   1.186
 7622SOL    HW223766   2.482   4.169   1.132
 7623SOL     OW23767   4.984   4.392   2.692
 7623SOL    HW123768   4.995   4.345   2.604
 7623SOL    HW223769   5.065   4.376   2.749
 7624SOL     OW23770   6.919   2.854   2.688
 7624SOL    HW123771   7.003   2.901   2.715
 7624SOL    HW223772   6.862   2.839   2.769
 7625SOL     OW23773   5.225   0.288   1.965
 7625SOL    HW123774   5.152   0.221   1.974
 7625SOL    HW223775   5.186   0.376   1.936
 7626SOL     OW23776   4.649   6.293   0.139
 7626SOL    HW123777   4.646   6.386   0.104
 7626SOL    HW223778   4.722   6.242   0.093
 7627SOL     OW23779   4.431   2.734   5.732
 7627SOL    HW123780   4.352   2.690   5.690
 7627SOL    HW223781   4.412   2.832   5.743
 7628SOL     OW23782   3.421   2.598   0.970
 7628SOL    HW123783   3.325   2.603   0.944
 7628SOL    HW223784   3.465   2.687   0.955
 7629SOL     OW23785   5.547   3.052   3.332
 7629SOL    HW123786   5.479   3.089   3.395
 7629SOL    HW223787   5.509   2.972   3.286
 7630SOL     OW23788   1.413   6.077   3.815
 7630SOL    HW123789   1.469   6.043   3.891
 7630SOL    HW223790   1.437   6.172   3.796
 7631SOL     OW23791   1.249   1.183   6.372
 7631SOL    HW123792   1.325   1.118   6.368
 7631SOL    HW223793   1.284   1.274   6.394
 7632SOL     OW23794   4.182   5.537   1.740
 7632SOL    HW123795   4.152   5.595   1.665
 7632SOL    HW223796   4.133   5.562   1.824
 7633SOL     OW23797   5.065   0.659   1.524
 7633SOL    HW123798   5.104   0.722   1.458
 7633SOL    HW223799   5.032   0.709   1.604
 7634SOL     OW23800   0.406   2.151   6.665
 7634SOL    HW123801   0.431   2.118   6.756
 7634SOL    HW223802   0.473   2.219   6.635
 7635SOL     OW23803   1.146   3.106   5.752
 7635SOL    HW123804   1.207   3.028   5.742
 7635SOL    HW223805   1.115   3.136   5.662
 7636SOL     OW23806   6.742   2.911   3.493
 7636SOL    HW123807   6.657   2.878   3.452
 7636SOL    HW223808   6.817   2.849   3.469
 7637SOL     OW23809   1.294   4.012   5.323
 7637SOL    HW123810   1.198   4.029   5.302
 7637SOL    HW223811   1.341   3.981   5.241
 7638SOL     OW23812   0.615   6.567   1.098
 7638SOL    HW123813   0.628   6.518   1.185
 7638SOL    HW223814   0.551   6.642   1.111
 7639SOL     OW23815   2.527   6.382   0.427
 7639SOL    HW123816   2.489   6.321   0.358
 7639SOL    HW223817   2.566   6.463   0.382
 7640SOL     OW23818   3.318   0.380   0.917
 7640SOL    HW123819   3.219   0.366   0.918
 7640SOL    HW223820   3.352   0.372   0.823
 7641SOL     OW23821   6.394   4.814   4.807
 7641SOL    HW123822   6.438   4.872   4.876
 7641SOL    HW223823   6.399   4.718   4.836
 7642SOL     OW23824   5.856   1.112   3.631
 7642SOL    HW123825   5.890   1.171   3.558
 7642SOL    HW223826   5.900   1.138   3.717
 7643SOL     OW23827   4.977   2.091   4.169
 7643SOL    HW123828   4.940   1.999   4.181
 7643SOL    HW223829   5.056   2.088   4.108
 7644SOL     OW23830   5.226   3.755   0.652
 7644SOL    HW123831   5.302   3.819   0.639
 7644SOL    HW223832   5.148   3.786   0.598
 7645SOL     OW23833   5.058   5.224   6.254
 7645SOL    HW123834   5.078   5.142   6.200
 7645SOL    HW223835   4.963   5.223   6.283
 7646SOL     OW23836   6.104   1.842   2.051
 7646SOL    HW123837   6.173   1.895   2.101
 7646SOL    HW223838   6.059   1.902   1.985
 7647SOL     OW23839   6.869   1.769   4.095
 7647SOL    HW123840   6.953   1.715   4.095
 7647SOL    HW223841   6.842   1.789   4.000
 7648SOL     OW23842   1.673   2.506   0.671
 7648SOL    HW123843   1.626   2.580   0.623
 7648SOL    HW223844   1.733   2.458   0.608
 7649SOL     OW23845   3.985   0.538   0.225
 7649SOL    HW123846   3.914   0.566   0.160
 7649SOL    HW223847   4.052   0.612   0.234
 7650SOL     OW23848   3.575   2.425   0.514
 7650SOL    HW123849   3.609   2.389   0.601
 7650SOL    HW223850   3.503   2.366   0.480
 7651SOL     OW23851   3.707   5.607   6.372
 7651SOL    HW123852   3.677   5.676   6.438
 7651SOL    HW223853   3.687   5.639   6.279
 7652SOL     OW23854   0.434   0.869   5.231
 7652SOL    HW123855   0.514   0.810   5.226
 7652SOL    HW223856   0.354   0.820   5.198
 7653SOL     OW23857   1.658   6.627   6.391
 7653SOL    HW123858   1.717   6.707   6.404
 7653SOL    HW223859   1.563   6.652   6.411
 7654SOL     OW23860   6.586   2.584   5.662
 7654SOL    HW123861   6.668   2.640   5.680
 7654SOL    HW223862   6.576   2.570   5.564
 7655SOL     OW23863   2.895   1.848   5.080
 7655SOL    HW123864   2.986   1.888   5.084
 7655SOL    HW223865   2.831   1.913   5.039
 7656SOL     OW23866   6.054   3.736   6.959
 7656SOL    HW123867   6.118   3.726   6.883
 7656SOL    HW223868   5.987   3.807   6.937
 7657SOL     OW23869   1.262   3.725   4.778
 7657SOL    HW123870   1.324   3.646   4.771
 7657SOL    HW223871   1.203   3.729   4.698
 7658SOL     OW23872   3.095   0.592   1.165
 7658SOL    HW123873   3.031   0.565   1.237
 7658SOL    HW223874   3.178   0.630   1.207
 7659SOL     OW23875   5.597   3.853   5.162
 7659SOL    HW123876   5.655   3.888   5.088
 7659SOL    HW223877   5.501   3.864   5.136
 7660SOL     OW23878   0.321   6.356   5.033
 7660SOL    HW123879   0.243   6.387   5.086
 7660SOL    HW223880   0.389   6.315   5.094
 7661SOL     OW23881   2.142   0.468   4.920
 7661SOL    HW123882   2.137   0.387   4.861
 7661SOL    HW223883   2.172   0.546   4.866
 7662SOL     OW23884   6.947   6.551   1.131
 7662SOL    HW123885   6.997   6.473   1.094
 7662SOL    HW223886   6.996   6.636   1.109
 7663SOL     OW23887   1.357   5.840   4.321
 7663SOL    HW123888   1.307   5.923   4.294
 7663SOL    HW223889   1.292   5.771   4.352
 7664SOL     OW23890   5.877   2.115   2.862
 7664SOL    HW123891   5.894   2.017   2.875
 7664SOL    HW223892   5.821   2.127   2.780
 7665SOL     OW23893   2.255   0.132   5.484
 7665SOL    HW123894   2.312   0.089   5.414
 7665SOL    HW223895   2.162   0.097   5.477
 7666SOL     OW23896   6.237   5.441   4.100
 7666SOL    HW123897   6.271   5.386   4.024
 7666SOL    HW223898   6.157   5.493   4.070
 7667SOL     OW23899   4.258   5.415   1.413
 7667SOL    HW123900   4.199   5.365   1.476
 7667SOL    HW223901   4.343   5.440   1.460
 7668SOL     OW23902   1.494   5.686   0.210
 7668SOL    HW123903   1.550   5.766   0.233
 7668SOL    HW223904   1.439   5.707   0.128
 7669SOL     OW23905   3.644   2.187   6.376
 7669SOL    HW123906   3.671   2.098   6.341
 7669SOL    HW223907   3.635   2.252   6.301
 7670SOL     OW23908   1.076   0.013   0.430
 7670SOL    HW123909   1.145   7.002   0.364
 7670SOL    HW223910   1.060   6.961   0.498
 7671SOL     OW23911   3.935   0.673   1.707
 7671SOL    HW123912   3.902   0.616   1.783
 7671SOL    HW223913   3.862   0.684   1.640
 7672SOL     OW23914   5.463   3.107   2.222
 7672SOL    HW123915   5.544   3.051   2.205
 7672SOL    HW223916   5.457   3.129   2.320
 7673SOL     OW23917   2.287   6.703   5.348
 7673SOL    HW123918   2.299   6.604   5.349
 7673SOL    HW223919   2.204   6.727   5.399
 7674SOL     OW23920   3.426   5.438   3.886
 7674SOL    HW123921   3.445   5.340   3.878
 7674SOL    HW223922   3.402   5.475   3.796
 7675SOL     OW23923   3.834   6.252   3.418
 7675SOL    HW123924   3.836   6.163   3.462
 7675SOL    HW223925   3.879   6.320   3.477
 7676SOL     OW23926   2.943   3.330   4.454
 7676SOL    HW123927   2.943   3.247   4.510
 7676SOL    HW223928   2.913   3.407   4.510
 7677SOL     OW23929   0.619   6.442   0.030
 7677SOL    HW123930   0.524   6.433   0.060
 7677SOL    HW223931   0.621   6.458   6.950
 7678SOL     OW23932   3.305   1.161   5.310
 7678SOL    HW123933   3.322   1.078   5.363
 7678SOL    HW223934   3.219   1.153   5.260
 7679SOL     OW23935   3.127   5.280   4.148
 7679SOL    HW123936   3.226   5.288   4.143
 7679SOL    HW223937   3.093   5.234   4.066
 7680SOL     OW23938   1.346   6.469   4.084
 7680SOL    HW123939   1.414   6.511   4.144
 7680SOL    HW223940   1.294   6.400   4.136
 7681SOL     OW23941   2.003   2.052   5.280
 7681SOL    HW123942   1.947   1.976   5.247
 7681SOL    HW223943   1.976   2.136   5.234
 7682SOL     OW23944   3.569   0.588   1.821
 7682SOL    HW123945   3.623   0.530   1.882
 7682SOL    HW223946   3.594   0.683   1.834
 7683SOL     OW23947   1.355   4.245   4.869
 7683SOL    HW123948   1.271   4.194   4.850
 7683SOL    HW223949   1.339   4.343   4.852
 7684SOL     OW23950   4.837   3.640   1.708
 7684SOL    HW123951   4.773   3.705   1.750
 7684SOL    HW223952   4.895   3.688   1.642
 7685SOL     OW23953   2.506   0.145   0.236
 7685SOL    HW123954   2.478   0.241   0.229
 7685SOL    HW223955   2.462   0.103   0.316
 7686SOL     OW23956   6.028   0.567   4.334
 7686SOL    HW123957   6.069   0.551   4.244
 7686SOL    HW223958   6.006   0.480   4.377
 7687SOL     OW23959   5.864   3.404   5.760
 7687SOL    HW123960   5.915   3.419   5.675
 7687SOL    HW223961   5.868   3.486   5.816
 7688SOL     OW23962   6.941   3.258   0.319
 7688SOL    HW123963   7.003   3.322   0.365
 7688SOL    HW223964   6.934   3.174   0.373
 7689SOL     OW23965   5.324   0.438   2.862
 7689SOL    HW123966   5.343   0.535   2.845
 7689SOL    HW223967   5.345   0.386   2.779
 7690SOL     OW23968   6.234   4.420   2.605
 7690SOL    HW123969   6.296   4.486   2.648
 7690SOL    HW223970   6.170   4.385   2.673
 7691SOL     OW23971   5.067   2.785   4.104
 7691SOL    HW123972   5.108   2.770   4.014
 7691SOL    HW223973   4.977   2.829   4.093
 7692SOL     OW23974   2.449   6.580   2.357
 7692SOL    HW123975   2.354   6.607   2.344
 7692SOL    HW223976   2.459   6.483   2.336
 7693SOL     OW23977   2.640   2.203   1.038
 7693SOL    HW123978   2.580   2.281   1.018
 7693SOL    HW223979   2.650   2.194   1.137
 7694SOL     OW23980   4.302   2.525   1.229
 7694SOL    HW123981   4.227   2.495   1.288
 7694SOL    HW223982   4.268   2.537   1.136
 7695SOL     OW23983   4.856   6.812   4.275
 7695SOL    HW123984   4.895   6.768   4.194
 7695SOL    HW223985   4.802   6.892   4.247
 7696SOL     OW23986   2.449   1.493   5.652
 7696SOL    HW123987   2.406   1.501   5.561
 7696SOL    HW223988   2.401   1.423   5.705
 7697SOL     OW23989   5.846   0.030   3.008
 7697SOL    HW123990   5.787   6.972   2.986
 7697SOL    HW223991   5.939   0.010   2.977
 7698SOL     OW23992   6.055   2.551   1.610
 7698SOL    HW123993   6.102   2.470   1.576
 7698SOL    HW223994   6.120   2.612   1.654
 7699SOL     OW23995   3.786   5.963   6.245
 7699SOL    HW123996   3.707   5.946   6.186
 7699SOL    HW223997   3.790   6.061   6.267
 7700SOL     OW23998   6.580   5.284   1.852
 7700SOL    HW123999   6.563   5.318   1.944
 7700SOL    HW224000   6.657   5.220   1.853
 7701SOL     OW24001   3.080   1.682   6.567
 7701SOL    HW124002   3.132   1.736   6.500
 7701SOL    HW224003   3.054   1.595   6.525
 7702SOL     OW24004   6.423   6.152   5.912
 7702SOL    HW124005   6.351   6.151   5.843
 7702SOL    HW224006   6.395   6.211   5.988
 7703SOL     OW24007   0.403   6.437   6.618
 7703SOL    HW124008   0.442   6.507   6.677
 7703SOL    HW224009   0.396   6.472   6.525
 7704SOL     OW24010   1.395   2.373   4.809
 7704SOL    HW124011   1.300   2.345   4.820
 7704SOL    HW224012   1.420   2.438   4.881
 7705SOL     OW24013   0.809   4.523   0.389
 7705SOL    HW124014   0.852   4.434   0.404
 7705SOL    HW224015   0.736   4.537   0.456
 7706SOL     OW24016   3.041   4.031   2.019
 7706SOL    HW124017   3.015   4.037   2.115
 7706SOL    HW224018   3.114   3.963   2.008
 7707SOL     OW24019   0.158   5.245   5.861
 7707SOL    HW124020   0.063   5.215   5.854
 7707SOL    HW224021   0.160   5.342   5.886
 7708SOL     OW24022   0.369   0.162   4.136
 7708SOL    HW124023   0.403   0.122   4.051
 7708SOL    HW224024   0.381   0.261   4.134
 7709SOL     OW24025   6.375   4.906   0.652
 7709SOL    HW124026   6.392   4.971   0.726
 7709SOL    HW224027   6.277   4.898   0.636
 7710SOL     OW24028   6.183   3.203   2.639
 7710SOL    HW124029   6.153   3.236   2.550
 7710SOL    HW224030   6.220   3.111   2.630
 7711SOL     OW24031   1.086   4.525   3.444
 7711SOL    HW124032   1.172   4.483   3.470
 7711SOL    HW224033   1.061   4.498   3.351
 7712SOL     OW24034   1.083   4.630   4.409
 7712SOL    HW124035   1.076   4.728   4.388
 7712SOL    HW224036   1.175   4.609   4.441
 7713SOL     OW24037   1.166   5.812   0.328
 7713SOL    HW124038   1.234   5.877   0.293
 7713SOL    HW224039   1.212   5.740   0.379
 7714SOL     OW24040   5.599   1.805   4.791
 7714SOL    HW124041   5.556   1.741   4.727
 7714SOL    HW224042   5.656   1.753   4.855
 7715SOL     OW24043   3.938   3.590   6.625
 7715SOL    HW124044   3.935   3.684   6.591
 7715SOL    HW224045   3.884   3.531   6.564
 7716SOL     OW24046   1.825   0.992   6.882
 7716SOL    HW124047   1.816   1.085   6.917
 7716SOL    HW224048   1.768   0.930   6.936
 7717SOL     OW24049   0.758   1.696   5.829
 7717SOL    HW124050   0.744   1.602   5.860
 7717SOL    HW224051   0.706   1.758   5.888
 7718SOL     OW24052   0.093   3.764   3.365
 7718SOL    HW124053   0.007   3.741   3.320
 7718SOL    HW224054   0.142   3.680   3.388
 7719SOL     OW24055   2.082   6.471   5.187
 7719SOL    HW124056   2.023   6.546   5.215
 7719SOL    HW224057   2.030   6.407   5.130
 7720SOL     OW24058   4.549   1.507   6.456
 7720SOL    HW124059   4.557   1.583   6.391
 7720SOL    HW224060   4.584   1.423   6.413
 7721SOL     OW24061   6.019   5.457   2.766
 7721SOL    HW124062   6.091   5.438   2.699
 7721SOL    HW224063   6.006   5.377   2.825
 7722SOL     OW24064   0.233   6.213   4.499
 7722SOL    HW124065   0.190   6.298   4.531
 7722SOL    HW224066   0.206   6.138   4.560
 7723SOL     OW24067   3.813   4.640   6.820
 7723SOL    HW124068   3.751   4.620   6.896
 7723SOL    HW224069   3.821   4.739   6.809
 7724SOL     OW24070   1.283   4.586   0.374
 7724SOL    HW124071   1.226   4.610   0.453
 7724SOL    HW224072   1.379   4.592   0.398
 7725SOL     OW24073   5.363   3.321   4.986
 7725SOL    HW124074   5.332   3.251   5.051
 7725SOL    HW224075   5.301   3.324   4.908
 7726SOL     OW24076   2.228   3.351   0.729
 7726SOL    HW124077   2.316   3.398   0.721
 7726SOL    HW224078   2.242   3.252   0.728
 7727SOL     OW24079   5.571   0.672   3.441
 7727SOL    HW124080   5.666   0.654   3.465
 7727SOL    HW224081   5.519   0.694   3.523
 7728SOL     OW24082   1.994   3.177   5.624
 7728SOL    HW124083   2.015   3.217   5.534
 7728SOL    HW224084   1.901   3.199   5.650
 7729SOL     OW24085   6.973   1.118   2.643
 7729SOL    HW124086   0.024   1.109   2.572
 7729SOL    HW224087   7.014   1.104   2.733
 7730SOL     OW24088   6.131   3.573   6.360
 7730SOL    HW124089   6.040   3.530   6.354
 7730SOL    HW224090   6.170   3.580   6.269
 7731SOL     OW24091   6.858   0.405   6.282
 7731SOL    HW124092   6.918   0.400   6.362
 7731SOL    HW224093   6.764   0.424   6.312
 7732SOL     OW24094   4.291   1.260   0.294
 7732SOL    HW124095   4.376   1.279   0.343
 7732SOL    HW224096   4.302   1.283   0.198
 7733SOL     OW24097   5.783   6.527   1.364
 7733SOL    HW124098   5.716   6.571   1.423
 7733SOL    HW224099   5.796   6.432   1.393
 7734SOL     OW24100   4.119   3.629   3.610
 7734SOL    HW124101   4.174   3.554   3.647
 7734SOL    HW224102   4.022   3.609   3.622
 7735SOL     OW24103   0.875   5.800   0.868
 7735SOL    HW124104   0.827   5.871   0.816
 7735SOL    HW224105   0.814   5.763   0.938
 7736SOL     OW24106   1.763   1.452   0.969
 7736SOL    HW124107   1.682   1.466   0.911
 7736SOL    HW224108   1.780   1.355   0.979
 7737SOL     OW24109   4.383   4.661   6.697
 7737SOL    HW124110   4.380   4.562   6.712
 7737SOL    HW224111   4.372   4.708   6.784
 7738SOL     OW24112   1.390   0.971   5.366
 7738SOL    HW124113   1.346   1.060   5.378
 7738SOL    HW224114   1.479   0.972   5.413
 7739SOL     OW24115   0.875   3.092   6.420
 7739SOL    HW124116   0.780   3.065   6.405
 7739SOL    HW224117   0.891   3.181   6.377
 7740SOL     OW24118   2.337   0.622   4.046
 7740SOL    HW124119   2.311   0.612   3.950
 7740SOL    HW224120   2.350   0.719   4.067
 7741SOL     OW24121   6.312   4.492   5.878
 7741SOL    HW124122   6.233   4.453   5.832
 7741SOL    HW224123   6.296   4.589   5.895
 7742SOL     OW24124   4.981   2.459   3.803
 7742SOL    HW124125   5.049   2.496   3.866
 7742SOL    HW224126   4.990   2.505   3.714
 7743SOL     OW24127   3.372   1.148   6.150
 7743SOL    HW124128   3.349   1.198   6.067
 7743SOL    HW224129   3.367   1.050   6.133
 7744SOL     OW24130   0.315   6.549   4.764
 7744SOL    HW124131   0.221   6.528   4.793
 7744SOL    HW224132   0.380   6.494   4.816
 7745SOL     OW24133   2.792   0.157   0.601
 7745SOL    HW124134   2.733   0.127   0.677
 7745SOL    HW224135   2.880   0.111   0.606
 7746SOL     OW24136   0.016   6.166   0.694
 7746SOL    HW124137   0.059   6.086   0.653
 7746SOL    HW224138   0.066   6.248   0.666
 7747SOL     OW24139   0.001   6.079   1.148
 7747SOL    HW124140   7.015   6.159   1.088
 7747SOL    HW224141   6.948   6.084   1.217
 7748SOL     OW24142   4.577   0.671   6.024
 7748SOL    HW124143   4.531   0.760   6.029
 7748SOL    HW224144   4.668   0.679   6.065
 7749SOL     OW24145   3.048   3.594   2.416
 7749SOL    HW124146   3.073   3.626   2.508
 7749SOL    HW224147   2.982   3.520   2.424
 7750SOL     OW24148   5.229   4.176   6.285
 7750SOL    HW124149   5.180   4.248   6.333
 7750SOL    HW224150   5.215   4.088   6.331
 7751SOL     OW24151   0.553   1.463   4.725
 7751SOL    HW124152   0.453   1.464   4.734
 7751SOL    HW224153   0.583   1.372   4.695
 7752SOL     OW24154   5.618   4.151   6.040
 7752SOL    HW124155   5.661   4.169   6.129
 7752SOL    HW224156   5.539   4.090   6.054
 7753SOL     OW24157   2.801   0.970   4.795
 7753SOL    HW124158   2.800   0.990   4.697
 7753SOL    HW224159   2.808   1.055   4.847
 7754SOL     OW24160   6.374   1.344   0.888
 7754SOL    HW124161   6.409   1.378   0.801
 7754SOL    HW224162   6.379   1.244   0.889
 7755SOL     OW24163   1.720   6.024   5.440
 7755SOL    HW124164   1.783   6.101   5.443
 7755SOL    HW224165   1.628   6.056   5.417
 7756SOL     OW24166   3.713   6.641   2.894
 7756SOL    HW124167   3.751   6.551   2.873
 7756SOL    HW224168   3.615   6.640   2.878
 7757SOL     OW24169   3.322   1.289   5.564
 7757SOL    HW124170   3.249   1.357   5.575
 7757SOL    HW224171   3.323   1.257   5.469
 7758SOL     OW24172   2.573   1.799   6.467
 7758SOL    HW124173   2.504   1.768   6.534
 7758SOL    HW224174   2.628   1.721   6.438
 7759SOL     OW24175   2.251   0.658   4.776
 7759SOL    HW124176   2.317   0.733   4.778
 7759SOL    HW224177   2.268   0.600   4.697
 7760SOL     OW24178   5.306   1.721   2.899
 7760SOL    HW124179   5.270   1.792   2.839
 7760SOL    HW224180   5.242   1.645   2.903
 7761SOL     OW24181   4.615   1.071   0.052
 7761SOL    HW124182   4.648   1.165   0.046
 7761SOL    HW224183   4.577   1.055   0.143
 7762SOL     OW24184   1.513   2.196   0.491
 7762SOL    HW124185   1.466   2.260   0.430
 7762SOL    HW224186   1.480   2.210   0.585
 7763SOL     OW24187   2.325   2.841   0.804
 7763SOL    HW124188   2.376   2.839   0.890
 7763SOL    HW224189   2.244   2.783   0.812
 7764SOL     OW24190   3.368   3.136   2.005
 7764SOL    HW124191   3.272   3.112   1.991
 7764SOL    HW224192   3.396   3.201   1.934
 7765SOL     OW24193   6.907   1.305   1.959
 7765SOL    HW124194   6.987   1.363   1.943
 7765SOL    HW224195   6.836   1.326   1.891
 7766SOL     OW24196   6.954   2.995   7.012
 7766SOL    HW124197   6.876   2.932   7.008
 7766SOL    HW224198   0.011   2.958   6.960
 7767SOL     OW24199   6.109   3.824   5.163
 7767SOL    HW124200   6.128   3.879   5.245
 7767SOL    HW224201   6.194   3.781   5.132
 7768SOL     OW24202   3.797   5.317   1.533
 7768SOL    HW124203   3.878   5.329   1.475
 7768SOL    HW224204   3.768   5.406   1.567
 7769SOL     OW24205   4.838   2.017   3.395
 7769SOL    HW124206   4.889   1.991   3.314
 7769SOL    HW224207   4.839   1.942   3.461
 7770SOL     OW24208   3.365   6.716   1.249
 7770SOL    HW124209   3.327   6.693   1.159
 7770SOL    HW224210   3.302   6.687   1.320
 7771SOL     OW24211   2.349   0.908   4.164
 7771SOL    HW124212   2.324   0.899   4.261
 7771SOL    HW224213   2.279   0.960   4.116
 7772SOL     OW24214   5.505   0.705   5.475
 7772SOL    HW124215   5.476   0.788   5.523
 7772SOL    HW224216   5.506   0.628   5.540
 7773SOL     OW24217   4.595   4.334   6.080
 7773SOL    HW124218   4.562   4.321   6.174
 7773SOL    HW224219   4.557   4.263   6.021
 7774SOL     OW24220   4.438   1.681   0.073
 7774SOL    HW124221   4.468   1.743   0.000
 7774SOL    HW224222   4.358   1.630   0.042
 7775SOL     OW24223   1.474   6.614   2.056
 7775SOL    HW124224   1.515   6.538   2.105
 7775SOL    HW224225   1.485   6.601   1.957
 7776SOL     OW24226   2.923   4.791   0.860
 7776SOL    HW124227   2.904   4.732   0.939
 7776SOL    HW224228   2.994   4.749   0.804
 7777SOL     OW24229   0.581   0.335   6.804
 7777SOL    HW124230   0.536   0.263   6.751
 7777SOL    HW224231   0.564   0.424   6.762
 7778SOL     OW24232   5.089   2.726   2.123
 7778SOL    HW124233   5.094   2.824   2.144
 7778SOL    HW224234   5.037   2.713   2.039
 7779SOL     OW24235   4.163   3.092   0.255
 7779SOL    HW124236   4.069   3.069   0.280
 7779SOL    HW224237   4.213   3.118   0.337
 7780SOL     OW24238   1.374   0.478   3.933
 7780SOL    HW124239   1.313   0.404   3.963
 7780SOL    HW224240   1.372   0.485   3.834
 7781SOL     OW24241   1.729   4.022   5.790
 7781SOL    HW124242   1.652   3.992   5.734
 7781SOL    HW224243   1.791   4.077   5.734
 7782SOL     OW24244   4.514   4.720   0.542
 7782SOL    HW124245   4.532   4.811   0.505
 7782SOL    HW224246   4.522   4.652   0.469
 7783SOL     OW24247   3.445   5.817   6.664
 7783SOL    HW124248   3.502   5.831   6.583
 7783SOL    HW224249   3.386   5.896   6.678
 7784SOL     OW24250   6.124   3.558   0.202
 7784SOL    HW124251   6.218   3.525   0.210
 7784SOL    HW224252   6.123   3.649   0.160
 7785SOL     OW24253   1.448   6.455   6.050
 7785SOL    HW124254   1.461   6.379   6.114
 7785SOL    HW224255   1.446   6.541   6.099
 7786SOL     OW24256   3.847   4.141   5.306
 7786SOL    HW124257   3.937   4.109   5.279
 7786SOL    HW224258   3.789   4.152   5.225
 7787SOL     OW24259   3.503   2.051   5.258
 7787SOL    HW124260   3.475   2.080   5.166
 7787SOL    HW224261   3.552   2.126   5.303
 7788SOL     OW24262   6.939   2.592   1.150
 7788SOL    HW124263   6.994   2.670   1.121
 7788SOL    HW224264   6.850   2.624   1.183
 7789SOL     OW24265   1.258   0.214   1.928
 7789SOL    HW124266   1.194   0.204   2.004
 7789SOL    HW224267   1.213   0.186   1.843
 7790SOL     OW24268   0.116   3.548   2.364
 7790SOL    HW124269   0.137   3.531   2.460
 7790SOL    HW224270   0.038   3.611   2.357
 7791SOL     OW24271   6.723   5.548   5.629
 7791SOL    HW124272   6.712   5.473   5.565
 7791SOL    HW224273   6.765   5.626   5.582
 7792SOL     OW24274   2.088   5.809   6.295
 7792SOL    HW124275   2.063   5.714   6.277
 7792SOL    HW224276   2.006   5.859   6.324
 7793SOL     OW24277   2.138   0.659   6.636
 7793SOL    HW124278   2.111   0.727   6.704
 7793SOL    HW224279   2.234   0.673   6.611
 7794SOL     OW24280   5.045   4.880   2.644
 7794SOL    HW124281   4.979   4.811   2.614
 7794SOL    HW224282   5.060   4.871   2.742
 7795SOL     OW24283   1.456   4.062   6.514
 7795SOL    HW124284   1.549   4.032   6.535
 7795SOL    HW224285   1.454   4.107   6.425
 7796SOL     OW24286   4.130   3.363   4.272
 7796SOL    HW124287   4.158   3.360   4.176
 7796SOL    HW224288   4.159   3.449   4.313
 7797SOL     OW24289   1.154   5.986   3.952
 7797SOL    HW124290   1.241   5.996   3.903
 7797SOL    HW224291   1.079   6.018   3.894
 7798SOL     OW24292   4.569   5.299   5.975
 7798SOL    HW124293   4.581   5.394   5.948
 7798SOL    HW224294   4.580   5.290   6.074
 7799SOL     OW24295   6.026   5.653   1.617
 7799SOL    HW124296   5.941   5.675   1.667
 7799SOL    HW224297   6.056   5.734   1.567
 7800SOL     OW24298   0.494   5.940   2.112
 7800SOL    HW124299   0.590   5.915   2.120
 7800SOL    HW224300   0.479   6.029   2.155
 7801SOL     OW24301   4.572   2.445   5.314
 7801SOL    HW124302   4.534   2.444   5.407
 7801SOL    HW224303   4.656   2.499   5.314
 7802SOL     OW24304   5.756   2.446   6.668
 7802SOL    HW124305   5.703   2.454   6.584
 7802SOL    HW224306   5.803   2.357   6.669
 7803SOL     OW24307   2.986   3.437   5.774
 7803SOL    HW124308   3.015   3.484   5.691
 7803SOL    HW224309   2.926   3.360   5.750
 7804SOL     OW24310   5.111   0.993   5.931
 7804SOL    HW124311   5.204   1.026   5.911
 7804SOL    HW224312   5.078   1.035   6.015
 7805SOL     OW24313   5.811   3.152   1.617
 7805SOL    HW124314   5.883   3.102   1.666
 7805SOL    HW224315   5.732   3.091   1.605
 7806SOL     OW24316   5.199   2.421   0.492
 7806SOL    HW124317   5.217   2.461   0.582
 7806SOL    HW224318   5.112   2.458   0.457
 7807SOL     OW24319   0.788   3.998   6.891
 7807SOL    HW124320   0.859   3.971   6.825
 7807SOL    HW224321   0.806   4.091   6.923
 7808SOL     OW24322   0.290   1.363   4.741
 7808SOL    HW124323   0.315   1.300   4.667
 7808SOL    HW224324   0.224   1.319   4.801
 7809SOL     OW24325   1.179   5.395   5.896
 7809SOL    HW124326   1.084   5.409   5.869
 7809SOL    HW224327   1.239   5.448   5.836
 7810SOL     OW24328   3.166   1.128   6.547
 7810SOL    HW124329   3.258   1.163   6.531
 7810SOL    HW224330   3.122   1.181   6.620
 7811SOL     OW24331   6.154   4.760   5.167
 7811SOL    HW124332   6.251   4.760   5.194
 7811SOL    HW224333   6.111   4.677   5.200
 7812SOL     OW24334   0.527   2.093   3.653
 7812SOL    HW124335   0.562   2.084   3.746
 7812SOL    HW224336   0.556   2.182   3.615
 7813SOL     OW24337   5.906   1.364   1.286
 7813SOL    HW124338   5.847   1.424   1.233
 7813SOL    HW224339   5.974   1.323   1.226
 7814SOL     OW24340   2.067   2.912   3.989
 7814SOL    HW124341   2.001   2.975   3.947
 7814SOL    HW224342   2.025   2.864   4.065
 7815SOL     OW24343   6.939   2.104   5.290
 7815SOL    HW124344   7.010   2.172   5.275
 7815SOL    HW224345   6.979   2.024   5.336
 7816SOL     OW24346   0.188   4.588   5.000
 7816SOL    HW124347   0.100   4.624   4.967
 7816SOL    HW224348   0.185   4.581   5.100
 7817SOL     OW24349   5.725   2.951   5.659
 7817SOL    HW124350   5.692   2.887   5.590
 7817SOL    HW224351   5.802   2.910   5.708
 7818SOL     OW24352   5.736   2.946   3.672
 7818SOL    HW124353   5.740   2.998   3.586
 7818SOL    HW224354   5.818   2.965   3.726
 7819SOL     OW24355   1.298   1.122   1.005
 7819SOL    HW124356   1.271   1.174   0.924
 7819SOL    HW224357   1.225   1.125   1.073
 7820SOL     OW24358   3.147   6.595   6.038
 7820SOL    HW124359   3.068   6.651   6.011
 7820SOL    HW224360   3.221   6.655   6.068
 7821SOL     OW24361   3.318   6.413   1.053
 7821SOL    HW124362   3.260   6.492   1.033
 7821SOL    HW224363   3.274   6.330   1.018
 7822SOL     OW24364   1.033   6.396   5.195
 7822SOL    HW124365   1.074   6.407   5.104
 7822SOL    HW224366   0.936   6.419   5.191
 7823SOL     OW24367   1.861   3.378   5.412
 7823SOL    HW124368   1.887   3.472   5.390
 7823SOL    HW224369   1.798   3.378   5.490
 7824SOL     OW24370   0.752   3.192   5.657
 7824SOL    HW124371   0.824   3.201   5.588
 7824SOL    HW224372   0.681   3.260   5.640
 7825SOL     OW24373   2.591   1.162   0.307
 7825SOL    HW124374   2.667   1.110   0.345
 7825SOL    HW224375   2.511   1.154   0.366
 7826SOL     OW24376   0.519   3.951   5.939
 7826SOL    HW124377   0.484   4.028   5.886
 7826SOL    HW224378   0.617   3.941   5.922
 7827SOL     OW24379   6.178   5.232   3.717
 7827SOL    HW124380   6.273   5.249   3.744
 7827SOL    HW224381   6.127   5.199   3.796
 7828SOL     OW24382   0.859   6.131   5.949
 7828SOL    HW124383   0.858   6.227   5.976
 7828SOL    HW224384   0.767   6.104   5.918
 7829SOL     OW24385   4.650   4.811   0.755
 7829SOL    HW124386   4.578   4.776   0.695
 7829SOL    HW224387   4.740   4.796   0.712
 7830SOL     OW24388   1.930   5.195   4.519
 7830SOL    HW124389   1.991   5.203   4.597
 7830SOL    HW224390   1.856   5.262   4.527
 7831SOL     OW24391   1.816   0.448   6.272
 7831SOL    HW124392   1.758   0.526   6.298
 7831SOL    HW224393   1.912   0.473   6.282
 7832SOL     OW24394   0.391   1.317   5.074
 7832SOL    HW124395   0.368   1.375   4.996
 7832SOL    HW224396   0.449   1.241   5.043
 7833SOL     OW24397   0.698   7.011   2.844
 7833SOL    HW124398   0.751   0.049   2.907
 7833SOL    HW224399   0.602   7.011   2.872
 7834SOL     OW24400   0.198   3.657   5.440
 7834SOL    HW124401   0.255   3.680   5.361
 7834SOL    HW224402   0.223   3.715   5.517
 7835SOL     OW24403   3.182   2.606   5.648
 7835SOL    HW124404   3.265   2.616   5.702
 7835SOL    HW224405   3.137   2.520   5.672
 7836SOL     OW24406   3.147   3.493   4.863
 7836SOL    HW124407   3.140   3.497   4.763
 7836SOL    HW224408   3.240   3.465   4.889
 7837SOL     OW24409   0.723   5.599   6.885
 7837SOL    HW124410   0.810   5.550   6.894
 7837SOL    HW224411   0.654   5.539   6.845
 7838SOL     OW24412   4.274   4.851   1.156
 7838SOL    HW124413   4.179   4.822   1.145
 7838SOL    HW224414   4.327   4.776   1.196
 7839SOL     OW24415   6.218   3.476   4.760
 7839SOL    HW124416   6.166   3.561   4.754
 7839SOL    HW224417   6.176   3.416   4.828
 7840SOL     OW24418   2.201   2.452   3.279
 7840SOL    HW124419   2.169   2.492   3.193
 7840SOL    HW224420   2.209   2.524   3.348
 7841SOL     OW24421   5.006   1.863   5.445
 7841SOL    HW124422   5.062   1.814   5.512
 7841SOL    HW224423   4.922   1.811   5.430
 7842SOL     OW24424   0.944   0.131   1.105
 7842SOL    HW124425   0.962   0.161   1.011
 7842SOL    HW224426   0.903   0.040   1.103
 7843SOL     OW24427   6.505   5.993   1.842
 7843SOL    HW124428   6.572   5.987   1.917
 7843SOL    HW224429   6.438   5.920   1.852
 7844SOL     OW24430   3.697   0.100   2.214
 7844SOL    HW124431   3.676   0.011   2.254
 7844SOL    HW224432   3.645   0.110   2.129
 7845SOL     OW24433   6.770   3.534   1.718
 7845SOL    HW124434   6.680   3.566   1.749
 7845SOL    HW224435   6.789   3.570   1.627
 7846SOL     OW24436   0.809   1.817   0.320
 7846SOL    HW124437   0.839   1.748   0.386
 7846SOL    HW224438   0.724   1.859   0.351
 7847SOL     OW24439   5.808   3.748   5.831
 7847SOL    HW124440   5.757   3.770   5.914
 7847SOL    HW224441   5.745   3.733   5.755
 7848SOL     OW24442   4.587   4.979   0.462
 7848SOL    HW124443   4.653   5.054   0.457
 7848SOL    HW224444   4.528   4.980   0.381
 7849SOL     OW24445   4.485   5.095   6.742
 7849SOL    HW124446   4.559   5.124   6.682
 7849SOL    HW224447   4.491   4.997   6.759
 7850SOL     OW24448   6.608   0.744   3.408
 7850SOL    HW124449   6.579   0.791   3.491
 7850SOL    HW224450   6.567   0.652   3.407
 7851SOL     OW24451   0.510   4.315   0.485
 7851SOL    HW124452   0.506   4.404   0.531
 7851SOL    HW224453   0.468   4.322   0.394
 7852SOL     OW24454   1.433   3.448   5.654
 7852SOL    HW124455   1.402   3.451   5.559
 7852SOL    HW224456   1.368   3.395   5.709
 7853SOL     OW24457   4.357   3.094   1.722
 7853SOL    HW124458   4.440   3.055   1.762
 7853SOL    HW224459   4.295   3.021   1.696
 7854SOL     OW24460   3.991   1.230   1.044
 7854SOL    HW124461   4.019   1.140   1.077
 7854SOL    HW224462   4.000   1.232   0.944
 7855SOL     OW24463   4.872   6.532   3.676
 7855SOL    HW124464   4.953   6.590   3.660
 7855SOL    HW224465   4.819   6.526   3.591
 7856SOL     OW24466   2.167   6.433   6.512
 7856SOL    HW124467   2.077   6.463   6.543
 7856SOL    HW224468   2.200   6.360   6.572
 7857SOL     OW24469   7.018   5.136   0.460
 7857SOL    HW124470   0.014   5.122   0.558
 7857SOL    HW224471   6.984   5.051   0.420
 7858SOL     OW24472   0.415   4.127   6.521
 7858SOL    HW124473   0.393   4.126   6.423
 7858SOL    HW224474   0.334   4.154   6.573
 7859SOL     OW24475   4.861   2.114   1.885
 7859SOL    HW124476   4.928   2.163   1.829
 7859SOL    HW224477   4.811   2.050   1.827
 7860SOL     OW24478   2.721   1.729   3.081
 7860SOL    HW124479   2.677   1.777   3.004
 7860SOL    HW224480   2.791   1.667   3.046
 7861SOL     OW24481   1.923   5.891   0.479
 7861SOL    HW124482   1.927   5.802   0.433
 7861SOL    HW224483   2.015   5.929   0.485
 7862SOL     OW24484   1.062   6.585   6.517
 7862SOL    HW124485   1.052   6.664   6.577
 7862SOL    HW224486   1.155   6.549   6.523
 7863SOL     OW24487   0.336   4.275   3.856
 7863SOL    HW124488   0.355   4.200   3.793
 7863SOL    HW224489   0.257   4.327   3.823
 7864SOL     OW24490   3.199   5.489   4.853
 7864SOL    HW124491   3.214   5.531   4.764
 7864SOL    HW224492   3.101   5.476   4.868
 7865SOL     OW24493   6.460   5.517   3.505
 7865SOL    HW124494   6.523   5.501   3.429
 7865SOL    HW224495   6.510   5.558   3.581
 7866SOL     OW24496   0.955   1.009   5.192
 7866SOL    HW124497   1.046   1.047   5.173
 7866SOL    HW224498   0.949   0.917   5.155
 7867SOL     OW24499   4.554   5.889   2.889
 7867SOL    HW124500   4.612   5.967   2.916
 7867SOL    HW224501   4.538   5.831   2.969
 7868SOL     OW24502   4.341   6.161   1.459
 7868SOL    HW124503   4.293   6.080   1.425
 7868SOL    HW224504   4.435   6.161   1.425
 7869SOL     OW24505   5.657   5.211   0.207
 7869SOL    HW124506   5.587   5.145   0.234
 7869SOL    HW224507   5.681   5.268   0.286
 7870SOL     OW24508   6.477   0.503   3.403
 7870SOL    HW124509   6.418   0.506   3.323
 7870SOL    HW224510   6.468   0.414   3.448
 7871SOL     OW24511   4.356   0.631   0.677
 7871SOL    HW124512   4.258   0.654   0.678
 7871SOL    HW224513   4.407   0.706   0.636
 7872SOL     OW24514   6.518   4.969   4.395
 7872SOL    HW124515   6.601   4.932   4.353
 7872SOL    HW224516   6.507   4.930   4.487
 7873SOL     OW24517   4.586   2.482   6.514
 7873SOL    HW124518   4.613   2.525   6.600
 7873SOL    HW224519   4.504   2.427   6.529
 7874SOL     OW24520   6.290   2.291   0.302
 7874SOL    HW124521   6.203   2.340   0.299
 7874SOL    HW224522   6.274   2.194   0.321
 7875SOL     OW24523   6.900   4.941   6.766
 7875SOL    HW124524   6.868   4.873   6.833
 7875SOL    HW224525   6.925   5.025   6.813
 7876SOL     OW24526   1.103   6.571   2.915
 7876SOL    HW124527   1.191   6.560   2.960
 7876SOL    HW224528   1.061   6.481   2.902
 7877SOL     OW24529   0.951   3.152   1.805
 7877SOL    HW124530   0.996   3.162   1.717
 7877SOL    HW224531   0.888   3.229   1.819
 7878SOL     OW24532   3.727   0.330   2.345
 7878SOL    HW124533   3.810   0.372   2.309
 7878SOL    HW224534   3.730   0.231   2.328
 7879SOL     OW24535   2.666   5.774   1.734
 7879SOL    HW124536   2.619   5.823   1.661
 7879SOL    HW224537   2.695   5.839   1.804
 7880SOL     OW24538   1.291   4.828   2.671
 7880SOL    HW124539   1.196   4.838   2.641
 7880SOL    HW224540   1.326   4.917   2.700
 7881SOL     OW24541   4.714   2.744   2.923
 7881SOL    HW124542   4.635   2.699   2.882
 7881SOL    HW224543   4.736   2.701   3.010
 7882SOL     OW24544   0.161   2.362   0.271
 7882SOL    HW124545   0.260   2.364   0.256
 7882SOL    HW224546   0.115   2.403   0.193
 7883SOL     OW24547   0.315   6.938   4.794
 7883SOL    HW124548   0.278   0.012   4.801
 7883SOL    HW224549   0.271   6.890   4.719
 7884SOL     OW24550   1.481   3.011   3.980
 7884SOL    HW124551   1.518   3.091   4.028
 7884SOL    HW224552   1.399   3.039   3.929
 7885SOL     OW24553   6.594   6.021   6.699
 7885SOL    HW124554   6.669   5.984   6.644
 7885SOL    HW224555   6.611   6.118   6.718
 7886SOL     OW24556   4.862   4.230   0.470
 7886SOL    HW124557   4.942   4.238   0.411
 7886SOL    HW224558   4.874   4.155   0.534
 7887SOL     OW24559   4.561   2.198   6.566
 7887SOL    HW124560   4.486   2.227   6.506
 7887SOL    HW224561   4.524   2.149   6.644
 7888SOL     OW24562   4.090   5.630   4.113
 7888SOL    HW124563   4.052   5.700   4.052
 7888SOL    HW224564   4.181   5.604   4.081
 7889SOL     OW24565   6.321   4.350   3.999
 7889SOL    HW124566   6.376   4.421   3.955
 7889SOL    HW224567   6.246   4.392   4.050
 7890SOL     OW24568   2.175   3.777   3.072
 7890SOL    HW124569   2.135   3.776   2.981
 7890SOL    HW224570   2.272   3.753   3.067
 7891SOL     OW24571   0.058   4.144   2.999
 7891SOL    HW124572   0.099   4.064   2.957
 7891SOL    HW224573   7.018   4.115   3.074
 7892SOL     OW24574   2.344   2.308   4.494
 7892SOL    HW124575   2.393   2.380   4.543
 7892SOL    HW224576   2.392   2.288   4.408
 7893SOL     OW24577   5.385   6.348   1.450
 7893SOL    HW124578   5.320   6.358   1.375
 7893SOL    HW224579   5.474   6.320   1.414
 7894SOL     OW24580   2.950   0.406   1.333
 7894SOL    HW124581   2.997   0.338   1.278
 7894SOL    HW224582   2.855   0.415   1.302
 7895SOL     OW24583   0.965   1.610   4.102
 7895SOL    HW124584   0.989   1.631   4.196
 7895SOL    HW224585   0.874   1.568   4.098
 7896SOL     OW24586   3.728   2.625   6.363
 7896SOL    HW124587   3.666   2.571   6.306
 7896SOL    HW224588   3.813   2.642   6.314
 7897SOL     OW24589   3.112   3.371   0.693
 7897SOL    HW124590   3.130   3.295   0.756
 7897SOL    HW224591   3.124   3.340   0.599
 7898SOL     OW24592   4.938   0.960   4.587
 7898SOL    HW124593   4.877   1.034   4.560
 7898SOL    HW224594   5.029   0.996   4.606
 7899SOL     OW24595   4.632   0.745   1.630
 7899SOL    HW124596   4.547   0.730   1.579
 7899SOL    HW224597   4.628   0.833   1.678
 7900SOL     OW24598   0.177   5.890   1.204
 7900SOL    HW124599   0.116   5.967   1.186
 7900SOL    HW224600   0.199   5.888   1.302
 7901SOL     OW24601   5.984   4.960   1.014
 7901SOL    HW124602   6.059   4.908   0.974
 7901SOL    HW224603   5.948   5.024   0.947
 7902SOL     OW24604   4.786   4.916   6.256
 7902SOL    HW124605   4.774   4.830   6.304
 7902SOL    HW224606   4.703   4.937   6.203
 7903SOL     OW24607   0.377   2.578   2.130
 7903SOL    HW124608   0.461   2.622   2.162
 7903SOL    HW224609   0.313   2.647   2.098
 7904SOL     OW24610   5.580   2.015   2.882
 7904SOL    HW124611   5.583   2.114   2.866
 7904SOL    HW224612   5.613   1.967   2.800
 7905SOL     OW24613   2.124   1.905   1.799
 7905SOL    HW124614   2.184   1.969   1.751
 7905SOL    HW224615   2.172   1.867   1.878
 7906SOL     OW24616   1.515   4.543   6.992
 7906SOL    HW124617   1.591   4.492   6.950
 7906SOL    HW224618   1.429   4.512   6.954
 7907SOL     OW24619   0.623   2.694   2.617
 7907SOL    HW124620   0.599   2.709   2.521
 7907SOL    HW224621   0.688   2.764   2.647
 7908SOL     OW24622   0.368   1.716   3.041
 7908SOL    HW124623   0.363   1.617   3.032
 7908SOL    HW224624   0.336   1.759   2.957
 7909SOL     OW24625   4.186   6.386   5.204
 7909SOL    HW124626   4.099   6.398   5.156
 7909SOL    HW224627   4.252   6.454   5.173
 7910SOL     OW24628   6.275   3.054   6.319
 7910SOL    HW124629   6.267   3.025   6.414
 7910SOL    HW224630   6.284   3.153   6.316
 7911SOL     OW24631   0.067   5.894   5.991
 7911SOL    HW124632   7.001   5.908   6.041
 7911SOL    HW224633   0.059   5.811   5.936
 7912SOL     OW24634   0.070   5.578   4.954
 7912SOL    HW124635   0.156   5.539   4.920
 7912SOL    HW224636   0.076   5.678   4.948
 7913SOL     OW24637   1.763   6.348   6.423
 7913SOL    HW124638   1.808   6.412   6.485
 7913SOL    HW224639   1.827   6.323   6.349
 7914SOL     OW24640   6.163   4.676   0.547
 7914SOL    HW124641   6.144   4.755   0.489
 7914SOL    HW224642   6.256   4.644   0.530
 7915SOL     OW24643   3.037   1.338   2.760
 7915SOL    HW124644   2.945   1.376   2.750
 7915SOL    HW224645   3.047   1.259   2.700
 7916SOL     OW24646   4.133   3.700   4.918
 7916SOL    HW124647   4.215   3.752   4.894
 7916SOL    HW224648   4.124   3.697   5.018
 7917SOL     OW24649   3.833   3.945   3.647
 7917SOL    HW124650   3.891   3.897   3.713
 7917SOL    HW224651   3.745   3.966   3.690
 7918SOL     OW24652   6.039   2.049   1.869
 7918SOL    HW124653   5.943   2.063   1.845
 7918SOL    HW224654   6.094   2.124   1.833
 7919SOL     OW24655   5.527   3.942   2.507
 7919SOL    HW124656   5.477   3.944   2.594
 7919SOL    HW224657   5.499   4.020   2.451
 7920SOL     OW24658   6.889   6.538   0.778
 7920SOL    HW124659   6.880   6.568   0.683
 7920SOL    HW224660   6.812   6.479   0.802
 7921SOL     OW24661   3.434   4.955   2.327
 7921SOL    HW124662   3.393   4.992   2.410
 7921SOL    HW224663   3.363   4.909   2.273
 7922SOL     OW24664   0.908   3.970   4.633
 7922SOL    HW124665   0.841   3.986   4.560
 7922SOL    HW224666   0.966   3.892   4.608
 7923SOL     OW24667   1.585   2.840   2.910
 7923SOL    HW124668   1.558   2.935   2.926
 7923SOL    HW224669   1.582   2.821   2.812
 7924SOL     OW24670   2.543   1.552   3.370
 7924SOL    HW124671   2.591   1.640   3.374
 7924SOL    HW224672   2.473   1.550   3.441
 7925SOL     OW24673   1.538   1.359   0.261
 7925SOL    HW124674   1.576   1.411   0.338
 7925SOL    HW224675   1.447   1.393   0.240
 7926SOL     OW24676   3.250   0.939   1.758
 7926SOL    HW124677   3.196   0.924   1.675
 7926SOL    HW224678   3.337   0.981   1.733
 7927SOL     OW24679   4.601   5.657   4.693
 7927SOL    HW124680   4.663   5.691   4.622
 7927SOL    HW224681   4.608   5.557   4.697
 7928SOL     OW24682   0.491   3.960   0.703
 7928SOL    HW124683   0.415   3.895   0.709
 7928SOL    HW224684   0.557   3.928   0.634
 7929SOL     OW24685   3.735   4.199   5.043
 7929SOL    HW124686   3.770   4.263   4.975
 7929SOL    HW224687   3.680   4.129   4.998
 7930SOL     OW24688   3.582   0.080   1.971
 7930SOL    HW124689   3.643   0.042   1.902
 7930SOL    HW224690   3.489   0.083   1.935
 7931SOL     OW24691   2.821   3.247   5.693
 7931SOL    HW124692   2.838   3.231   5.596
 7931SOL    HW224693   2.794   3.161   5.736
 7932SOL     OW24694   3.165   1.486   0.584
 7932SOL    HW124695   3.112   1.562   0.545
 7932SOL    HW224696   3.127   1.463   0.674
 7933SOL     OW24697   2.116   1.380   6.065
 7933SOL    HW124698   2.022   1.366   6.033
 7933SOL    HW224699   2.119   1.373   6.165
 7934SOL     OW24700   4.360   2.380   6.108
 7934SOL    HW124701   4.422   2.310   6.075
 7934SOL    HW224702   4.378   2.466   6.060
 7935SOL     OW24703   4.841   5.562   2.194
 7935SOL    HW124704   4.905   5.515   2.134
 7935SOL    HW224705   4.762   5.503   2.211
 7936SOL     OW24706   4.358   5.934   2.058
 7936SOL    HW124707   4.438   5.965   2.110
 7936SOL    HW224708   4.319   5.853   2.103
 7937SOL     OW24709   5.831   1.780   6.298
 7937SOL    HW124710   5.738   1.806   6.272
 7937SOL    HW224711   5.865   1.710   6.234
 7938SOL     OW24712   6.240   4.924   4.358
 7938SOL    HW124713   6.191   4.995   4.307
 7938SOL    HW224714   6.338   4.945   4.359
 7939SOL     OW24715   6.775   6.298   3.624
 7939SOL    HW124716   6.865   6.257   3.641
 7939SOL    HW224717   6.709   6.225   3.608
 7940SOL     OW24718   1.708   6.235   0.395
 7940SOL    HW124719   1.804   6.219   0.420
 7940SOL    HW224720   1.651   6.226   0.477
 7941SOL     OW24721   1.308   0.606   0.980
 7941SOL    HW124722   1.276   0.689   1.027
 7941SOL    HW224723   1.398   0.623   0.940
 7942SOL     OW24724   0.695   6.569   1.536
 7942SOL    HW124725   0.625   6.589   1.605
 7942SOL    HW224726   0.785   6.588   1.574
 7943SOL     OW24727   6.258   1.986   6.416
 7943SOL    HW124728   6.218   1.968   6.326
 7943SOL    HW224729   6.236   2.080   6.444
 7944SOL     OW24730   6.860   4.414   2.283
 7944SOL    HW124731   6.846   4.399   2.381
 7944SOL    HW224732   6.787   4.369   2.231
 7945SOL     OW24733   5.663   6.415   0.754
 7945SOL    HW124734   5.728   6.483   0.719
 7945SOL    HW224735   5.579   6.418   0.700
 7946SOL     OW24736   2.373   1.726   5.288
 7946SOL    HW124737   2.333   1.708   5.198
 7946SOL    HW224738   2.322   1.799   5.333
 7947SOL     OW24739   4.524   5.434   6.561
 7947SOL    HW124740   4.522   5.527   6.598
 7947SOL    HW224741   4.438   5.388   6.580
 7948SOL     OW24742   1.072   5.151   4.912
 7948SOL    HW124743   0.973   5.143   4.900
 7948SOL    HW224744   1.107   5.224   4.855
 7949SOL     OW24745   6.767   3.323   4.469
 7949SOL    HW124746   6.790   3.418   4.487
 7949SOL    HW224747   6.675   3.304   4.503
 7950SOL     OW24748   2.751   5.761   3.466
 7950SOL    HW124749   2.797   5.839   3.510
 7950SOL    HW224750   2.745   5.686   3.532
 7951SOL     OW24751   2.439   3.532   0.665
 7951SOL    HW124752   2.468   3.557   0.573
 7951SOL    HW224753   2.447   3.611   0.726
 7952SOL     OW24754   6.110   4.120   0.598
 7952SOL    HW124755   6.075   4.212   0.575
 7952SOL    HW224756   6.043   4.073   0.656
 7953SOL     OW24757   1.721   3.876   1.659
 7953SOL    HW124758   1.705   3.794   1.604
 7953SOL    HW224759   1.811   3.870   1.702
 7954SOL     OW24760   5.825   5.709   4.115
 7954SOL    HW124761   5.775   5.622   4.112
 7954SOL    HW224762   5.807   5.760   4.031
 7955SOL     OW24763   1.813   6.544   6.169
 7955SOL    HW124764   1.893   6.602   6.187
 7955SOL    HW224765   1.743   6.562   6.238
 7956SOL     OW24766   5.325   5.723   3.335
 7956SOL    HW124767   5.290   5.782   3.409
 7956SOL    HW224768   5.382   5.778   3.274
 7957SOL     OW24769   1.371   2.967   0.796
 7957SOL    HW124770   1.341   2.873   0.788
 7957SOL    HW224771   1.466   2.969   0.828
 7958SOL     OW24772   2.119   5.589   3.270
 7958SOL    HW124773   2.070   5.580   3.183
 7958SOL    HW224774   2.063   5.642   3.334
 7959SOL     OW24775   4.525   5.111   1.594
 7959SOL    HW124776   4.547   5.150   1.683
 7959SOL    HW224777   4.459   5.036   1.606
 7960SOL     OW24778   1.819   2.568   1.140
 7960SOL    HW124779   1.819   2.511   1.059
 7960SOL    HW224780   1.763   2.525   1.211
 7961SOL     OW24781   1.526   6.450   7.004
 7961SOL    HW124782   1.565   6.542   6.998
 7961SOL    HW224783   1.583   6.386   6.953
 7962SOL     OW24784   1.853   6.471   2.548
 7962SOL    HW124785   1.894   6.482   2.457
 7962SOL    HW224786   1.801   6.386   2.552
 7963SOL     OW24787   0.050   6.249   6.290
 7963SOL    HW124788   0.097   6.222   6.206
 7963SOL    HW224789   0.044   6.349   6.295
 7964SOL     OW24790   6.068   5.549   3.123
 7964SOL    HW124791   6.080   5.558   3.222
 7964SOL    HW224792   5.971   5.541   3.102
 7965SOL     OW24793   4.043   1.764   1.263
 7965SOL    HW124794   4.077   1.795   1.351
 7965SOL    HW224795   3.978   1.831   1.227
 7966SOL     OW24796   7.011   1.279   4.298
 7966SOL    HW124797   0.003   1.182   4.320
 7966SOL    HW224798   6.939   1.290   4.229
 7967SOL     OW24799   2.205   0.541   3.801
 7967SOL    HW124800   2.238   0.564   3.709
 7967SOL    HW224801   2.247   0.455   3.831
 7968SOL     OW24802   2.010   1.026   0.671
 7968SOL    HW124803   2.026   1.002   0.575
 7968SOL    HW224804   1.941   0.965   0.709
 7969SOL     OW24805   3.760   1.950   3.342
 7969SOL    HW124806   3.844   1.931   3.291
 7969SOL    HW224807   3.681   1.911   3.293
 7970SOL     OW24808   0.356   4.690   3.118
 7970SOL    HW124809   0.322   4.640   3.198
 7970SOL    HW224810   0.341   4.634   3.036
 7971SOL     OW24811   3.420   2.112   2.669
 7971SOL    HW124812   3.365   2.093   2.588
 7971SOL    HW224813   3.360   2.141   2.744
 7972SOL     OW24814   5.498   5.848   1.232
 7972SOL    HW124815   5.586   5.894   1.216
 7972SOL    HW224816   5.477   5.849   1.330
 7973SOL     OW24817   5.562   1.707   2.859
 7973SOL    HW124818   5.469   1.682   2.884
 7973SOL    HW224819   5.561   1.772   2.783
 7974SOL     OW24820   4.364   5.789   4.775
 7974SOL    HW124821   4.295   5.795   4.703
 7974SOL    HW224822   4.442   5.736   4.741
 7975SOL     OW24823   1.924   1.332   2.186
 7975SOL    HW124824   1.941   1.382   2.101
 7975SOL    HW224825   2.011   1.314   2.232
 7976SOL     OW24826   0.440   0.093   6.106
 7976SOL    HW124827   0.518   0.112   6.046
 7976SOL    HW224828   0.472   0.078   6.199
 7977SOL     OW24829   5.063   5.818   1.074
 7977SOL    HW124830   5.144   5.774   1.115
 7977SOL    HW224831   5.092   5.895   1.017
 7978SOL     OW24832   3.219   2.139   5.852
 7978SOL    HW124833   3.245   2.093   5.767
 7978SOL    HW224834   3.121   2.130   5.866
 7979SOL     OW24835   4.770   5.564   4.250
 7979SOL    HW124836   4.813   5.488   4.200
 7979SOL    HW224837   4.751   5.639   4.187
 7980SOL     OW24838   3.146   1.134   1.543
 7980SOL    HW124839   3.128   1.199   1.617
 7980SOL    HW224840   3.078   1.061   1.546
 7981SOL     OW24841   0.158   6.185   2.097
 7981SOL    HW124842   0.170   6.283   2.087
 7981SOL    HW224843   0.228   6.149   2.159
 7982SOL     OW24844   0.584   3.339   1.196
 7982SOL    HW124845   0.498   3.288   1.204
 7982SOL    HW224846   0.656   3.289   1.244
 7983SOL     OW24847   5.333   1.861   0.586
 7983SOL    HW124848   5.329   1.953   0.624
 7983SOL    HW224849   5.241   1.821   0.586
 7984SOL     OW24850   6.210   0.962   0.529
 7984SOL    HW124851   6.307   0.939   0.541
 7984SOL    HW224852   6.193   0.984   0.433
 7985SOL     OW24853   1.009   1.218   0.568
 7985SOL    HW124854   1.021   1.119   0.563
 7985SOL    HW224855   0.926   1.238   0.620
 7986SOL     OW24856   5.009   3.522   0.859
 7986SOL    HW124857   4.912   3.545   0.869
 7986SOL    HW224858   5.031   3.512   0.762
 7987SOL     OW24859   0.980   3.789   5.432
 7987SOL    HW124860   0.944   3.715   5.375
 7987SOL    HW224861   1.003   3.867   5.374
 7988SOL     OW24862   2.522   1.024   5.512
 7988SOL    HW124863   2.593   1.095   5.513
 7988SOL    HW224864   2.563   0.937   5.483
 7989SOL     OW24865   3.327   3.917   0.041
 7989SOL    HW124866   3.371   3.847   0.098
 7989SOL    HW224867   3.337   4.006   0.084
 7990SOL     OW24868   2.289   2.675   4.440
 7990SOL    HW124869   2.246   2.618   4.370
 7990SOL    HW224870   2.224   2.694   4.513
 7991SOL     OW24871   2.195   3.223   5.790
 7991SOL    HW124872   2.288   3.218   5.754
 7991SOL    HW224873   2.129   3.211   5.716
 7992SOL     OW24874   2.956   1.528   0.092
 7992SOL    HW124875   3.010   1.455   0.132
 7992SOL    HW224876   2.898   1.570   0.162
 7993SOL     OW24877   2.631   5.245   6.399
 7993SOL    HW124878   2.586   5.196   6.324
 7993SOL    HW224879   2.672   5.179   6.462
 7994SOL     OW24880   5.662   6.880   4.746
 7994SOL    HW124881   5.741   6.827   4.776
 7994SOL    HW224882   5.578   6.829   4.764
 7995SOL     OW24883   4.316   4.884   2.450
 7995SOL    HW124884   4.361   4.913   2.366
 7995SOL    HW224885   4.374   4.905   2.528
 7996SOL     OW24886   4.537   1.428   5.383
 7996SOL    HW124887   4.562   1.516   5.341
 7996SOL    HW224888   4.441   1.408   5.363
 7997SOL     OW24889   5.278   3.134   0.854
 7997SOL    HW124890   5.234   3.161   0.940
 7997SOL    HW224891   5.318   3.042   0.864
 7998SOL     OW24892   6.879   5.486   6.101
 7998SOL    HW124893   6.930   5.524   6.024
 7998SOL    HW224894   6.797   5.440   6.067
 7999SOL     OW24895   2.821   2.660   5.721
 7999SOL    HW124896   2.805   2.573   5.674
 7999SOL    HW224897   2.884   2.645   5.797
 8000SOL     OW24898   5.125   0.591   5.688
 8000SOL    HW124899   5.171   0.521   5.634
 8000SOL    HW224900   5.192   0.657   5.721
 8001SOL     OW24901   2.181   5.007   1.069
 8001SOL    HW124902   2.187   5.093   1.019
 8001SOL    HW224903   2.273   4.970   1.082
 8002SOL     OW24904   4.486   1.700   5.478
 8002SOL    HW124905   4.474   1.779   5.537
 8002SOL    HW224906   4.583   1.673   5.476
 8003SOL     OW24907   4.938   5.448   2.839
 8003SOL    HW124908   5.013   5.401   2.887
 8003SOL    HW224909   4.897   5.515   2.900
 8004SOL     OW24910   1.330   4.951   3.459
 8004SOL    HW124911   1.407   4.889   3.478
 8004SOL    HW224912   1.251   4.924   3.514
 8005SOL     OW24913   1.970   1.326   2.633
 8005SOL    HW124914   2.058   1.278   2.632
 8005SOL    HW224915   1.978   1.408   2.689
 8006SOL     OW24916   4.590   5.611   2.483
 8006SOL    HW124917   4.562   5.664   2.403
 8006SOL    HW224918   4.631   5.672   2.551
 8007SOL     OW24919   0.623   0.841   3.913
 8007SOL    HW124920   0.542   0.879   3.868
 8007SOL    HW224921   0.603   0.748   3.945
 8008SOL     OW24922   6.047   4.943   1.827
 8008SOL    HW124923   6.038   4.845   1.843
 8008SOL    HW224924   5.993   4.993   1.895
 8009SOL     OW24925   0.046   6.245   2.672
 8009SOL    HW124926   7.017   6.253   2.585
 8009SOL    HW224927   7.009   6.194   2.737
 8010SOL     OW24928   2.168   2.057   6.649
 8010SOL    HW124929   2.087   1.999   6.641
 8010SOL    HW224930   2.142   2.153   6.636
 8011SOL     OW24931   2.035   3.316   0.344
 8011SOL    HW124932   2.114   3.262   0.317
 8011SOL    HW224933   1.973   3.324   0.266
 8012SOL     OW24934   2.121   6.018   3.210
 8012SOL    HW124935   2.128   6.114   3.234
 8012SOL    HW224936   2.089   5.966   3.289
 8013SOL     OW24937   6.376   5.466   4.352
 8013SOL    HW124938   6.470   5.433   4.365
 8013SOL    HW224939   6.342   5.435   4.263
 8014SOL     OW24940   2.883   0.676   6.453
 8014SOL    HW124941   2.827   0.757   6.471
 8014SOL    HW224942   2.882   0.657   6.355
 8015SOL     OW24943   1.825   1.840   0.395
 8015SOL    HW124944   1.897   1.771   0.399
 8015SOL    HW224945   1.761   1.817   0.321
 8016SOL     OW24946   4.375   5.433   1.955
 8016SOL    HW124947   4.395   5.531   1.950
 8016SOL    HW224948   4.287   5.418   1.998
 8017SOL     OW24949   6.330   3.684   5.088
 8017SOL    HW124950   6.373   3.619   5.026
 8017SOL    HW224951   6.385   3.768   5.092
 8018SOL     OW24952   4.804   2.890   4.048
 8018SOL    HW124953   4.735   2.818   4.050
 8018SOL    HW224954   4.792   2.945   3.966
 8019SOL     OW24955   3.320   5.374   1.118
 8019SOL    HW124956   3.416   5.396   1.133
 8019SOL    HW224957   3.301   5.283   1.155
 8020SOL     OW24958   5.338   6.664   6.483
 8020SOL    HW124959   5.345   6.726   6.405
 8020SOL    HW224960   5.384   6.578   6.462
 8021SOL     OW24961   6.650   1.019   1.487
 8021SOL    HW124962   6.573   0.998   1.426
 8021SOL    HW224963   6.714   0.943   1.488
 8022SOL     OW24964   5.501   5.019   3.946
 8022SOL    HW124965   5.519   4.971   4.032
 8022SOL    HW224966   5.416   5.070   3.953
 8023SOL     OW24967   0.026   5.685   3.720
 8023SOL    HW124968   0.112   5.651   3.684
 8023SOL    HW224969   0.043   5.736   3.805
 8024SOL     OW24970   4.338   5.591   3.923
 8024SOL    HW124971   4.409   5.537   3.967
 8024SOL    HW224972   4.309   5.546   3.839
 8025SOL     OW24973   2.954   6.075   0.253
 8025SOL    HW124974   2.997   6.013   0.319
 8025SOL    HW224975   2.945   6.166   0.293
 8026SOL     OW24976   2.632   2.034   6.594
 8026SOL    HW124977   2.630   2.109   6.528
 8026SOL    HW224978   2.615   1.948   6.546
 8027SOL     OW24979   4.783   3.208   5.703
 8027SOL    HW124980   4.758   3.263   5.783
 8027SOL    HW224981   4.709   3.143   5.684
 8028SOL     OW24982   5.992   5.370   0.968
 8028SOL    HW124983   6.084   5.365   0.929
 8028SOL    HW224984   5.925   5.352   0.896
 8029SOL     OW24985   3.566   4.207   5.881
 8029SOL    HW124986   3.556   4.201   5.782
 8029SOL    HW224987   3.535   4.122   5.923
 8030SOL     OW24988   6.998   3.749   1.582
 8030SOL    HW124989   0.025   3.687   1.646
 8030SOL    HW224990   0.044   3.815   1.545
 8031SOL     OW24991   3.876   6.591   0.369
 8031SOL    HW124992   3.864   6.507   0.315
 8031SOL    HW224993   3.871   6.569   0.466
 8032SOL     OW24994   4.705   3.165   5.433
 8032SOL    HW124995   4.778   3.192   5.495
 8032SOL    HW224996   4.735   3.177   5.338
 8033SOL     OW24997   6.458   0.842   1.914
 8033SOL    HW124998   6.465   0.912   1.985
 8033SOL    HW224999   6.422   0.758   1.953
 8034SOL     OW25000   6.374   2.382   5.649
 8034SOL    HW125001   6.281   2.350   5.662
 8034SOL    HW225002   6.399   2.372   5.552
 8035SOL     OW25003   5.301   5.874   5.515
 8035SOL    HW125004   5.276   5.777   5.525
 8035SOL    HW225005   5.222   5.931   5.539
 8036SOL     OW25006   1.025   3.943   1.740
 8036SOL    HW125007   1.084   3.916   1.665
 8036SOL    HW225008   1.077   3.943   1.825
 8037SOL     OW25009   2.339   2.862   1.675
 8037SOL    HW125010   2.323   2.822   1.765
 8037SOL    HW225011   2.334   2.961   1.681
 8038SOL     OW25012   5.811   0.974   4.174
 8038SOL    HW125013   5.741   0.903   4.164
 8038SOL    HW225014   5.808   1.012   4.266
 8039SOL     OW25015   2.421   5.553   3.246
 8039SOL    HW125016   2.459   5.548   3.154
 8039SOL    HW225017   2.321   5.549   3.241
 8040SOL     OW25018   5.904   6.271   6.820
 8040SOL    HW125019   5.993   6.225   6.814
 8040SOL    HW225020   5.872   6.296   6.729
 8041SOL     OW25021   3.496   2.686   1.399
 8041SOL    HW125022   3.487   2.674   1.497
 8041SOL    HW225023   3.590   2.713   1.377
 8042SOL     OW25024   1.384   4.868   0.138
 8042SOL    HW125025   1.401   4.889   0.042
 8042SOL    HW225026   1.296   4.821   0.147
 8043SOL     OW25027   3.520   0.596   0.818
 8043SOL    HW125028   3.612   0.555   0.818
 8043SOL    HW225029   3.462   0.547   0.883
 8044SOL     OW25030   2.961   2.784   1.694
 8044SOL    HW125031   2.882   2.724   1.683
 8044SOL    HW225032   2.946   2.844   1.773
 8045SOL     OW25033   5.847   2.932   4.022
 8045SOL    HW125034   5.867   2.918   4.119
 8045SOL    HW225035   5.817   2.846   3.982
 8046SOL     OW25036   6.515   4.990   4.993
 8046SOL    HW125037   6.431   5.042   5.011
 8046SOL    HW225038   6.570   4.986   5.076
 8047SOL     OW25039   2.503   0.226   4.256
 8047SOL    HW125040   2.559   0.144   4.267
 8047SOL    HW225041   2.548   0.304   4.300
 8048SOL     OW25042   5.083   0.324   5.335
 8048SOL    HW125043   4.997   0.345   5.381
 8048SOL    HW225044   5.095   0.386   5.257
 8049SOL     OW25045   2.280   6.825   6.729
 8049SOL    HW125046   2.251   6.762   6.802
 8049SOL    HW225047   2.346   6.890   6.767
 8050SOL     OW25048   0.248   3.596   1.741
 8050SOL    HW125049   0.318   3.539   1.784
 8050SOL    HW225050   0.290   3.649   1.667
 8051SOL     OW25051   2.495   2.163   3.910
 8051SOL    HW125052   2.495   2.192   4.006
 8051SOL    HW225053   2.404   2.179   3.871
 8052SOL     OW25054   4.134   1.706   2.742
 8052SOL    HW125055   4.158   1.626   2.686
 8052SOL    HW225056   4.218   1.756   2.765
 8053SOL     OW25057   4.552   3.668   1.637
 8053SOL    HW125058   4.563   3.575   1.671
 8053SOL    HW225059   4.455   3.690   1.630
 8054SOL     OW25060   4.589   6.086   4.437
 8054SOL    HW125061   4.596   6.002   4.383
 8054SOL    HW225062   4.576   6.063   4.533
 8055SOL     OW25063   1.338   0.069   5.145
 8055SOL    HW125064   1.364   0.113   5.059
 8055SOL    HW225065   1.412   0.076   5.211
 8056SOL     OW25066   4.548   1.409   2.781
 8056SOL    HW125067   4.480   1.373   2.717
 8056SOL    HW225068   4.554   1.348   2.861
 8057SOL     OW25069   3.411   6.863   4.016
 8057SOL    HW125070   3.431   6.940   4.077
 8057SOL    HW225071   3.492   6.842   3.961
 8058SOL     OW25072   1.815   0.101   2.889
 8058SOL    HW125073   1.854   0.163   2.821
 8058SOL    HW225074   1.730   0.139   2.924
 8059SOL     OW25075   1.530   1.703   4.228
 8059SOL    HW125076   1.592   1.692   4.150
 8059SOL    HW225077   1.435   1.699   4.196
 8060SOL     OW25078   0.406   2.653   5.579
 8060SOL    HW125079   0.307   2.645   5.585
 8060SOL    HW225080   0.434   2.653   5.483
 8061SOL     OW25081   5.855   6.717   3.350
 8061SOL    HW125082   5.806   6.643   3.303
 8061SOL    HW225083   5.812   6.733   3.439
 8062SOL     OW25084   1.648   2.169   1.452
 8062SOL    HW125085   1.559   2.129   1.474
 8062SOL    HW225086   1.713   2.096   1.434
 8063SOL     OW25087   2.191   2.864   5.862
 8063SOL    HW125088   2.132   2.845   5.784
 8063SOL    HW225089   2.277   2.904   5.830
 8064SOL     OW25090   5.726   2.167   5.474
 8064SOL    HW125091   5.736   2.137   5.569
 8064SOL    HW225092   5.817   2.184   5.435
 8065SOL     OW25093   4.285   0.217   6.322
 8065SOL    HW125094   4.237   0.161   6.390
 8065SOL    HW225095   4.382   0.219   6.343
 8066SOL     OW25096   1.525   0.416   1.564
 8066SOL    HW125097   1.621   0.392   1.576
 8066SOL    HW225098   1.468   0.341   1.596
 8067SOL     OW25099   4.430   1.887   2.931
 8067SOL    HW125100   4.381   1.927   2.854
 8067SOL    HW225101   4.450   1.790   2.912
 8068SOL     OW25102   0.060   4.151   3.960
 8068SOL    HW125103   0.054   4.059   3.997
 8068SOL    HW225104   0.127   4.153   3.885
 8069SOL     OW25105   0.354   6.050   2.541
 8069SOL    HW125106   0.357   6.142   2.501
 8069SOL    HW225107   0.315   6.055   2.633
 8070SOL     OW25108   3.766   0.158   2.774
 8070SOL    HW125109   3.734   0.246   2.808
 8070SOL    HW225110   3.692   0.091   2.781
 8071SOL     OW25111   5.100   4.796   6.814
 8071SOL    HW125112   5.180   4.834   6.769
 8071SOL    HW225113   5.128   4.754   6.901
 8072SOL     OW25114   3.871   0.192   3.730
 8072SOL    HW125115   3.948   0.232   3.682
 8072SOL    HW225116   3.786   0.222   3.688
 8073SOL     OW25117   5.122   0.098   6.690
 8073SOL    HW125118   5.040   0.054   6.727
 8073SOL    HW225119   5.097   0.186   6.650
 8074SOL     OW25120   3.170   4.290   0.379
 8074SOL    HW125121   3.157   4.241   0.466
 8074SOL    HW225122   3.184   4.387   0.397
 8075SOL     OW25123   6.150   1.321   4.286
 8075SOL    HW125124   6.194   1.400   4.329
 8075SOL    HW225125   6.076   1.353   4.227
 8076SOL     OW25126   4.858   3.112   6.712
 8076SOL    HW125127   4.848   3.020   6.674
 8076SOL    HW225128   4.785   3.129   6.778
 8077SOL     OW25129   1.135   0.764   6.903
 8077SOL    HW125130   1.066   0.759   6.975
 8077SOL    HW225131   1.202   0.691   6.915
 8078SOL     OW25132   6.029   3.774   1.238
 8078SOL    HW125133   6.046   3.812   1.147
 8078SOL    HW225134   5.945   3.813   1.275
 8079SOL     OW25135   1.414   2.722   0.205
 8079SOL    HW125136   1.402   2.777   0.123
 8079SOL    HW225137   1.503   2.676   0.202
 8080SOL     OW25138   3.531   4.831   0.549
 8080SOL    HW125139   3.578   4.917   0.568
 8080SOL    HW225140   3.559   4.798   0.458
 8081SOL     OW25141   5.340   2.346   4.157
 8081SOL    HW125142   5.434   2.320   4.136
 8081SOL    HW225143   5.339   2.436   4.201
 8082SOL     OW25144   6.803   3.359   4.889
 8082SOL    HW125145   6.879   3.341   4.826
 8082SOL    HW225146   6.836   3.357   4.983
 8083SOL     OW25147   5.895   1.760   4.846
 8083SOL    HW125148   5.945   1.847   4.842
 8083SOL    HW225149   5.947   1.695   4.901
 8084SOL     OW25150   5.778   0.468   0.002
 8084SOL    HW125151   5.825   0.550   0.033
 8084SOL    HW225152   5.679   0.484   0.000
 8085SOL     OW25153   4.755   2.196   1.602
 8085SOL    HW125154   4.753   2.260   1.679
 8085SOL    HW225155   4.718   2.108   1.632
 8086SOL     OW25156   3.490   5.034   6.153
 8086SOL    HW125157   3.484   4.974   6.233
 8086SOL    HW225158   3.506   5.128   6.183
 8087SOL     OW25159   2.144   3.793   0.654
 8087SOL    HW125160   2.085   3.868   0.684
 8087SOL    HW225161   2.131   3.776   0.556
 8088SOL     OW25162   4.645   0.559   3.187
 8088SOL    HW125163   4.613   0.526   3.099
 8088SOL    HW225164   4.719   0.624   3.173
 8089SOL     OW25165   6.943   2.772   0.397
 8089SOL    HW125166   6.844   2.781   0.392
 8089SOL    HW225167   6.967   2.681   0.431
 8090SOL     OW25168   4.963   1.495   5.199
 8090SOL    HW125169   4.958   1.584   5.243
 8090SOL    HW225170   4.887   1.438   5.232
 8091SOL     OW25171   1.897   3.683   5.278
 8091SOL    HW125172   1.866   3.762   5.331
 8091SOL    HW225173   1.871   3.694   5.182
 8092SOL     OW25174   6.358   2.171   4.045
 8092SOL    HW125175   6.408   2.086   4.067
 8092SOL    HW225176   6.337   2.219   4.130
 8093SOL     OW25177   6.103   5.058   0.600
 8093SOL    HW125178   6.033   5.043   0.670
 8093SOL    HW225179   6.120   5.156   0.591
 8094SOL     OW25180   0.520   3.218   4.159
 8094SOL    HW125181   0.521   3.272   4.243
 8094SOL    HW225182   0.595   3.152   4.161
 8095SOL     OW25183   6.313   3.348   5.366
 8095SOL    HW125184   6.347   3.433   5.327
 8095SOL    HW225185   6.372   3.272   5.338
 8096SOL     OW25186   4.412   0.373   0.561
 8096SOL    HW125187   4.343   0.322   0.509
 8096SOL    HW225188   4.380   0.466   0.576
 8097SOL     OW25189   4.722   2.088   3.714
 8097SOL    HW125190   4.705   2.162   3.648
 8097SOL    HW225191   4.680   2.110   3.801
 8098SOL     OW25192   2.606   2.330   4.140
 8098SOL    HW125193   2.520   2.318   4.189
 8098SOL    HW225194   2.598   2.406   4.076
 8099SOL     OW25195   3.904   6.628   4.221
 8099SOL    HW125196   3.914   6.539   4.265
 8099SOL    HW225197   3.958   6.630   4.136
 8100SOL     OW25198   6.649   6.277   1.435
 8100SOL    HW125199   6.594   6.329   1.500
 8100SOL    HW225200   6.725   6.234   1.483
 8101SOL     OW25201   0.823   4.747   2.248
 8101SOL    HW125202   0.848   4.753   2.151
 8101SOL    HW225203   0.904   4.762   2.304
 8102SOL     OW25204   6.936   0.272   5.465
 8102SOL    HW125205   6.955   0.358   5.511
 8102SOL    HW225206   6.997   0.262   5.386
 8103SOL     OW25207   2.625   2.372   2.359
 8103SOL    HW125208   2.684   2.293   2.346
 8103SOL    HW225209   2.651   2.444   2.295
 8104SOL     OW25210   2.958   0.022   5.717
 8104SOL    HW125211   3.000   0.071   5.794
 8104SOL    HW225212   2.864   7.018   5.741
 8105SOL     OW25213   2.480   2.125   2.617
 8105SOL    HW125214   2.542   2.062   2.570
 8105SOL    HW225215   2.533   2.186   2.676
 8106SOL     OW25216   0.188   4.227   5.845
 8106SOL    HW125217   0.187   4.264   5.938
 8106SOL    HW225218   0.095   4.205   5.816
 8107SOL     OW25219   0.952   5.109   0.048
 8107SOL    HW125220   0.891   5.188   0.049
 8107SOL    HW225221   0.941   5.059   6.982
 8108SOL     OW25222   2.206   2.249   6.294
 8108SOL    HW125223   2.210   2.152   6.321
 8108SOL    HW225224   2.274   2.266   6.223
 8109SOL     OW25225   0.636   5.712   5.445
 8109SOL    HW125226   0.577   5.661   5.382
 8109SOL    HW225227   0.702   5.765   5.392
 8110SOL     OW25228   1.273   4.996   0.430
 8110SOL    HW125229   1.213   4.970   0.506
 8110SOL    HW225230   1.358   4.945   0.436
 8111SOL     OW25231   3.290   6.156   4.047
 8111SOL    HW125232   3.331   6.216   4.115
 8111SOL    HW225233   3.328   6.064   4.055
 8112SOL     OW25234   4.145   1.480   4.110
 8112SOL    HW125235   4.201   1.558   4.137
 8112SOL    HW225236   4.125   1.424   4.190
 8113SOL     OW25237   3.040   2.328   5.623
 8113SOL    HW125238   3.085   2.304   5.538
 8113SOL    HW225239   3.062   2.260   5.693
 8114SOL     OW25240   2.960   3.804   0.982
 8114SOL    HW125241   3.020   3.850   0.918
 8114SOL    HW225242   2.993   3.711   0.998
 8115SOL     OW25243   4.112   2.983   1.318
 8115SOL    HW125244   4.059   3.065   1.301
 8115SOL    HW225245   4.200   2.989   1.270
 8116SOL     OW25246   5.896   1.833   5.751
 8116SOL    HW125247   5.829   1.760   5.741
 8116SOL    HW225248   5.978   1.797   5.796
 8117SOL     OW25249   2.929   2.870   5.355
 8117SOL    HW125250   2.980   2.884   5.440
 8117SOL    HW225251   2.834   2.899   5.369
 8118SOL     OW25252   0.950   1.935   3.957
 8118SOL    HW125253   0.954   1.965   4.052
 8118SOL    HW225254   0.868   1.878   3.943
 8119SOL     OW25255   1.553   6.808   2.519
 8119SOL    HW125256   1.611   6.730   2.543
 8119SOL    HW225257   1.489   6.781   2.447
 8120SOL     OW25258   4.823   3.921   2.517
 8120SOL    HW125259   4.765   4.000   2.495
 8120SOL    HW225260   4.843   3.870   2.434
 8121SOL     OW25261   0.385   6.043   3.676
 8121SOL    HW125262   0.330   6.124   3.655
 8121SOL    HW225263   0.480   6.070   3.686
 8122SOL     OW25264   0.211   4.933   2.075
 8122SOL    HW125265   0.244   4.957   2.167
 8122SOL    HW225266   0.273   4.867   2.034
 8123SOL     OW25267   1.643   5.140   6.235
 8123SOL    HW125268   1.624   5.044   6.215
 8123SOL    HW225269   1.606   5.197   6.162
 8124SOL     OW25270   1.821   5.792   2.477
 8124SOL    HW125271   1.794   5.749   2.564
 8124SOL    HW225272   1.747   5.850   2.444
 8125SOL     OW25273   5.299   5.117   3.541
 8125SOL    HW125274   5.352   5.035   3.559
 8125SOL    HW225275   5.355   5.184   3.493
 8126SOL     OW25276   0.348   4.489   2.018
 8126SOL    HW125277   0.258   4.461   1.983
 8126SOL    HW225278   0.403   4.407   2.036
 8127SOL     OW25279   4.169   5.099   0.968
 8127SOL    HW125280   4.253   5.049   0.947
 8127SOL    HW225281   4.188   5.197   0.969
 8128SOL     OW25282   3.921   2.104   5.141
 8128SOL    HW125283   3.933   2.173   5.213
 8128SOL    HW225284   3.864   2.030   5.176
 8129SOL     OW25285   4.677   5.211   6.600
 8129SOL    HW125286   4.636   5.303   6.601
 8129SOL    HW225287   4.707   5.189   6.507
 8130SOL     OW25288   0.388   0.441   6.291
 8130SOL    HW125289   0.370   0.533   6.325
 8130SOL    HW225290   0.455   0.445   6.217
 8131SOL     OW25291   2.159   2.001   1.249
 8131SOL    HW125292   2.112   2.077   1.293
 8131SOL    HW225293   2.101   1.919   1.254
 8132SOL     OW25294   5.898   4.437   3.497
 8132SOL    HW125295   5.951   4.359   3.527
 8132SOL    HW225296   5.937   4.474   3.412
 8133SOL     OW25297   0.594   5.200   2.663
 8133SOL    HW125298   0.565   5.105   2.653
 8133SOL    HW225299   0.543   5.258   2.600
 8134SOL     OW25300   3.377   3.489   1.485
 8134SOL    HW125301   3.345   3.570   1.435
 8134SOL    HW225302   3.476   3.498   1.502
 8135SOL     OW25303   4.042   6.324   2.466
 8135SOL    HW125304   4.068   6.389   2.395
 8135SOL    HW225305   4.074   6.233   2.441
 8136SOL     OW25306   2.797   5.531   1.788
 8136SOL    HW125307   2.725   5.599   1.772
 8136SOL    HW225308   2.795   5.501   1.883
 8137SOL     OW25309   3.365   4.606   5.583
 8137SOL    HW125310   3.343   4.686   5.528
 8137SOL    HW225311   3.438   4.629   5.647
 8138SOL     OW25312   3.975   0.757   3.454
 8138SOL    HW125313   3.931   0.793   3.371
 8138SOL    HW225314   4.072   0.780   3.452
 8139SOL     OW25315   1.728   3.004   5.704
 8139SOL    HW125316   1.635   3.041   5.710
 8139SOL    HW225317   1.730   2.914   5.746
 8140SOL     OW25318   5.235   1.680   1.294
 8140SOL    HW125319   5.182   1.759   1.327
 8140SOL    HW225320   5.308   1.659   1.360
 8141SOL     OW25321   5.878   1.697   5.249
 8141SOL    HW125322   5.849   1.770   5.310
 8141SOL    HW225323   5.891   1.613   5.301
 8142SOL     OW25324   3.714   5.804   0.767
 8142SOL    HW125325   3.737   5.901   0.763
 8142SOL    HW225326   3.629   5.789   0.715
 8143SOL     OW25327   5.809   5.299   0.429
 8143SOL    HW125328   5.902   5.328   0.406
 8143SOL    HW225329   5.805   5.273   0.525
 8144SOL     OW25330   1.978   5.540   6.383
 8144SOL    HW125331   2.022   5.548   6.472
 8144SOL    HW225332   2.006   5.454   6.340
 8145SOL     OW25333   4.788   5.286   5.172
 8145SOL    HW125334   4.886   5.307   5.171
 8145SOL    HW225335   4.736   5.369   5.191
 8146SOL     OW25336   6.806   6.226   4.949
 8146SOL    HW125337   6.766   6.207   5.038
 8146SOL    HW225338   6.736   6.216   4.878
 8147SOL     OW25339   2.226   6.761   4.600
 8147SOL    HW125340   2.188   6.718   4.518
 8147SOL    HW225341   2.164   6.746   4.677
 8148SOL     OW25342   5.722   4.907   0.811
 8148SOL    HW125343   5.714   4.821   0.760
 8148SOL    HW225344   5.698   4.891   0.907
 8149SOL     OW25345   1.580   6.435   4.984
 8149SOL    HW125346   1.586   6.391   5.073
 8149SOL    HW225347   1.544   6.528   4.994
 8150SOL     OW25348   0.206   4.473   0.466
 8150SOL    HW125349   0.184   4.570   0.470
 8150SOL    HW225350   0.264   4.455   0.386
 8151SOL     OW25351   6.357   4.058   2.378
 8151SOL    HW125352   6.310   4.030   2.461
 8151SOL    HW225353   6.327   4.003   2.301
 8152SOL     OW25354   4.918   1.815   4.187
 8152SOL    HW125355   4.868   1.742   4.234
 8152SOL    HW225356   5.014   1.811   4.213
 8153SOL     OW25357   0.274   1.984   0.693
 8153SOL    HW125358   0.315   1.932   0.768
 8153SOL    HW225359   0.326   2.068   0.678
 8154SOL     OW25360   0.016   0.374   4.314
 8154SOL    HW125361   0.060   0.386   4.403
 8154SOL    HW225362   6.965   0.304   4.321
 8155SOL     OW25363   1.005   4.632   4.829
 8155SOL    HW125364   0.931   4.595   4.885
 8155SOL    HW225365   0.967   4.694   4.760
 8156SOL     OW25366   1.278   3.963   0.576
 8156SOL    HW125367   1.262   3.919   0.488
 8156SOL    HW225368   1.366   3.934   0.613
 8157SOL     OW25369   6.441   4.742   5.211
 8157SOL    HW125370   6.527   4.782   5.241
 8157SOL    HW225371   6.457   4.685   5.129
 8158SOL     OW25372   6.175   5.143   6.057
 8158SOL    HW125373   6.088   5.098   6.034
 8158SOL    HW225374   6.204   5.200   5.981
 8159SOL     OW25375   2.268   6.414   5.362
 8159SOL    HW125376   2.201   6.443   5.293
 8159SOL    HW225377   2.233   6.335   5.411
 8160SOL     OW25378   5.166   3.136   2.830
 8160SOL    HW125379   5.176   3.221   2.882
 8160SOL    HW225380   5.229   3.067   2.865
 8161SOL     OW25381   0.286   2.424   1.124
 8161SOL    HW125382   0.194   2.398   1.152
 8161SOL    HW225383   0.289   2.522   1.107
 8162SOL     OW25384   0.233   6.306   5.352
 8162SOL    HW125385   0.321   6.353   5.363
 8162SOL    HW225386   0.236   6.219   5.401
 8163SOL     OW25387   3.809   5.082   5.636
 8163SOL    HW125388   3.872   5.041   5.701
 8163SOL    HW225389   3.845   5.170   5.606
 8164SOL     OW25390   5.740   2.186   0.032
 8164SOL    HW125391   5.763   2.117   0.100
 8164SOL    HW225392   5.733   2.143   6.961
 8165SOL     OW25393   1.095   2.725   5.775
 8165SOL    HW125394   1.058   2.757   5.688
 8165SOL    HW225395   1.068   2.630   5.790
 8166SOL     OW25396   3.386   2.024   4.486
 8166SOL    HW125397   3.296   2.060   4.509
 8166SOL    HW225398   3.380   1.926   4.470
 8167SOL     OW25399   1.816   2.510   2.207
 8167SOL    HW125400   1.807   2.598   2.159
 8167SOL    HW225401   1.912   2.486   2.214
 8168SOL     OW25402   1.185   5.838   2.933
 8168SOL    HW125403   1.254   5.837   3.006
 8168SOL    HW225404   1.230   5.844   2.844
 8169SOL     OW25405   5.102   4.764   6.375
 8169SOL    HW125406   5.072   4.740   6.282
 8169SOL    HW225407   5.178   4.828   6.370
 8170SOL     OW25408   0.076   4.923   3.399
 8170SOL    HW125409   0.021   4.901   3.318
 8170SOL    HW225410   0.056   4.857   3.471
 8171SOL     OW25411   1.808   1.564   1.658
 8171SOL    HW125412   1.776   1.469   1.654
 8171SOL    HW225413   1.738   1.623   1.617
 8172SOL     OW25414   1.700   5.179   0.506
 8172SOL    HW125415   1.620   5.165   0.565
 8172SOL    HW225416   1.710   5.101   0.444
 8173SOL     OW25417   5.603   0.408   1.358
 8173SOL    HW125418   5.678   0.427   1.295
 8173SOL    HW225419   5.529   0.474   1.343
 8174SOL     OW25420   2.353   6.631   4.032
 8174SOL    HW125421   2.385   6.609   3.940
 8174SOL    HW225422   2.341   6.730   4.040
 8175SOL     OW25423   0.981   2.262   6.365
 8175SOL    HW125424   0.952   2.217   6.281
 8175SOL    HW225425   1.018   2.352   6.343
 8176SOL     OW25426   2.866   4.499   0.377
 8176SOL    HW125427   2.814   4.438   0.437
 8176SOL    HW225428   2.929   4.446   0.321
 8177SOL     OW25429   3.378   1.139   2.435
 8177SOL    HW125430   3.331   1.149   2.348
 8177SOL    HW225431   3.477   1.140   2.420
 8178SOL     OW25432   2.604   6.543   1.145
 8178SOL    HW125433   2.612   6.524   1.047
 8178SOL    HW225434   2.509   6.531   1.174
 8179SOL     OW25435   6.190   6.851   4.246
 8179SOL    HW125436   6.148   6.789   4.312
 8179SOL    HW225437   6.134   6.854   4.163
 8180SOL     OW25438   4.464   5.661   1.081
 8180SOL    HW125439   4.525   5.592   1.120
 8180SOL    HW225440   4.468   5.658   0.982
 8181SOL     OW25441   6.677   0.551   6.494
 8181SOL    HW125442   6.644   0.472   6.547
 8181SOL    HW225443   6.768   0.576   6.525
 8182SOL     OW25444   3.505   3.476   3.050
 8182SOL    HW125445   3.515   3.416   2.972
 8182SOL    HW225446   3.410   3.507   3.057
 8183SOL     OW25447   0.361   0.127   5.223
 8183SOL    HW125448   0.387   0.053   5.284
 8183SOL    HW225449   0.439   0.151   5.164
 8184SOL     OW25450   0.093   6.015   4.598
 8184SOL    HW125451   0.010   5.969   4.567
 8184SOL    HW225452   0.078   6.054   4.689
 8185SOL     OW25453   0.029   6.338   4.768
 8185SOL    HW125454   0.041   6.382   4.857
 8185SOL    HW225455   0.025   6.239   4.781
 8186SOL     OW25456   1.318   5.773   7.015
 8186SOL    HW125457   1.236   5.815   0.034
 8186SOL    HW225458   1.300   5.744   6.921
 8187SOL     OW25459   1.629   6.167   4.730
 8187SOL    HW125460   1.677   6.114   4.800
 8187SOL    HW225461   1.540   6.126   4.711
 8188SOL     OW25462   1.531   2.883   2.638
 8188SOL    HW125463   1.487   2.859   2.551
 8188SOL    HW225464   1.620   2.925   2.619
 8189SOL     OW25465   6.580   5.606   4.089
 8189SOL    HW125466   6.645   5.533   4.068
 8189SOL    HW225467   6.625   5.675   4.147
 8190SOL     OW25468   5.479   3.602   2.730
 8190SOL    HW125469   5.417   3.677   2.757
 8190SOL    HW225470   5.574   3.633   2.737
 8191SOL     OW25471   4.939   5.102   0.852
 8191SOL    HW125472   4.841   5.081   0.848
 8191SOL    HW225473   4.981   5.078   0.764
 8192SOL     OW25474   6.626   5.799   2.558
 8192SOL    HW125475   6.602   5.827   2.465
 8192SOL    HW225476   6.618   5.878   2.619
 8193SOL     OW25477   0.886   4.873   4.717
 8193SOL    HW125478   0.943   4.935   4.663
 8193SOL    HW225479   0.791   4.882   4.689
 8194SOL     OW25480   5.319   0.034   2.374
 8194SOL    HW125481   5.320   6.958   2.344
 8194SOL    HW225482   5.412   0.070   2.374
 8195SOL     OW25483   6.557   6.808   3.229
 8195SOL    HW125484   6.637   6.776   3.178
 8195SOL    HW225485   6.526   6.736   3.291
 8196SOL     OW25486   4.907   6.901   2.817
 8196SOL    HW125487   4.932   6.997   2.827
 8196SOL    HW225488   4.838   6.877   2.884
 8197SOL     OW25489   4.107   0.962   3.145
 8197SOL    HW125490   4.025   0.917   3.182
 8197SOL    HW225491   4.120   1.050   3.191
 8198SOL     OW25492   2.091   5.477   6.987
 8198SOL    HW125493   2.155   5.405   6.959
 8198SOL    HW225494   2.057   5.524   6.905
 8199SOL     OW25495   5.773   2.969   0.243
 8199SOL    HW125496   5.804   3.061   0.222
 8199SOL    HW225497   5.717   2.971   0.327
 8200SOL     OW25498   5.954   4.452   6.873
 8200SOL    HW125499   5.863   4.462   6.833
 8200SOL    HW225500   5.946   4.451   6.973
 8201SOL     OW25501   5.519   1.295   5.565
 8201SOL    HW125502   5.526   1.343   5.477
 8201SOL    HW225503   5.468   1.351   5.630
 8202SOL     OW25504   0.373   5.746   2.243
 8202SOL    HW125505   0.434   5.726   2.320
 8202SOL    HW225506   0.410   5.823   2.191
 8203SOL     OW25507   0.919   2.961   0.424
 8203SOL    HW125508   0.976   3.043   0.418
 8203SOL    HW225509   0.900   2.941   0.520
 8204SOL     OW25510   1.790   3.757   0.608
 8204SOL    HW125511   1.793   3.730   0.512
 8204SOL    HW225512   1.782   3.676   0.666
 8205SOL     OW25513   6.908   4.362   6.160
 8205SOL    HW125514   6.840   4.411   6.105
 8205SOL    HW225515   6.876   4.269   6.177
 8206SOL     OW25516   3.216   1.042   1.156
 8206SOL    HW125517   3.139   1.046   1.219
 8206SOL    HW225518   3.300   1.069   1.204
 8207SOL     OW25519   4.062   3.593   4.064
 8207SOL    HW125520   4.074   3.576   4.162
 8207SOL    HW225521   4.120   3.530   4.012
 8208SOL     OW25522   3.382   0.174   5.834
 8208SOL    HW125523   3.404   0.165   5.737
 8208SOL    HW225524   3.450   0.232   5.878
 8209SOL     OW25525   5.650   2.385   3.627
 8209SOL    HW125526   5.707   2.324   3.682
 8209SOL    HW225527   5.681   2.480   3.640
 8210SOL     OW25528   1.759   1.834   6.173
 8210SOL    HW125529   1.757   1.811   6.075
 8210SOL    HW225530   1.686   1.899   6.193
 8211SOL     OW25531   3.548   4.603   1.297
 8211SOL    HW125532   3.555   4.518   1.349
 8211SOL    HW225533   3.631   4.614   1.241
 8212SOL     OW25534   1.734   3.424   3.031
 8212SOL    HW125535   1.710   3.329   3.047
 8212SOL    HW225536   1.660   3.469   2.982
 8213SOL     OW25537   6.471   4.602   0.884
 8213SOL    HW125538   6.545   4.652   0.839
 8213SOL    HW225539   6.496   4.584   0.979
 8214SOL     OW25540   4.802   2.994   3.776
 8214SOL    HW125541   4.868   2.936   3.728
 8214SOL    HW225542   4.804   3.086   3.736
 8215SOL     OW25543   3.432   4.721   1.522
 8215SOL    HW125544   3.439   4.673   1.609
 8215SOL    HW225545   3.445   4.656   1.447
 8216SOL     OW25546   5.515   3.012   4.437
 8216SOL    HW125547   5.578   2.974   4.505
 8216SOL    HW225548   5.564   3.079   4.381
 8217SOL     OW25549   2.251   5.828   0.249
 8217SOL    HW125550   2.287   5.756   0.308
 8217SOL    HW225551   2.167   5.796   0.205
 8218SOL     OW25552   4.741   1.731   0.178
 8218SOL    HW125553   4.674   1.706   0.248
 8218SOL    HW225554   4.818   1.777   0.222
 8219SOL     OW25555   5.273   2.652   0.111
 8219SOL    HW125556   5.371   2.636   0.102
 8219SOL    HW225557   5.254   2.688   0.203
 8220SOL     OW25558   3.948   3.630   1.457
 8220SOL    HW125559   4.018   3.562   1.482
 8220SOL    HW225560   3.859   3.599   1.489
 8221SOL     OW25561   5.458   3.878   3.712
 8221SOL    HW125562   5.533   3.855   3.650
 8221SOL    HW225563   5.372   3.881   3.661
 8222SOL     OW25564   5.938   0.948   2.761
 8222SOL    HW125565   5.851   0.907   2.732
 8222SOL    HW225566   5.939   1.045   2.737
 8223SOL     OW25567   1.089   3.914   0.372
 8223SOL    HW125568   1.015   3.962   0.418
 8223SOL    HW225569   1.126   3.971   0.299
 8224SOL     OW25570   0.758   3.530   2.600
 8224SOL    HW125571   0.746   3.629   2.591
 8224SOL    HW225572   0.749   3.487   2.510
 8225SOL     OW25573   4.721   0.824   0.835
 8225SOL    HW125574   4.671   0.742   0.807
 8225SOL    HW225575   4.703   0.843   0.932
 8226SOL     OW25576   3.829   0.431   6.982
 8226SOL    HW125577   3.874   0.449   6.894
 8226SOL    HW225578   3.807   0.518   0.006
 8227SOL     OW25579   5.832   4.081   3.263
 8227SOL    HW125580   5.900   4.139   3.307
 8227SOL    HW225581   5.741   4.106   3.295
 8228SOL     OW25582   0.238   1.418   3.662
 8228SOL    HW125583   0.244   1.518   3.672
 8228SOL    HW225584   0.152   1.395   3.618
 8229SOL     OW25585   5.612   5.408   6.665
 8229SOL    HW125586   5.682   5.402   6.737
 8229SOL    HW225587   5.654   5.388   6.577
 8230SOL     OW25588   4.958   0.258   3.756
 8230SOL    HW125589   4.902   0.250   3.673
 8230SOL    HW225590   5.051   0.229   3.737
 8231SOL     OW25591   3.866   5.901   1.564
 8231SOL    HW125592   3.895   5.985   1.519
 8231SOL    HW225593   3.772   5.879   1.538
 8232SOL     OW25594   2.314   1.550   0.283
 8232SOL    HW125595   2.359   1.638   0.268
 8232SOL    HW225596   2.215   1.562   0.280
 8233SOL     OW25597   0.956   5.699   6.046
 8233SOL    HW125598   0.971   5.614   5.996
 8233SOL    HW225599   0.861   5.728   6.035
 8234SOL     OW25600   2.064   3.310   6.836
 8234SOL    HW125601   2.015   3.235   6.792
 8234SOL    HW225602   2.089   3.378   6.767
 8235SOL     OW25603   4.455   2.788   6.599
 8235SOL    HW125604   4.498   2.769   6.687
 8235SOL    HW225605   4.493   2.726   6.530
 8236SOL     OW25606   6.207   1.919   1.671
 8236SOL    HW125607   6.213   1.820   1.675
 8236SOL    HW225608   6.141   1.951   1.739
 8237SOL     OW25609   3.597   5.983   5.445
 8237SOL    HW125610   3.558   6.057   5.390
 8237SOL    HW225611   3.690   6.008   5.472
 8238SOL     OW25612   0.659   0.804   5.937
 8238SOL    HW125613   0.715   0.758   6.006
 8238SOL    HW225614   0.718   0.844   5.867
 8239SOL     OW25615   5.026   1.392   6.649
 8239SOL    HW125616   4.981   1.372   6.562
 8239SOL    HW225617   5.034   1.307   6.702
 8240SOL     OW25618   3.778   3.226   3.055
 8240SOL    HW125619   3.802   3.232   2.958
 8240SOL    HW225620   3.691   3.272   3.071
 8241SOL     OW25621   4.539   6.148   1.001
 8241SOL    HW125622   4.586   6.222   0.954
 8241SOL    HW225623   4.530   6.070   0.940
 8242SOL     OW25624   1.466   4.572   5.101
 8242SOL    HW125625   1.554   4.528   5.117
 8242SOL    HW225626   1.424   4.534   5.019
 8243SOL     OW25627   0.444   3.617   4.836
 8243SOL    HW125628   0.394   3.698   4.866
 8243SOL    HW225629   0.408   3.537   4.883
 8244SOL     OW25630   3.076   5.384   5.312
 8244SOL    HW125631   3.108   5.323   5.384
 8244SOL    HW225632   3.121   5.360   5.226
 8245SOL     OW25633   4.547   4.097   1.048
 8245SOL    HW125634   4.546   4.179   1.105
 8245SOL    HW225635   4.636   4.089   1.003
 8246SOL     OW25636   5.232   3.084   4.717
 8246SOL    HW125637   5.252   3.164   4.661
 8246SOL    HW225638   5.144   3.096   4.762
 8247SOL     OW25639   1.202   6.200   6.816
 8247SOL    HW125640   1.217   6.287   6.863
 8247SOL    HW225641   1.277   6.183   6.753
 8248SOL     OW25642   6.942   4.555   3.553
 8248SOL    HW125643   7.007   4.624   3.585
 8248SOL    HW225644   6.905   4.583   3.464
 8249SOL     OW25645   0.740   5.216   3.008
 8249SOL    HW125646   0.794   5.259   3.080
 8249SOL    HW225647   0.703   5.287   2.948
 8250SOL     OW25648   3.021   3.183   2.659
 8250SOL    HW125649   2.961   3.263   2.657
 8250SOL    HW225650   3.010   3.130   2.576
 8251SOL     OW25651   5.711   0.869   4.461
 8251SOL    HW125652   5.751   0.777   4.462
 8251SOL    HW225653   5.620   0.866   4.502
 8252SOL     OW25654   0.734   4.044   4.055
 8252SOL    HW125655   0.726   4.130   4.106
 8252SOL    HW225656   0.790   3.979   4.107
 8253SOL     OW25657   3.212   3.309   5.895
 8253SOL    HW125658   3.224   3.218   5.857
 8253SOL    HW225659   3.133   3.353   5.852
 8254SOL     OW25660   5.077   5.008   2.938
 8254SOL    HW125661   5.164   5.050   2.911
 8254SOL    HW225662   5.002   5.056   2.892
 8255SOL     OW25663   3.732   5.257   3.531
 8255SOL    HW125664   3.734   5.236   3.629
 8255SOL    HW225665   3.638   5.281   3.505
 8256SOL     OW25666   5.121   2.138   3.059
 8256SOL    HW125667   5.089   2.070   3.124
 8256SOL    HW225668   5.046   2.200   3.035
 8257SOL     OW25669   6.256   4.291   4.375
 8257SOL    HW125670   6.336   4.250   4.332
 8257SOL    HW225671   6.173   4.262   4.327
 8258SOL     OW25672   5.318   2.092   0.023
 8258SOL    HW125673   5.329   2.125   6.949
 8258SOL    HW225674   5.385   2.019   0.041
 8259SOL     OW25675   4.894   0.571   0.569
 8259SOL    HW125676   4.941   0.621   0.642
 8259SOL    HW225677   4.962   0.522   0.514
 8260SOL     OW25678   3.199   5.658   6.586
 8260SOL    HW125679   3.181   5.620   6.495
 8260SOL    HW225680   3.292   5.694   6.589
 8261SOL     OW25681   4.855   1.171   1.836
 8261SOL    HW125682   4.785   1.120   1.786
 8261SOL    HW225683   4.812   1.220   1.912
 8262SOL     OW25684   6.393   2.695   1.563
 8262SOL    HW125685   6.485   2.711   1.601
 8262SOL    HW225686   6.354   2.613   1.604
 8263SOL     OW25687   5.960   1.539   0.424
 8263SOL    HW125688   5.906   1.490   0.493
 8263SOL    HW225689   5.906   1.552   0.342
 8264SOL     OW25690   1.108   4.274   1.359
 8264SOL    HW125691   1.126   4.239   1.267
 8264SOL    HW225692   1.179   4.243   1.422
 8265SOL     OW25693   2.023   0.813   2.659
 8265SOL    HW125694   2.091   0.757   2.707
 8265SOL    HW225695   2.004   0.895   2.713
 8266SOL     OW25696   2.828   0.796   2.639
 8266SOL    HW125697   2.808   0.728   2.708
 8266SOL    HW225698   2.849   0.884   2.683
 8267SOL     OW25699   6.893   3.481   1.400
 8267SOL    HW125700   6.886   3.483   1.300
 8267SOL    HW225701   6.918   3.572   1.433
 8268SOL     OW25702   2.481   4.636   0.100
 8268SOL    HW125703   2.530   4.708   0.050
 8268SOL    HW225704   2.439   4.573   0.035
 8269SOL     OW25705   5.455   2.178   6.806
 8269SOL    HW125706   5.417   2.162   6.715
 8269SOL    HW225707   5.543   2.132   6.814
 8270SOL     OW25708   2.434   6.123   4.397
 8270SOL    HW125709   2.480   6.124   4.485
 8270SOL    HW225710   2.346   6.077   4.405
 8271SOL     OW25711   0.450   2.211   2.718
 8271SOL    HW125712   0.452   2.274   2.641
 8271SOL    HW225713   0.543   2.179   2.738
 8272SOL     OW25714   3.229   1.189   3.947
 8272SOL    HW125715   3.149   1.186   4.007
 8272SOL    HW225716   3.307   1.148   3.994
 8273SOL     OW25717   1.821   6.308   2.035
 8273SOL    HW125718   1.807   6.407   2.030
 8273SOL    HW225719   1.894   6.282   1.972
 8274SOL     OW25720   5.171   3.732   3.692
 8274SOL    HW125721   5.182   3.635   3.669
 8274SOL    HW225722   5.076   3.748   3.721
 8275SOL     OW25723   6.016   2.394   0.315
 8275SOL    HW125724   5.952   2.436   0.378
 8275SOL    HW225725   5.999   2.427   0.222
 8276SOL     OW25726   0.722   1.934   3.040
 8276SOL    HW125727   0.797   2.000   3.037
 8276SOL    HW225728   0.723   1.878   2.958
 8277SOL     OW25729   0.313   1.320   0.467
 8277SOL    HW125730   0.327   1.340   0.370
 8277SOL    HW225731   0.377   1.249   0.496
 8278SOL     OW25732   0.954   2.697   0.310
 8278SOL    HW125733   0.960   2.770   0.379
 8278SOL    HW225734   0.874   2.713   0.252
 8279SOL     OW25735   0.309   5.882   3.887
 8279SOL    HW125736   0.382   5.821   3.918
 8279SOL    HW225737   0.344   5.942   3.815
 8280SOL     OW25738   3.009   2.605   5.989
 8280SOL    HW125739   3.068   2.528   5.965
 8280SOL    HW225740   3.064   2.679   6.027
 8281SOL     OW25741   4.023   5.318   2.462
 8281SOL    HW125742   4.016   5.296   2.365
 8281SOL    HW225743   3.952   5.269   2.513
 8282SOL     OW25744   6.261   2.783   6.163
 8282SOL    HW125745   6.338   2.755   6.220
 8282SOL    HW225746   6.222   2.868   6.199
 8283SOL     OW25747   2.187   2.919   6.310
 8283SOL    HW125748   2.235   3.000   6.277
 8283SOL    HW225749   2.164   2.859   6.232
 8284SOL     OW25750   6.447   4.496   1.828
 8284SOL    HW125751   6.443   4.578   1.886
 8284SOL    HW225752   6.474   4.417   1.883
 8285SOL     OW25753   3.458   2.887   3.404
 8285SOL    HW125754   3.451   2.935   3.317
 8285SOL    HW225755   3.554   2.872   3.427
 8286SOL     OW25756   0.395   3.118   6.885
 8286SOL    HW125757   0.395   3.076   6.795
 8286SOL    HW225758   0.432   3.210   6.880
 8287SOL     OW25759   1.659   7.005   4.398
 8287SOL    HW125760   1.635   6.929   4.457
 8287SOL    HW225761   1.705   0.057   4.451
 8288SOL     OW25762   2.896   1.501   2.975
 8288SOL    HW125763   2.853   1.411   2.973
 8288SOL    HW225764   2.982   1.496   3.025
 8289SOL     OW25765   0.819   6.740   6.940
 8289SOL    HW125766   0.808   6.813   6.872
 8289SOL    HW225767   0.731   6.724   6.985
 8290SOL     OW25768   6.371   1.966   0.951
 8290SOL    HW125769   6.278   1.994   0.976
 8290SOL    HW225770   6.437   2.031   0.991
 8291SOL     OW25771   3.772   0.202   1.032
 8291SOL    HW125772   3.757   0.141   1.109
 8291SOL    HW225773   3.687   0.247   1.007
 8292SOL     OW25774   2.460   0.721   6.106
 8292SOL    HW125775   2.422   0.701   6.016
 8292SOL    HW225776   2.546   0.671   6.118
 8293SOL     OW25777   6.119   5.253   5.322
 8293SOL    HW125778   6.180   5.228   5.397
 8293SOL    HW225779   6.130   5.349   5.300
 8294SOL     OW25780   6.029   2.791   0.147
 8294SOL    HW125781   5.966   2.862   0.177
 8294SOL    HW225782   6.076   2.821   0.064
 8295SOL     OW25783   5.592   2.410   6.887
 8295SOL    HW125784   5.541   2.328   6.859
 8295SOL    HW225785   5.659   2.433   6.816
 8296SOL     OW25786   6.959   5.083   5.325
 8296SOL    HW125787   6.948   5.158   5.258
 8296SOL    HW225788   0.021   5.100   5.380
 8297SOL     OW25789   1.184   3.741   4.058
 8297SOL    HW125790   1.236   3.687   3.993
 8297SOL    HW225791   1.237   3.753   4.142
 8298SOL     OW25792   4.672   1.821   1.972
 8298SOL    HW125793   4.707   1.740   2.019
 8298SOL    HW225794   4.619   1.877   2.036
 8299SOL     OW25795   5.640   1.739   1.616
 8299SOL    HW125796   5.580   1.673   1.662
 8299SOL    HW225797   5.597   1.829   1.616
 8300SOL     OW25798   1.768   5.295   3.002
 8300SOL    HW125799   1.801   5.381   3.041
 8300SOL    HW225800   1.790   5.220   3.064
 8301SOL     OW25801   2.863   1.439   6.030
 8301SOL    HW125802   2.870   1.492   5.946
 8301SOL    HW225803   2.783   1.469   6.082
 8302SOL     OW25804   5.892   5.708   6.018
 8302SOL    HW125805   5.974   5.752   6.055
 8302SOL    HW225806   5.860   5.638   6.081
 8303SOL     OW25807   0.559   7.011   6.843
 8303SOL    HW125808   0.511   0.044   6.913
 8303SOL    HW225809   0.537   0.028   6.753
 8304SOL     OW25810   0.004   3.014   0.518
 8304SOL    HW125811   6.996   2.923   0.487
 8304SOL    HW225812   0.098   3.011   0.551
 8305SOL     OW25813   3.060   5.188   2.603
 8305SOL    HW125814   2.991   5.161   2.535
 8305SOL    HW225815   3.096   5.278   2.578
 8306SOL     OW25816   1.955   2.704   3.824
 8306SOL    HW125817   1.862   2.739   3.816
 8306SOL    HW225818   2.016   2.776   3.856
 8307SOL     OW25819   3.679   6.229   0.909
 8307SOL    HW125820   3.593   6.228   0.858
 8307SOL    HW225821   3.667   6.277   0.996
 8308SOL     OW25822   2.432   0.873   2.404
 8308SOL    HW125823   2.339   0.836   2.398
 8308SOL    HW225824   2.492   0.806   2.449
 8309SOL     OW25825   5.444   6.691   2.137
 8309SOL    HW125826   5.513   6.634   2.092
 8309SOL    HW225827   5.353   6.662   2.106
 8310SOL     OW25828   5.850   4.928   6.670
 8310SOL    HW125829   5.836   5.025   6.692
 8310SOL    HW225830   5.790   4.872   6.728
 8311SOL     OW25831   6.599   0.279   6.558
 8311SOL    HW125832   6.604   0.236   6.467
 8311SOL    HW225833   6.690   0.277   6.600
 8312SOL     OW25834   4.801   6.119   1.633
 8312SOL    HW125835   4.769   6.211   1.656
 8312SOL    HW225836   4.747   6.084   1.556
 8313SOL     OW25837   3.762   1.645   2.733
 8313SOL    HW125838   3.836   1.637   2.800
 8313SOL    HW225839   3.676   1.616   2.775
 8314SOL     OW25840   0.135   0.058   3.868
 8314SOL    HW125841   0.139   0.067   3.967
 8314SOL    HW225842   0.174   6.990   3.840
 8315SOL     OW25843   4.827   4.671   0.043
 8315SOL    HW125844   4.865   4.735   0.110
 8315SOL    HW225845   4.873   4.683   6.975
 8316SOL     OW25846   3.114   5.426   6.702
 8316SOL    HW125847   3.049   5.433   6.778
 8316SOL    HW225848   3.144   5.517   6.676
 8317SOL     OW25849   2.438   5.053   1.427
 8317SOL    HW125850   2.355   5.034   1.479
 8317SOL    HW225851   2.517   5.054   1.489
 8318SOL     OW25852   3.059   1.628   5.566
 8318SOL    HW125853   3.060   1.696   5.493
 8318SOL    HW225854   3.108   1.663   5.645
 8319SOL     OW25855   2.539   0.606   5.245
 8319SOL    HW125856   2.464   0.661   5.282
 8319SOL    HW225857   2.563   0.640   5.153
 8320SOL     OW25858   3.721   5.139   1.208
 8320SOL    HW125859   3.816   5.133   1.239
 8320SOL    HW225860   3.718   5.148   1.109
 8321SOL     OW25861   6.418   0.971   1.372
 8321SOL    HW125862   6.374   0.888   1.408
 8321SOL    HW225863   6.352   1.046   1.373
 8322SOL     OW25864   5.276   6.460   0.835
 8322SOL    HW125865   5.264   6.427   0.929
 8322SOL    HW225866   5.293   6.558   0.836
 8323SOL     OW25867   1.523   0.593   1.976
 8323SOL    HW125868   1.434   0.638   1.984
 8323SOL    HW225869   1.586   0.652   1.926
 8324SOL     OW25870   6.982   0.791   2.638
 8324SOL    HW125871   7.003   0.699   2.668
 8324SOL    HW225872   7.014   0.857   2.705
 8325SOL     OW25873   3.629   3.986   4.910
 8325SOL    HW125874   3.632   3.900   4.962
 8325SOL    HW225875   3.672   3.973   4.821
 8326SOL     OW25876   4.114   3.159   6.178
 8326SOL    HW125877   4.022   3.130   6.154
 8326SOL    HW225878   4.129   3.146   6.276
 8327SOL     OW25879   4.567   2.212   6.055
 8327SOL    HW125880   4.628   2.291   6.057
 8327SOL    HW225881   4.620   2.129   6.042
 8328SOL     OW25882   1.817   2.456   3.774
 8328SOL    HW125883   1.883   2.529   3.793
 8328SOL    HW225884   1.730   2.477   3.818
 8329SOL     OW25885   0.603   2.921   4.893
 8329SOL    HW125886   0.537   2.948   4.823
 8329SOL    HW225887   0.617   2.822   4.889
 8330SOL     OW25888   2.398   0.016   0.458
 8330SOL    HW125889   2.443   7.013   0.544
 8330SOL    HW225890   2.352   6.955   0.421
 8331SOL     OW25891   2.423   0.193   0.933
 8331SOL    HW125892   2.328   0.170   0.912
 8331SOL    HW225893   2.437   0.291   0.923
 8332SOL     OW25894   4.566   6.254   3.359
 8332SOL    HW125895   4.643   6.288   3.305
 8332SOL    HW225896   4.500   6.327   3.374
 8333SOL     OW25897   1.935   4.949   5.226
 8333SOL    HW125898   1.951   4.882   5.298
 8333SOL    HW225899   1.929   4.902   5.138
 8334SOL     OW25900   6.428   0.257   3.525
 8334SOL    HW125901   6.486   0.240   3.604
 8334SOL    HW225902   6.419   0.174   3.471
 8335SOL     OW25903   6.315   6.287   5.292
 8335SOL    HW125904   6.351   6.365   5.240
 8335SOL    HW225905   6.321   6.307   5.390
 8336SOL     OW25906   0.986   1.865   2.854
 8336SOL    HW125907   1.039   1.781   2.863
 8336SOL    HW225908   1.043   1.943   2.880
 8337SOL     OW25909   6.427   6.590   2.338
 8337SOL    HW125910   6.337   6.626   2.316
 8337SOL    HW225911   6.417   6.505   2.389
 8338SOL     OW25912   2.332   5.539   0.573
 8338SOL    HW125913   2.315   5.613   0.639
 8338SOL    HW225914   2.378   5.463   0.620
 8339SOL     OW25915   4.863   0.999   3.061
 8339SOL    HW125916   4.951   1.015   3.106
 8339SOL    HW225917   4.844   0.900   3.061
 8340SOL     OW25918   4.913   3.885   1.524
 8340SOL    HW125919   4.863   3.956   1.474
 8340SOL    HW225920   4.951   3.924   1.608
 8341SOL     OW25921   2.117   0.399   0.755
 8341SOL    HW125922   2.161   0.371   0.670
 8341SOL    HW225923   2.099   0.318   0.811
 8342SOL     OW25924   5.294   6.980   1.337
 8342SOL    HW125925   5.248   0.033   1.287
 8342SOL    HW225926   5.299   7.003   1.434
 8343SOL     OW25927   0.043   4.592   5.258
 8343SOL    HW125928   6.979   4.634   5.223
 8343SOL    HW225929   0.072   4.641   5.340
 8344SOL     OW25930   3.644   6.892   5.110
 8344SOL    HW125931   3.586   6.827   5.161
 8344SOL    HW225932   3.659   6.857   5.018
 8345SOL     OW25933   5.825   1.450   3.269
 8345SOL    HW125934   5.741   1.442   3.216
 8345SOL    HW225935   5.898   1.486   3.211
 8346SOL     OW25936   4.220   5.375   2.212
 8346SOL    HW125937   4.310   5.382   2.254
 8346SOL    HW225938   4.180   5.286   2.233
 8347SOL     OW25939   3.140   5.065   4.667
 8347SOL    HW125940   3.149   5.048   4.765
 8347SOL    HW225941   3.198   5.141   4.640
 8348SOL     OW25942   2.122   0.170   0.551
 8348SOL    HW125943   2.070   0.112   0.613
 8348SOL    HW225944   2.216   0.136   0.546
 8349SOL     OW25945   5.910   4.879   2.413
 8349SOL    HW125946   5.993   4.925   2.444
 8349SOL    HW225947   5.837   4.946   2.403
 8350SOL     OW25948   6.443   0.972   5.018
 8350SOL    HW125949   6.500   0.914   4.960
 8350SOL    HW225950   6.363   0.920   5.050
 8351SOL     OW25951   3.214   6.800   2.529
 8351SOL    HW125952   3.217   6.700   2.522
 8351SOL    HW225953   3.307   6.834   2.545
 8352SOL     OW25954   6.302   6.105   1.488
 8352SOL    HW125955   6.355   6.141   1.411
 8352SOL    HW225956   6.356   6.038   1.538
 8353SOL     OW25957   2.078   3.597   2.230
 8353SOL    HW125958   2.134   3.556   2.159
 8353SOL    HW225959   2.116   3.686   2.256
 8354SOL     OW25960   3.095   0.651   0.751
 8354SOL    HW125961   3.114   0.719   0.821
 8354SOL    HW225962   3.178   0.631   0.699
 8355SOL     OW25963   2.918   1.869   0.935
 8355SOL    HW125964   2.938   1.845   1.030
 8355SOL    HW225965   2.832   1.827   0.907
 8356SOL     OW25966   2.999   5.120   0.364
 8356SOL    HW125967   2.909   5.114   0.408
 8356SOL    HW225968   2.993   5.176   0.282
 8357SOL     OW25969   4.137   6.011   3.117
 8357SOL    HW125970   4.186   5.994   3.032
 8357SOL    HW225971   4.149   5.934   3.179
 8358SOL     OW25972   3.172   1.853   4.833
 8358SOL    HW125973   3.148   1.820   4.925
 8358SOL    HW225974   3.172   1.953   4.832
 8359SOL     OW25975   3.617   4.916   4.135
 8359SOL    HW125976   3.606   4.902   4.234
 8359SOL    HW225977   3.527   4.932   4.094
 8360SOL     OW25978   4.369   0.713   3.184
 8360SOL    HW125979   4.371   0.811   3.166
 8360SOL    HW225980   4.463   0.677   3.184
 8361SOL     OW25981   1.325   0.394   3.089
 8361SOL    HW125982   1.379   0.414   3.007
 8361SOL    HW225983   1.324   0.474   3.149
 8362SOL     OW25984   2.855   3.217   0.723
 8362SOL    HW125985   2.873   3.208   0.821
 8362SOL    HW225986   2.758   3.231   0.708
 8363SOL     OW25987   0.645   3.533   1.722
 8363SOL    HW125988   0.601   3.622   1.720
 8363SOL    HW225989   0.744   3.545   1.733
 8364SOL     OW25990   6.819   4.970   5.605
 8364SOL    HW125991   6.832   4.876   5.636
 8364SOL    HW225992   6.845   4.978   5.509
 8365SOL     OW25993   1.446   3.659   5.853
 8365SOL    HW125994   1.362   3.641   5.904
 8365SOL    HW225995   1.455   3.593   5.778
 8366SOL     OW25996   2.689   0.244   1.961
 8366SOL    HW125997   2.773   0.248   1.907
 8366SOL    HW225998   2.677   0.152   1.998
 8367SOL     OW25999   5.093   5.652   3.654
 8367SOL    HW126000   5.053   5.666   3.563
 8367SOL    HW226001   5.146   5.567   3.654
 8368SOL     OW26002   3.398   5.721   6.331
 8368SOL    HW126003   3.406   5.715   6.232
 8368SOL    HW226004   3.302   5.734   6.356
 8369SOL     OW26005   2.082   1.529   1.155
 8369SOL    HW126006   2.142   1.527   1.236
 8369SOL    HW226007   2.022   1.609   1.161
 8370SOL     OW26008   2.235   1.325   0.635
 8370SOL    HW126009   2.161   1.387   0.610
 8370SOL    HW226010   2.217   1.283   0.724
 8371SOL     OW26011   1.166   2.226   0.256
 8371SOL    HW126012   1.188   2.148   0.314
 8371SOL    HW226013   1.123   2.297   0.311
 8372SOL     OW26014   6.147   0.824   0.170
 8372SOL    HW126015   6.102   0.796   0.255
 8372SOL    HW226016   6.084   0.879   0.116
 8373SOL     OW26017   1.514   6.847   4.229
 8373SOL    HW126018   1.590   6.879   4.286
 8373SOL    HW226019   1.430   6.896   4.254
 8374SOL     OW26020   6.968   1.284   5.909
 8374SOL    HW126021   0.040   1.254   5.883
 8374SOL    HW226022   6.911   1.290   5.827
 8375SOL     OW26023   4.128   0.904   6.489
 8375SOL    HW126024   4.099   0.864   6.576
 8375SOL    HW226025   4.139   0.832   6.421
 8376SOL     OW26026   4.209   0.804   4.076
 8376SOL    HW126027   4.224   0.824   3.979
 8376SOL    HW226028   4.112   0.783   4.091
 8377SOL     OW26029   5.357   5.098   0.808
 8377SOL    HW126030   5.262   5.071   0.794
 8377SOL    HW226031   5.367   5.196   0.792
 8378SOL     OW26032   4.948   2.631   3.581
 8378SOL    HW126033   4.858   2.671   3.597
 8378SOL    HW226034   5.011   2.702   3.548
 8379SOL     OW26035   5.390   2.895   2.581
 8379SOL    HW126036   5.307   2.888   2.525
 8379SOL    HW226037   5.457   2.829   2.548
 8380SOL     OW26038   5.916   1.531   3.704
 8380SOL    HW126039   5.819   1.508   3.702
 8380SOL    HW226040   5.935   1.589   3.783
 8381SOL     OW26041   2.030   5.557   4.300
 8381SOL    HW126042   2.057   5.636   4.245
 8381SOL    HW226043   2.077   5.475   4.266
 8382SOL     OW26044   0.475   4.467   2.586
 8382SOL    HW126045   0.536   4.481   2.507
 8382SOL    HW226046   0.449   4.370   2.591
 8383SOL     OW26047   3.360   1.552   5.367
 8383SOL    HW126048   3.421   1.567   5.289
 8383SOL    HW226049   3.328   1.641   5.401
 8384SOL     OW26050   0.686   6.894   1.503
 8384SOL    HW126051   0.673   6.945   1.418
 8384SOL    HW226052   0.784   6.884   1.521
 8385SOL     OW26053   4.306   1.451   1.438
 8385SOL    HW126054   4.229   1.449   1.375
 8385SOL    HW226055   4.392   1.456   1.385
 8386SOL     OW26056   0.354   3.049   1.979
 8386SOL    HW126057   0.359   3.144   2.011
 8386SOL    HW226058   0.322   3.047   1.884
 8387SOL     OW26059   0.476   1.450   1.712
 8387SOL    HW126060   0.489   1.529   1.771
 8387SOL    HW226061   0.378   1.430   1.706
 8388SOL     OW26062   1.131   6.748   2.693
 8388SOL    HW126063   1.157   6.704   2.607
 8388SOL    HW226064   1.132   6.681   2.767
 8389SOL     OW26065   6.197   3.271   3.650
 8389SOL    HW126066   6.274   3.311   3.600
 8389SOL    HW226067   6.160   3.194   3.597
 8390SOL     OW26068   6.192   2.166   6.709
 8390SOL    HW126069   6.179   2.120   6.797
 8390SOL    HW226070   6.228   2.258   6.724
 8391SOL     OW26071   6.273   0.332   1.022
 8391SOL    HW126072   6.346   0.278   1.065
 8391SOL    HW226073   6.276   0.320   0.923
 8392SOL     OW26074   3.595   2.935   4.901
 8392SOL    HW126075   3.502   2.902   4.914
 8392SOL    HW226076   3.604   2.977   4.811
 8393SOL     OW26077   5.596   6.960   0.949
 8393SOL    HW126078   5.656   0.009   0.907
 8393SOL    HW226079   5.587   6.881   0.889
 8394SOL     OW26080   5.708   2.700   2.810
 8394SOL    HW126081   5.608   2.689   2.811
 8394SOL    HW226082   5.745   2.670   2.898
 8395SOL     OW26083   2.033   0.951   5.305
 8395SOL    HW126084   2.097   0.877   5.284
 8395SOL    HW226085   1.968   0.921   5.375
 8396SOL     OW26086   4.930   5.362   4.128
 8396SOL    HW126087   4.886   5.396   4.044
 8396SOL    HW226088   4.897   5.270   4.148
 8397SOL     OW26089   5.910   6.476   2.897
 8397SOL    HW126090   5.854   6.439   2.971
 8397SOL    HW226091   5.854   6.489   2.815
 8398SOL     OW26092   6.098   1.664   6.375
 8398SOL    HW126093   6.094   1.583   6.433
 8398SOL    HW226094   6.083   1.746   6.430
 8399SOL     OW26095   0.410   4.217   2.629
 8399SOL    HW126096   0.387   4.143   2.692
 8399SOL    HW226097   0.399   4.185   2.535
 8400SOL     OW26098   1.279   0.950   4.490
 8400SOL    HW126099   1.312   1.042   4.467
 8400SOL    HW226100   1.223   0.915   4.415
 8401SOL     OW26101   1.627   0.421   5.797
 8401SOL    HW126102   1.556   0.486   5.825
 8401SOL    HW226103   1.716   0.454   5.828
 8402SOL     OW26104   2.855   0.646   6.186
 8402SOL    HW126105   2.816   0.554   6.175
 8402SOL    HW226106   2.831   0.702   6.107
 8403SOL     OW26107   5.888   4.965   5.713
 8403SOL    HW126108   5.795   4.933   5.729
 8403SOL    HW226109   5.899   4.986   5.615
 8404SOL     OW26110   1.218   1.414   0.240
 8404SOL    HW126111   1.178   1.411   0.148
 8404SOL    HW226112   1.145   1.419   0.308
 8405SOL     OW26113   3.853   6.823   5.848
 8405SOL    HW126114   3.896   6.765   5.779
 8405SOL    HW226115   3.921   6.885   5.886
 8406SOL     OW26116   6.270   0.877   6.102
 8406SOL    HW126117   6.192   0.939   6.110
 8406SOL    HW226118   6.340   0.902   6.169
 8407SOL     OW26119   4.659   0.654   5.095
 8407SOL    HW126120   4.739   0.713   5.110
 8407SOL    HW226121   4.583   0.687   5.150
 8408SOL     OW26122   3.953   2.205   1.486
 8408SOL    HW126123   4.020   2.131   1.490
 8408SOL    HW226124   3.923   2.227   1.579
 8409SOL     OW26125   4.577   2.489   1.964
 8409SOL    HW126126   4.578   2.589   1.950
 8409SOL    HW226127   4.504   2.465   2.027
 8410SOL     OW26128   0.077   1.897   1.412
 8410SOL    HW126129   7.009   1.939   1.436
 8410SOL    HW226130   0.065   1.840   1.331
 8411SOL     OW26131   0.671   5.703   1.023
 8411SOL    HW126132   0.582   5.691   0.980
 8411SOL    HW226133   0.690   5.625   1.083
 8412SOL     OW26134   2.787   2.452   0.215
 8412SOL    HW126135   2.886   2.467   0.209
 8412SOL    HW226136   2.754   2.482   0.304
 8413SOL     OW26137   3.977   5.901   4.915
 8413SOL    HW126138   3.968   5.909   4.815
 8413SOL    HW226139   3.931   5.818   4.946
 8414SOL     OW26140   2.122   0.136   0.898
 8414SOL    HW126141   2.074   0.071   0.839
 8414SOL    HW226142   2.090   0.125   0.992
 8415SOL     OW26143   3.721   1.502   6.196
 8415SOL    HW126144   3.708   1.443   6.276
 8415SOL    HW226145   3.633   1.542   6.169
 8416SOL     OW26146   0.264   2.136   4.797
 8416SOL    HW126147   0.353   2.167   4.763
 8416SOL    HW226148   0.194   2.156   4.728
 8417SOL     OW26149   2.129   3.266   6.253
 8417SOL    HW126150   2.050   3.204   6.257
 8417SOL    HW226151   2.097   3.359   6.236
 8418SOL     OW26152   6.574   6.151   2.526
 8418SOL    HW126153   6.604   6.171   2.433
 8418SOL    HW226154   6.483   6.189   2.541
 8419SOL     OW26155   3.504   1.525   4.397
 8419SOL    HW126156   3.500   1.443   4.340
 8419SOL    HW226157   3.588   1.575   4.377
 8420SOL     OW26158   3.958   1.194   2.196
 8420SOL    HW126159   3.931   1.281   2.237
 8420SOL    HW226160   3.891   1.168   2.127
 8421SOL     OW26161   4.858   0.291   6.385
 8421SOL    HW126162   4.900   0.304   6.475
 8421SOL    HW226163   4.784   0.223   6.392
 8422SOL     OW26164   5.181   1.808   4.258
 8422SOL    HW126165   5.178   1.736   4.327
 8422SOL    HW226166   5.247   1.878   4.286
 8423SOL     OW26167   6.476   5.645   0.175
 8423SOL    HW126168   6.575   5.645   0.169
 8423SOL    HW226169   6.447   5.608   0.263
 8424SOL     OW26170   2.745   0.206   5.264
 8424SOL    HW126171   2.698   0.216   5.176
 8424SOL    HW226172   2.814   0.134   5.257
 8425SOL     OW26173   3.695   3.280   2.150
 8425SOL    HW126174   3.695   3.241   2.243
 8425SOL    HW226175   3.633   3.228   2.092
 8426SOL     OW26176   3.802   3.034   1.608
 8426SOL    HW126177   3.814   3.121   1.561
 8426SOL    HW226178   3.831   3.044   1.703
 8427SOL     OW26179   4.154   3.490   2.875
 8427SOL    HW126180   4.190   3.572   2.918
 8427SOL    HW226181   4.106   3.515   2.790
 8428SOL     OW26182   5.596   0.460   1.756
 8428SOL    HW126183   5.562   0.381   1.705
 8428SOL    HW226184   5.640   0.524   1.693
 8429SOL     OW26185   3.215   6.055   5.590
 8429SOL    HW126186   3.159   6.051   5.672
 8429SOL    HW226187   3.157   6.068   5.510
 8430SOL     OW26188   5.386   6.759   5.334
 8430SOL    HW126189   5.399   6.858   5.330
 8430SOL    HW226190   5.289   6.739   5.349
 8431SOL     OW26191   2.484   3.456   6.212
 8431SOL    HW126192   2.542   3.525   6.170
 8431SOL    HW226193   2.429   3.412   6.142
 8432SOL     OW26194   6.629   5.078   5.262
 8432SOL    HW126195   6.687   5.147   5.305
 8432SOL    HW226196   6.533   5.097   5.284
 8433SOL     OW26197   4.800   2.072   1.333
 8433SOL    HW126198   4.786   2.072   1.234
 8433SOL    HW226199   4.728   2.017   1.376
 8434SOL     OW26200   2.742   6.428   4.516
 8434SOL    HW126201   2.739   6.358   4.588
 8434SOL    HW226202   2.790   6.390   4.436
 8435SOL     OW26203   6.332   1.367   3.077
 8435SOL    HW126204   6.392   1.339   3.003
 8435SOL    HW226205   6.301   1.461   3.060
 8436SOL     OW26206   2.260   5.090   2.823
 8436SOL    HW126207   2.350   5.115   2.788
 8436SOL    HW226208   2.202   5.171   2.828
 8437SOL     OW26209   1.633   5.910   0.235
 8437SOL    HW126210   1.621   5.906   0.136
 8437SOL    HW226211   1.583   5.988   0.272
 8438SOL     OW26212   0.862   4.258   2.468
 8438SOL    HW126213   0.833   4.167   2.498
 8438SOL    HW226214   0.962   4.264   2.473
 8439SOL     OW26215   5.984   4.164   2.390
 8439SOL    HW126216   5.890   4.144   2.361
 8439SOL    HW226217   6.011   4.099   2.461
 8440SOL     OW26218   1.524   1.828   2.509
 8440SOL    HW126219   1.455   1.869   2.449
 8440SOL    HW226220   1.615   1.848   2.474
 8441SOL     OW26221   0.093   2.535   6.539
 8441SOL    HW126222   0.100   2.516   6.441
 8441SOL    HW226223   0.181   2.516   6.583
 8442SOL     OW26224   3.844   2.602   6.614
 8442SOL    HW126225   3.929   2.655   6.617
 8442SOL    HW226226   3.795   2.621   6.529
 8443SOL     OW26227   1.756   4.086   3.150
 8443SOL    HW126228   1.843   4.037   3.151
 8443SOL    HW226229   1.767   4.174   3.104
 8444SOL     OW26230   5.111   5.244   4.831
 8444SOL    HW126231   5.183   5.295   4.785
 8444SOL    HW226232   5.059   5.307   4.890
 8445SOL     OW26233   4.526   6.481   6.327
 8445SOL    HW126234   4.575   6.565   6.304
 8445SOL    HW226235   4.453   6.465   6.261
 8446SOL     OW26236   6.682   6.291   4.621
 8446SOL    HW126237   6.643   6.337   4.542
 8446SOL    HW226238   6.626   6.309   4.702
 8447SOL     OW26239   3.387   1.765   4.374
 8447SOL    HW126240   3.441   1.681   4.370
 8447SOL    HW226241   3.304   1.754   4.319
 8448SOL     OW26242   3.468   6.847   2.610
 8448SOL    HW126243   3.494   6.923   2.670
 8448SOL    HW226244   3.480   6.761   2.658
 8449SOL     OW26245   1.114   2.833   4.010
 8449SOL    HW126246   1.027   2.881   4.023
 8449SOL    HW226247   1.128   2.816   3.913
 8450SOL     OW26248   6.593   1.131   0.711
 8450SOL    HW126249   6.685   1.128   0.751
 8450SOL    HW226250   6.584   1.058   0.643
 8451SOL     OW26251   4.239   2.540   0.575
 8451SOL    HW126252   4.161   2.516   0.634
 8451SOL    HW226253   4.305   2.465   0.575
 8452SOL     OW26254   5.303   0.803   5.736
 8452SOL    HW126255   5.333   0.863   5.663
 8452SOL    HW226256   5.373   0.800   5.808
 8453SOL     OW26257   0.330   0.761   0.364
 8453SOL    HW126258   0.354   0.699   0.438
 8453SOL    HW226259   0.413   0.786   0.313
 8454SOL     OW26260   6.334   5.738   6.984
 8454SOL    HW126261   6.394   5.709   0.040
 8454SOL    HW226262   6.372   5.820   6.942
 8455SOL     OW26263   6.161   0.814   2.851
 8455SOL    HW126264   6.179   0.802   2.949
 8455SOL    HW226265   6.073   0.858   2.839
 8456SOL     OW26266   6.776   0.624   2.163
 8456SOL    HW126267   6.808   0.531   2.143
 8456SOL    HW226268   6.764   0.634   2.262
 8457SOL     OW26269   6.215   0.044   5.042
 8457SOL    HW126270   6.249   0.018   4.951
 8457SOL    HW226271   6.275   0.113   5.081
 8458SOL     OW26272   1.326   6.642   0.219
 8458SOL    HW126273   1.354   6.627   0.314
 8458SOL    HW226274   1.231   6.673   0.216
 8459SOL     OW26275   0.570   5.937   2.996
 8459SOL    HW126276   0.541   5.862   2.937
 8459SOL    HW226277   0.629   5.901   3.068
 8460SOL     OW26278   3.898   3.029   3.639
 8460SOL    HW126279   3.892   3.093   3.715
 8460SOL    HW226280   3.993   3.023   3.607
 8461SOL     OW26281   6.444   3.409   3.752
 8461SOL    HW126282   6.382   3.472   3.798
 8461SOL    HW226283   6.491   3.352   3.820
 8462SOL     OW26284   2.520   2.555   1.823
 8462SOL    HW126285   2.525   2.505   1.909
 8462SOL    HW226286   2.604   2.538   1.770
 8463SOL     OW26287   6.893   0.357   1.826
 8463SOL    HW126288   6.826   0.416   1.781
 8463SOL    HW226289   6.895   0.377   1.924
 8464SOL     OW26290   6.732   0.905   4.498
 8464SOL    HW126291   6.760   0.835   4.433
 8464SOL    HW226292   6.699   0.985   4.448
 8465SOL     OW26293   2.216   1.109   0.854
 8465SOL    HW126294   2.171   1.187   0.898
 8465SOL    HW226295   2.159   1.076   0.779
 8466SOL     OW26296   0.818   6.817   4.285
 8466SOL    HW126297   0.799   6.772   4.198
 8466SOL    HW226298   0.798   6.754   4.360
 8467SOL     OW26299   4.128   5.548   1.192
 8467SOL    HW126300   4.178   5.510   1.271
 8467SOL    HW226301   4.169   5.635   1.166
 8468SOL     OW26302   4.217   2.895   7.005
 8468SOL    HW126303   4.144   2.944   0.033
 8468SOL    HW226304   4.296   2.885   0.046
 8469SOL     OW26305   4.950   2.356   5.439
 8469SOL    HW126306   4.895   2.283   5.398
 8469SOL    HW226307   5.045   2.346   5.408
 8470SOL     OW26308   1.955   2.846   0.111
 8470SOL    HW126309   1.934   2.759   0.154
 8470SOL    HW226310   2.018   2.898   0.169
 8471SOL     OW26311   3.897   1.507   5.139
 8471SOL    HW126312   3.838   1.456   5.077
 8471SOL    HW226313   3.918   1.596   5.100
 8472SOL     OW26314   1.506   6.117   2.912
 8472SOL    HW126315   1.572   6.191   2.923
 8472SOL    HW226316   1.551   6.036   2.875
 8473SOL     OW26317   6.570   5.749   6.805
 8473SOL    HW126318   6.563   5.717   6.711
 8473SOL    HW226319   6.601   5.845   6.805
 8474SOL     OW26320   4.318   5.717   0.204
 8474SOL    HW126321   4.242   5.658   0.230
 8474SOL    HW226322   4.375   5.670   0.137
 8475SOL     OW26323   5.188   1.488   2.926
 8475SOL    HW126324   5.105   1.511   2.977
 8475SOL    HW226325   5.162   1.449   2.837
 8476SOL     OW26326   4.612   0.388   2.945
 8476SOL    HW126327   4.709   0.405   2.934
 8476SOL    HW226328   4.595   0.289   2.942
 8477SOL     OW26329   3.155   0.586   3.070
 8477SOL    HW126330   3.225   0.518   3.052
 8477SOL    HW226331   3.156   0.610   3.167
 8478SOL     OW26332   1.296   0.837   6.075
 8478SOL    HW126333   1.349   0.920   6.056
 8478SOL    HW226334   1.261   0.840   6.168
 8479SOL     OW26335   5.028   0.656   2.426
 8479SOL    HW126336   5.117   0.611   2.436
 8479SOL    HW226337   5.040   0.741   2.373
 8480SOL     OW26338   1.859   0.979   1.960
 8480SOL    HW126339   1.880   1.013   2.051
 8480SOL    HW226340   1.835   0.882   1.965
 8481SOL     OW26341   3.916   0.209   5.734
 8481SOL    HW126342   3.985   0.274   5.768
 8481SOL    HW226343   3.961   0.142   5.675
 8482SOL     OW26344   6.872   0.529   1.423
 8482SOL    HW126345   6.971   0.539   1.435
 8482SOL    HW226346   6.853   0.447   1.369
 8483SOL     OW26347   5.108   6.292   1.778
 8483SOL    HW126348   5.193   6.288   1.831
 8483SOL    HW226349   5.031   6.307   1.840
 8484SOL     OW26350   6.627   4.671   5.543
 8484SOL    HW126351   6.639   4.739   5.471
 8484SOL    HW226352   6.569   4.708   5.616
 8485SOL     OW26353   2.335   3.133   6.165
 8485SOL    HW126354   2.268   3.199   6.199
 8485SOL    HW226355   2.386   3.174   6.088
 8486SOL     OW26356   4.414   0.686   2.581
 8486SOL    HW126357   4.441   0.679   2.677
 8486SOL    HW226358   4.452   0.770   2.542
 8487SOL     OW26359   4.126   0.470   0.833
 8487SOL    HW126360   4.144   0.456   0.930
 8487SOL    HW226361   4.174   0.552   0.802
 8488SOL     OW26362   6.935   3.766   5.608
 8488SOL    HW126363   6.881   3.739   5.529
 8488SOL    HW226364   6.880   3.756   5.691
 8489SOL     OW26365   3.344   6.948   3.294
 8489SOL    HW126366   3.250   6.932   3.324
 8489SOL    HW226367   3.400   6.978   3.372
 8490SOL     OW26368   3.817   4.894   2.748
 8490SOL    HW126369   3.896   4.948   2.719
 8490SOL    HW226370   3.733   4.938   2.715
 8491SOL     OW26371   0.695   0.817   1.323
 8491SOL    HW126372   0.614   0.765   1.351
 8491SOL    HW226373   0.732   0.779   1.239
 8492SOL     OW26374   5.861   3.958   4.803
 8492SOL    HW126375   5.926   3.937   4.730
 8492SOL    HW226376   5.768   3.956   4.767
 8493SOL     OW26377   3.703   3.138   0.750
 8493SOL    HW126378   3.627   3.200   0.771
 8493SOL    HW226379   3.678   3.045   0.777
 8494SOL     OW26380   3.463   6.222   6.553
 8494SOL    HW126381   3.444   6.142   6.496
 8494SOL    HW226382   3.379   6.253   6.597
 8495SOL     OW26383   0.676   2.874   6.396
 8495SOL    HW126384   0.629   2.798   6.352
 8495SOL    HW226385   0.658   2.871   6.495
 8496SOL     OW26386   1.140   2.311   3.693
 8496SOL    HW126387   1.141   2.395   3.748
 8496SOL    HW226388   1.068   2.250   3.727
 8497SOL     OW26389   5.500   3.836   4.007
 8497SOL    HW126390   5.473   3.822   3.912
 8497SOL    HW226391   5.549   3.754   4.039
 8498SOL     OW26392   6.814   0.784   1.506
 8498SOL    HW126393   6.855   0.697   1.479
 8498SOL    HW226394   6.745   0.768   1.576
 8499SOL     OW26395   6.929   4.402   0.477
 8499SOL    HW126396   6.887   4.481   0.523
 8499SOL    HW226397   0.009   4.412   0.480
 8500SOL     OW26398   2.168   0.754   5.156
 8500SOL    HW126399   2.149   0.705   5.241
 8500SOL    HW226400   2.142   0.698   5.078
 8501SOL     OW26401   2.989   4.022   6.213
 8501SOL    HW126402   2.972   3.986   6.122
 8501SOL    HW226403   2.955   3.958   6.282
 8502SOL     OW26404   0.618   6.265   1.251
 8502SOL    HW126405   0.597   6.241   1.157
 8502SOL    HW226406   0.533   6.283   1.301
 8503SOL     OW26407   3.914   5.498   3.350
 8503SOL    HW126408   3.945   5.415   3.398
 8503SOL    HW226409   3.821   5.484   3.317
 8504SOL     OW26410   1.959   4.814   3.125
 8504SOL    HW126411   1.935   4.876   3.200
 8504SOL    HW226412   1.992   4.867   3.047
 8505SOL     OW26413   4.256   1.770   3.116
 8505SOL    HW126414   4.312   1.826   3.054
 8505SOL    HW226415   4.164   1.809   3.122
 8506SOL     OW26416   0.765   5.320   7.015
 8506SOL    HW126417   0.688   5.293   6.957
 8506SOL    HW226418   0.838   5.358   6.959
 8507SOL     OW26419   1.811   0.430   4.469
 8507SOL    HW126420   1.869   0.495   4.518
 8507SOL    HW226421   1.800   0.458   4.374
 8508SOL     OW26422   0.355   3.590   5.735
 8508SOL    HW126423   0.436   3.647   5.723
 8508SOL    HW226424   0.281   3.644   5.776
 8509SOL     OW26425   6.385   2.233   4.784
 8509SOL    HW126426   6.418   2.322   4.815
 8509SOL    HW226427   6.454   2.163   4.804
 8510SOL     OW26428   5.349   0.058   2.846
 8510SOL    HW126429   5.319   7.003   2.786
 8510SOL    HW226430   5.270   0.099   2.891
 8511SOL     OW26431   6.736   5.516   1.402
 8511SOL    HW126432   6.794   5.499   1.482
 8511SOL    HW226433   6.787   5.572   1.336
 8512SOL     OW26434   4.169   2.823   0.987
 8512SOL    HW126435   4.237   2.838   1.058
 8512SOL    HW226436   4.099   2.894   0.993
 8513SOL     OW26437   0.430   3.147   0.862
 8513SOL    HW126438   0.373   3.203   0.922
 8513SOL    HW226439   0.463   3.203   0.785
 8514SOL     OW26440   2.225   2.992   4.769
 8514SOL    HW126441   2.139   3.022   4.809
 8514SOL    HW226442   2.294   2.984   4.841
 8515SOL     OW26443   3.121   1.306   0.172
 8515SOL    HW126444   3.203   1.294   0.227
 8515SOL    HW226445   3.138   1.274   0.079
 8516SOL     OW26446   6.713   3.601   5.133
 8516SOL    HW126447   6.698   3.640   5.042
 8516SOL    HW226448   6.779   3.526   5.126
 8517SOL     OW26449   1.246   1.963   5.586
 8517SOL    HW126450   1.198   1.876   5.575
 8517SOL    HW226451   1.201   2.017   5.657
 8518SOL     OW26452   5.473   5.033   0.334
 8518SOL    HW126453   5.511   4.965   0.271
 8518SOL    HW226454   5.481   5.000   0.428
 8519SOL     OW26455   0.785   3.809   0.904
 8519SOL    HW126456   0.705   3.792   0.846
 8519SOL    HW226457   0.844   3.877   0.860
 8520SOL     OW26458   3.441   3.760   6.152
 8520SOL    HW126459   3.428   3.813   6.236
 8520SOL    HW226460   3.523   3.794   6.105
 8521SOL     OW26461   2.391   6.947   4.259
 8521SOL    HW126462   2.482   6.989   4.267
 8521SOL    HW226463   2.366   6.941   4.162
 8522SOL     OW26464   0.576   0.553   0.206
 8522SOL    HW126465   0.617   0.506   0.284
 8522SOL    HW226466   0.596   0.650   0.212
 8523SOL     OW26467   4.097   1.957   1.464
 8523SOL    HW126468   4.055   1.879   1.511
 8523SOL    HW226469   4.179   1.985   1.513
 8524SOL     OW26470   2.789   6.123   5.371
 8524SOL    HW126471   2.759   6.208   5.328
 8524SOL    HW226472   2.719   6.092   5.436
 8525SOL     OW26473   6.404   2.746   3.034
 8525SOL    HW126474   6.378   2.670   2.975
 8525SOL    HW226475   6.502   2.741   3.054
 8526SOL     OW26476   0.487   4.511   6.754
 8526SOL    HW126477   0.507   4.470   6.665
 8526SOL    HW226478   0.555   4.481   6.821
 8527SOL     OW26479   2.526   0.993   6.174
 8527SOL    HW126480   2.486   0.901   6.168
 8527SOL    HW226481   2.581   1.010   6.092
 8528SOL     OW26482   5.337   0.305   0.453
 8528SOL    HW126483   5.374   0.217   0.424
 8528SOL    HW226484   5.363   0.323   0.547
 8529SOL     OW26485   0.926   6.399   6.726
 8529SOL    HW126486   0.952   6.305   6.707
 8529SOL    HW226487   0.981   6.461   6.670
 8530SOL     OW26488   3.610   3.999   3.144
 8530SOL    HW126489   3.705   4.000   3.174
 8530SOL    HW226490   3.552   4.036   3.216
 8531SOL     OW26491   6.798   5.783   2.930
 8531SOL    HW126492   6.770   5.874   2.898
 8531SOL    HW226493   6.889   5.762   2.895
 8532SOL     OW26494   3.516   5.590   0.350
 8532SOL    HW126495   3.484   5.644   0.272
 8532SOL    HW226496   3.441   5.533   0.384
 8533SOL     OW26497   2.656   5.651   5.097
 8533SOL    HW126498   2.599   5.666   5.017
 8533SOL    HW226499   2.703   5.736   5.121
 8534SOL     OW26500   1.851   3.684   1.977
 8534SOL    HW126501   1.768   3.639   1.943
 8534SOL    HW226502   1.926   3.618   1.977
 8535SOL     OW26503   6.625   0.084   2.069
 8535SOL    HW126504   6.639   7.016   2.022
 8535SOL    HW226505   6.532   0.116   2.053
 8536SOL     OW26506   1.812   0.988   3.871
 8536SOL    HW126507   1.888   0.974   3.809
 8536SOL    HW226508   1.811   0.916   3.940
 8537SOL     OW26509   5.898   1.210   2.709
 8537SOL    HW126510   5.813   1.252   2.742
 8537SOL    HW226511   5.975   1.272   2.726
 8538SOL     OW26512   0.600   2.316   6.604
 8538SOL    HW126513   0.585   2.415   6.602
 8538SOL    HW226514   0.698   2.297   6.598
 8539SOL     OW26515   5.190   3.401   2.181
 8539SOL    HW126516   5.198   3.450   2.268
 8539SOL    HW226517   5.115   3.336   2.186
 8540SOL     OW26518   4.257   0.114   0.923
 8540SOL    HW126519   4.285   0.022   0.951
 8540SOL    HW226520   4.215   0.162   1.000
 8541SOL     OW26521   1.503   3.184   3.615
 8541SOL    HW126522   1.468   3.097   3.648
 8541SOL    HW226523   1.457   3.259   3.664
 8542SOL     OW26524   2.977   4.590   6.279
 8542SOL    HW126525   2.957   4.605   6.182
 8542SOL    HW226526   3.048   4.520   6.289
 8543SOL     OW26527   3.949   2.351   6.685
 8543SOL    HW126528   3.910   2.441   6.665
 8543SOL    HW226529   3.935   2.330   6.782
 8544SOL     OW26530   5.524   2.075   4.195
 8544SOL    HW126531   5.493   2.107   4.105
 8544SOL    HW226532   5.599   2.132   4.227
 8545SOL     OW26533   4.202   6.773   5.455
 8545SOL    HW126534   4.149   6.857   5.441
 8545SOL    HW226535   4.168   6.701   5.395
 8546SOL     OW26536   4.195   2.366   6.592
 8546SOL    HW126537   4.102   2.364   6.627
 8546SOL    HW226538   4.257   2.396   6.664
 8547SOL     OW26539   1.612   4.385   2.200
 8547SOL    HW126540   1.523   4.431   2.195
 8547SOL    HW226541   1.684   4.454   2.208
 8548SOL     OW26542   6.042   2.507   5.475
 8548SOL    HW126543   6.120   2.455   5.439
 8548SOL    HW226544   6.076   2.584   5.529
 8549SOL     OW26545   5.157   2.762   5.003
 8549SOL    HW126546   5.254   2.773   4.981
 8549SOL    HW226547   5.103   2.756   4.919
 8550SOL     OW26548   1.800   4.538   5.492
 8550SOL    HW126549   1.843   4.618   5.451
 8550SOL    HW226550   1.832   4.527   5.586
 8551SOL     OW26551   2.037   4.766   1.118
 8551SOL    HW126552   2.074   4.854   1.091
 8551SOL    HW226553   2.095   4.725   1.188
 8552SOL     OW26554   3.066   6.967   4.106
 8552SOL    HW126555   3.067   6.967   4.206
 8552SOL    HW226556   3.107   6.883   4.072
 8553SOL     OW26557   6.340   5.480   0.394
 8553SOL    HW126558   6.370   5.488   0.489
 8553SOL    HW226559   6.248   5.517   0.385
 8554SOL     OW26560   5.540   3.791   0.458
 8554SOL    HW126561   5.537   3.789   0.358
 8554SOL    HW226562   5.624   3.746   0.489
 8555SOL     OW26563   1.788   6.502   4.201
 8555SOL    HW126564   1.838   6.463   4.278
 8555SOL    HW226565   1.811   6.454   4.117
 8556SOL     OW26566   5.551   0.397   5.128
 8556SOL    HW126567   5.570   0.472   5.191
 8556SOL    HW226568   5.491   0.430   5.055
 8557SOL     OW26569   6.575   1.468   1.032
 8557SOL    HW126570   6.499   1.431   0.978
 8557SOL    HW226571   6.561   1.565   1.049
 8558SOL     OW26572   1.929   4.605   2.672
 8558SOL    HW126573   1.872   4.552   2.734
 8558SOL    HW226574   1.871   4.658   2.610
 8559SOL     OW26575   1.026   1.322   4.748
 8559SOL    HW126576   0.988   1.277   4.667
 8559SOL    HW226577   0.961   1.389   4.783
 8560SOL     OW26578   6.693   2.860   6.802
 8560SOL    HW126579   6.631   2.812   6.863
 8560SOL    HW226580   6.752   2.794   6.755
 8561SOL     OW26581   4.953   6.050   6.290
 8561SOL    HW126582   4.866   6.000   6.283
 8561SOL    HW226583   4.964   6.108   6.209
 8562SOL     OW26584   3.615   0.466   4.394
 8562SOL    HW126585   3.628   0.533   4.468
 8562SOL    HW226586   3.629   0.510   4.306
 8563SOL     OW26587   2.801   3.104   6.402
 8563SOL    HW126588   2.849   3.064   6.324
 8563SOL    HW226589   2.825   3.053   6.485
 8564SOL     OW26590   0.647   5.399   3.451
 8564SOL    HW126591   0.592   5.440   3.378
 8564SOL    HW226592   0.587   5.364   3.522
 8565SOL     OW26593   3.589   0.861   1.156
 8565SOL    HW126594   3.545   0.815   1.233
 8565SOL    HW226595   3.528   0.860   1.076
 8566SOL     OW26596   1.552   4.263   4.449
 8566SOL    HW126597   1.488   4.290   4.377
 8566SOL    HW226598   1.644   4.291   4.424
 8567SOL     OW26599   5.379   6.727   6.036
 8567SOL    HW126600   5.399   6.784   6.116
 8567SOL    HW226601   5.461   6.674   6.012
 8568SOL     OW26602   5.291   6.890   0.441
 8568SOL    HW126603   5.230   6.829   0.491
 8568SOL    HW226604   5.306   6.855   0.349
 8569SOL     OW26605   2.947   0.709   5.487
 8569SOL    HW126606   3.037   0.718   5.444
 8569SOL    HW226607   2.911   0.617   5.472
 8570SOL     OW26608   6.735   3.470   6.429
 8570SOL    HW126609   6.712   3.407   6.503
 8570SOL    HW226610   6.651   3.500   6.384
 8571SOL     OW26611   6.540   4.857   5.976
 8571SOL    HW126612   6.472   4.834   6.046
 8571SOL    HW226613   6.629   4.818   6.001
 8572SOL     OW26614   3.061   5.000   6.558
 8572SOL    HW126615   3.105   5.085   6.527
 8572SOL    HW226616   3.079   4.986   6.655
 8573SOL     OW26617   3.455   6.057   4.365
 8573SOL    HW126618   3.533   6.003   4.333
 8573SOL    HW226619   3.466   6.152   4.337
 8574SOL     OW26620   1.088   4.055   4.399
 8574SOL    HW126621   1.111   3.985   4.466
 8574SOL    HW226622   1.038   4.129   4.444
 8575SOL     OW26623   2.756   3.722   6.173
 8575SOL    HW126624   2.808   3.768   6.244
 8575SOL    HW226625   2.818   3.681   6.107
 8576SOL     OW26626   2.119   0.713   0.655
 8576SOL    HW126627   2.179   0.671   0.723
 8576SOL    HW226628   2.171   0.780   0.602
 8577SOL     OW26629   6.259   5.731   4.652
 8577SOL    HW126630   6.182   5.790   4.678
 8577SOL    HW226631   6.227   5.657   4.593
 8578SOL     OW26632   4.474   0.841   4.161
 8578SOL    HW126633   4.499   0.772   4.229
 8578SOL    HW226634   4.382   0.823   4.127
 8579SOL     OW26635   0.166   4.476   2.688
 8579SOL    HW126636   0.235   4.446   2.622
 8579SOL    HW226637   0.147   4.573   2.673
 8580SOL     OW26638   2.191   5.474   6.076
 8580SOL    HW126639   2.254   5.437   6.144
 8580SOL    HW226640   2.204   5.426   5.989
 8581SOL     OW26641   3.496   3.779   0.189
 8581SOL    HW126642   3.484   3.687   0.225
 8581SOL    HW226643   3.500   3.844   0.266
 8582SOL     OW26644   3.598   5.020   6.976
 8582SOL    HW126645   3.540   4.952   0.003
 8582SOL    HW226646   3.619   4.987   6.884
 8583SOL     OW26647   5.345   6.999   4.736
 8583SOL    HW126648   5.282   7.008   4.660
 8583SOL    HW226649   5.412   0.053   4.733
 8584SOL     OW26650   0.507   5.702   6.052
 8584SOL    HW126651   0.515   5.679   6.149
 8584SOL    HW226652   0.454   5.631   6.005
 8585SOL     OW26653   1.386   1.285   0.586
 8585SOL    HW126654   1.327   1.251   0.513
 8585SOL    HW226655   1.455   1.346   0.547
 8586SOL     OW26656   3.711   5.177   3.866
 8586SOL    HW126657   3.614   5.157   3.857
 8586SOL    HW226658   3.762   5.092   3.880
 8587SOL     OW26659   6.732   1.807   1.132
 8587SOL    HW126660   6.732   1.898   1.173
 8587SOL    HW226661   6.694   1.741   1.197
 8588SOL     OW26662   4.078   3.013   6.746
 8588SOL    HW126663   4.154   2.948   6.750
 8588SOL    HW226664   3.991   2.963   6.746
 8589SOL     OW26665   2.706   1.830   3.733
 8589SOL    HW126666   2.754   1.791   3.654
 8589SOL    HW226667   2.732   1.926   3.742
 8590SOL     OW26668   5.537   4.145   5.144
 8590SOL    HW126669   5.503   4.056   5.174
 8590SOL    HW226670   5.532   4.210   5.219
 8591SOL     OW26671   0.390   2.734   0.769
 8591SOL    HW126672   0.460   2.748   0.839
 8591SOL    HW226673   0.374   2.636   0.756
 8592SOL     OW26674   6.457   6.371   6.897
 8592SOL    HW126675   6.373   6.348   6.847
 8592SOL    HW226676   6.535   6.363   6.836
 8593SOL     OW26677   0.720   4.889   3.386
 8593SOL    HW126678   0.665   4.882   3.302
 8593SOL    HW226679   0.665   4.860   3.464
 8594SOL     OW26680   4.093   3.590   2.642
 8594SOL    HW126681   4.035   3.524   2.593
 8594SOL    HW226682   4.173   3.611   2.587
 8595SOL     OW26683   1.687   2.980   1.980
 8595SOL    HW126684   1.728   3.060   2.025
 8595SOL    HW226685   1.739   2.958   1.898
 8596SOL     OW26686   6.713   4.039   2.749
 8596SOL    HW126687   6.789   4.094   2.785
 8596SOL    HW226688   6.654   4.096   2.692
 8597SOL     OW26689   1.939   1.854   0.842
 8597SOL    HW126690   2.037   1.863   0.827
 8597SOL    HW226691   1.923   1.790   0.917
 8598SOL     OW26692   6.331   2.799   1.938
 8598SOL    HW126693   6.375   2.864   1.876
 8598SOL    HW226694   6.319   2.712   1.890
 8599SOL     OW26695   0.898   2.356   0.642
 8599SOL    HW126696   0.947   2.324   0.723
 8599SOL    HW226697   0.841   2.282   0.605
 8600SOL     OW26698   0.276   2.432   5.875
 8600SOL    HW126699   0.200   2.368   5.869
 8600SOL    HW226700   0.241   2.525   5.885
 8601SOL     OW26701   0.877   0.486   4.991
 8601SOL    HW126702   0.780   0.461   4.989
 8601SOL    HW226703   0.904   0.522   4.903
 8602SOL     OW26704   0.918   6.135   2.650
 8602SOL    HW126705   0.834   6.134   2.705
 8602SOL    HW226706   0.895   6.126   2.553
 8603SOL     OW26707   4.907   3.452   1.982
 8603SOL    HW126708   4.897   3.540   2.029
 8603SOL    HW226709   4.839   3.445   1.909
 8604SOL     OW26710   6.005   1.684   3.475
 8604SOL    HW126711   5.970   1.651   3.562
 8604SOL    HW226712   6.070   1.617   3.438
 8605SOL     OW26713   2.546   5.320   1.758
 8605SOL    HW126714   2.592   5.409   1.756
 8605SOL    HW226715   2.576   5.266   1.680
 8606SOL     OW26716   3.830   5.141   4.495
 8606SOL    HW126717   3.758   5.098   4.549
 8606SOL    HW226718   3.821   5.115   4.399
 8607SOL     OW26719   2.838   6.054   7.000
 8607SOL    HW126720   2.844   6.073   0.078
 8607SOL    HW226721   2.785   5.970   6.986
 8608SOL     OW26722   5.749   6.481   2.664
 8608SOL    HW126723   5.705   6.393   2.649
 8608SOL    HW226724   5.755   6.532   2.578
 8609SOL     OW26725   5.792   0.278   5.858
 8609SOL    HW126726   5.875   0.325   5.890
 8609SOL    HW226727   5.800   0.258   5.761
 8610SOL     OW26728   6.572   6.458   5.030
 8610SOL    HW126729   6.660   6.495   4.998
 8610SOL    HW226730   6.544   6.505   5.113
 8611SOL     OW26731   1.519   1.760   2.804
 8611SOL    HW126732   1.475   1.672   2.785
 8611SOL    HW226733   1.546   1.803   2.718
 8612SOL     OW26734   5.070   3.055   4.382
 8612SOL    HW126735   5.078   3.081   4.478
 8612SOL    HW226736   4.973   3.050   4.357
 8613SOL     OW26737   1.411   0.514   0.509
 8613SOL    HW126738   1.317   0.494   0.536
 8613SOL    HW226739   1.425   0.488   0.413
 8614SOL     OW26740   1.610   3.024   3.389
 8614SOL    HW126741   1.569   2.935   3.409
 8614SOL    HW226742   1.578   3.091   3.456
 8615SOL     OW26743   5.049   1.760   6.353
 8615SOL    HW126744   4.960   1.805   6.356
 8615SOL    HW226745   5.083   1.745   6.446
 8616SOL     OW26746   1.360   3.257   0.883
 8616SOL    HW126747   1.298   3.297   0.951
 8616SOL    HW226748   1.343   3.159   0.878
 8617SOL     OW26749   6.466   3.127   0.374
 8617SOL    HW126750   6.560   3.115   0.408
 8617SOL    HW226751   6.452   3.068   0.295
 8618SOL     OW26752   3.285   1.436   2.838
 8618SOL    HW126753   3.286   1.500   2.915
 8618SOL    HW226754   3.191   1.410   2.817
 8619SOL     OW26755   3.655   6.646   0.674
 8619SOL    HW126756   3.747   6.682   0.693
 8619SOL    HW226757   3.629   6.582   0.746
 8620SOL     OW26758   6.054   6.181   4.174
 8620SOL    HW126759   6.149   6.152   4.168
 8620SOL    HW226760   5.998   6.124   4.114
 8621SOL     OW26761   4.647   1.210   3.953
 8621SOL    HW126762   4.741   1.228   3.983
 8621SOL    HW226763   4.599   1.297   3.940
 8622SOL     OW26764   5.323   4.924   6.339
 8622SOL    HW126765   5.303   4.923   6.241
 8622SOL    HW226766   5.417   4.952   6.354
 8623SOL     OW26767   5.609   1.709   3.420
 8623SOL    HW126768   5.664   1.751   3.348
 8623SOL    HW226769   5.659   1.631   3.459
 8624SOL     OW26770   6.332   2.917   3.628
 8624SOL    HW126771   6.244   2.941   3.586
 8624SOL    HW226772   6.398   2.895   3.556
 8625SOL     OW26773   3.644   1.259   6.576
 8625SOL    HW126774   3.611   1.278   6.484
 8625SOL    HW226775   3.744   1.269   6.579
 8626SOL     OW26776   3.250   3.781   1.724
 8626SOL    HW126777   3.184   3.706   1.730
 8626SOL    HW226778   3.204   3.863   1.688
 8627SOL     OW26779   2.866   0.342   6.849
 8627SOL    HW126780   2.966   0.341   6.855
 8627SOL    HW226781   2.828   0.384   6.931
 8628SOL     OW26782   6.350   1.052   1.776
 8628SOL    HW126783   6.393   0.970   1.813
 8628SOL    HW226784   6.269   1.026   1.723
 8629SOL     OW26785   1.390   5.858   3.153
 8629SOL    HW126786   1.484   5.824   3.151
 8629SOL    HW226787   1.384   5.936   3.215
 8630SOL     OW26788   5.101   4.847   4.030
 8630SOL    HW126789   5.124   4.919   4.097
 8630SOL    HW226790   5.089   4.888   3.940
 8631SOL     OW26791   4.169   6.618   3.467
 8631SOL    HW126792   4.113   6.535   3.475
 8631SOL    HW226793   4.236   6.620   3.541
 8632SOL     OW26794   3.154   0.845   2.966
 8632SOL    HW126795   3.143   0.762   3.021
 8632SOL    HW226796   3.237   0.836   2.910
 8633SOL     OW26797   6.560   6.340   2.883
 8633SOL    HW126798   6.590   6.368   2.975
 8633SOL    HW226799   6.536   6.422   2.830
 8634SOL     OW26800   6.147   6.411   1.793
 8634SOL    HW126801   6.172   6.507   1.808
 8634SOL    HW226802   6.157   6.389   1.696
 8635SOL     OW26803   6.023   3.876   6.066
 8635SOL    HW126804   6.037   3.969   6.033
 8635SOL    HW226805   6.077   3.861   6.149
 8636SOL     OW26806   5.717   4.906   1.091
 8636SOL    HW126807   5.816   4.896   1.082
 8636SOL    HW226808   5.696   4.975   1.161
 8637SOL     OW26809   0.776   0.517   2.180
 8637SOL    HW126810   0.715   0.568   2.240
 8637SOL    HW226811   0.761   0.545   2.085
 8638SOL     OW26812   6.360   4.593   1.236
 8638SOL    HW126813   6.295   4.622   1.306
 8638SOL    HW226814   6.390   4.673   1.183
 8639SOL     OW26815   6.120   2.546   3.115
 8639SOL    HW126816   6.082   2.531   3.023
 8639SOL    HW226817   6.086   2.632   3.152
 8640SOL     OW26818   5.011   6.032   1.436
 8640SOL    HW126819   5.047   5.942   1.414
 8640SOL    HW226820   4.918   6.041   1.399
 8641SOL     OW26821   5.121   4.980   3.761
 8641SOL    HW126822   5.099   5.041   3.686
 8641SOL    HW226823   5.219   4.960   3.762
 8642SOL     OW26824   4.325   1.458   0.948
 8642SOL    HW126825   4.260   1.533   0.936
 8642SOL    HW226826   4.299   1.382   0.889
 8643SOL     OW26827   4.807   6.964   0.079
 8643SOL    HW126828   4.882   7.004   0.131
 8643SOL    HW226829   4.720   7.001   0.111
 8644SOL     OW26830   6.135   3.164   5.434
 8644SOL    HW126831   6.202   3.233   5.409
 8644SOL    HW226832   6.144   3.142   5.531
 8645SOL     OW26833   6.408   3.690   1.856
 8645SOL    HW126834   6.456   3.658   1.938
 8645SOL    HW226835   6.309   3.684   1.871
 8646SOL     OW26836   4.413   6.255   0.535
 8646SOL    HW126837   4.500   6.299   0.559
 8646SOL    HW226838   4.409   6.240   0.436
 8647SOL     OW26839   5.024   5.254   1.867
 8647SOL    HW126840   5.069   5.263   1.956
 8647SOL    HW226841   5.090   5.276   1.794
 8648SOL     OW26842   6.372   0.542   4.109
 8648SOL    HW126843   6.445   0.474   4.100
 8648SOL    HW226844   6.286   0.497   4.130
 8649SOL     OW26845   6.461   3.738   5.909
 8649SOL    HW126846   6.528   3.733   5.983
 8649SOL    HW226847   6.462   3.652   5.858
 8650SOL     OW26848   0.643   5.622   1.866
 8650SOL    HW126849   0.724   5.663   1.823
 8650SOL    HW226850   0.576   5.600   1.795
 8651SOL     OW26851   4.282   3.453   1.120
 8651SOL    HW126852   4.201   3.501   1.154
 8651SOL    HW226853   4.360   3.475   1.177
 8652SOL     OW26854   0.789   2.555   4.422
 8652SOL    HW126855   0.858   2.585   4.356
 8652SOL    HW226856   0.722   2.496   4.376
 8653SOL     OW26857   5.040   3.297   6.357
 8653SOL    HW126858   5.017   3.355   6.435
 8653SOL    HW226859   5.127   3.251   6.374
 8654SOL     OW26860   1.714   4.422   1.572
 8654SOL    HW126861   1.626   4.468   1.587
 8654SOL    HW226862   1.777   4.446   1.646
 8655SOL     OW26863   5.594   6.025   2.855
 8655SOL    HW126864   5.686   5.996   2.881
 8655SOL    HW226865   5.540   5.944   2.830
 8656SOL     OW26866   6.465   1.991   1.636
 8656SOL    HW126867   6.472   2.084   1.673
 8656SOL    HW226868   6.378   1.951   1.663
 8657SOL     OW26869   2.466   5.038   0.925
 8657SOL    HW126870   2.545   4.991   0.885
 8657SOL    HW226871   2.419   5.090   0.853
 8658SOL     OW26872   1.087   5.768   5.654
 8658SOL    HW126873   0.989   5.777   5.672
 8658SOL    HW226874   1.102   5.750   5.557
 8659SOL     OW26875   3.596   0.023   4.767
 8659SOL    HW126876   3.559   0.105   4.724
 8659SOL    HW226877   3.692   0.038   4.791
 8660SOL     OW26878   4.768   4.484   0.383
 8660SOL    HW126879   4.790   4.392   0.414
 8660SOL    HW226880   4.819   4.551   0.437
 8661SOL     OW26881   6.632   2.888   1.976
 8661SOL    HW126882   6.694   2.965   1.970
 8661SOL    HW226883   6.553   2.912   2.032
 8662SOL     OW26884   0.358   1.276   0.007
 8662SOL    HW126885   0.351   1.195   6.968
 8662SOL    HW226886   0.454   1.295   0.026
 8663SOL     OW26887   2.750   5.800   1.055
 8663SOL    HW126888   2.714   5.888   1.027
 8663SOL    HW226889   2.809   5.811   1.135
 8664SOL     OW26890   4.499   4.318   1.222
 8664SOL    HW126891   4.407   4.356   1.219
 8664SOL    HW226892   4.507   4.258   1.302
 8665SOL     OW26893   5.296   5.292   4.313
 8665SOL    HW126894   5.373   5.338   4.358
 8665SOL    HW226895   5.217   5.354   4.311
 8666SOL     OW26896   6.591   4.786   4.601
 8666SOL    HW126897   6.574   4.718   4.529
 8666SOL    HW226898   6.521   4.776   4.672
 8667SOL     OW26899   5.572   2.593   3.316
 8667SOL    HW126900   5.539   2.499   3.322
 8667SOL    HW226901   5.562   2.637   3.405
 8668SOL     OW26902   3.395   0.943   5.437
 8668SOL    HW126903   3.480   0.895   5.460
 8668SOL    HW226904   3.318   0.896   5.480
 8669SOL     OW26905   3.596   6.552   6.375
 8669SOL    HW126906   3.554   6.479   6.320
 8669SOL    HW226907   3.553   6.555   6.465
 8670SOL     OW26908   4.471   4.485   2.435
 8670SOL    HW126909   4.553   4.448   2.392
 8670SOL    HW226910   4.391   4.455   2.384
 8671SOL     OW26911   5.753   5.692   1.698
 8671SOL    HW126912   5.747   5.618   1.765
 8671SOL    HW226913   5.705   5.665   1.614
 8672SOL     OW26914   3.751   4.893   4.613
 8672SOL    HW126915   3.760   4.960   4.687
 8672SOL    HW226916   3.748   4.801   4.652
 8673SOL     OW26917   4.773   2.211   6.723
 8673SOL    HW126918   4.712   2.191   6.647
 8673SOL    HW226919   4.840   2.137   6.734
 8674SOL     OW26920   0.489   6.786   2.415
 8674SOL    HW126921   0.571   6.828   2.376
 8674SOL    HW226922   0.492   6.793   2.514
 8675SOL     OW26923   2.469   1.745   2.341
 8675SOL    HW126924   2.411   1.822   2.316
 8675SOL    HW226925   2.419   1.684   2.403
 8676SOL     OW26926   4.869   1.403   4.109
 8676SOL    HW126927   4.891   1.379   4.014
 8676SOL    HW226928   4.903   1.331   4.170
 8677SOL     OW26929   1.897   3.685   5.716
 8677SOL    HW126930   1.958   3.610   5.691
 8677SOL    HW226931   1.859   3.669   5.806
 8678SOL     OW26932   1.042   0.619   5.994
 8678SOL    HW126933   0.967   0.633   6.058
 8678SOL    HW226934   1.127   0.652   6.036
 8679SOL     OW26935   6.020   2.314   4.562
 8679SOL    HW126936   5.966   2.395   4.540
 8679SOL    HW226937   5.986   2.273   4.646
 8680SOL     OW26938   0.829   3.302   6.845
 8680SOL    HW126939   0.785   3.369   6.786
 8680SOL    HW226940   0.828   3.335   6.939
 8681SOL     OW26941   4.249   4.090   1.375
 8681SOL    HW126942   4.345   4.101   1.399
 8681SOL    HW226943   4.195   4.079   1.458
 8682SOL     OW26944   1.631   5.725   3.051
 8682SOL    HW126945   1.697   5.781   3.001
 8682SOL    HW226946   1.605   5.647   2.994
 8683SOL     OW26947   5.005   3.432   0.184
 8683SOL    HW126948   5.049   3.499   0.124
 8683SOL    HW226949   5.049   3.343   0.173
 8684SOL     OW26950   6.391   2.517   3.617
 8684SOL    HW126951   6.375   2.592   3.681
 8684SOL    HW226952   6.304   2.474   3.594
 8685SOL     OW26953   0.025   1.893   5.440
 8685SOL    HW126954   0.116   1.862   5.469
 8685SOL    HW226955   6.983   1.815   5.434
 8686SOL     OW26956   6.329   1.116   4.251
 8686SOL    HW126957   6.269   1.036   4.243
 8686SOL    HW226958   6.274   1.197   4.272
 8687SOL     OW26959   3.601   1.070   2.736
 8687SOL    HW126960   3.592   0.977   2.772
 8687SOL    HW226961   3.656   1.125   2.799
 8688SOL     OW26962   0.652   6.479   2.152
 8688SOL    HW126963   0.660   6.386   2.117
 8688SOL    HW226964   0.739   6.507   2.192
 8689SOL     OW26965   5.049   4.261   1.674
 8689SOL    HW126966   5.140   4.219   1.676
 8689SOL    HW226967   4.982   4.196   1.709
 8690SOL     OW26968   1.778   0.736   2.036
 8690SOL    HW126969   1.846   0.707   2.104
 8690SOL    HW226970   1.690   0.748   2.081
 8691SOL     OW26971   5.969   1.353   6.921
 8691SOL    HW126972   5.893   1.373   6.983
 8691SOL    HW226973   5.954   1.264   6.878
 8692SOL     OW26974   1.502   1.452   3.901
 8692SOL    HW126975   1.463   1.371   3.856
 8692SOL    HW226976   1.583   1.425   3.953
 8693SOL     OW26977   5.491   2.428   6.525
 8693SOL    HW126978   5.538   2.515   6.542
 8693SOL    HW226979   5.443   2.432   6.438
 8694SOL     OW26980   4.240   0.026   6.584
 8694SOL    HW126981   4.214   6.964   6.532
 8694SOL    HW226982   4.187   0.031   6.668
 8695SOL     OW26983   4.355   3.766   5.251
 8695SOL    HW126984   4.369   3.860   5.279
 8695SOL    HW226985   4.361   3.706   5.331
 8696SOL     OW26986   2.296   5.464   0.261
 8696SOL    HW126987   2.207   5.502   0.238
 8696SOL    HW226988   2.307   5.462   0.360
 8697SOL     OW26989   5.194   5.298   6.491
 8697SOL    HW126990   5.152   5.264   6.407
 8697SOL    HW226991   5.124   5.305   6.563
 8698SOL     OW26992   5.642   5.434   5.161
 8698SOL    HW126993   5.721   5.487   5.132
 8698SOL    HW226994   5.558   5.480   5.131
 8699SOL     OW26995   1.870   1.230   4.284
 8699SOL    HW126996   1.869   1.300   4.356
 8699SOL    HW226997   1.959   1.229   4.239
 8700SOL     OW26998   2.668   1.761   6.015
 8700SOL    HW126999   2.716   1.823   5.953
 8700SOL    HW227000   2.626   1.813   6.089
 8701SOL     OW27001   1.059   0.901   3.308
 8701SOL    HW127002   1.081   0.988   3.263
 8701SOL    HW227003   1.072   0.910   3.406
 8702SOL     OW27004   5.033   6.965   6.418
 8702SOL    HW127005   5.089   0.021   6.453
 8702SOL    HW227006   4.956   6.949   6.479
 8703SOL     OW27007   1.496   4.561   1.635
 8703SOL    HW127008   1.517   4.573   1.732
 8703SOL    HW227009   1.404   4.524   1.625
 8704SOL     OW27010   1.103   4.545   2.412
 8704SOL    HW127011   1.138   4.586   2.328
 8704SOL    HW227012   1.132   4.450   2.418
 8705SOL     OW27013   4.727   6.303   4.351
 8705SOL    HW127014   4.692   6.236   4.416
 8705SOL    HW227015   4.655   6.368   4.328
 8706SOL     OW27016   4.846   0.699   6.370
 8706SOL    HW127017   4.855   0.692   6.271
 8706SOL    HW227018   4.856   0.609   6.412
 8707SOL     OW27019   4.232   1.817   5.841
 8707SOL    HW127020   4.201   1.854   5.928
 8707SOL    HW227021   4.250   1.719   5.850
 8708SOL     OW27022   4.127   1.507   1.236
 8708SOL    HW127023   4.115   1.489   1.138
 8708SOL    HW227024   4.092   1.598   1.258
 8709SOL     OW27025   5.372   3.526   0.106
 8709SOL    HW127026   5.304   3.531   0.033
 8709SOL    HW227027   5.355   3.596   0.174
 8710SOL     OW27028   6.196   3.764   4.320
 8710SOL    HW127029   6.194   3.670   4.354
 8710SOL    HW227030   6.193   3.763   4.220
 8711SOL     OW27031   1.651   1.484   4.310
 8711SOL    HW127032   1.611   1.406   4.263
 8711SOL    HW227033   1.595   1.566   4.293
 8712SOL     OW27034   3.159   0.345   6.872
 8712SOL    HW127035   3.208   0.398   6.941
 8712SOL    HW227036   3.186   0.377   6.781
 8713SOL     OW27037   6.142   4.465   3.309
 8713SOL    HW127038   6.090   4.485   3.226
 8713SOL    HW227039   6.230   4.511   3.306
 8714SOL     OW27040   2.001   1.407   3.675
 8714SOL    HW127041   1.995   1.365   3.584
 8714SOL    HW227042   1.985   1.506   3.666
 8715SOL     OW27043   5.243   0.790   2.592
 8715SOL    HW127044   5.159   0.766   2.641
 8715SOL    HW227045   5.252   0.889   2.587
 8716SOL     OW27046   0.781   0.816   2.794
 8716SOL    HW127047   0.728   0.733   2.779
 8716SOL    HW227048   0.739   0.892   2.745
 8717SOL     OW27049   4.515   3.823   1.128
 8717SOL    HW127050   4.575   3.744   1.118
 8717SOL    HW227051   4.552   3.900   1.074
 8718SOL     OW27052   6.811   2.742   5.731
 8718SOL    HW127053   6.861   2.714   5.813
 8718SOL    HW227054   6.802   2.841   5.730
 8719SOL     OW27055   6.453   1.018   5.898
 8719SOL    HW127056   6.401   0.961   5.962
 8719SOL    HW227057   6.551   1.012   5.919
 8720SOL     OW27058   5.059   3.218   5.136
 8720SOL    HW127059   5.148   3.219   5.182
 8720SOL    HW227060   5.046   3.129   5.092
 8721SOL     OW27061   6.823   0.673   5.191
 8721SOL    HW127062   6.782   0.584   5.172
 8721SOL    HW227063   6.915   0.661   5.226
 8722SOL     OW27064   3.158   2.637   0.893
 8722SOL    HW127065   3.153   2.713   0.958
 8722SOL    HW227066   3.080   2.643   0.830
 8723SOL     OW27067   0.551   6.266   0.494
 8723SOL    HW127068   0.554   6.259   0.593
 8723SOL    HW227069   0.644   6.272   0.457
 8724SOL     OW27070   4.963   5.658   6.623
 8724SOL    HW127071   4.926   5.590   6.560
 8724SOL    HW227072   5.059   5.637   6.642
 8725SOL     OW27073   2.745   6.770   1.052
 8725SOL    HW127074   2.836   6.778   1.092
 8725SOL    HW227075   2.697   6.691   1.092
 8726SOL     OW27076   0.200   0.433   1.113
 8726SOL    HW127077   0.110   0.475   1.109
 8726SOL    HW227078   0.196   0.342   1.071
 8727SOL     OW27079   5.609   6.269   1.295
 8727SOL    HW127080   5.602   6.361   1.257
 8727SOL    HW227081   5.687   6.222   1.254
 8728SOL     OW27082   2.416   5.609   5.513
 8728SOL    HW127083   2.435   5.519   5.552
 8728SOL    HW227084   2.405   5.601   5.414
 8729SOL     OW27085   4.753   6.055   4.136
 8729SOL    HW127086   4.758   6.084   4.041
 8729SOL    HW227087   4.729   6.133   4.194
 8730SOL     OW27088   6.419   6.270   0.872
 8730SOL    HW127089   6.511   6.292   0.842
 8730SOL    HW227090   6.368   6.227   0.797
 8731SOL     OW27091   0.704   2.097   2.736
 8731SOL    HW127092   0.694   1.999   2.757
 8731SOL    HW227093   0.733   2.107   2.641
 8732SOL     OW27094   6.562   6.276   1.802
 8732SOL    HW127095   6.487   6.315   1.749
 8732SOL    HW227096   6.555   6.176   1.802
 8733SOL     OW27097   6.905   0.761   0.690
 8733SOL    HW127098   6.962   0.815   0.628
 8733SOL    HW227099   6.818   0.808   0.706
 8734SOL     OW27100   6.293   6.711   0.801
 8734SOL    HW127101   6.294   6.669   0.891
 8734SOL    HW227102   6.387   6.734   0.774
 8735SOL     OW27103   0.930   2.879   5.957
 8735SOL    HW127104   0.984   2.818   5.898
 8735SOL    HW227105   0.914   2.965   5.909
 8736SOL     OW27106   0.324   4.897   5.962
 8736SOL    HW127107   0.299   4.839   5.885
 8736SOL    HW227108   0.267   4.872   6.041
 8737SOL     OW27109   4.195   5.819   6.866
 8737SOL    HW127110   4.128   5.830   6.792
 8737SOL    HW227111   4.202   5.722   6.890
 8738SOL     OW27112   0.985   4.175   5.491
 8738SOL    HW127113   1.055   4.229   5.444
 8738SOL    HW227114   0.956   4.223   5.573
 8739SOL     OW27115   1.407   3.428   5.370
 8739SOL    HW127116   1.482   3.453   5.309
 8739SOL    HW227117   1.320   3.459   5.331
 8740SOL     OW27118   1.537   6.203   0.167
 8740SOL    HW127119   1.614   6.228   0.226
 8740SOL    HW227120   1.503   6.284   0.120
 8741SOL     OW27121   1.579   3.637   2.002
 8741SOL    HW127122   1.595   3.652   2.100
 8741SOL    HW227123   1.572   3.725   1.955
 8742SOL     OW27124   4.741   5.358   1.954
 8742SOL    HW127125   4.719   5.355   2.052
 8742SOL    HW227126   4.836   5.331   1.940
 8743SOL     OW27127   2.834   5.077   2.435
 8743SOL    HW127128   2.753   5.022   2.459
 8743SOL    HW227129   2.837   5.089   2.335
 8744SOL     OW27130   2.939   3.494   5.406
 8744SOL    HW127131   3.021   3.502   5.462
 8744SOL    HW227132   2.896   3.405   5.421
 8745SOL     OW27133   5.347   2.025   6.300
 8745SOL    HW127134   5.297   1.944   6.267
 8745SOL    HW227135   5.322   2.042   6.395
 8746SOL     OW27136   5.342   3.219   4.498
 8746SOL    HW127137   5.387   3.135   4.467
 8746SOL    HW227138   5.409   3.293   4.505
 8747SOL     OW27139   0.696   1.475   3.967
 8747SOL    HW127140   0.728   1.472   3.872
 8747SOL    HW227141   0.654   1.387   3.991
 8748SOL     OW27142   3.239   0.144   6.430
 8748SOL    HW127143   3.323   0.091   6.443
 8748SOL    HW227144   3.161   0.094   6.469
 8749SOL     OW27145   3.870   1.674   3.191
 8749SOL    HW127146   3.780   1.659   3.231
 8749SOL    HW227147   3.875   1.630   3.102
 8750SOL     OW27148   1.995   0.110   4.760
 8750SOL    HW127149   2.056   0.039   4.794
 8750SOL    HW227150   2.045   0.170   4.698
 8751SOL     OW27151   2.135   6.234   2.770
 8751SOL    HW127152   2.218   6.234   2.715
 8751SOL    HW227153   2.128   6.147   2.820
 8752SOL     OW27154   2.263   0.970   6.285
 8752SOL    HW127155   2.360   0.993   6.274
 8752SOL    HW227156   2.250   0.872   6.269
 8753SOL     OW27157   5.243   1.719   5.080
 8753SOL    HW127158   5.309   1.718   5.154
 8753SOL    HW227159   5.157   1.760   5.112
 8754SOL     OW27160   1.630   1.120   5.826
 8754SOL    HW127161   1.666   1.178   5.752
 8754SOL    HW227162   1.704   1.093   5.887
 8755SOL     OW27163   2.019   2.014   0.452
 8755SOL    HW127164   1.938   1.957   0.465
 8755SOL    HW227165   2.020   2.049   0.358
 8756SOL     OW27166   2.901   5.189   4.642
 8756SOL    HW127167   2.903   5.219   4.738
 8756SOL    HW227168   2.975   5.124   4.626
 8757SOL     OW27169   3.023   5.299   3.314
 8757SOL    HW127170   3.063   5.341   3.233
 8757SOL    HW227171   3.019   5.366   3.388
 8758SOL     OW27172   5.121   6.735   2.735
 8758SOL    HW127173   5.034   6.768   2.771
 8758SOL    HW227174   5.166   6.677   2.803
 8759SOL     OW27175   5.519   0.528   6.170
 8759SOL    HW127176   5.485   0.444   6.126
 8759SOL    HW227177   5.463   0.548   6.250
 8760SOL     OW27178   1.976   2.652   3.454
 8760SOL    HW127179   2.025   2.738   3.438
 8760SOL    HW227180   1.991   2.621   3.547
 8761SOL     OW27181   5.242   6.028   1.706
 8761SOL    HW127182   5.276   5.967   1.635
 8761SOL    HW227183   5.274   5.997   1.796
 8762SOL     OW27184   1.216   4.961   1.485
 8762SOL    HW127185   1.300   4.906   1.493
 8762SOL    HW227186   1.136   4.901   1.486
 8763SOL     OW27187   0.066   5.799   6.841
 8763SOL    HW127188   0.103   5.738   6.771
 8763SOL    HW227189   6.986   5.796   6.839
 8764SOL     OW27190   2.969   2.261   6.176
 8764SOL    HW127191   3.024   2.323   6.120
 8764SOL    HW227192   2.890   2.311   6.213
 8765SOL     OW27193   5.926   0.720   4.795
 8765SOL    HW127194   5.853   0.727   4.728
 8765SOL    HW227195   5.912   0.789   4.866
 8766SOL     OW27196   2.358   4.220   2.283
 8766SOL    HW127197   2.419   4.291   2.319
 8766SOL    HW227198   2.373   4.209   2.185
 8767SOL     OW27199   4.231   0.283   4.969
 8767SOL    HW127200   4.203   0.277   4.873
 8767SOL    HW227201   4.320   0.327   4.975
 8768SOL     OW27202   0.485   4.199   0.807
 8768SOL    HW127203   0.396   4.235   0.779
 8768SOL    HW227204   0.497   4.107   0.768
 8769SOL     OW27205   1.750   0.822   6.123
 8769SOL    HW127206   1.717   0.915   6.138
 8769SOL    HW227207   1.850   0.820   6.131
 8770SOL     OW27208   5.732   1.525   2.575
 8770SOL    HW127209   5.757   1.616   2.540
 8770SOL    HW227210   5.775   1.511   2.664
 8771SOL     OW27211   2.935   3.250   5.140
 8771SOL    HW127212   3.032   3.238   5.119
 8771SOL    HW227213   2.882   3.248   5.055
 8772SOL     OW27214   6.695   6.574   6.598
 8772SOL    HW127215   6.694   6.623   6.685
 8772SOL    HW227216   6.615   6.601   6.544
 8773SOL     OW27217   2.636   1.800   3.344
 8773SOL    HW127218   2.655   1.801   3.246
 8773SOL    HW227219   2.576   1.876   3.368
 8774SOL     OW27220   1.570   1.098   0.308
 8774SOL    HW127221   1.527   1.188   0.311
 8774SOL    HW227222   1.579   1.069   0.212
 8775SOL     OW27223   6.454   6.364   4.126
 8775SOL    HW127224   6.403   6.278   4.125
 8775SOL    HW227225   6.472   6.393   4.031
 8776SOL     OW27226   3.326   3.733   5.459
 8776SOL    HW127227   3.283   3.739   5.369
 8776SOL    HW227228   3.424   3.715   5.448
 8777SOL     OW27229   6.270   5.432   2.977
 8777SOL    HW127230   6.266   5.333   2.993
 8777SOL    HW227231   6.190   5.475   3.019
 8778SOL     OW27232   1.085   3.176   2.925
 8778SOL    HW127233   1.136   3.094   2.900
 8778SOL    HW227234   0.987   3.158   2.916
 8779SOL     OW27235   1.788   4.681   1.148
 8779SOL    HW127236   1.883   4.709   1.140
 8779SOL    HW227237   1.784   4.584   1.173
 8780SOL     OW27238   1.563   5.710   5.304
 8780SOL    HW127239   1.599   5.798   5.274
 8780SOL    HW227240   1.635   5.641   5.298
 8781SOL     OW27241   1.621   2.290   2.164
 8781SOL    HW127242   1.653   2.383   2.146
 8781SOL    HW227243   1.522   2.285   2.145
 8782SOL     OW27244   5.527   1.242   3.927
 8782SOL    HW127245   5.442   1.290   3.946
 8782SOL    HW227246   5.509   1.143   3.922
 8783SOL     OW27247   6.039   2.491   5.910
 8783SOL    HW127248   6.118   2.543   5.879
 8783SOL    HW227249   5.999   2.535   5.991
 8784SOL     OW27250   5.403   3.993   6.044
 8784SOL    HW127251   5.361   3.955   6.126
 8784SOL    HW227252   5.346   4.066   6.007
 8785SOL     OW27253   5.142   3.970   6.474
 8785SOL    HW127254   5.084   3.938   6.399
 8785SOL    HW227255   5.086   3.983   6.556
 8786SOL     OW27256   1.914   6.009   6.644
 8786SOL    HW127257   1.963   6.088   6.681
 8786SOL    HW227258   1.908   6.017   6.544
 8787SOL     OW27259   1.249   2.781   6.635
 8787SOL    HW127260   1.198   2.725   6.700
 8787SOL    HW227261   1.313   2.724   6.583
 8788SOL     OW27262   1.408   1.793   5.241
 8788SOL    HW127263   1.476   1.726   5.270
 8788SOL    HW227264   1.446   1.885   5.248
 8789SOL     OW27265   6.472   1.195   0.173
 8789SOL    HW127266   6.488   1.129   0.246
 8789SOL    HW227267   6.503   1.286   0.201
 8790SOL     OW27268   4.032   1.543   6.459
 8790SOL    HW127269   3.987   1.576   6.376
 8790SOL    HW227270   4.041   1.619   6.524
 8791SOL     OW27271   5.354   6.104   5.039
 8791SOL    HW127272   5.373   6.189   4.989
 8791SOL    HW227273   5.255   6.094   5.050
 8792SOL     OW27274   5.344   6.890   2.669
 8792SOL    HW127275   5.281   6.820   2.703
 8792SOL    HW227276   5.334   6.897   2.569
 8793SOL     OW27277   1.210   4.698   3.263
 8793SOL    HW127278   1.270   4.778   3.265
 8793SOL    HW227279   1.173   4.682   3.355
 8794SOL     OW27280   2.887   0.092   2.247
 8794SOL    HW127281   2.949   0.021   2.280
 8794SOL    HW227282   2.877   0.163   2.317
 8795SOL     OW27283   2.922   6.622   4.606
 8795SOL    HW127284   2.844   6.568   4.572
 8795SOL    HW227285   2.996   6.560   4.632
 8796SOL     OW27286   4.654   2.181   4.246
 8796SOL    HW127287   4.743   2.226   4.237
 8796SOL    HW227288   4.624   2.149   4.156
 8797SOL     OW27289   6.969   5.487   6.614
 8797SOL    HW127290   6.960   5.514   6.518
 8797SOL    HW227291   0.029   5.531   6.653
 8798SOL     OW27292   3.339   3.498   5.200
 8798SOL    HW127293   3.328   3.464   5.106
 8798SOL    HW227294   3.292   3.586   5.209
 8799SOL     OW27295   3.657   0.954   2.173
 8799SOL    HW127296   3.561   0.982   2.171
 8799SOL    HW227297   3.668   0.877   2.237
 8800SOL     OW27298   4.089   3.918   0.551
 8800SOL    HW127299   4.090   4.017   0.567
 8800SOL    HW227300   3.997   3.889   0.526
 8801SOL     OW27301   3.003   6.438   5.515
 8801SOL    HW127302   3.032   6.506   5.582
 8801SOL    HW227303   2.968   6.357   5.562
 8802SOL     OW27304   1.506   6.415   1.459
 8802SOL    HW127305   1.421   6.417   1.512
 8802SOL    HW227306   1.486   6.427   1.362
 8803SOL     OW27307   3.644   5.959   2.349
 8803SOL    HW127308   3.659   6.056   2.328
 8803SOL    HW227309   3.724   5.906   2.319
 8804SOL     OW27310   3.122   0.651   1.657
 8804SOL    HW127311   3.219   0.629   1.648
 8804SOL    HW227312   3.085   0.600   1.735
 8805SOL     OW27313   0.259   0.274   3.759
 8805SOL    HW127314   0.200   0.197   3.782
 8805SOL    HW227315   0.231   0.354   3.811
 8806SOL     OW27316   2.177   4.729   6.712
 8806SOL    HW127317   2.169   4.632   6.687
 8806SOL    HW227318   2.101   4.753   6.773
 8807SOL     OW27319   1.967   4.770   6.889
 8807SOL    HW127320   1.957   4.829   6.969
 8807SOL    HW227321   1.979   4.675   6.918
 8808SOL     OW27322   6.165   2.791   0.899
 8808SOL    HW127323   6.116   2.830   0.977
 8808SOL    HW227324   6.251   2.841   0.885
 8809SOL     OW27325   6.190   4.548   6.891
 8809SOL    HW127326   6.106   4.498   6.870
 8809SOL    HW227327   6.183   4.641   6.854
 8810SOL     OW27328   5.056   1.511   4.280
 8810SOL    HW127329   5.131   1.446   4.289
 8810SOL    HW227330   4.998   1.484   4.203
 8811SOL     OW27331   0.614   0.878   3.300
 8811SOL    HW127332   0.628   0.914   3.393
 8811SOL    HW227333   0.691   0.905   3.242
 8812SOL     OW27334   2.928   1.121   0.204
 8812SOL    HW127335   2.986   1.199   0.230
 8812SOL    HW227336   2.934   1.106   0.106
 8813SOL     OW27337   0.690   5.449   1.119
 8813SOL    HW127338   0.718   5.355   1.100
 8813SOL    HW227339   0.599   5.449   1.162
 8814SOL     OW27340   5.595   6.984   6.028
 8814SOL    HW127341   5.510   0.010   6.058
 8814SOL    HW227342   5.591   6.968   5.930
 8815SOL     OW27343   6.234   4.492   3.583
 8815SOL    HW127344   6.204   4.512   3.490
 8815SOL    HW227345   6.251   4.578   3.632
 8816SOL     OW27346   0.850   5.627   2.360
 8816SOL    HW127347   0.900   5.544   2.337
 8816SOL    HW227348   0.909   5.688   2.412
 8817SOL     OW27349   2.162   3.989   5.436
 8817SOL    HW127350   2.214   3.984   5.351
 8817SOL    HW227351   2.066   3.968   5.418
 8818SOL     OW27352   6.665   4.819   5.319
 8818SOL    HW127353   6.755   4.796   5.282
 8818SOL    HW227354   6.643   4.914   5.295
 8819SOL     OW27355   0.439   1.103   4.818
 8819SOL    HW127356   0.529   1.139   4.794
 8819SOL    HW227357   0.382   1.097   4.735
 8820SOL     OW27358   1.052   2.491   3.171
 8820SOL    HW127359   0.999   2.576   3.178
 8820SOL    HW227360   1.143   2.512   3.134
 8821SOL     OW27361   1.421   6.836   6.770
 8821SOL    HW127362   1.359   6.785   6.710
 8821SOL    HW227363   1.437   6.783   6.853
 8822SOL     OW27364   1.120   2.547   3.824
 8822SOL    HW127365   1.094   2.537   3.920
 8822SOL    HW227366   1.043   2.584   3.772
 8823SOL     OW27367   2.690   5.530   0.902
 8823SOL    HW127368   2.689   5.449   0.960
 8823SOL    HW227369   2.741   5.603   0.948
 8824SOL     OW27370   5.211   4.088   1.432
 8824SOL    HW127371   5.271   4.041   1.498
 8824SOL    HW227372   5.118   4.092   1.469
 8825SOL     OW27373   2.429   2.117   6.779
 8825SOL    HW127374   2.333   2.099   6.756
 8825SOL    HW227375   2.488   2.085   6.705
 8826SOL     OW27376   5.313   0.191   1.598
 8826SOL    HW127377   5.236   0.129   1.611
 8826SOL    HW227378   5.284   0.270   1.545
 8827SOL     OW27379   6.559   1.545   3.995
 8827SOL    HW127380   6.526   1.451   3.987
 8827SOL    HW227381   6.489   1.600   4.041
 8828SOL     OW27382   1.702   5.847   3.302
 8828SOL    HW127383   1.704   5.940   3.266
 8828SOL    HW227384   1.717   5.782   3.227
 8829SOL     OW27385   0.585   0.408   1.297
 8829SOL    HW127386   0.526   0.486   1.319
 8829SOL    HW227387   0.657   0.401   1.366
 8830SOL     OW27388   1.436   1.480   1.016
 8830SOL    HW127389   1.459   1.551   0.949
 8830SOL    HW227390   1.436   1.390   0.971
 8831SOL     OW27391   0.230   0.496   1.642
 8831SOL    HW127392   0.327   0.519   1.629
 8831SOL    HW227393   0.188   0.477   1.554
 8832SOL     OW27394   6.651   0.763   1.725
 8832SOL    HW127395   6.581   0.754   1.795
 8832SOL    HW227396   6.733   0.806   1.764
 8833SOL     OW27397   0.487   5.408   1.656
 8833SOL    HW127398   0.566   5.403   1.594
 8833SOL    HW227399   0.498   5.340   1.728
 8834SOL     OW27400   6.605   4.491   4.194
 8834SOL    HW127401   6.638   4.429   4.265
 8834SOL    HW227402   6.606   4.443   4.106
 8835SOL     OW27403   0.687   1.554   0.722
 8835SOL    HW127404   0.589   1.546   0.702
 8835SOL    HW227405   0.722   1.465   0.753
 8836SOL     OW27406   4.711   1.942   1.743
 8836SOL    HW127407   4.745   1.892   1.664
 8836SOL    HW227408   4.714   1.883   1.824
 8837SOL     OW27409   0.578   2.730   2.338
 8837SOL    HW127410   0.645   2.674   2.289
 8837SOL    HW227411   0.574   2.821   2.296
 8838SOL     OW27412   1.320   6.868   3.450
 8838SOL    HW127413   1.355   6.956   3.483
 8838SOL    HW227414   1.242   6.841   3.506
 8839SOL     OW27415   5.994   5.214   4.794
 8839SOL    HW127416   5.998   5.153   4.873
 8839SOL    HW227417   5.923   5.283   4.810
 8840SOL     OW27418   4.475   0.466   1.916
 8840SOL    HW127419   4.426   0.402   1.976
 8840SOL    HW227420   4.483   0.427   1.825
 8841SOL     OW27421   4.034   6.673   3.233
 8841SOL    HW127422   4.065   6.656   3.326
 8841SOL    HW227423   3.935   6.681   3.231
 8842SOL     OW27424   1.674   1.375   1.920
 8842SOL    HW127425   1.735   1.426   1.981
 8842SOL    HW227426   1.726   1.343   1.841
 8843SOL     OW27427   6.850   2.935   4.302
 8843SOL    HW127428   6.933   2.881   4.310
 8843SOL    HW227429   6.789   2.892   4.236
 8844SOL     OW27430   5.697   2.041   6.820
 8844SOL    HW127431   5.756   1.965   6.845
 8844SOL    HW227432   5.713   2.066   6.725
 8845SOL     OW27433   5.280   2.386   7.002
 8845SOL    HW127434   5.329   2.305   0.014
 8845SOL    HW227435   5.285   2.457   0.053
 8846SOL     OW27436   3.072   4.880   4.237
 8846SOL    HW127437   3.091   4.861   4.333
 8846SOL    HW227438   2.998   4.821   4.205
 8847SOL     OW27439   0.969   1.705   3.652
 8847SOL    HW127440   0.877   1.668   3.668
 8847SOL    HW227441   1.030   1.675   3.725
 8848SOL     OW27442   0.491   1.277   3.571
 8848SOL    HW127443   0.413   1.332   3.601
 8848SOL    HW227444   0.478   1.250   3.476
 8849SOL     OW27445   3.515   6.932   1.300
 8849SOL    HW127446   3.461   6.850   1.280
 8849SOL    HW227447   3.461   6.995   1.356
 8850SOL     OW27448   3.192   1.678   0.162
 8850SOL    HW127449   3.225   1.696   0.069
 8850SOL    HW227450   3.105   1.630   0.157
 8851SOL     OW27451   2.083   3.710   1.608
 8851SOL    HW127452   2.064   3.618   1.575
 8851SOL    HW227453   2.155   3.752   1.553
 8852SOL     OW27454   1.094   2.603   4.663
 8852SOL    HW127455   1.068   2.508   4.643
 8852SOL    HW227456   1.146   2.639   4.586
 8853SOL     OW27457   4.882   0.389   1.858
 8853SOL    HW127458   4.914   0.388   1.763
 8853SOL    HW227459   4.819   0.466   1.871
 8854SOL     OW27460   6.812   2.343   4.960
 8854SOL    HW127461   6.858   2.348   4.871
 8854SOL    HW227462   6.853   2.409   5.022
 8855SOL     OW27463   5.099   4.774   1.042
 8855SOL    HW127464   5.090   4.708   1.116
 8855SOL    HW227465   5.184   4.756   0.992
 8856SOL     OW27466   6.501   1.095   5.625
 8856SOL    HW127467   6.426   1.159   5.606
 8856SOL    HW227468   6.487   1.054   5.716
 8857SOL     OW27469   0.185   2.171   6.273
 8857SOL    HW127470   0.168   2.074   6.253
 8857SOL    HW227471   0.171   2.188   6.370
 8858SOL     OW27472   6.737   5.545   5.059
 8858SOL    HW127473   6.828   5.534   5.097
 8858SOL    HW227474   6.671   5.492   5.112
 8859SOL     OW27475   0.394   5.745   3.137
 8859SOL    HW127476   0.452   5.816   3.176
 8859SOL    HW227477   0.338   5.784   3.064
 8860SOL     OW27478   6.322   2.560   2.837
 8860SOL    HW127479   6.226   2.546   2.815
 8860SOL    HW227480   6.379   2.531   2.760
 8861SOL     OW27481   3.086   2.632   1.453
 8861SOL    HW127482   3.085   2.732   1.456
 8861SOL    HW227483   3.178   2.600   1.432
 8862SOL     OW27484   4.356   4.687   4.739
 8862SOL    HW127485   4.448   4.727   4.734
 8862SOL    HW227486   4.346   4.636   4.824
 8863SOL     OW27487   1.583   3.630   1.598
 8863SOL    HW127488   1.509   3.676   1.647
 8863SOL    HW227489   1.606   3.545   1.646
 8864SOL     OW27490   6.658   1.687   4.634
 8864SOL    HW127491   6.663   1.785   4.612
 8864SOL    HW227492   6.598   1.641   4.569
 8865SOL     OW27493   2.801   1.597   0.302
 8865SOL    HW127494   2.754   1.685   0.301
 8865SOL    HW227495   2.735   1.524   0.322
 8866SOL     OW27496   6.551   0.029   1.721
 8866SOL    HW127497   6.553   0.126   1.695
 8866SOL    HW227498   6.619   0.012   1.792
 8867SOL     OW27499   5.870   2.441   3.289
 8867SOL    HW127500   5.865   2.346   3.260
 8867SOL    HW227501   5.923   2.494   3.223
 8868SOL     OW27502   0.609   3.045   3.643
 8868SOL    HW127503   0.572   3.123   3.692
 8868SOL    HW227504   0.584   3.050   3.547
 8869SOL     OW27505   4.254   0.140   3.241
 8869SOL    HW127506   4.269   0.130   3.142
 8869SOL    HW227507   4.296   0.225   3.273
 8870SOL     OW27508   0.982   0.535   1.722
 8870SOL    HW127509   0.940   0.623   1.741
 8870SOL    HW227510   1.041   0.509   1.799
 8871SOL     OW27511   0.127   6.660   0.806
 8871SOL    HW127512   0.033   6.627   0.812
 8871SOL    HW227513   0.130   6.742   0.750
 8872SOL     OW27514   6.670   4.924   4.044
 8872SOL    HW127515   6.731   4.867   4.099
 8872SOL    HW227516   6.575   4.898   4.062
 8873SOL     OW27517   1.700   1.613   3.363
 8873SOL    HW127518   1.732   1.590   3.271
 8873SOL    HW227519   1.680   1.529   3.414
 8874SOL     OW27520   2.710   6.042   0.413
 8874SOL    HW127521   2.774   6.072   0.484
 8874SOL    HW227522   2.755   5.973   0.356
 8875SOL     OW27523   6.674   2.791   4.153
 8875SOL    HW127524   6.606   2.756   4.089
 8875SOL    HW227525   6.746   2.723   4.166
 8876SOL     OW27526   5.139   0.084   0.455
 8876SOL    HW127527   5.139   0.121   0.548
 8876SOL    HW227528   5.197   0.002   0.453
 8877SOL     OW27529   1.113   4.420   1.770
 8877SOL    HW127530   1.211   4.402   1.762
 8877SOL    HW227531   1.062   4.335   1.754
 8878SOL     OW27532   5.005   3.646   2.342
 8878SOL    HW127533   4.978   3.580   2.272
 8878SOL    HW227534   5.067   3.603   2.407
 8879SOL     OW27535   6.808   4.657   4.074
 8879SOL    HW127536   6.806   4.589   4.000
 8879SOL    HW227537   6.738   4.635   4.141
 8880SOL     OW27538   3.809   1.824   2.393
 8880SOL    HW127539   3.741   1.889   2.429
 8880SOL    HW227540   3.900   1.863   2.402
 8881SOL     OW27541   3.987   5.358   2.901
 8881SOL    HW127542   4.018   5.363   2.806
 8881SOL    HW227543   3.973   5.450   2.936
 8882SOL     OW27544   4.150   1.594   0.328
 8882SOL    HW127545   4.184   1.574   0.420
 8882SOL    HW227546   4.116   1.688   0.324
 8883SOL     OW27547   0.758   6.431   2.969
 8883SOL    HW127548   0.725   6.512   3.017
 8883SOL    HW227549   0.683   6.393   2.914
 8884SOL     OW27550   4.666   1.946   6.045
 8884SOL    HW127551   4.631   1.887   6.117
 8884SOL    HW227552   4.615   1.928   5.960
 8885SOL     OW27553   5.881   5.105   0.759
 8885SOL    HW127554   5.832   5.192   0.766
 8885SOL    HW227555   5.816   5.030   0.767
 8886SOL     OW27556   4.514   6.573   0.398
 8886SOL    HW127557   4.429   6.615   0.365
 8886SOL    HW227558   4.592   6.616   0.352
 8887SOL     OW27559   3.897   0.723   2.134
 8887SOL    HW127560   3.958   0.792   2.096
 8887SOL    HW227561   3.852   0.674   2.059
 8888SOL     OW27562   3.796   1.776   1.824
 8888SOL    HW127563   3.744   1.823   1.752
 8888SOL    HW227564   3.780   1.822   1.912
 8889SOL     OW27565   1.776   4.365   6.828
 8889SOL    HW127566   1.783   4.276   6.782
 8889SOL    HW227567   1.756   4.436   6.760
 8890SOL     OW27568   1.855   5.743   6.719
 8890SOL    HW127569   1.900   5.824   6.681
 8890SOL    HW227570   1.762   5.738   6.684
 8891SOL     OW27571   5.724   3.673   5.351
 8891SOL    HW127572   5.791   3.620   5.300
 8891SOL    HW227573   5.664   3.721   5.287
 8892SOL     OW27574   2.484   5.266   5.246
 8892SOL    HW127575   2.580   5.272   5.274
 8892SOL    HW227576   2.445   5.181   5.282
 8893SOL     OW27577   0.506   4.670   5.577
 8893SOL    HW127578   0.596   4.628   5.592
 8893SOL    HW227579   0.467   4.635   5.492
 8894SOL     OW27580   5.724   2.309   1.414
 8894SOL    HW127581   5.679   2.385   1.368
 8894SOL    HW227582   5.819   2.302   1.384
 8895SOL     OW27583   7.009   3.637   1.871
 8895SOL    HW127584   6.945   3.579   1.820
 8895SOL    HW227585   0.071   3.653   1.817
 8896SOL     OW27586   0.746   0.686   3.613
 8896SOL    HW127587   0.788   0.713   3.700
 8896SOL    HW227588   0.686   0.608   3.628
 8897SOL     OW27589   1.293   5.050   4.659
 8897SOL    HW127590   1.325   5.090   4.745
 8897SOL    HW227591   1.366   5.055   4.591
 8898SOL     OW27592   5.939   5.166   2.881
 8898SOL    HW127593   5.918   5.076   2.842
 8898SOL    HW227594   5.971   5.155   2.975
 8899SOL     OW27595   2.473   4.746   1.502
 8899SOL    HW127596   2.553   4.784   1.550
 8899SOL    HW227597   2.395   4.807   1.515
 8900SOL     OW27598   4.719   1.829   4.833
 8900SOL    HW127599   4.630   1.787   4.813
 8900SOL    HW227600   4.775   1.765   4.884
 8901SOL     OW27601   1.420   4.641   6.044
 8901SOL    HW127602   1.405   4.637   5.945
 8901SOL    HW227603   1.475   4.562   6.073
 8902SOL     OW27604   0.834   4.274   6.416
 8902SOL    HW127605   0.814   4.182   6.383
 8902SOL    HW227606   0.926   4.302   6.386
 8903SOL     OW27607   0.742   0.819   4.267
 8903SOL    HW127608   0.732   0.720   4.272
 8903SOL    HW227609   0.670   0.857   4.210
 8904SOL     OW27610   6.683   1.233   2.711
 8904SOL    HW127611   6.780   1.216   2.695
 8904SOL    HW227612   6.639   1.258   2.625
 8905SOL     OW27613   1.798   5.147   1.355
 8905SOL    HW127614   1.818   5.146   1.257
 8905SOL    HW227615   1.821   5.057   1.393
 8906SOL     OW27616   6.418   0.624   6.410
 8906SOL    HW127617   6.509   0.654   6.382
 8906SOL    HW227618   6.414   0.617   6.510
 8907SOL     OW27619   2.675   2.979   5.400
 8907SOL    HW127620   2.607   3.009   5.334
 8907SOL    HW227621   2.636   2.909   5.459
 8908SOL     OW27622   1.400   5.555   5.473
 8908SOL    HW127623   1.446   5.627   5.421
 8908SOL    HW227624   1.402   5.470   5.421
 8909SOL     OW27625   2.431   6.405   1.951
 8909SOL    HW127626   2.346   6.430   1.998
 8909SOL    HW227627   2.447   6.470   1.876
 8910SOL     OW27628   0.935   0.772   3.791
 8910SOL    HW127629   0.983   0.840   3.845
 8910SOL    HW227630   1.000   0.723   3.733
 8911SOL     OW27631   4.614   2.718   4.107
 8911SOL    HW127632   4.594   2.657   4.183
 8911SOL    HW227633   4.555   2.695   4.029
 8912SOL     OW27634   3.525   3.281   3.238
 8912SOL    HW127635   3.581   3.315   3.313
 8912SOL    HW227636   3.511   3.355   3.171
 8913SOL     OW27637   4.718   5.267   0.636
 8913SOL    HW127638   4.633   5.235   0.677
 8913SOL    HW227639   4.756   5.341   0.691
 8914SOL     OW27640   5.021   4.992   4.989
 8914SOL    HW127641   5.056   5.010   5.080
 8914SOL    HW227642   4.946   5.055   4.968
 8915SOL     OW27643   2.673   0.977   3.193
 8915SOL    HW127644   2.577   0.952   3.201
 8915SOL    HW227645   2.719   0.960   3.280
 8916SOL     OW27646   6.402   0.081   2.338
 8916SOL    HW127647   6.370   0.002   2.285
 8916SOL    HW227648   6.417   0.054   2.433
 8917SOL     OW27649   5.743   2.454   0.383
 8917SOL    HW127650   5.760   2.428   0.288
 8917SOL    HW227651   5.644   2.467   0.396
 8918SOL     OW27652   1.674   3.162   3.162
 8918SOL    HW127653   1.654   3.112   3.247
 8918SOL    HW227654   1.598   3.150   3.098
 8919SOL     OW27655   6.519   2.219   2.945
 8919SOL    HW127656   6.574   2.157   3.002
 8919SOL    HW227657   6.445   2.168   2.902
 8920SOL     OW27658   1.093   1.670   0.672
 8920SOL    HW127659   1.112   1.646   0.577
 8920SOL    HW227660   1.163   1.734   0.705
 8921SOL     OW27661   0.959   2.195   1.463
 8921SOL    HW127662   0.867   2.194   1.424
 8921SOL    HW227663   1.007   2.110   1.441
 8922SOL     OW27664   2.812   5.232   3.149
 8922SOL    HW127665   2.892   5.172   3.149
 8922SOL    HW227666   2.837   5.320   3.191
 8923SOL     OW27667   2.447   1.994   3.352
 8923SOL    HW127668   2.503   2.013   3.272
 8923SOL    HW227669   2.409   2.079   3.388
 8924SOL     OW27670   6.310   5.130   4.895
 8924SOL    HW127671   6.279   5.089   4.809
 8924SOL    HW227672   6.323   5.228   4.882
 8925SOL     OW27673   0.487   6.315   3.846
 8925SOL    HW127674   0.396   6.328   3.807
 8925SOL    HW227675   0.487   6.344   3.941
 8926SOL     OW27676   5.889   2.707   6.791
 8926SOL    HW127677   5.859   2.635   6.730
 8926SOL    HW227678   5.821   2.720   6.864
 8927SOL     OW27679   1.058   1.868   6.288
 8927SOL    HW127680   0.995   1.858   6.211
 8927SOL    HW227681   1.145   1.826   6.266
 8928SOL     OW27682   0.512   6.559   5.023
 8928SOL    HW127683   0.450   6.482   5.014
 8928SOL    HW227684   0.549   6.583   4.933
 8929SOL     OW27685   6.581   1.220   3.413
 8929SOL    HW127686   6.519   1.241   3.488
 8929SOL    HW227687   6.644   1.148   3.440
 8930SOL     OW27688   2.282   5.627   2.532
 8930SOL    HW127689   2.305   5.530   2.543
 8930SOL    HW227690   2.270   5.647   2.435
 8931SOL     OW27691   4.639   3.141   0.191
 8931SOL    HW127692   4.716   3.115   0.249
 8931SOL    HW227693   4.556   3.096   0.224
 8932SOL     OW27694   0.664   3.529   2.336
 8932SOL    HW127695   0.584   3.588   2.322
 8932SOL    HW227696   0.634   3.437   2.360
 8933SOL     OW27697   4.965   2.530   6.059
 8933SOL    HW127698   5.012   2.584   6.129
 8933SOL    HW227699   4.932   2.591   5.986
 8934SOL     OW27700   2.601   5.929   2.520
 8934SOL    HW127701   2.657   5.851   2.547
 8934SOL    HW227702   2.592   5.930   2.420
 8935SOL     OW27703   6.954   5.580   6.348
 8935SOL    HW127704   6.924   5.525   6.269
 8935SOL    HW227705   0.008   5.641   6.319
 8936SOL     OW27706   4.096   3.457   0.597
 8936SOL    HW127707   4.124   3.364   0.574
 8936SOL    HW227708   4.099   3.514   0.515
 8937SOL     OW27709   0.084   1.267   6.397
 8937SOL    HW127710   0.044   1.347   6.442
 8937SOL    HW227711   0.172   1.292   6.357
 8938SOL     OW27712   5.184   5.530   1.825
 8938SOL    HW127713   5.087   5.549   1.812
 8938SOL    HW227714   5.211   5.452   1.769
 8939SOL     OW27715   5.529   1.798   4.151
 8939SOL    HW127716   5.482   1.883   4.176
 8939SOL    HW227717   5.627   1.809   4.162
 8940SOL     OW27718   5.338   6.778   2.357
 8940SOL    HW127719   5.407   6.748   2.291
 8940SOL    HW227720   5.290   6.699   2.394
 8941SOL     OW27721   4.058   2.113   0.014
 8941SOL    HW127722   4.080   2.161   0.099
 8941SOL    HW227723   4.143   2.090   6.985
 8942SOL     OW27724   1.340   2.280   5.874
 8942SOL    HW127725   1.437   2.272   5.894
 8942SOL    HW227726   1.325   2.273   5.775
 8943SOL     OW27727   4.756   3.335   1.026
 8943SOL    HW127728   4.843   3.292   1.004
 8943SOL    HW227729   4.685   3.303   0.963
 8944SOL     OW27730   4.577   5.280   0.947
 8944SOL    HW127731   4.630   5.201   0.916
 8944SOL    HW227732   4.572   5.279   1.047
 8945SOL     OW27733   2.350   1.274   3.321
 8945SOL    HW127734   2.409   1.241   3.395
 8945SOL    HW227735   2.324   1.369   3.339
 8946SOL     OW27736   3.647   0.306   5.117
 8946SOL    HW127737   3.586   0.229   5.097
 8946SOL    HW227738   3.593   0.383   5.152
 8947SOL     OW27739   3.733   3.461   5.705
 8947SOL    HW127740   3.768   3.403   5.632
 8947SOL    HW227741   3.797   3.537   5.722
 8948SOL     OW27742   5.323   4.629   3.616
 8948SOL    HW127743   5.303   4.641   3.713
 8948SOL    HW227744   5.362   4.539   3.600
 8949SOL     OW27745   1.732   5.684   6.389
 8949SOL    HW127746   1.713   5.732   6.304
 8949SOL    HW227747   1.821   5.638   6.382
 8950SOL     OW27748   4.848   3.012   4.787
 8950SOL    HW127749   4.757   3.006   4.827
 8950SOL    HW227750   4.860   2.940   4.719
 8951SOL     OW27751   3.093   1.826   5.375
 8951SOL    HW127752   3.155   1.842   5.297
 8951SOL    HW227753   3.011   1.881   5.363
 8952SOL     OW27754   5.831   6.683   3.744
 8952SOL    HW127755   5.874   6.772   3.761
 8952SOL    HW227756   5.899   6.611   3.750
 8953SOL     OW27757   1.307   5.020   6.072
 8953SOL    HW127758   1.380   5.010   6.005
 8953SOL    HW227759   1.308   5.114   6.107
 8954SOL     OW27760   2.435   6.674   6.325
 8954SOL    HW127761   2.416   6.660   6.228
 8954SOL    HW227762   2.374   6.744   6.362
 8955SOL     OW27763   6.703   3.477   4.191
 8955SOL    HW127764   6.735   3.498   4.284
 8955SOL    HW227765   6.707   3.378   4.176
 8956SOL     OW27766   1.140   0.321   4.006
 8956SOL    HW127767   1.128   0.222   4.013
 8956SOL    HW227768   1.075   0.367   4.066
 8957SOL     OW27769   3.222   6.406   1.735
 8957SOL    HW127770   3.245   6.442   1.825
 8957SOL    HW227771   3.184   6.314   1.743
 8958SOL     OW27772   3.179   0.594   4.985
 8958SOL    HW127773   3.150   0.684   4.953
 8958SOL    HW227774   3.198   0.599   5.083
 8959SOL     OW27775   3.891   4.863   6.689
 8959SOL    HW127776   3.926   4.814   6.609
 8959SOL    HW227777   3.799   4.898   6.669
 8960SOL     OW27778   4.162   5.371   0.968
 8960SOL    HW127779   4.161   5.417   1.056
 8960SOL    HW227780   4.076   5.390   0.919
 8961SOL     OW27781   0.670   2.787   4.591
 8961SOL    HW127782   0.717   2.845   4.525
 8961SOL    HW227783   0.682   2.691   4.566
 8962SOL     OW27784   4.445   0.330   3.913
 8962SOL    HW127785   4.488   0.325   3.822
 8962SOL    HW227786   4.347   0.343   3.903
 8963SOL     OW27787   1.537   0.966   4.054
 8963SOL    HW127788   1.481   0.896   4.096
 8963SOL    HW227789   1.624   0.926   4.023
 8964SOL     OW27790   0.758   2.643   3.183
 8964SOL    HW127791   0.840   2.631   3.240
 8964SOL    HW227792   0.678   2.611   3.233
 8965SOL     OW27793   1.845   5.267   1.600
 8965SOL    HW127794   1.820   5.230   1.511
 8965SOL    HW227795   1.764   5.302   1.646
 8966SOL     OW27796   3.784   1.996   4.910
 8966SOL    HW127797   3.854   1.992   4.839
 8966SOL    HW227798   3.803   2.072   4.972
 8967SOL     OW27799   5.440   6.379   0.623
 8967SOL    HW127800   5.411   6.309   0.557
 8967SOL    HW227801   5.368   6.393   0.691
 8968SOL     OW27802   6.242   3.800   4.035
 8968SOL    HW127803   6.269   3.892   4.008
 8968SOL    HW227804   6.315   3.736   4.011
 8969SOL     OW27805   6.456   6.932   4.071
 8969SOL    HW127806   6.424   6.971   4.158
 8969SOL    HW227807   6.529   6.866   4.090
 8970SOL     OW27808   3.043   2.918   1.472
 8970SOL    HW127809   3.021   3.013   1.491
 8970SOL    HW227810   3.010   2.861   1.548
 8971SOL     OW27811   3.425   6.626   2.748
 8971SOL    HW127812   3.339   6.634   2.797
 8971SOL    HW227813   3.449   6.530   2.738
 8972SOL     OW27814   5.205   0.467   5.113
 8972SOL    HW127815   5.269   0.478   5.037
 8972SOL    HW227816   5.114   0.498   5.085
 8973SOL     OW27817   2.095   4.473   6.691
 8973SOL    HW127818   2.174   4.427   6.651
 8973SOL    HW227819   2.090   4.453   6.789
 8974SOL     OW27820   0.495   2.582   4.179
 8974SOL    HW127821   0.406   2.617   4.208
 8974SOL    HW227822   0.488   2.550   4.084
 8975SOL     OW27823   3.409   0.891   6.029
 8975SOL    HW127824   3.500   0.886   6.070
 8975SOL    HW227825   3.417   0.924   5.935
 8976SOL     OW27826   1.866   5.779   4.015
 8976SOL    HW127827   1.815   5.781   3.929
 8976SOL    HW227828   1.834   5.703   4.071
 8977SOL     OW27829   5.386   1.457   6.968
 8977SOL    HW127830   5.292   1.427   6.981
 8977SOL    HW227831   5.420   1.424   6.880
 8978SOL     OW27832   5.708   5.004   1.596
 8978SOL    HW127833   5.713   4.904   1.601
 8978SOL    HW227834   5.790   5.039   1.551
 8979SOL     OW27835   0.966   4.663   5.125
 8979SOL    HW127836   0.980   4.740   5.062
 8979SOL    HW227837   1.049   4.607   5.129
 8980SOL     OW27838   2.940   3.338   3.577
 8980SOL    HW127839   2.849   3.335   3.619
 8980SOL    HW227840   2.990   3.254   3.600
 8981SOL     OW27841   2.873   2.003   5.358
 8981SOL    HW127842   2.775   1.993   5.371
 8981SOL    HW227843   2.892   2.077   5.294
 8982SOL     OW27844   3.176   5.309   0.874
 8982SOL    HW127845   3.161   5.400   0.834
 8982SOL    HW227846   3.233   5.318   0.956
 8983SOL     OW27847   5.134   4.351   0.717
 8983SOL    HW127848   5.203   4.388   0.779
 8983SOL    HW227849   5.043   4.384   0.745
 8984SOL     OW27850   1.643   6.477   3.166
 8984SOL    HW127851   1.587   6.407   3.210
 8984SOL    HW227852   1.614   6.488   3.071
 8985SOL     OW27853   2.937   3.354   6.201
 8985SOL    HW127854   2.953   3.435   6.144
 8985SOL    HW227855   2.887   3.286   6.148
 8986SOL     OW27856   2.756   6.045   1.955
 8986SOL    HW127857   2.692   6.096   2.013
 8986SOL    HW227858   2.821   5.995   2.012
 8987SOL     OW27859   5.153   6.630   2.483
 8987SOL    HW127860   5.092   6.551   2.488
 8987SOL    HW227861   5.155   6.677   2.571
 8988SOL     OW27862   0.417   4.713   5.153
 8988SOL    HW127863   0.380   4.647   5.088
 8988SOL    HW227864   0.512   4.690   5.173
 8989SOL     OW27865   2.439   2.389   6.831
 8989SOL    HW127866   2.441   2.289   6.836
 8989SOL    HW227867   2.516   2.427   6.882
 8990SOL     OW27868   0.260   5.047   4.623
 8990SOL    HW127869   0.168   5.078   4.599
 8990SOL    HW227870   0.285   4.968   4.566
 8991SOL     OW27871   1.101   2.605   4.928
 8991SOL    HW127872   1.083   2.619   4.831
 8991SOL    HW227873   1.127   2.510   4.944
 8992SOL     OW27874   6.380   1.466   1.582
 8992SOL    HW127875   6.381   1.539   1.513
 8992SOL    HW227876   6.437   1.390   1.551
 8993SOL     OW27877   4.557   2.090   1.121
 8993SOL    HW127878   4.612   2.116   1.041
 8993SOL    HW227879   4.541   2.171   1.177
 8994SOL     OW27880   1.797   5.681   2.719
 8994SOL    HW127881   1.892   5.651   2.719
 8994SOL    HW227882   1.742   5.616   2.772
 8995SOL     OW27883   0.396   0.193   1.252
 8995SOL    HW127884   0.350   0.229   1.333
 8995SOL    HW227885   0.478   0.247   1.233
 8996SOL     OW27886   4.376   5.231   5.414
 8996SOL    HW127887   4.341   5.230   5.507
 8996SOL    HW227888   4.324   5.297   5.359
 8997SOL     OW27889   5.766   0.209   5.117
 8997SOL    HW127890   5.731   0.135   5.059
 8997SOL    HW227891   5.689   0.267   5.145
 8998SOL     OW27892   6.718   3.794   4.899
 8998SOL    HW127893   6.689   3.889   4.888
 8998SOL    HW227894   6.817   3.791   4.912
 8999SOL     OW27895   4.305   5.745   6.174
 8999SOL    HW127896   4.389   5.783   6.135
 8999SOL    HW227897   4.256   5.694   6.104
 9000SOL     OW27898   0.814   4.165   1.125
 9000SOL    HW127899   0.891   4.127   1.177
 9000SOL    HW227900   0.849   4.216   1.046
 9001SOL     OW27901   1.338   5.700   0.802
 9001SOL    HW127902   1.357   5.742   0.713
 9001SOL    HW227903   1.379   5.609   0.806
 9002SOL     OW27904   6.536   5.849   6.233
 9002SOL    HW127905   6.540   5.906   6.151
 9002SOL    HW227906   6.607   5.879   6.298
 9003SOL     OW27907   4.949   6.529   0.736
 9003SOL    HW127908   4.984   6.457   0.796
 9003SOL    HW227909   4.962   6.502   0.640
 9004SOL     OW27910   6.524   4.941   2.360
 9004SOL    HW127911   6.561   4.974   2.273
 9004SOL    HW227912   6.587   4.874   2.400
 9005SOL     OW27913   4.707   0.934   4.756
 9005SOL    HW127914   4.639   0.925   4.683
 9005SOL    HW227915   4.797   0.908   4.720
 9006SOL     OW27916   3.736   6.302   0.185
 9006SOL    HW127917   3.730   6.202   0.186
 9006SOL    HW227918   3.799   6.331   0.113
 9007SOL     OW27919   0.030   0.663   3.341
 9007SOL    HW127920   0.074   0.577   3.313
 9007SOL    HW227921   6.952   0.647   3.352
 9008SOL     OW27922   6.878   5.304   1.969
 9008SOL    HW127923   6.848   5.212   1.943
 9008SOL    HW227924   6.972   5.318   1.939
 9009SOL     OW27925   3.424   6.676   2.304
 9009SOL    HW127926   3.399   6.653   2.398
 9009SOL    HW227927   3.448   6.592   2.254
 9010SOL     OW27928   1.910   5.141   4.844
 9010SOL    HW127929   1.996   5.179   4.809
 9010SOL    HW227930   1.876   5.072   4.780
 9011SOL     OW27931   2.481   2.050   2.050
 9011SOL    HW127932   2.575   2.075   2.073
 9011SOL    HW227933   2.442   2.119   1.988
 9012SOL     OW27934   2.257   6.282   6.927
 9012SOL    HW127935   2.274   6.189   6.959
 9012SOL    HW227936   2.321   6.305   6.854
 9013SOL     OW27937   2.052   0.395   4.225
 9013SOL    HW127938   2.125   0.341   4.267
 9013SOL    HW227939   1.985   0.333   4.183
 9014SOL     OW27940   5.510   3.423   3.584
 9014SOL    HW127941   5.444   3.384   3.519
 9014SOL    HW227942   5.581   3.472   3.534
 9015SOL     OW27943   4.094   6.530   5.867
 9015SOL    HW127944   3.999   6.502   5.881
 9015SOL    HW227945   4.112   6.614   5.917
 9016SOL     OW27946   4.860   4.308   6.325
 9016SOL    HW127947   4.840   4.235   6.259
 9016SOL    HW227948   4.838   4.277   6.417
 9017SOL     OW27949   2.689   0.060   5.497
 9017SOL    HW127950   2.710   7.008   5.430
 9017SOL    HW227951   2.667   0.145   5.449
 9018SOL     OW27952   3.574   5.108   0.645
 9018SOL    HW127953   3.596   5.162   0.564
 9018SOL    HW227954   3.475   5.102   0.655
 9019SOL     OW27955   0.761   3.839   4.824
 9019SOL    HW127956   0.823   3.913   4.800
 9019SOL    HW227957   0.690   3.831   4.753
 9020SOL     OW27958   5.679   5.136   3.594
 9020SOL    HW127959   5.638   5.057   3.639
 9020SOL    HW227960   5.614   5.175   3.529
 9021SOL     OW27961   0.150   1.019   4.330
 9021SOL    HW127962   0.151   0.960   4.411
 9021SOL    HW227963   0.239   1.014   4.284
 9022SOL     OW27964   4.805   3.593   6.915
 9022SOL    HW127965   4.786   3.542   6.998
 9022SOL    HW227966   4.803   3.691   6.935
 9023SOL     OW27967   0.206   4.899   0.928
 9023SOL    HW127968   0.249   4.893   1.018
 9023SOL    HW227969   0.146   4.820   0.914
 9024SOL     OW27970   2.333   4.655   6.290
 9024SOL    HW127971   2.428   4.650   6.259
 9024SOL    HW227972   2.314   4.747   6.325
 9025SOL     OW27973   0.424   6.071   1.652
 9025SOL    HW127974   0.371   6.029   1.579
 9025SOL    HW227975   0.459   6.000   1.713
 9026SOL     OW27976   6.004   1.158   6.723
 9026SOL    HW127977   6.092   1.164   6.677
 9026SOL    HW227978   5.931   1.169   6.655
 9027SOL     OW27979   0.100   4.083   3.399
 9027SOL    HW127980   0.063   4.001   3.356
 9027SOL    HW227981   0.165   4.127   3.337
 9028SOL     OW27982   3.245   5.149   7.003
 9028SOL    HW127983   3.279   5.196   6.922
 9028SOL    HW227984   3.317   5.091   0.022
 9029SOL     OW27985   4.467   6.229   4.962
 9029SOL    HW127986   4.420   6.312   4.931
 9029SOL    HW227987   4.406   6.150   4.951
 9030SOL     OW27988   2.840   2.202   2.312
 9030SOL    HW127989   2.872   2.108   2.314
 9030SOL    HW227990   2.890   2.252   2.241
 9031SOL     OW27991   5.221   6.740   5.077
 9031SOL    HW127992   5.164   6.761   5.157
 9031SOL    HW227993   5.315   6.724   5.106
 9032SOL     OW27994   4.980   3.167   0.967
 9032SOL    HW127995   4.963   3.177   0.869
 9032SOL    HW227996   4.938   3.082   0.999
 9033SOL     OW27997   1.171   5.946   2.671
 9033SOL    HW127998   1.168   6.037   2.712
 9033SOL    HW227999   1.082   5.925   2.630
 9034SOL     OW28000   4.067   6.786   5.101
 9034SOL    HW128001   4.011   6.736   5.035
 9034SOL    HW228002   4.143   6.728   5.129
 9035SOL     OW28003   2.921   5.096   5.988
 9035SOL    HW128004   2.914   5.193   6.012
 9035SOL    HW228005   2.988   5.052   6.048
 9036SOL     OW28006   0.153   5.366   5.184
 9036SOL    HW128007   0.154   5.399   5.278
 9036SOL    HW228008   0.244   5.331   5.160
 9037SOL     OW28009   0.068   0.685   2.349
 9037SOL    HW128010   7.019   0.730   2.407
 9037SOL    HW228011   0.136   0.753   2.321
 9038SOL     OW28012   3.829   3.323   5.479
 9038SOL    HW128013   3.795   3.369   5.397
 9038SOL    HW228014   3.780   3.237   5.493
 9039SOL     OW28015   4.335   6.237   6.364
 9039SOL    HW128016   4.384   6.208   6.282
 9039SOL    HW228017   4.377   6.319   6.402
 9040SOL     OW28018   2.139   2.261   1.461
 9040SOL    HW128019   2.172   2.187   1.520
 9040SOL    HW228020   2.166   2.349   1.500
 9041SOL     OW28021   6.138   2.182   2.980
 9041SOL    HW128022   6.137   2.216   3.074
 9041SOL    HW228023   6.045   2.160   2.951
 9042SOL     OW28024   5.871   5.560   6.528
 9042SOL    HW128025   5.815   5.602   6.599
 9042SOL    HW228026   5.938   5.499   6.569
 9043SOL     OW28027   2.957   3.169   1.537
 9043SOL    HW128028   2.885   3.137   1.598
 9043SOL    HW228029   2.920   3.239   1.476
 9044SOL     OW28030   1.953   0.630   0.045
 9044SOL    HW128031   1.866   0.666   0.011
 9044SOL    HW228032   1.972   0.669   0.135
 9045SOL     OW28033   3.442   0.427   3.783
 9045SOL    HW128034   3.438   0.372   3.867
 9045SOL    HW228035   3.376   0.391   3.717
 9046SOL     OW28036   3.900   3.645   2.368
 9046SOL    HW128037   3.942   3.564   2.408
 9046SOL    HW228038   3.878   3.711   2.440
 9047SOL     OW28039   0.833   4.766   5.926
 9047SOL    HW128040   0.839   4.828   5.847
 9047SOL    HW228041   0.743   4.776   5.969
 9048SOL     OW28042   0.346   1.931   5.281
 9048SOL    HW128043   0.294   1.988   5.217
 9048SOL    HW228044   0.410   1.875   5.230
 9049SOL     OW28045   0.816   6.690   5.059
 9049SOL    HW128046   0.887   6.708   5.126
 9049SOL    HW228047   0.744   6.635   5.101
 9050SOL     OW28048   1.103   4.329   0.331
 9050SOL    HW128049   1.119   4.391   0.408
 9050SOL    HW228050   1.163   4.353   0.255
 9051SOL     OW28051   2.154   0.709   1.629
 9051SOL    HW128052   2.112   0.763   1.702
 9051SOL    HW228053   2.084   0.680   1.564
 9052SOL     OW28054   2.052   2.944   6.555
 9052SOL    HW128055   2.092   2.905   6.637
 9052SOL    HW228056   2.114   2.931   6.478
 9053SOL     OW28057   0.698   1.357   0.302
 9053SOL    HW128058   0.682   1.286   0.371
 9053SOL    HW228059   0.639   1.436   0.321
 9054SOL     OW28060   1.537   5.601   3.365
 9054SOL    HW128061   1.586   5.688   3.372
 9054SOL    HW228062   1.569   5.538   3.435
 9055SOL     OW28063   0.855   2.449   6.053
 9055SOL    HW128064   0.954   2.441   6.064
 9055SOL    HW228065   0.827   2.544   6.068
 9056SOL     OW28066   4.838   1.238   4.552
 9056SOL    HW128067   4.756   1.242   4.609
 9056SOL    HW228068   4.899   1.314   4.576
 9057SOL     OW28069   4.701   1.427   3.654
 9057SOL    HW128070   4.655   1.410   3.740
 9057SOL    HW228071   4.752   1.513   3.660
 9058SOL     OW28072   2.108   6.990   6.028
 9058SOL    HW128073   2.021   0.008   6.060
 9058SOL    HW228074   2.094   6.897   5.994
 9059SOL     OW28075   1.571   2.233   3.772
 9059SOL    HW128076   1.507   2.185   3.832
 9059SOL    HW228077   1.540   2.328   3.760
 9060SOL     OW28078   5.431   2.586   5.259
 9060SOL    HW128079   5.424   2.685   5.272
 9060SOL    HW228080   5.348   2.552   5.214
 9061SOL     OW28081   2.040   4.764   3.733
 9061SOL    HW128082   2.023   4.693   3.666
 9061SOL    HW228083   2.075   4.724   3.818
 9062SOL     OW28084   1.607   6.153   1.886
 9062SOL    HW128085   1.658   6.090   1.828
 9062SOL    HW228086   1.669   6.223   1.922
 9063SOL     OW28087   3.305   1.561   1.615
 9063SOL    HW128088   3.275   1.657   1.616
 9063SOL    HW228089   3.271   1.516   1.533
 9064SOL     OW28090   4.275   4.092   6.837
 9064SOL    HW128091   4.198   4.045   6.880
 9064SOL    HW228092   4.350   4.099   6.902
 9065SOL     OW28093   2.980   1.055   1.268
 9065SOL    HW128094   2.921   0.976   1.284
 9065SOL    HW228095   2.976   1.080   1.172
 9066SOL     OW28096   4.852   6.710   0.016
 9066SOL    HW128097   4.808   6.796   0.043
 9066SOL    HW228098   4.925   6.729   6.970
 9067SOL     OW28099   0.655   0.161   1.899
 9067SOL    HW128100   0.559   0.134   1.911
 9067SOL    HW228101   0.659   0.242   1.840
 9068SOL     OW28102   1.096   5.869   6.287
 9068SOL    HW128103   1.187   5.908   6.303
 9068SOL    HW228104   1.048   5.924   6.218
 9069SOL     OW28105   1.252   2.333   5.630
 9069SOL    HW128106   1.202   2.314   5.546
 9069SOL    HW228107   1.201   2.399   5.685
 9070SOL     OW28108   0.950   4.252   4.510
 9070SOL    HW128109   0.869   4.294   4.468
 9070SOL    HW228110   0.989   4.316   4.577
 9071SOL     OW28111   5.144   5.357   6.940
 9071SOL    HW128112   5.104   5.332   6.852
 9071SOL    HW228113   5.195   5.278   6.977
 9072SOL     OW28114   5.155   4.517   0.503
 9072SOL    HW128115   5.145   4.465   0.419
 9072SOL    HW228116   5.160   4.455   0.581
 9073SOL     OW28117   2.020   0.102   1.149
 9073SOL    HW128118   1.923   0.116   1.133
 9073SOL    HW228119   2.034   0.064   1.241
 9074SOL     OW28120   0.440   0.643   1.355
 9074SOL    HW128121   0.465   0.612   1.447
 9074SOL    HW228122   0.366   0.710   1.360
 9075SOL     OW28123   6.916   0.174   1.433
 9075SOL    HW128124   6.939   0.251   1.374
 9075SOL    HW228125   6.908   0.091   1.377
 9076SOL     OW28126   0.961   2.691   5.163
 9076SOL    HW128127   0.993   2.634   5.087
 9076SOL    HW228128   1.027   2.685   5.239
 9077SOL     OW28129   5.956   5.934   1.793
 9077SOL    HW128130   5.985   6.023   1.828
 9077SOL    HW228131   6.012   5.910   1.714
 9078SOL     OW28132   4.805   3.018   5.145
 9078SOL    HW128133   4.781   3.115   5.147
 9078SOL    HW228134   4.865   2.996   5.223
 9079SOL     OW28135   2.066   6.770   5.458
 9079SOL    HW128136   2.047   6.868   5.460
 9079SOL    HW228137   2.042   6.730   5.546
 9080SOL     OW28138   4.477   0.685   0.221
 9080SOL    HW128139   4.529   0.633   0.153
 9080SOL    HW228140   4.501   0.653   0.312
 9081SOL     OW28141   5.458   6.950   3.784
 9081SOL    HW128142   5.362   6.953   3.757
 9081SOL    HW228143   5.480   0.010   3.840
 9082SOL     OW28144   2.265   0.597   1.967
 9082SOL    HW128145   2.307   0.515   2.007
 9082SOL    HW228146   2.329   0.639   1.903
 9083SOL     OW28147   4.021   5.252   3.414
 9083SOL    HW128148   4.120   5.244   3.399
 9083SOL    HW228149   3.974   5.177   3.367
 9084SOL     OW28150   3.693   3.766   2.163
 9084SOL    HW128151   3.669   3.713   2.245
 9084SOL    HW228152   3.792   3.776   2.158
 9085SOL     OW28153   1.339   1.811   0.679
 9085SOL    HW128154   1.304   1.904   0.671
 9085SOL    HW228155   1.399   1.791   0.602
 9086SOL     OW28156   0.106   3.517   0.593
 9086SOL    HW128157   0.162   3.492   0.671
 9086SOL    HW228158   0.010   3.526   0.622
 9087SOL     OW28159   5.215   3.689   2.050
 9087SOL    HW128160   5.212   3.604   2.103
 9087SOL    HW228161   5.169   3.675   1.962
 9088SOL     OW28162   6.390   4.641   2.705
 9088SOL    HW128163   6.316   4.687   2.753
 9088SOL    HW228164   6.477   4.688   2.724
 9089SOL     OW28165   3.813   1.090   5.690
 9089SOL    HW128166   3.872   1.130   5.759
 9089SOL    HW228167   3.742   1.155   5.664
 9090SOL     OW28168   6.868   2.083   3.994
 9090SOL    HW128169   6.805   2.007   3.978
 9090SOL    HW228170   6.898   2.121   3.906
 9091SOL     OW28171   4.386   3.027   5.718
 9091SOL    HW128172   4.385   3.119   5.677
 9091SOL    HW228173   4.371   3.035   5.816
 9092SOL     OW28174   6.969   3.928   5.941
 9092SOL    HW128175   6.929   4.010   5.899
 9092SOL    HW228176   6.897   3.873   5.982
 9093SOL     OW28177   2.349   6.516   4.884
 9093SOL    HW128178   2.334   6.461   4.966
 9093SOL    HW228179   2.386   6.458   4.811
 9094SOL     OW28180   1.933   3.980   0.662
 9094SOL    HW128181   1.902   3.885   0.650
 9094SOL    HW228182   1.854   4.041   0.664
 9095SOL     OW28183   0.239   0.272   6.150
 9095SOL    HW128184   0.271   0.343   6.213
 9095SOL    HW228185   0.299   0.192   6.157
 9096SOL     OW28186   6.540   5.607   3.786
 9096SOL    HW128187   6.640   5.612   3.774
 9096SOL    HW228188   6.515   5.647   3.874
 9097SOL     OW28189   0.750   3.710   0.605
 9097SOL    HW128190   0.751   3.788   0.543
 9097SOL    HW228191   0.843   3.691   0.636
 9098SOL     OW28192   1.936   5.651   4.702
 9098SOL    HW128193   2.005   5.578   4.697
 9098SOL    HW228194   1.936   5.702   4.616
 9099SOL     OW28195   2.662   1.541   6.165
 9099SOL    HW128196   2.583   1.483   6.147
 9099SOL    HW228197   2.663   1.617   6.101
 9100SOL     OW28198   1.483   4.758   4.594
 9100SOL    HW128199   1.390   4.765   4.630
 9100SOL    HW228200   1.548   4.786   4.665
 9101SOL     OW28201   6.696   1.658   1.356
 9101SOL    HW128202   6.722   1.691   1.447
 9101SOL    HW228203   6.598   1.642   1.352
 9102SOL     OW28204   3.359   0.841   2.809
 9102SOL    HW128205   3.363   0.851   2.709
 9102SOL    HW228206   3.425   0.772   2.838
 9103SOL     OW28207   6.209   0.526   1.189
 9103SOL    HW128208   6.206   0.466   1.269
 9103SOL    HW228209   6.218   0.470   1.106
 9104SOL     OW28210   5.292   2.548   5.937
 9104SOL    HW128211   5.281   2.496   6.022
 9104SOL    HW228212   5.351   2.498   5.874
 9105SOL     OW28213   2.806   1.017   0.414
 9105SOL    HW128214   2.876   0.995   0.482
 9105SOL    HW228215   2.847   1.066   0.337
 9106SOL     OW28216   2.573   2.980   6.216
 9106SOL    HW128217   2.482   3.019   6.226
 9106SOL    HW228218   2.641   3.040   6.259
 9107SOL     OW28219   3.897   0.440   1.099
 9107SOL    HW128220   3.984   0.475   1.064
 9107SOL    HW228221   3.896   0.340   1.091
 9108SOL     OW28222   6.057   6.704   5.641
 9108SOL    HW128223   6.137   6.761   5.659
 9108SOL    HW228224   6.080   6.636   5.571
 9109SOL     OW28225   5.385   3.739   3.071
 9109SOL    HW128226   5.314   3.800   3.108
 9109SOL    HW228227   5.475   3.782   3.082
 9110SOL     OW28228   0.952   6.474   2.450
 9110SOL    HW128229   0.979   6.386   2.410
 9110SOL    HW228230   0.904   6.528   2.381
 9111SOL     OW28231   4.663   2.922   5.764
 9111SOL    HW128232   4.649   2.823   5.765
 9111SOL    HW228233   4.605   2.963   5.693
 9112SOL     OW28234   0.791   4.734   1.787
 9112SOL    HW128235   0.731   4.810   1.761
 9112SOL    HW228236   0.755   4.649   1.749
 9113SOL     OW28237   5.693   0.517   4.768
 9113SOL    HW128238   5.622   0.447   4.762
 9113SOL    HW228239   5.695   0.555   4.861
 9114SOL     OW28240   0.207   1.160   6.100
 9114SOL    HW128241   0.179   1.069   6.131
 9114SOL    HW228242   0.196   1.166   6.000
 9115SOL     OW28243   5.207   3.935   4.333
 9115SOL    HW128244   5.261   3.851   4.336
 9115SOL    HW228245   5.200   3.966   4.238
 9116SOL     OW28246   0.535   5.378   4.000
 9116SOL    HW128247   0.520   5.282   3.976
 9116SOL    HW228248   0.579   5.426   3.924
 9117SOL     OW28249   2.112   6.902   0.151
 9117SOL    HW128250   2.063   6.985   0.124
 9117SOL    HW228251   2.208   6.910   0.126
 9118SOL     OW28252   6.899   5.034   0.959
 9118SOL    HW128253   6.921   5.121   1.003
 9118SOL    HW228254   6.926   5.037   0.863
 9119SOL     OW28255   3.725   2.027   0.632
 9119SOL    HW128256   3.803   2.086   0.610
 9119SOL    HW228257   3.758   1.940   0.667
 9120SOL     OW28258   6.785   4.427   5.172
 9120SOL    HW128259   6.867   4.403   5.225
 9120SOL    HW228260   6.704   4.394   5.220
 9121SOL     OW28261   4.713   1.130   4.954
 9121SOL    HW128262   4.711   1.074   4.871
 9121SOL    HW228263   4.788   1.196   4.948
 9122SOL     OW28264   0.170   1.534   2.024
 9122SOL    HW128265   0.205   1.444   2.053
 9122SOL    HW228266   0.197   1.603   2.091
 9123SOL     OW28267   0.457   6.244   4.820
 9123SOL    HW128268   0.543   6.208   4.856
 9123SOL    HW228269   0.406   6.286   4.895
 9124SOL     OW28270   3.121   5.822   0.986
 9124SOL    HW128271   3.057   5.893   1.015
 9124SOL    HW228272   3.125   5.750   1.056
 9125SOL     OW28273   4.922   6.488   1.954
 9125SOL    HW128274   4.841   6.532   1.991
 9125SOL    HW228275   4.959   6.543   1.879
 9126SOL     OW28276   3.675   5.209   0.406
 9126SOL    HW128277   3.693   5.139   0.337
 9126SOL    HW228278   3.707   5.297   0.373
 9127SOL     OW28279   6.058   4.360   5.825
 9127SOL    HW128280   6.012   4.349   5.913
 9127SOL    HW228281   6.000   4.416   5.765
 9128SOL     OW28282   5.384   3.680   6.803
 9128SOL    HW128283   5.350   3.686   6.709
 9128SOL    HW228284   5.310   3.655   6.865
 9129SOL     OW28285   0.666   2.635   1.732
 9129SOL    HW128286   0.630   2.691   1.806
 9129SOL    HW228287   0.717   2.692   1.668
 9130SOL     OW28288   2.791   4.112   5.904
 9130SOL    HW128289   2.823   4.021   5.932
 9130SOL    HW228290   2.691   4.113   5.900
 9131SOL     OW28291   6.161   3.196   0.844
 9131SOL    HW128292   6.247   3.183   0.795
 9131SOL    HW228293   6.144   3.118   0.904
 9132SOL     OW28294   0.738   4.336   4.226
 9132SOL    HW128295   0.734   4.367   4.131
 9132SOL    HW228296   0.749   4.415   4.286
 9133SOL     OW28297   5.221   6.335   0.189
 9133SOL    HW128298   5.174   6.263   0.138
 9133SOL    HW228299   5.274   6.294   0.263
 9134SOL     OW28300   4.857   4.359   0.128
 9134SOL    HW128301   4.838   4.333   0.033
 9134SOL    HW228302   4.814   4.447   0.148
 9135SOL     OW28303   6.584   5.335   2.377
 9135SOL    HW128304   6.540   5.405   2.433
 9135SOL    HW228305   6.649   5.283   2.433
 9136SOL     OW28306   0.548   4.835   6.920
 9136SOL    HW128307   0.455   4.844   6.885
 9136SOL    HW228308   0.610   4.814   6.845
 9137SOL     OW28309   5.379   5.421   5.744
 9137SOL    HW128310   5.297   5.372   5.774
 9137SOL    HW228311   5.443   5.355   5.704
 9138SOL     OW28312   1.470   3.928   6.133
 9138SOL    HW128313   1.440   3.838   6.165
 9138SOL    HW228314   1.548   3.917   6.072
 9139SOL     OW28315   0.546   6.891   0.864
 9139SOL    HW128316   0.460   6.853   0.900
 9139SOL    HW228317   0.557   6.863   0.769
 9140SOL     OW28318   0.256   4.192   3.201
 9140SOL    HW128319   0.189   4.211   3.129
 9140SOL    HW228320   0.348   4.204   3.165
 9141SOL     OW28321   0.269   5.725   4.201
 9141SOL    HW128322   0.282   5.633   4.163
 9141SOL    HW228323   0.358   5.768   4.215
 9142SOL     OW28324   1.757   5.236   3.313
 9142SOL    HW128325   1.750   5.310   3.379
 9142SOL    HW228326   1.666   5.211   3.280
 9143SOL     OW28327   5.230   3.319   2.581
 9143SOL    HW128328   5.279   3.253   2.524
 9143SOL    HW228329   5.249   3.299   2.677
 9144SOL     OW28330   2.262   4.823   5.403
 9144SOL    HW128331   2.357   4.819   5.435
 9144SOL    HW228332   2.239   4.737   5.358
 9145SOL     OW28333   2.652   5.725   6.693
 9145SOL    HW128334   2.608   5.801   6.645
 9145SOL    HW228335   2.670   5.651   6.629
 9146SOL     OW28336   5.292   1.595   4.439
 9146SOL    HW128337   5.337   1.608   4.351
 9146SOL    HW228338   5.268   1.499   4.451
 9147SOL     OW28339   4.321   6.901   6.261
 9147SOL    HW128340   4.250   6.851   6.309
 9147SOL    HW228341   4.314   6.999   6.283
 9148SOL     OW28342   3.681   5.545   2.341
 9148SOL    HW128343   3.647   5.471   2.283
 9148SOL    HW228344   3.627   5.627   2.325
 9149SOL     OW28345   1.200   3.875   1.542
 9149SOL    HW128346   1.278   3.877   1.481
 9149SOL    HW228347   1.115   3.874   1.489
 9150SOL     OW28348   3.989   3.644   6.897
 9150SOL    HW128349   3.976   3.635   6.798
 9150SOL    HW228350   3.983   3.553   6.940
 9151SOL     OW28351   2.115   3.906   3.434
 9151SOL    HW128352   2.185   3.968   3.398
 9151SOL    HW228353   2.045   3.958   3.483
 9152SOL     OW28354   1.801   5.419   1.928
 9152SOL    HW128355   1.773   5.332   1.970
 9152SOL    HW228356   1.900   5.419   1.915
 9153SOL     OW28357   0.580   3.531   0.796
 9153SOL    HW128358   0.627   3.598   0.739
 9153SOL    HW228359   0.573   3.444   0.746
 9154SOL     OW28360   4.503   5.464   3.341
 9154SOL    HW128361   4.507   5.434   3.245
 9154SOL    HW228362   4.408   5.462   3.372
 9155SOL     OW28363   0.595   6.440   2.576
 9155SOL    HW128364   0.673   6.457   2.636
 9155SOL    HW228365   0.521   6.504   2.599
 9156SOL     OW28366   6.731   4.538   5.783
 9156SOL    HW128367   6.694   4.583   5.702
 9156SOL    HW228368   6.713   4.593   5.864
 9157SOL     OW28369   1.967   4.824   4.962
 9157SOL    HW128370   1.902   4.752   4.935
 9157SOL    HW228371   2.060   4.794   4.940
 9158SOL     OW28372   6.874   2.389   4.087
 9158SOL    HW128373   6.964   2.345   4.091
 9158SOL    HW228374   6.844   2.395   3.991
 9159SOL     OW28375   2.149   0.990   3.364
 9159SOL    HW128376   2.245   1.011   3.386
 9159SOL    HW228377   2.089   1.033   3.433
 9160SOL     OW28378   0.421   3.546   6.589
 9160SOL    HW128379   0.402   3.573   6.683
 9160SOL    HW228380   0.507   3.496   6.586
 9161SOL     OW28381   5.722   3.183   2.957
 9161SOL    HW128382   5.731   3.234   2.871
 9161SOL    HW228383   5.800   3.122   2.967
 9162SOL     OW28384   5.641   2.341   1.874
 9162SOL    HW128385   5.729   2.326   1.829
 9162SOL    HW228386   5.627   2.271   1.944
 9163SOL     OW28387   1.344   3.460   3.087
 9163SOL    HW128388   1.414   3.527   3.063
 9163SOL    HW228389   1.374   3.408   3.167
 9164SOL     OW28390   4.246   0.976   0.788
 9164SOL    HW128391   4.207   0.888   0.763
 9164SOL    HW228392   4.287   0.970   0.878
 9165SOL     OW28393   6.832   0.307   6.756
 9165SOL    HW128394   6.883   0.387   6.724
 9165SOL    HW228395   6.820   0.313   6.855
 9166SOL     OW28396   4.264   5.690   2.137
 9166SOL    HW128397   4.175   5.701   2.093
 9166SOL    HW228398   4.256   5.628   2.214
 9167SOL     OW28399   0.468   2.314   4.973
 9167SOL    HW128400   0.410   2.234   4.956
 9167SOL    HW228401   0.560   2.284   4.998
 9168SOL     OW28402   6.006   6.216   4.993
 9168SOL    HW128403   6.087   6.194   4.937
 9168SOL    HW228404   5.926   6.223   4.934
 9169SOL     OW28405   5.818   5.909   0.309
 9169SOL    HW128406   5.858   5.900   0.218
 9169SOL    HW228407   5.812   5.819   0.353
 9170SOL     OW28408   1.313   6.810   5.131
 9170SOL    HW128409   1.316   6.910   5.122
 9170SOL    HW228410   1.339   6.784   5.224
 9171SOL     OW28411   4.719   5.771   6.694
 9171SOL    HW128412   4.738   5.855   6.642
 9171SOL    HW228413   4.802   5.715   6.698
 9172SOL     OW28414   5.473   0.719   5.913
 9172SOL    HW128415   5.389   0.694   5.961
 9172SOL    HW228416   5.521   0.636   5.884
 9173SOL     OW28417   6.253   3.952   6.827
 9173SOL    HW128418   6.189   3.902   6.885
 9173SOL    HW228419   6.318   4.001   6.885
 9174SOL     OW28420   5.850   5.064   0.119
 9174SOL    HW128421   5.786   5.127   0.162
 9174SOL    HW228422   5.835   4.972   0.155
 9175SOL     OW28423   2.195   1.100   1.566
 9175SOL    HW128424   2.285   1.082   1.606
 9175SOL    HW228425   2.191   1.061   1.474
 9176SOL     OW28426   1.392   6.735   2.299
 9176SOL    HW128427   1.423   6.724   2.204
 9176SOL    HW228428   1.380   6.833   2.318
 9177SOL     OW28429   0.293   5.569   3.706
 9177SOL    HW128430   0.311   5.472   3.689
 9177SOL    HW228431   0.380   5.617   3.718
 9178SOL     OW28432   0.996   3.184   0.880
 9178SOL    HW128433   1.016   3.222   0.789
 9178SOL    HW228434   0.926   3.240   0.924
 9179SOL     OW28435   3.819   5.825   2.763
 9179SOL    HW128436   3.861   5.892   2.824
 9179SOL    HW228437   3.753   5.870   2.703
 9180SOL     OW28438   0.630   1.176   4.632
 9180SOL    HW128439   0.608   1.160   4.535
 9180SOL    HW228440   0.718   1.135   4.653
 9181SOL     OW28441   2.982   1.815   2.847
 9181SOL    HW128442   3.064   1.806   2.791
 9181SOL    HW228443   2.992   1.761   2.930
 9182SOL     OW28444   6.575   1.344   2.927
 9182SOL    HW128445   6.580   1.437   2.891
 9182SOL    HW228446   6.615   1.281   2.861
 9183SOL     OW28447   3.396   1.839   5.408
 9183SOL    HW128448   3.342   1.889   5.476
 9183SOL    HW228449   3.436   1.905   5.344
 9184SOL     OW28450   2.891   6.079   0.639
 9184SOL    HW128451   2.885   5.979   0.638
 9184SOL    HW228452   2.983   6.107   0.663
 9185SOL     OW28453   0.794   1.216   5.028
 9185SOL    HW128454   0.748   1.156   5.094
 9185SOL    HW228455   0.790   1.310   5.061
 9186SOL     OW28456   5.068   6.392   5.734
 9186SOL    HW128457   5.130   6.447   5.790
 9186SOL    HW228458   5.054   6.303   5.779
 9187SOL     OW28459   5.147   3.488   1.362
 9187SOL    HW128460   5.097   3.449   1.285
 9187SOL    HW228461   5.129   3.587   1.366
 9188SOL     OW28462   1.170   0.969   2.595
 9188SOL    HW128463   1.204   0.897   2.656
 9188SOL    HW228464   1.092   0.935   2.543
 9189SOL     OW28465   2.955   0.700   6.890
 9189SOL    HW128466   3.003   0.643   6.823
 9189SOL    HW228467   3.019   0.730   6.960
 9190SOL     OW28468   3.440   0.995   5.762
 9190SOL    HW128469   3.437   1.095   5.760
 9190SOL    HW228470   3.501   0.962   5.690
 9191SOL     OW28471   4.998   0.109   1.870
 9191SOL    HW128472   4.934   0.184   1.853
 9191SOL    HW228473   5.024   0.068   1.782
 9192SOL     OW28474   4.192   4.883   3.722
 9192SOL    HW128475   4.209   4.953   3.652
 9192SOL    HW228476   4.096   4.855   3.718
 9193SOL     OW28477   3.937   3.901   2.207
 9193SOL    HW128478   3.987   3.883   2.292
 9193SOL    HW228479   3.865   3.969   2.224
 9194SOL     OW28480   2.826   5.448   3.508
 9194SOL    HW128481   2.763   5.371   3.521
 9194SOL    HW228482   2.864   5.476   3.596
 9195SOL     OW28483   0.393   3.224   3.351
 9195SOL    HW128484   0.344   3.201   3.434
 9195SOL    HW228485   0.400   3.323   3.342
 9196SOL     OW28486   5.756   5.357   2.994
 9196SOL    HW128487   5.815   5.288   2.951
 9196SOL    HW228488   5.757   5.343   3.094
 9197SOL     OW28489   4.351   2.321   6.376
 9197SOL    HW128490   4.361   2.368   6.289
 9197SOL    HW228491   4.282   2.368   6.432
 9198SOL     OW28492   6.406   2.518   4.613
 9198SOL    HW128493   6.463   2.452   4.564
 9198SOL    HW228494   6.448   2.539   4.702
 9199SOL     OW28495   0.946   3.739   0.173
 9199SOL    HW128496   0.991   3.825   0.196
 9199SOL    HW228497   0.877   3.755   0.103
 9200SOL     OW28498   4.717   5.920   2.120
 9200SOL    HW128499   4.754   6.000   2.167
 9200SOL    HW228500   4.674   5.949   2.034
 9201SOL     OW28501   0.395   2.841   2.523
 9201SOL    HW128502   0.463   2.796   2.464
 9201SOL    HW228503   0.347   2.771   2.577
 9202SOL     OW28504   2.101   5.934   3.469
 9202SOL    HW128505   2.110   6.013   3.530
 9202SOL    HW228506   2.115   5.850   3.521
 9203SOL     OW28507   5.088   2.084   0.178
 9203SOL    HW128508   5.124   2.108   0.268
 9203SOL    HW228509   5.163   2.079   0.112
 9204SOL     OW28510   4.894   4.151   1.389
 9204SOL    HW128511   4.957   4.104   1.327
 9204SOL    HW228512   4.857   4.232   1.343
 9205SOL     OW28513   4.457   2.753   0.864
 9205SOL    HW128514   4.554   2.742   0.886
 9205SOL    HW228515   4.415   2.663   0.850
 9206SOL     OW28516   6.717   0.409   5.140
 9206SOL    HW128517   6.813   0.384   5.153
 9206SOL    HW228518   6.695   0.409   5.043
 9207SOL     OW28519   6.067   6.187   0.875
 9207SOL    HW128520   5.969   6.166   0.881
 9207SOL    HW228521   6.079   6.271   0.821
 9208SOL     OW28522   6.177   4.179   1.559
 9208SOL    HW128523   6.129   4.186   1.647
 9208SOL    HW228524   6.185   4.083   1.533
 9209SOL     OW28525   5.065   0.696   4.496
 9209SOL    HW128526   5.091   0.715   4.401
 9209SOL    HW228527   5.013   0.773   4.532
 9210SOL     OW28528   1.863   6.897   0.491
 9210SOL    HW128529   1.924   6.833   0.444
 9210SOL    HW228530   1.814   6.951   0.423
 9211SOL     OW28531   5.358   1.132   6.260
 9211SOL    HW128532   5.411   1.104   6.180
 9211SOL    HW228533   5.322   1.224   6.245
 9212SOL     OW28534   6.037   3.734   6.603
 9212SOL    HW128535   6.085   3.694   6.524
 9212SOL    HW228536   5.982   3.812   6.572
 9213SOL     OW28537   0.492   5.517   3.267
 9213SOL    HW128538   0.469   5.605   3.226
 9213SOL    HW228539   0.408   5.470   3.294
 9214SOL     OW28540   1.682   1.252   5.578
 9214SOL    HW128541   1.601   1.299   5.543
 9214SOL    HW228542   1.764   1.294   5.539
 9215SOL     OW28543   6.817   4.191   3.878
 9215SOL    HW128544   6.912   4.199   3.908
 9215SOL    HW228545   6.768   4.129   3.940
 9216SOL     OW28546   1.644   0.061   3.222
 9216SOL    HW128547   1.735   0.047   3.261
 9216SOL    HW228548   1.613   6.995   3.181
 9217SOL     OW28549   3.745   2.601   0.359
 9217SOL    HW128550   3.647   2.583   0.364
 9217SOL    HW228551   3.761   2.700   0.359
 9218SOL     OW28552   5.086   5.695   5.905
 9218SOL    HW128553   5.072   5.653   5.995
 9218SOL    HW228554   5.056   5.790   5.907
 9219SOL     OW28555   3.901   3.250   5.930
 9219SOL    HW128556   3.855   3.196   5.860
 9219SOL    HW228557   3.843   3.255   6.012
 9220SOL     OW28558   0.814   6.544   3.533
 9220SOL    HW128559   0.805   6.535   3.632
 9220SOL    HW228560   0.799   6.639   3.507
 9221SOL     OW28561   2.591   1.625   2.143
 9221SOL    HW128562   2.562   1.661   2.232
 9221SOL    HW228563   2.522   1.562   2.108
 9222SOL     OW28564   2.539   5.833   3.326
 9222SOL    HW128565   2.627   5.817   3.369
 9222SOL    HW228566   2.490   5.905   3.375
 9223SOL     OW28567   6.093   1.983   4.848
 9223SOL    HW128568   6.088   2.080   4.872
 9223SOL    HW228569   6.179   1.944   4.883
 9224SOL     OW28570   1.662   5.906   2.784
 9224SOL    HW128571   1.716   5.835   2.738
 9224SOL    HW228572   1.711   5.936   2.866
 9225SOL     OW28573   0.201   6.027   5.379
 9225SOL    HW128574   0.172   6.039   5.284
 9225SOL    HW228575   0.143   5.960   5.423
 9226SOL     OW28576   0.633   6.660   4.793
 9226SOL    HW128577   0.678   6.703   4.871
 9226SOL    HW228578   0.597   6.731   4.732
 9227SOL     OW28579   4.240   2.953   0.724
 9227SOL    HW128580   4.274   2.915   0.810
 9227SOL    HW228581   4.200   3.043   0.741
 9228SOL     OW28582   3.454   3.791   4.234
 9228SOL    HW128583   3.532   3.786   4.172
 9228SOL    HW228584   3.379   3.841   4.190
 9229SOL     OW28585   0.315   6.177   1.290
 9229SOL    HW128586   0.288   6.138   1.201
 9229SOL    HW228587   0.233   6.194   1.345
 9230SOL     OW28588   3.597   6.931   5.800
 9230SOL    HW128589   3.687   6.894   5.780
 9230SOL    HW228590   3.555   6.964   5.715
 9231SOL     OW28591   5.416   6.279   1.701
 9231SOL    HW128592   5.373   6.189   1.707
 9231SOL    HW228593   5.407   6.314   1.607
 9232SOL     OW28594   1.060   5.048   1.956
 9232SOL    HW128595   1.025   5.009   1.871
 9232SOL    HW228596   1.133   5.113   1.936
 9233SOL     OW28597   1.080   0.395   5.836
 9233SOL    HW128598   1.156   0.334   5.859
 9233SOL    HW228599   1.093   0.483   5.881
 9234SOL     OW28600   3.105   4.156   0.138
 9234SOL    HW128601   3.071   4.192   0.225
 9234SOL    HW228602   3.108   4.229   0.071
 9235SOL     OW28603   1.619   2.297   2.441
 9235SOL    HW128604   1.614   2.314   2.343
 9235SOL    HW228605   1.576   2.373   2.491
 9236SOL     OW28606   1.684   3.959   6.426
 9236SOL    HW128607   1.633   3.952   6.340
 9236SOL    HW228608   1.777   3.992   6.407
 9237SOL     OW28609   6.706   5.951   3.690
 9237SOL    HW128610   6.615   5.960   3.732
 9237SOL    HW228611   6.767   6.020   3.728
 9238SOL     OW28612   1.811   2.951   5.154
 9238SOL    HW128613   1.877   2.877   5.142
 9238SOL    HW228614   1.859   3.034   5.183
 9239SOL     OW28615   2.214   5.982   6.443
 9239SOL    HW128616   2.119   6.003   6.465
 9239SOL    HW228617   2.217   5.910   6.374
 9240SOL     OW28618   3.772   1.337   4.949
 9240SOL    HW128619   3.800   1.326   4.853
 9240SOL    HW228620   3.736   1.250   4.983
 9241SOL     OW28621   5.114   6.212   6.907
 9241SOL    HW128622   5.170   6.158   6.970
 9241SOL    HW228623   5.126   6.178   6.814
 9242SOL     OW28624   2.460   2.815   7.015
 9242SOL    HW128625   2.418   2.726   0.016
 9242SOL    HW228626   2.429   2.882   0.063
 9243SOL     OW28627   2.369   6.954   0.061
 9243SOL    HW128628   2.382   0.012   0.123
 9243SOL    HW228629   2.393   6.983   6.987
 9244SOL     OW28630   3.076   6.520   6.291
 9244SOL    HW128631   3.096   6.536   6.194
 9244SOL    HW228632   3.159   6.493   6.339
 9245SOL     OW28633   0.421   4.077   3.708
 9245SOL    HW128634   0.371   3.991   3.710
 9245SOL    HW228635   0.510   4.065   3.753
 9246SOL     OW28636   4.971   1.927   6.650
 9246SOL    HW128637   4.955   1.955   6.745
 9246SOL    HW228638   4.997   2.007   6.596
 9247SOL     OW28639   3.110   6.361   2.657
 9247SOL    HW128640   3.013   6.384   2.655
 9247SOL    HW228641   3.122   6.272   2.702
 9248SOL     OW28642   3.037   0.276   6.301
 9248SOL    HW128643   2.988   0.321   6.376
 9248SOL    HW228644   3.122   0.237   6.336
 9249SOL     OW28645   2.960   1.673   0.498
 9249SOL    HW128646   2.892   1.721   0.555
 9249SOL    HW228647   2.913   1.618   0.430
 9250SOL     OW28648   0.931   3.507   1.787
 9250SOL    HW128649   0.985   3.459   1.717
 9250SOL    HW228650   0.992   3.543   1.857
 9251SOL     OW28651   4.056   1.583   0.953
 9251SOL    HW128652   3.990   1.547   0.887
 9251SOL    HW228653   4.061   1.682   0.944
 9252SOL     OW28654   5.758   1.616   4.609
 9252SOL    HW128655   5.793   1.658   4.693
 9252SOL    HW228656   5.662   1.594   4.620
 9253SOL     OW28657   2.597   5.217   3.585
 9253SOL    HW128658   2.665   5.143   3.584
 9253SOL    HW228659   2.600   5.263   3.674
 9254SOL     OW28660   6.332   5.615   2.052
 9254SOL    HW128661   6.368   5.614   1.959
 9254SOL    HW228662   6.270   5.693   2.063
 9255SOL     OW28663   0.420   3.447   1.894
 9255SOL    HW128664   0.494   3.467   1.830
 9255SOL    HW228665   0.453   3.382   1.963
 9256SOL     OW28666   1.542   6.335   0.699
 9256SOL    HW128667   1.453   6.370   0.667
 9256SOL    HW228668   1.540   6.235   0.700
 9257SOL     OW28669   6.426   6.674   5.452
 9257SOL    HW128670   6.426   6.646   5.548
 9257SOL    HW228671   6.520   6.692   5.423
 9258SOL     OW28672   4.894   3.509   2.944
 9258SOL    HW128673   4.992   3.488   2.935
 9258SOL    HW228674   4.850   3.499   2.855
 9259SOL     OW28675   1.009   3.133   6.149
 9259SOL    HW128676   0.927   3.142   6.093
 9259SOL    HW228677   1.073   3.070   6.104
 9260SOL     OW28678   5.249   4.713   5.197
 9260SOL    HW128679   5.233   4.806   5.162
 9260SOL    HW228680   5.215   4.646   5.130
 9261SOL     OW28681   1.331   2.690   1.016
 9261SOL    HW128682   1.305   2.683   0.919
 9261SOL    HW228683   1.320   2.601   1.060
 9262SOL     OW28684   6.301   6.373   6.074
 9262SOL    HW128685   6.363   6.436   6.027
 9262SOL    HW228686   6.208   6.409   6.069
 9263SOL     OW28687   2.354   4.580   2.535
 9263SOL    HW128688   2.266   4.533   2.537
 9263SOL    HW228689   2.417   4.531   2.476
 9264SOL     OW28690   5.948   3.744   5.495
 9264SOL    HW128691   5.859   3.701   5.482
 9264SOL    HW228692   5.937   3.843   5.499
 9265SOL     OW28693   4.118   0.377   1.906
 9265SOL    HW128694   4.163   0.374   1.995
 9265SOL    HW228695   4.181   0.413   1.838
 9266SOL     OW28696   6.836   4.637   1.278
 9266SOL    HW128697   6.860   4.587   1.361
 9266SOL    HW228698   6.741   4.669   1.286
 9267SOL     OW28699   6.627   1.118   3.129
 9267SOL    HW128700   6.632   1.196   3.192
 9267SOL    HW228701   6.582   1.146   3.045
 9268SOL     OW28702   0.298   0.212   0.772
 9268SOL    HW128703   0.246   0.222   0.856
 9268SOL    HW228704   0.382   0.162   0.790
 9269SOL     OW28705   3.750   6.389   1.472
 9269SOL    HW128706   3.711   6.368   1.561
 9269SOL    HW228707   3.679   6.425   1.412
 9270SOL     OW28708   1.814   1.126   5.324
 9270SOL    HW128709   1.909   1.098   5.334
 9270SOL    HW228710   1.809   1.226   5.319
 9271SOL     OW28711   1.277   4.772   5.575
 9271SOL    HW128712   1.317   4.863   5.586
 9271SOL    HW228713   1.346   4.703   5.594
 9272SOL     OW28714   6.359   6.565   6.301
 9272SOL    HW128715   6.315   6.514   6.227
 9272SOL    HW228716   6.290   6.619   6.349
 9273SOL     OW28717   6.586   4.009   3.478
 9273SOL    HW128718   6.584   4.006   3.578
 9273SOL    HW228719   6.552   4.098   3.447
 9274SOL     OW28720   6.896   3.225   1.293
 9274SOL    HW128721   6.899   3.238   1.194
 9274SOL    HW228722   6.885   3.313   1.339
 9275SOL     OW28723   4.553   1.862   0.540
 9275SOL    HW128724   4.541   1.832   0.635
 9275SOL    HW228725   4.542   1.783   0.479
 9276SOL     OW28726   1.131   4.164   0.695
 9276SOL    HW128727   1.195   4.191   0.767
 9276SOL    HW228728   1.182   4.117   0.622
 9277SOL     OW28729   3.107   6.109   3.182
 9277SOL    HW128730   3.203   6.089   3.162
 9277SOL    HW228731   3.057   6.023   3.197
 9278SOL     OW28732   1.320   6.711   4.720
 9278SOL    HW128733   1.397   6.668   4.672
 9278SOL    HW228734   1.329   6.811   4.715
 9279SOL     OW28735   3.904   5.973   2.184
 9279SOL    HW128736   3.901   5.911   2.262
 9279SOL    HW228737   3.952   6.057   2.210
 9280SOL     OW28738   1.406   4.331   1.767
 9280SOL    HW128739   1.449   4.279   1.694
 9280SOL    HW228740   1.426   4.288   1.855
 9281SOL     OW28741   1.411   5.728   0.521
 9281SOL    HW128742   1.347   5.654   0.499
 9281SOL    HW228743   1.501   5.707   0.484
 9282SOL     OW28744   1.995   0.934   3.684
 9282SOL    HW128745   1.955   0.845   3.661
 9282SOL    HW228746   1.973   1.000   3.613
 9283SOL     OW28747   5.580   4.927   6.435
 9283SOL    HW128748   5.569   4.965   6.527
 9283SOL    HW228749   5.571   4.828   6.438
 9284SOL     OW28750   3.976   6.182   1.817
 9284SOL    HW128751   3.886   6.219   1.793
 9284SOL    HW228752   4.040   6.201   1.742
 9285SOL     OW28753   6.988   5.681   3.377
 9285SOL    HW128754   0.044   5.676   3.312
 9285SOL    HW228755   6.928   5.756   3.353
 9286SOL     OW28756   5.478   5.864   1.521
 9286SOL    HW128757   5.404   5.822   1.574
 9286SOL    HW228758   5.551   5.893   1.583
 9287SOL     OW28759   4.379   3.985   0.734
 9287SOL    HW128760   4.322   4.032   0.802
 9287SOL    HW228761   4.342   3.894   0.716
 9288SOL     OW28762   3.325   0.880   3.400
 9288SOL    HW128763   3.231   0.915   3.403
 9288SOL    HW228764   3.366   0.888   3.491
 9289SOL     OW28765   4.392   5.980   2.368
 9289SOL    HW128766   4.443   6.013   2.447
 9289SOL    HW228767   4.411   5.883   2.354
 9290SOL     OW28768   5.340   0.519   3.864
 9290SOL    HW128769   5.364   0.427   3.833
 9290SOL    HW228770   5.390   0.587   3.811
 9291SOL     OW28771   0.160   5.147   5.501
 9291SOL    HW128772   0.198   5.075   5.443
 9291SOL    HW228773   0.208   5.149   5.588
 9292SOL     OW28774   1.870   1.972   6.949
 9292SOL    HW128775   1.851   1.877   6.975
 9292SOL    HW228776   1.831   2.033   7.018
 9293SOL     OW28777   4.003   1.210   5.993
 9293SOL    HW128778   4.012   1.308   6.012
 9293SOL    HW228779   4.061   1.158   6.056
 9294SOL     OW28780   5.209   6.498   5.956
 9294SOL    HW128781   5.131   6.503   6.018
 9294SOL    HW228782   5.277   6.566   5.982
 9295SOL     OW28783   6.180   0.448   2.970
 9295SOL    HW128784   6.265   0.410   3.005
 9295SOL    HW228785   6.191   0.474   2.874
 9296SOL     OW28786   2.439   3.184   5.678
 9296SOL    HW128787   2.445   3.165   5.580
 9296SOL    HW228788   2.493   3.265   5.700
 9297SOL     OW28789   7.018   5.588   1.893
 9297SOL    HW128790   6.971   5.602   1.980
 9297SOL    HW228791   0.097   5.579   1.908
 9298SOL     OW28792   6.493   4.789   6.852
 9298SOL    HW128793   6.500   4.693   6.880
 9298SOL    HW228794   6.584   4.827   6.836
 9299SOL     OW28795   3.438   1.952   4.178
 9299SOL    HW128796   3.413   2.032   4.233
 9299SOL    HW228797   3.452   1.873   4.238
 9300SOL     OW28798   2.464   5.978   5.992
 9300SOL    HW128799   2.446   6.056   6.052
 9300SOL    HW228800   2.384   5.918   5.992
 9301SOL     OW28801   0.068   3.353   4.115
 9301SOL    HW128802   0.136   3.288   4.084
 9301SOL    HW228803   7.013   3.305   4.162
 9302SOL     OW28804   2.968   5.935   4.024
 9302SOL    HW128805   2.982   5.872   4.100
 9302SOL    HW228806   2.873   5.929   3.993
 9303SOL     OW28807   3.131   4.345   6.930
 9303SOL    HW128808   3.049   4.289   6.936
 9303SOL    HW228809   3.168   4.340   6.838
 9304SOL     OW28810   6.123   5.633   6.671
 9304SOL    HW128811   6.173   5.555   6.634
 9304SOL    HW228812   6.173   5.717   6.651
 9305SOL     OW28813   2.274   1.659   0.902
 9305SOL    HW128814   2.266   1.568   0.944
 9305SOL    HW228815   2.353   1.660   0.840
 9306SOL     OW28816   6.577   6.401   3.830
 9306SOL    HW128817   6.535   6.490   3.848
 9306SOL    HW228818   6.554   6.372   3.737
 9307SOL     OW28819   1.759   4.180   0.671
 9307SOL    HW128820   1.780   4.277   0.679
 9307SOL    HW228821   1.776   4.150   0.577
 9308SOL     OW28822   2.486   3.341   0.972
 9308SOL    HW128823   2.489   3.411   1.044
 9308SOL    HW228824   2.410   3.278   0.990
 9309SOL     OW28825   3.589   5.259   6.236
 9309SOL    HW128826   3.603   5.303   6.147
 9309SOL    HW228827   3.674   5.214   6.264
 9310SOL     OW28828   6.438   6.577   5.984
 9310SOL    HW128829   6.510   6.624   6.034
 9310SOL    HW228830   6.358   6.636   5.977
 9311SOL     OW28831   5.291   4.653   7.012
 9311SOL    HW128832   5.330   4.623   0.080
 9311SOL    HW228833   5.365   4.679   6.950
 9312SOL     OW28834   6.395   3.397   4.138
 9312SOL    HW128835   6.351   3.379   4.050
 9312SOL    HW228836   6.425   3.311   4.178
 9313SOL     OW28837   0.392   0.000   1.901
 9313SOL    HW128838   0.361   6.952   1.969
 9313SOL    HW228839   0.341   0.085   1.914
 9314SOL     OW28840   5.681   4.752   1.592
 9314SOL    HW128841   5.658   4.731   1.498
 9314SOL    HW228842   5.673   4.669   1.648
 9315SOL     OW28843   5.230   5.415   5.480
 9315SOL    HW128844   5.323   5.428   5.446
 9315SOL    HW228845   5.201   5.496   5.532
 9316SOL     OW28846   5.689   5.661   6.695
 9316SOL    HW128847   5.633   5.578   6.689
 9316SOL    HW228848   5.630   5.740   6.714
 9317SOL     OW28849   2.740   6.716   2.892
 9317SOL    HW128850   2.771   6.782   2.961
 9317SOL    HW228851   2.641   6.707   2.896
 9318SOL     OW28852   3.445   0.071   3.810
 9318SOL    HW128853   3.435   0.068   3.910
 9318SOL    HW228854   3.524   0.016   3.783
 9319SOL     OW28855   3.841   2.390   0.770
 9319SOL    HW128856   3.769   2.409   0.838
 9319SOL    HW228857   3.856   2.471   0.714
 9320SOL     OW28858   6.604   6.929   6.971
 9320SOL    HW128859   6.520   6.982   6.955
 9320SOL    HW228860   6.664   6.980   0.013
 9321SOL     OW28861   1.274   2.697   4.197
 9321SOL    HW128862   1.206   2.718   4.126
 9321SOL    HW228863   1.334   2.775   4.210
 9322SOL     OW28864   5.133   3.745   0.962
 9322SOL    HW128865   5.109   3.663   0.911
 9322SOL    HW228866   5.073   3.820   0.934
 9323SOL     OW28867   0.760   2.691   4.939
 9323SOL    HW128868   0.860   2.694   4.947
 9323SOL    HW228869   0.720   2.679   5.030
 9324SOL     OW28870   0.957   4.221   1.634
 9324SOL    HW128871   0.984   4.129   1.664
 9324SOL    HW228872   0.971   4.230   1.536
 9325SOL     OW28873   0.080   4.230   2.733
 9325SOL    HW128874   0.080   4.205   2.829
 9325SOL    HW228875   0.119   4.321   2.722
 9326SOL     OW28876   3.789   4.809   1.224
 9326SOL    HW128877   3.774   4.816   1.322
 9326SOL    HW228878   3.713   4.854   1.176
 9327SOL     OW28879   1.745   2.107   3.263
 9327SOL    HW128880   1.686   2.148   3.332
 9327SOL    HW228881   1.800   2.035   3.305
 9328SOL     OW28882   0.781   0.305   3.511
 9328SOL    HW128883   0.745   0.357   3.433
 9328SOL    HW228884   0.735   0.335   3.595
 9329SOL     OW28885   1.577   4.873   6.171
 9329SOL    HW128886   1.576   4.918   6.082
 9329SOL    HW228887   1.485   4.844   6.195
 9330SOL     OW28888   0.628   6.257   0.804
 9330SOL    HW128889   0.656   6.233   0.897
 9330SOL    HW228890   0.617   6.356   0.797
 9331SOL     OW28891   2.582   5.146   4.968
 9331SOL    HW128892   2.522   5.177   5.042
 9331SOL    HW228893   2.574   5.047   4.959
 9332SOL     OW28894   6.380   6.016   0.416
 9332SOL    HW128895   6.476   6.003   0.390
 9332SOL    HW228896   6.322   5.957   0.360
 9333SOL     OW28897   1.131   5.500   0.969
 9333SOL    HW128898   1.196   5.425   0.958
 9333SOL    HW228899   1.175   5.575   1.021
 9334SOL     OW28900   0.202   6.636   0.272
 9334SOL    HW128901   0.201   6.575   0.351
 9334SOL    HW228902   0.296   6.651   0.242
 9335SOL     OW28903   6.983   3.643   0.912
 9335SOL    HW128904   0.059   3.614   0.917
 9335SOL    HW228905   6.979   3.741   0.896
 9336SOL     OW28906   4.181   5.575   5.574
 9336SOL    HW128907   4.199   5.549   5.479
 9336SOL    HW228908   4.098   5.630   5.579
 9337SOL     OW28909   3.029   1.791   4.569
 9337SOL    HW128910   3.071   1.870   4.524
 9337SOL    HW228911   3.062   1.785   4.663
 9338SOL     OW28912   4.346   0.076   1.543
 9338SOL    HW128913   4.280   0.018   1.592
 9338SOL    HW228914   4.389   0.139   1.607
 9339SOL     OW28915   0.215   3.528   4.427
 9339SOL    HW128916   0.306   3.569   4.429
 9339SOL    HW228917   0.161   3.561   4.505
 9340SOL     OW28918   2.716   4.687   2.181
 9340SOL    HW128919   2.752   4.648   2.096
 9340SOL    HW228920   2.655   4.763   2.160
 9341SOL     OW28921   5.323   5.721   1.673
 9341SOL    HW128922   5.232   5.681   1.688
 9341SOL    HW228923   5.381   5.703   1.752
 9342SOL     OW28924   2.939   0.487   4.892
 9342SOL    HW128925   3.029   0.527   4.911
 9342SOL    HW228926   2.942   0.442   4.803
 9343SOL     OW28927   5.623   4.028   1.202
 9343SOL    HW128928   5.620   4.099   1.131
 9343SOL    HW228929   5.699   4.045   1.263
 9344SOL     OW28930   5.406   6.391   4.982
 9344SOL    HW128931   5.327   6.446   4.955
 9344SOL    HW228932   5.486   6.449   4.990
 9345SOL     OW28933   6.983   4.936   6.139
 9345SOL    HW128934   6.920   4.978   6.073
 9345SOL    HW228935   0.036   5.001   6.162
 9346SOL     OW28936   5.036   0.870   2.268
 9346SOL    HW128937   5.025   0.964   2.299
 9346SOL    HW228938   4.983   0.855   2.185
 9347SOL     OW28939   4.490   6.742   2.259
 9347SOL    HW128940   4.398   6.747   2.218
 9347SOL    HW228941   4.499   6.656   2.310
 9348SOL     OW28942   2.476   5.087   1.918
 9348SOL    HW128943   2.447   5.168   1.867
 9348SOL    HW228944   2.545   5.113   1.986
 9349SOL     OW28945   0.535   4.707   1.440
 9349SOL    HW128946   0.552   4.650   1.520
 9349SOL    HW228947   0.511   4.800   1.469
 9350SOL     OW28948   6.326   0.535   6.899
 9350SOL    HW128949   6.426   0.544   6.908
 9350SOL    HW228950   6.305   0.466   6.830
 9351SOL     OW28951   4.492   4.029   6.408
 9351SOL    HW128952   4.404   3.983   6.425
 9351SOL    HW228953   4.559   3.962   6.376
 9352SOL     OW28954   2.593   1.742   0.070
 9352SOL    HW128955   2.662   1.777   0.006
 9352SOL    HW228956   2.623   1.759   0.164
 9353SOL     OW28957   1.099   3.220   2.154
 9353SOL    HW128958   1.144   3.172   2.230
 9353SOL    HW228959   1.161   3.223   2.075
 9354SOL     OW28960   5.833   1.998   2.264
 9354SOL    HW128961   5.863   1.916   2.215
 9354SOL    HW228962   5.904   2.027   2.327
 9355SOL     OW28963   0.384   2.068   2.048
 9355SOL    HW128964   0.315   2.095   1.980
 9355SOL    HW228965   0.362   2.110   2.136
 9356SOL     OW28966   4.404   2.391   2.139
 9356SOL    HW128967   4.345   2.311   2.141
 9356SOL    HW228968   4.407   2.432   2.230
 9357SOL     OW28969   2.223   4.235   6.856
 9357SOL    HW128970   2.236   4.330   6.884
 9357SOL    HW228971   2.202   4.179   6.935
 9358SOL     OW28972   5.593   4.405   3.193
 9358SOL    HW128973   5.524   4.469   3.160
 9358SOL    HW228974   5.579   4.316   3.149
 9359SOL     OW28975   3.997   5.215   5.290
 9359SOL    HW128976   4.041   5.215   5.200
 9359SOL    HW228977   4.013   5.127   5.335
 9360SOL     OW28978   0.808   0.260   5.415
 9360SOL    HW128979   0.809   0.356   5.439
 9360SOL    HW228980   0.888   0.214   5.454
 9361SOL     OW28981   1.221   1.477   2.369
 9361SOL    HW128982   1.235   1.378   2.356
 9361SOL    HW228983   1.128   1.494   2.402
 9362SOL     OW28984   1.322   1.635   3.151
 9362SOL    HW128985   1.376   1.714   3.179
 9362SOL    HW228986   1.310   1.572   3.228
 9363SOL     OW28987   1.055   6.194   2.369
 9363SOL    HW128988   1.147   6.179   2.405
 9363SOL    HW228989   1.028   6.117   2.312
 9364SOL     OW28990   5.553   4.283   0.732
 9364SOL    HW128991   5.594   4.210   0.787
 9364SOL    HW228992   5.457   4.260   0.715
 9365SOL     OW28993   2.371   1.359   4.272
 9365SOL    HW128994   2.392   1.268   4.308
 9365SOL    HW228995   2.386   1.427   4.343
 9366SOL     OW28996   2.937   1.639   1.538
 9366SOL    HW128997   2.863   1.586   1.496
 9366SOL    HW228998   2.993   1.579   1.596
 9367SOL     OW28999   5.184   6.848   4.316
 9367SOL    HW129000   5.173   6.885   4.408
 9367SOL    HW229001   5.094   6.844   4.271
 9368SOL     OW29002   5.643   2.978   0.911
 9368SOL    HW129003   5.687   3.014   0.993
 9368SOL    HW229004   5.712   2.937   0.851
 9369SOL     OW29005   0.445   2.161   5.464
 9369SOL    HW129006   0.437   2.087   5.397
 9369SOL    HW229007   0.437   2.124   5.556
 9370SOL     OW29008   5.519   5.564   2.189
 9370SOL    HW129009   5.534   5.480   2.137
 9370SOL    HW229010   5.581   5.635   2.156
 9371SOL     OW29011   1.995   6.730   0.321
 9371SOL    HW129012   1.937   6.658   0.284
 9371SOL    HW229013   2.033   6.784   0.245
 9372SOL     OW29014   5.379   5.383   0.668
 9372SOL    HW129015   5.313   5.440   0.716
 9372SOL    HW229016   5.359   5.385   0.570
 9373SOL     OW29017   4.863   2.657   4.298
 9373SOL    HW129018   4.918   2.677   4.217
 9373SOL    HW229019   4.786   2.598   4.272
 9374SOL     OW29020   5.357   3.987   6.864
 9374SOL    HW129021   5.286   3.917   6.875
 9374SOL    HW229022   5.365   4.010   6.767
 9375SOL     OW29023   6.412   6.715   4.441
 9375SOL    HW129024   6.507   6.699   4.467
 9375SOL    HW229025   6.388   6.811   4.461
 9376SOL     OW29026   2.702   3.470   1.672
 9376SOL    HW129027   2.728   3.496   1.765
 9376SOL    HW229028   2.602   3.475   1.662
 9377SOL     OW29029   6.839   4.480   3.871
 9377SOL    HW129030   6.809   4.385   3.861
 9377SOL    HW229031   6.782   4.539   3.814
 9378SOL     OW29032   4.225   5.936   1.410
 9378SOL    HW129033   4.233   5.870   1.335
 9378SOL    HW229034   4.135   5.979   1.407
 9379SOL     OW29035   4.604   4.581   5.174
 9379SOL    HW129036   4.523   4.538   5.135
 9379SOL    HW229037   4.686   4.551   5.125
 9380SOL     OW29038   0.031   5.522   5.450
 9380SOL    HW129039   6.987   5.455   5.410
 9380SOL    HW229040   0.081   5.479   5.526
 9381SOL     OW29041   0.982   0.672   0.137
 9381SOL    HW129042   0.911   0.634   0.078
 9381SOL    HW229043   0.967   0.642   0.231
 9382SOL     OW29044   5.621   2.344   2.275
 9382SOL    HW129045   5.599   2.251   2.304
 9382SOL    HW229046   5.707   2.373   2.317
 9383SOL     OW29047   6.902   5.263   6.836
 9383SOL    HW129048   6.806   5.245   6.858
 9383SOL    HW229049   6.910   5.288   6.740
 9384SOL     OW29050   3.434   7.005   2.398
 9384SOL    HW129051   3.449   6.939   2.471
 9384SOL    HW229052   3.453   6.962   2.309
 9385SOL     OW29053   3.838   6.037   3.593
 9385SOL    HW129054   3.822   6.085   3.679
 9385SOL    HW229055   3.768   5.966   3.581
 9386SOL     OW29056   3.336   6.601   4.891
 9386SOL    HW129057   3.435   6.595   4.903
 9386SOL    HW229058   3.305   6.693   4.916
 9387SOL     OW29059   4.655   6.040   0.661
 9387SOL    HW129060   4.656   6.017   0.564
 9387SOL    HW229061   4.577   6.100   0.680
 9388SOL     OW29062   6.536   0.027   1.382
 9388SOL    HW129063   6.575   0.025   1.290
 9388SOL    HW229064   6.570   0.106   1.431
 9389SOL     OW29065   3.193   1.131   0.869
 9389SOL    HW129066   3.245   1.201   0.820
 9389SOL    HW229067   3.235   1.114   0.958
 9390SOL     OW29068   3.431   6.256   0.774
 9390SOL    HW129069   3.357   6.294   0.720
 9390SOL    HW229070   3.395   6.220   0.860
 9391SOL     OW29071   5.688   0.434   3.871
 9391SOL    HW129072   5.647   0.395   3.953
 9391SOL    HW229073   5.665   0.378   3.792
 9392SOL     OW29074   1.011   6.776   5.259
 9392SOL    HW129075   0.958   6.852   5.298
 9392SOL    HW229076   1.107   6.802   5.254
 9393SOL     OW29077   4.783   1.694   5.453
 9393SOL    HW129078   4.736   1.668   5.368
 9393SOL    HW229079   4.785   1.615   5.515
 9394SOL     OW29080   6.372   1.784   2.394
 9394SOL    HW129081   6.465   1.746   2.388
 9394SOL    HW229082   6.352   1.834   2.310
 9395SOL     OW29083   2.010   2.949   6.867
 9395SOL    HW129084   1.929   2.999   6.835
 9395SOL    HW229085   2.000   2.929   6.964
 9396SOL     OW29086   0.545   1.193   5.718
 9396SOL    HW129087   0.625   1.145   5.683
 9396SOL    HW229088   0.546   1.287   5.684
 9397SOL     OW29089   1.738   2.119   1.154
 9397SOL    HW129090   1.822   2.153   1.196
 9397SOL    HW229091   1.664   2.184   1.169
 9398SOL     OW29092   2.319   1.868   1.448
 9398SOL    HW129093   2.273   1.906   1.368
 9398SOL    HW229094   2.309   1.769   1.448
 9399SOL     OW29095   0.038   0.681   5.359
 9399SOL    HW129096   0.020   0.772   5.396
 9399SOL    HW229097   0.129   0.679   5.318
 9400SOL     OW29098   3.951   1.380   3.573
 9400SOL    HW129099   3.925   1.444   3.646
 9400SOL    HW229100   4.048   1.359   3.582
 9401SOL     OW29101   3.946   6.649   3.901
 9401SOL    HW129102   4.032   6.692   3.874
 9401SOL    HW229103   3.950   6.551   3.883
 9402SOL     OW29104   2.581   4.844   5.967
 9402SOL    HW129105   2.662   4.835   5.908
 9402SOL    HW229106   2.561   4.942   5.980
 9403SOL     OW29107   5.913   0.311   4.439
 9403SOL    HW129108   5.877   0.274   4.353
 9403SOL    HW229109   5.877   0.258   4.516
 9404SOL     OW29110   1.770   4.638   4.912
 9404SOL    HW129111   1.776   4.606   5.006
 9404SOL    HW229112   1.687   4.693   4.901
 9405SOL     OW29113   0.552   0.745   0.958
 9405SOL    HW129114   0.555   0.781   0.864
 9405SOL    HW229115   0.462   0.704   0.974
 9406SOL     OW29116   6.225   1.591   4.874
 9406SOL    HW129117   6.156   1.529   4.839
 9406SOL    HW229118   6.189   1.640   4.953
 9407SOL     OW29119   3.426   5.496   3.621
 9407SOL    HW129120   3.401   5.577   3.568
 9407SOL    HW229121   3.524   5.498   3.641
 9408SOL     OW29122   3.560   2.125   6.820
 9408SOL    HW129123   3.645   2.075   6.800
 9408SOL    HW229124   3.570   2.174   6.907
 9409SOL     OW29125   6.195   4.022   3.515
 9409SOL    HW129126   6.271   4.025   3.579
 9409SOL    HW229127   6.117   4.074   3.552
 9410SOL     OW29128   4.264   6.561   1.696
 9410SOL    HW129129   4.302   6.576   1.788
 9410SOL    HW229130   4.339   6.558   1.630
 9411SOL     OW29131   5.706   4.856   2.162
 9411SOL    HW129132   5.766   4.777   2.150
 9411SOL    HW229133   5.748   4.937   2.120
 9412SOL     OW29134   6.662   2.012   3.349
 9412SOL    HW129135   6.666   2.009   3.249
 9412SOL    HW229136   6.581   1.963   3.381
 9413SOL     OW29137   3.707   5.553   3.670
 9413SOL    HW129138   3.773   5.605   3.617
 9413SOL    HW229139   3.753   5.478   3.717
 9414SOL     OW29140   2.317   0.228   2.158
 9414SOL    HW129141   2.307   0.176   2.073
 9414SOL    HW229142   2.402   0.280   2.155
 9415SOL     OW29143   1.048   0.086   2.095
 9415SOL    HW129144   0.965   0.048   2.056
 9415SOL    HW229145   1.048   0.073   2.194
 9416SOL     OW29146   1.325   1.993   1.207
 9416SOL    HW129147   1.383   2.006   1.288
 9416SOL    HW229148   1.245   1.939   1.231
 9417SOL     OW29149   1.074   0.457   4.624
 9417SOL    HW129150   1.015   0.508   4.686
 9417SOL    HW229151   1.039   0.363   4.615
 9418SOL     OW29152   4.115   4.290   0.783
 9418SOL    HW129153   4.070   4.354   0.846
 9418SOL    HW229154   4.192   4.247   0.830
 9419SOL     OW29155   2.359   5.822   4.076
 9419SOL    HW129156   2.313   5.861   3.996
 9419SOL    HW229157   2.428   5.886   4.109
 9420SOL     OW29158   1.574   0.236   3.006
 9420SOL    HW129159   1.600   0.185   3.088
 9420SOL    HW229160   1.533   0.174   2.939
 9421SOL     OW29161   1.491   4.800   5.261
 9421SOL    HW129162   1.505   4.776   5.357
 9421SOL    HW229163   1.482   4.717   5.206
 9422SOL     OW29164   3.604   1.281   3.012
 9422SOL    HW129165   3.565   1.332   2.935
 9422SOL    HW229166   3.530   1.249   3.071
 9423SOL     OW29167   4.498   6.958   5.158
 9423SOL    HW129168   4.505   6.888   5.229
 9423SOL    HW229169   4.402   6.977   5.139
 9424SOL     OW29170   3.058   5.524   3.069
 9424SOL    HW129171   3.021   5.551   3.157
 9424SOL    HW229172   3.124   5.450   3.081
 9425SOL     OW29173   0.602   5.295   2.235
 9425SOL    HW129174   0.661   5.263   2.308
 9425SOL    HW229175   0.653   5.358   2.176
 9426SOL     OW29176   3.516   6.123   0.541
 9426SOL    HW129177   3.436   6.135   0.482
 9426SOL    HW229178   3.495   6.156   0.633
 9427SOL     OW29179   2.617   5.049   3.946
 9427SOL    HW129180   2.688   5.063   4.015
 9427SOL    HW229181   2.535   5.012   3.990
 9428SOL     OW29182   4.649   6.490   2.155
 9428SOL    HW129183   4.604   6.401   2.145
 9428SOL    HW229184   4.654   6.536   2.067
 9429SOL     OW29185   0.424   3.976   2.850
 9429SOL    HW129186   0.340   3.923   2.861
 9429SOL    HW229187   0.502   3.921   2.881
 9430SOL     OW29188   6.422   6.796   1.758
 9430SOL    HW129189   6.476   6.786   1.841
 9430SOL    HW229190   6.417   6.892   1.732
 9431SOL     OW29191   6.729   4.609   0.536
 9431SOL    HW129192   6.729   4.677   0.462
 9431SOL    HW229193   6.747   4.655   0.623
 9432SOL     OW29194   6.656   6.850   3.882
 9432SOL    HW129195   6.731   6.837   3.816
 9432SOL    HW229196   6.663   6.940   3.925
 9433SOL     OW29197   2.604   5.263   4.429
 9433SOL    HW129198   2.519   5.222   4.462
 9433SOL    HW229199   2.660   5.193   4.385
 9434SOL     OW29200   6.270   4.709   3.737
 9434SOL    HW129201   6.244   4.658   3.819
 9434SOL    HW229202   6.354   4.761   3.757
 9435SOL     OW29203   2.646   2.425   5.926
 9435SOL    HW129204   2.557   2.455   5.889
 9435SOL    HW229205   2.696   2.504   5.960
 9436SOL     OW29206   3.856   2.000   5.817
 9436SOL    HW129207   3.792   2.076   5.806
 9436SOL    HW229208   3.825   1.921   5.763
 9437SOL     OW29209   0.492   6.033   4.387
 9437SOL    HW129210   0.563   6.074   4.445
 9437SOL    HW229211   0.451   6.104   4.329
 9438SOL     OW29212   0.069   6.283   1.382
 9438SOL    HW129213   0.039   6.206   1.438
 9438SOL    HW229214   0.040   6.369   1.426
 9439SOL     OW29215   1.907   3.298   1.323
 9439SOL    HW129216   1.954   3.213   1.349
 9439SOL    HW229217   1.954   3.340   1.246
 9440SOL     OW29218   3.269   5.878   3.746
 9440SOL    HW129219   3.200   5.945   3.770
 9440SOL    HW229220   3.350   5.924   3.710
 9441SOL     OW29221   1.139   5.170   5.769
 9441SOL    HW129222   1.169   5.257   5.806
 9441SOL    HW229223   1.099   5.114   5.842
 9442SOL     OW29224   1.186   3.030   1.301
 9442SOL    HW129225   1.125   2.973   1.246
 9442SOL    HW229226   1.273   3.041   1.255
 9443SOL     OW29227   1.357   1.959   0.942
 9443SOL    HW129228   1.348   1.974   1.040
 9443SOL    HW229229   1.283   1.901   0.910
 9444SOL     OW29230   1.479   4.227   5.205
 9444SOL    HW129231   1.406   4.167   5.236
 9444SOL    HW229232   1.547   4.173   5.154
 9445SOL     OW29233   5.795   2.031   1.744
 9445SOL    HW129234   5.747   2.110   1.703
 9445SOL    HW229235   5.746   1.947   1.722
 9446SOL     OW29236   5.568   4.829   0.183
 9446SOL    HW129237   5.667   4.819   0.196
 9446SOL    HW229238   5.528   4.740   0.159
 9447SOL     OW29239   5.907   0.891   1.853
 9447SOL    HW129240   5.830   0.891   1.916
 9447SOL    HW229241   5.925   0.797   1.822
 9448SOL     OW29242   5.987   6.379   0.274
 9448SOL    HW129243   5.945   6.322   0.204
 9448SOL    HW229244   6.073   6.337   0.304
 9449SOL     OW29245   5.856   5.574   5.032
 9449SOL    HW129246   5.831   5.510   4.960
 9449SOL    HW229247   5.900   5.654   4.992
 9450SOL     OW29248   2.016   6.062   3.943
 9450SOL    HW129249   2.007   6.159   3.965
 9450SOL    HW229250   1.981   6.007   4.019
 9451SOL     OW29251   4.099   3.680   5.190
 9451SOL    HW129252   4.027   3.726   5.243
 9451SOL    HW229253   4.187   3.724   5.211
 9452SOL     OW29254   3.816   4.579   0.578
 9452SOL    HW129255   3.837   4.634   0.496
 9452SOL    HW229256   3.801   4.640   0.656
 9453SOL     OW29257   3.946   6.146   1.441
 9453SOL    HW129258   3.960   6.234   1.485
 9453SOL    HW229259   3.967   6.153   1.344
 9454SOL     OW29260   2.407   1.973   5.875
 9454SOL    HW129261   2.422   1.877   5.853
 9454SOL    HW229262   2.354   2.016   5.802
 9455SOL     OW29263   1.781   2.481   1.838
 9455SOL    HW129264   1.755   2.390   1.804
 9455SOL    HW229265   1.710   2.515   1.899
 9456SOL     OW29266   1.336   3.085   0.161
 9456SOL    HW129267   1.380   3.075   0.250
 9456SOL    HW229268   1.275   3.007   0.144
 9457SOL     OW29269   5.992   4.102   7.013
 9457SOL    HW129270   5.971   4.045   6.934
 9457SOL    HW229271   5.969   4.052   0.077
 9458SOL     OW29272   0.955   5.785   3.740
 9458SOL    HW129273   0.972   5.883   3.747
 9458SOL    HW229274   1.033   5.740   3.698
 9459SOL     OW29275   4.024   6.472   0.617
 9459SOL    HW129276   4.027   6.372   0.615
 9459SOL    HW229277   4.092   6.506   0.683
 9460SOL     OW29278   1.717   3.774   5.511
 9460SOL    HW129279   1.654   3.801   5.584
 9460SOL    HW229280   1.795   3.726   5.551
 9461SOL     OW29281   1.574   0.368   2.638
 9461SOL    HW129282   1.547   0.281   2.679
 9461SOL    HW229283   1.492   0.419   2.610
 9462SOL     OW29284   0.477   3.264   3.742
 9462SOL    HW129285   0.443   3.351   3.708
 9462SOL    HW229286   0.480   3.266   3.842
 9463SOL     OW29287   5.139   2.272   6.304
 9463SOL    HW129288   5.239   2.277   6.296
 9463SOL    HW229289   5.098   2.275   6.213
 9464SOL     OW29290   4.102   6.527   6.510
 9464SOL    HW129291   4.159   6.537   6.592
 9464SOL    HW229292   4.092   6.431   6.488
 9465SOL     OW29293   4.265   6.173   4.441
 9465SOL    HW129294   4.357   6.202   4.413
 9465SOL    HW229295   4.249   6.198   4.536
 9466SOL     OW29296   3.339   1.943   6.805
 9466SOL    HW129297   3.317   1.962   6.709
 9466SOL    HW229298   3.400   2.014   6.840
 9467SOL     OW29299   1.529   3.076   2.335
 9467SOL    HW129300   1.605   3.010   2.333
 9467SOL    HW229301   1.523   3.120   2.246
 9468SOL     OW29302   0.618   2.205   6.042
 9468SOL    HW129303   0.520   2.223   6.034
 9468SOL    HW229304   0.650   2.236   6.131
 9469SOL     OW29305   0.658   4.238   2.729
 9469SOL    HW129306   0.565   4.239   2.691
 9469SOL    HW229307   0.722   4.207   2.658
 9470SOL     OW29308   6.687   3.773   2.100
 9470SOL    HW129309   6.783   3.802   2.109
 9470SOL    HW229310   6.652   3.802   2.012
 9471SOL     OW29311   6.858   2.384   5.703
 9471SOL    HW129312   6.796   2.397   5.780
 9471SOL    HW229313   6.940   2.336   5.733
 9472SOL     OW29314   6.765   2.068   5.087
 9472SOL    HW129315   6.815   2.074   5.174
 9472SOL    HW229316   6.798   2.139   5.025
 9473SOL     OW29317   2.438   5.036   5.613
 9473SOL    HW129318   2.498   4.968   5.571
 9473SOL    HW229319   2.401   5.096   5.542
 9474SOL     OW29320   3.950   5.791   4.314
 9474SOL    HW129321   4.012   5.862   4.348
 9474SOL    HW229322   3.995   5.739   4.241
 9475SOL     OW29323   2.293   3.384   1.391
 9475SOL    HW129324   2.291   3.445   1.471
 9475SOL    HW229325   2.276   3.290   1.421
 9476SOL     OW29326   2.514   3.708   5.591
 9476SOL    HW129327   2.470   3.700   5.501
 9476SOL    HW229328   2.584   3.779   5.587
 9477SOL     OW29329   1.036   2.440   0.407
 9477SOL    HW129330   0.991   2.512   0.354
 9477SOL    HW229331   0.980   2.418   0.487
 9478SOL     OW29332   5.508   3.655   6.367
 9478SOL    HW129333   5.444   3.663   6.291
 9478SOL    HW229334   5.582   3.721   6.356
 9479SOL     OW29335   5.559   4.669   5.100
 9479SOL    HW129336   5.515   4.585   5.131
 9479SOL    HW229337   5.559   4.672   5.000
 9480SOL     OW29338   6.887   3.278   6.341
 9480SOL    HW129339   6.832   3.205   6.301
 9480SOL    HW229340   6.834   3.362   6.344
 9481SOL     OW29341   0.565   2.563   2.896
 9481SOL    HW129342   0.630   2.487   2.900
 9481SOL    HW229343   0.573   2.608   2.807
 9482SOL     OW29344   4.665   1.131   2.133
 9482SOL    HW129345   4.600   1.166   2.064
 9482SOL    HW229346   4.645   1.035   2.152
 9483SOL     OW29347   1.862   0.797   0.700
 9483SOL    HW129348   1.808   0.716   0.676
 9483SOL    HW229349   1.959   0.779   0.681
 9484SOL     OW29350   6.135   0.143   3.671
 9484SOL    HW129351   6.224   0.144   3.718
 9484SOL    HW229352   6.106   0.237   3.652
 9485SOL     OW29353   0.233   6.857   3.174
 9485SOL    HW129354   0.193   6.794   3.241
 9485SOL    HW229355   0.224   6.951   3.206
 9486SOL     OW29356   3.227   0.180   2.122
 9486SOL    HW129357   3.293   0.107   2.137
 9486SOL    HW229358   3.151   0.146   2.066
 9487SOL     OW29359   3.450   3.040   3.185
 9487SOL    HW129360   3.476   3.136   3.198
 9487SOL    HW229361   3.520   2.994   3.131
 9488SOL     OW29362   1.864   0.605   1.618
 9488SOL    HW129363   1.914   0.561   1.694
 9488SOL    HW229364   1.787   0.657   1.655
 9489SOL     OW29365   2.608   4.597   0.613
 9489SOL    HW129366   2.583   4.621   0.706
 9489SOL    HW229367   2.636   4.679   0.563
 9490SOL     OW29368   4.835   1.489   0.372
 9490SOL    HW129369   4.839   1.455   0.466
 9490SOL    HW229370   4.740   1.486   0.339
 9491SOL     OW29371   5.608   6.204   6.148
 9491SOL    HW129372   5.647   6.131   6.093
 9491SOL    HW229373   5.522   6.235   6.106
 9492SOL     OW29374   2.338   5.493   1.066
 9492SOL    HW129375   2.261   5.555   1.078
 9492SOL    HW229376   2.422   5.537   1.097
 9493SOL     OW29377   5.446   6.313   2.399
 9493SOL    HW129378   5.451   6.311   2.498
 9493SOL    HW229379   5.367   6.367   2.370
 9494SOL     OW29380   3.550   3.633   6.549
 9494SOL    HW129381   3.622   3.598   6.489
 9494SOL    HW229382   3.580   3.625   6.644
 9495SOL     OW29383   5.643   2.767   4.596
 9495SOL    HW129384   5.592   2.815   4.667
 9495SOL    HW229385   5.733   2.742   4.630
 9496SOL     OW29386   6.523   4.523   6.901
 9496SOL    HW129387   6.580   4.473   6.835
 9496SOL    HW229388   6.427   4.496   6.889
 9497SOL     OW29389   1.321   6.078   5.980
 9497SOL    HW129390   1.343   6.164   5.932
 9497SOL    HW229391   1.232   6.045   5.949
 9498SOL     OW29392   4.688   6.850   6.410
 9498SOL    HW129393   4.592   6.851   6.437
 9498SOL    HW229394   4.744   6.812   6.484
 9499SOL     OW29395   4.894   4.084   5.668
 9499SOL    HW129396   4.966   4.138   5.713
 9499SOL    HW229397   4.805   4.117   5.698
 9500SOL     OW29398   4.459   5.937   0.862
 9500SOL    HW129399   4.429   5.921   0.768
 9500SOL    HW229400   4.494   5.851   0.900
 9501SOL     OW29401   3.259   1.657   5.045
 9501SOL    HW129402   3.225   1.563   5.037
 9501SOL    HW229403   3.357   1.656   5.065
 9502SOL     OW29404   3.544   3.137   6.021
 9502SOL    HW129405   3.500   3.219   5.985
 9502SOL    HW229406   3.597   3.093   5.948
 9503SOL     OW29407   1.145   6.750   1.680
 9503SOL    HW129408   1.097   6.790   1.758
 9503SOL    HW229409   1.114   6.794   1.596
 9504SOL     OW29410   0.254   2.964   0.631
 9504SOL    HW129411   0.321   2.962   0.556
 9504SOL    HW229412   0.261   2.880   0.684
 9505SOL     OW29413   4.850   3.170   3.211
 9505SOL    HW129414   4.838   3.117   3.127
 9505SOL    HW229415   4.802   3.257   3.202
 9506SOL     OW29416   6.361   2.272   1.212
 9506SOL    HW129417   6.398   2.304   1.299
 9506SOL    HW229418   6.268   2.305   1.200
 9507SOL     OW29419   1.175   3.013   5.341
 9507SOL    HW129420   1.253   3.051   5.392
 9507SOL    HW229421   1.209   2.964   5.261
 9508SOL     OW29422   4.614   1.044   5.298
 9508SOL    HW129423   4.706   1.070   5.328
 9508SOL    HW229424   4.581   1.112   5.232
 9509SOL     OW29425   3.876   6.871   6.273
 9509SOL    HW129426   3.920   6.888   6.184
 9509SOL    HW229427   3.785   6.833   6.258
 9510SOL     OW29428   6.850   4.351   3.050
 9510SOL    HW129429   6.817   4.263   3.016
 9510SOL    HW229430   6.845   4.353   3.150
 9511SOL     OW29431   1.919   1.838   1.280
 9511SOL    HW129432   1.858   1.786   1.220
 9511SOL    HW229433   1.867   1.869   1.360
 9512SOL     OW29434   1.893   3.953   5.414
 9512SOL    HW129435   1.849   4.028   5.364
 9512SOL    HW229436   1.822   3.899   5.460
 9513SOL     OW29437   2.683   4.674   4.299
 9513SOL    HW129438   2.617   4.619   4.247
 9513SOL    HW229439   2.666   4.663   4.397
 9514SOL     OW29440   3.026   2.826   5.607
 9514SOL    HW129441   3.108   2.774   5.630
 9514SOL    HW229442   2.944   2.771   5.627
 9515SOL     OW29443   2.287   5.362   5.837
 9515SOL    HW129444   2.216   5.338   5.770
 9515SOL    HW229445   2.366   5.303   5.825
 9516SOL     OW29446   6.162   4.106   4.803
 9516SOL    HW129447   6.129   4.037   4.740
 9516SOL    HW229448   6.213   4.176   4.752
 9517SOL     OW29449   0.880   5.143   2.639
 9517SOL    HW129450   0.917   5.220   2.690
 9517SOL    HW229451   0.780   5.146   2.641
 9518SOL     OW29452   1.000   3.128   5.525
 9518SOL    HW129453   1.045   3.122   5.436
 9518SOL    HW229454   0.958   3.040   5.547
 9519SOL     OW29455   3.224   3.447   3.530
 9519SOL    HW129456   3.135   3.415   3.561
 9519SOL    HW229457   3.233   3.430   3.432
 9520SOL     OW29458   4.884   1.151   6.396
 9520SOL    HW129459   4.868   1.234   6.449
 9520SOL    HW229460   4.796   1.115   6.365
 9521SOL     OW29461   3.975   1.210   1.363
 9521SOL    HW129462   4.015   1.252   1.282
 9521SOL    HW229463   3.878   1.190   1.345
 9522SOL     OW29464   4.046   6.891   1.258
 9522SOL    HW129465   4.035   6.813   1.197
 9522SOL    HW229466   4.115   6.869   1.327
 9523SOL     OW29467   2.677   4.721   4.585
 9523SOL    HW129468   2.746   4.725   4.657
 9523SOL    HW229469   2.668   4.812   4.544
 9524SOL     OW29470   1.800   3.733   0.181
 9524SOL    HW129471   1.814   3.674   0.261
 9524SOL    HW229472   1.744   3.684   0.114
 9525SOL     OW29473   2.369   2.901   6.656
 9525SOL    HW129474   2.338   2.995   6.670
 9525SOL    HW229475   2.308   2.838   6.705
 9526SOL     OW29476   5.250   4.857   6.066
 9526SOL    HW129477   5.236   4.760   6.050
 9526SOL    HW229478   5.163   4.906   6.055
 9527SOL     OW29479   3.671   6.285   4.427
 9527SOL    HW129480   3.602   6.357   4.424
 9527SOL    HW229481   3.717   6.285   4.516
 9528SOL     OW29482   4.941   2.365   0.972
 9528SOL    HW129483   4.963   2.403   0.882
 9528SOL    HW229484   4.957   2.266   0.971
 9529SOL     OW29485   5.880   0.393   2.427
 9529SOL    HW129486   5.849   0.334   2.352
 9529SOL    HW229487   5.802   0.423   2.481
 9530SOL     OW29488   1.228   5.649   3.651
 9530SOL    HW129489   1.253   5.674   3.557
 9530SOL    HW229490   1.307   5.664   3.711
 9531SOL     OW29491   3.527   6.287   1.611
 9531SOL    HW129492   3.455   6.340   1.656
 9531SOL    HW229493   3.527   6.194   1.647
 9532SOL     OW29494   7.019   5.085   4.566
 9532SOL    HW129495   7.009   5.117   4.471
 9532SOL    HW229496   6.934   5.040   4.594
 9533SOL     OW29497   0.654   4.007   3.790
 9533SOL    HW129498   0.702   3.932   3.744
 9533SOL    HW229499   0.682   4.010   3.886
 9534SOL     OW29500   5.042   5.909   3.871
 9534SOL    HW129501   5.017   5.838   3.805
 9534SOL    HW229502   4.962   5.967   3.889
 9535SOL     OW29503   0.284   1.617   4.206
 9535SOL    HW129504   0.361   1.667   4.244
 9535SOL    HW229505   0.226   1.583   4.280
 9536SOL     OW29506   3.546   3.544   5.526
 9536SOL    HW129507   3.600   3.496   5.595
 9536SOL    HW229508   3.543   3.489   5.442
 9537SOL     OW29509   0.240   0.785   3.999
 9537SOL    HW129510   0.201   0.693   3.998
 9537SOL    HW229511   0.289   0.801   3.913
 9538SOL     OW29512   5.439   0.902   5.155
 9538SOL    HW129513   5.488   0.830   5.205
 9538SOL    HW229514   5.498   0.937   5.082
 9539SOL     OW29515   3.692   4.097   2.245
 9539SOL    HW129516   3.612   4.059   2.292
 9539SOL    HW229517   3.723   4.179   2.293
 9540SOL     OW29518   4.398   4.654   2.836
 9540SOL    HW129519   4.348   4.724   2.785
 9540SOL    HW229520   4.470   4.615   2.778
 9541SOL     OW29521   1.435   5.512   5.944
 9541SOL    HW129522   1.448   5.592   6.003
 9541SOL    HW229523   1.412   5.543   5.852
 9542SOL     OW29524   6.104   3.580   3.222
 9542SOL    HW129525   6.100   3.546   3.129
 9542SOL    HW229526   6.184   3.640   3.232
 9543SOL     OW29527   2.309   0.650   5.403
 9543SOL    HW129528   2.265   0.687   5.485
 9543SOL    HW229529   2.293   0.551   5.400
 9544SOL     OW29530   6.137   3.060   4.579
 9544SOL    HW129531   6.107   3.123   4.651
 9544SOL    HW229532   6.058   3.009   4.545
 9545SOL     OW29533   6.507   4.203   1.844
 9545SOL    HW129534   6.427   4.174   1.896
 9545SOL    HW229535   6.509   4.157   1.756
 9546SOL     OW29536   3.093   2.824   1.066
 9546SOL    HW129537   3.155   2.859   1.136
 9546SOL    HW229538   3.012   2.784   1.109
 9547SOL     OW29539   4.243   0.541   3.361
 9547SOL    HW129540   4.221   0.465   3.300
 9547SOL    HW229541   4.268   0.621   3.307
 9548SOL     OW29542   0.884   4.919   5.710
 9548SOL    HW129543   0.901   4.830   5.667
 9548SOL    HW229544   0.911   4.992   5.647
 9549SOL     OW29545   4.657   1.006   1.754
 9549SOL    HW129546   4.571   1.026   1.803
 9549SOL    HW229547   4.646   1.029   1.658
 9550SOL     OW29548   6.738   2.441   1.526
 9550SOL    HW129549   6.783   2.352   1.516
 9550SOL    HW229550   6.807   2.513   1.526
 9551SOL     OW29551   6.226   3.000   6.582
 9551SOL    HW129552   6.210   2.923   6.644
 9551SOL    HW229553   6.195   3.085   6.626
 9552SOL     OW29554   2.759   1.882   6.905
 9552SOL    HW129555   2.832   1.827   6.863
 9552SOL    HW229556   2.757   1.972   6.863
 9553SOL     OW29557   5.558   1.194   6.945
 9553SOL    HW129558   5.561   1.268   6.877
 9553SOL    HW229559   5.547   1.106   6.899
 9554SOL     OW29560   2.473   1.136   4.375
 9554SOL    HW129561   2.455   1.126   4.473
 9554SOL    HW229562   2.568   1.164   4.361
 9555SOL     OW29563   0.511   6.335   2.854
 9555SOL    HW129564   0.450   6.371   2.784
 9555SOL    HW229565   0.462   6.330   2.941
 9556SOL     OW29566   2.389   4.294   6.476
 9556SOL    HW129567   2.294   4.302   6.444
 9556SOL    HW229568   2.440   4.375   6.447
 9557SOL     OW29569   6.052   0.692   0.874
 9557SOL    HW129570   6.062   0.702   0.973
 9557SOL    HW229571   6.096   0.768   0.827
 9558SOL     OW29572   4.872   5.942   5.356
 9558SOL    HW129573   4.934   6.013   5.389
 9558SOL    HW229574   4.822   5.976   5.276
 9559SOL     OW29575   2.524   4.358   0.245
 9559SOL    HW129576   2.484   4.450   0.245
 9559SOL    HW229577   2.481   4.302   0.315
 9560SOL     OW29578   2.497   0.717   1.891
 9560SOL    HW129579   2.496   0.772   1.974
 9560SOL    HW229580   2.561   0.757   1.825
 9561SOL     OW29581   6.974   1.062   0.256
 9561SOL    HW129582   0.007   1.104   0.330
 9561SOL    HW229583   0.003   0.981   0.222
 9562SOL     OW29584   1.792   5.979   2.994
 9562SOL    HW129585   1.751   6.036   3.065
 9562SOL    HW229586   1.865   6.029   2.949
 9563SOL     OW29587   0.414   5.499   6.657
 9563SOL    HW129588   0.466   5.569   6.607
 9563SOL    HW229589   0.419   5.412   6.609
 9564SOL     OW29590   1.209   1.292   0.804
 9564SOL    HW129591   1.293   1.284   0.750
 9564SOL    HW229592   1.131   1.263   0.749
 9565SOL     OW29593   1.821   2.198   4.307
 9565SOL    HW129594   1.786   2.226   4.218
 9565SOL    HW229595   1.912   2.239   4.322
 9566SOL     OW29596   2.747   0.504   0.008
 9566SOL    HW129597   2.829   0.556   7.002
 9566SOL    HW229598   2.771   0.437   0.078
 9567SOL     OW29599   0.090   4.474   0.934
 9567SOL    HW129600   0.110   4.408   0.861
 9567SOL    HW229601   0.044   4.427   1.010
 9568SOL     OW29602   4.524   1.854   5.800
 9568SOL    HW129603   4.424   1.853   5.810
 9568SOL    HW229604   4.558   1.761   5.790
 9569SOL     OW29605   6.034   0.381   1.955
 9569SOL    HW129606   6.040   0.429   2.042
 9569SOL    HW229607   6.009   0.285   1.971
 9570SOL     OW29608   1.071   3.405   2.463
 9570SOL    HW129609   1.010   3.437   2.390
 9570SOL    HW229610   1.159   3.451   2.456
 9571SOL     OW29611   1.917   1.175   6.351
 9571SOL    HW129612   1.910   1.143   6.445
 9571SOL    HW229613   1.982   1.250   6.346
 9572SOL     OW29614   2.366   4.813   4.264
 9572SOL    HW129615   2.291   4.756   4.297
 9572SOL    HW229616   2.448   4.758   4.255
 9573SOL     OW29617   5.563   0.083   4.466
 9573SOL    HW129618   5.508   0.062   4.385
 9573SOL    HW229619   5.648   0.030   4.464
 9574SOL     OW29620   4.710   2.681   0.642
 9574SOL    HW129621   4.618   2.719   0.630
 9574SOL    HW229622   4.720   2.600   0.586
 9575SOL     OW29623   5.456   0.142   1.859
 9575SOL    HW129624   5.410   0.153   1.771
 9575SOL    HW229625   5.428   0.216   1.921
 9576SOL     OW29626   1.294   1.236   5.330
 9576SOL    HW129627   1.233   1.193   5.397
 9576SOL    HW229628   1.272   1.203   5.239
 9577SOL     OW29629   6.967   5.276   3.188
 9577SOL    HW129630   0.014   5.210   3.224
 9577SOL    HW229631   6.929   5.330   3.263
 9578SOL     OW29632   2.151   3.354   3.094
 9578SOL    HW129633   2.099   3.352   3.008
 9578SOL    HW229634   2.226   3.289   3.089
 9579SOL     OW29635   5.521   5.265   2.273
 9579SOL    HW129636   5.484   5.322   2.199
 9579SOL    HW229637   5.456   5.263   2.348
 9580SOL     OW29638   4.851   3.796   3.753
 9580SOL    HW129639   4.850   3.784   3.852
 9580SOL    HW229640   4.845   3.706   3.709
 9581SOL     OW29641   5.065   2.146   6.540
 9581SOL    HW129642   5.083   2.179   6.448
 9581SOL    HW229643   5.038   2.224   6.598
 9582SOL     OW29644   4.300   6.624   5.134
 9582SOL    HW129645   4.357   6.667   5.204
 9582SOL    HW229646   4.349   6.622   5.047
 9583SOL     OW29647   2.995   5.499   1.430
 9583SOL    HW129648   3.035   5.418   1.472
 9583SOL    HW229649   2.909   5.522   1.476
 9584SOL     OW29650   2.352   5.159   4.464
 9584SOL    HW129651   2.348   5.119   4.555
 9584SOL    HW229652   2.273   5.129   4.410
 9585SOL     OW29653   4.578   6.722   0.789
 9585SOL    HW129654   4.638   6.653   0.830
 9585SOL    HW229655   4.625   6.766   0.712
 9586SOL     OW29656   3.240   5.353   3.132
 9586SOL    HW129657   3.338   5.360   3.148
 9586SOL    HW229658   3.224   5.306   3.045
 9587SOL     OW29659   3.676   6.499   6.972
 9587SOL    HW129660   3.712   6.529   6.884
 9587SOL    HW229661   3.752   6.476   0.014
 9588SOL     OW29662   6.886   5.831   0.215
 9588SOL    HW129663   6.862   5.774   0.137
 9588SOL    HW229664   6.923   5.918   0.184
 9589SOL     OW29665   1.512   1.613   6.227
 9589SOL    HW129666   1.451   1.692   6.226
 9589SOL    HW229667   1.601   1.640   6.264
 9590SOL     OW29668   6.049   0.730   1.133
 9590SOL    HW129669   6.039   0.796   1.207
 9590SOL    HW229670   6.116   0.661   1.159
 9591SOL     OW29671   5.068   0.650   6.760
 9591SOL    HW129672   5.037   0.725   6.817
 9591SOL    HW229673   5.112   0.580   6.817
 9592SOL     OW29674   2.099   5.646   5.774
 9592SOL    HW129675   2.109   5.566   5.716
 9592SOL    HW229676   2.155   5.636   5.856
 9593SOL     OW29677   1.974   2.222   3.716
 9593SOL    HW129678   1.923   2.307   3.714
 9593SOL    HW229679   1.944   2.166   3.794
 9594SOL     OW29680   0.230   6.578   3.360
 9594SOL    HW129681   0.272   6.487   3.362
 9594SOL    HW229682   0.131   6.569   3.352
 9595SOL     OW29683   0.434   3.484   3.345
 9595SOL    HW129684   0.471   3.565   3.302
 9595SOL    HW229685   0.443   3.492   3.445
 9596SOL     OW29686   1.873   6.722   0.733
 9596SOL    HW129687   1.858   6.779   0.652
 9596SOL    HW229688   1.959   6.749   0.777
 9597SOL     OW29689   1.329   3.758   2.225
 9597SOL    HW129690   1.299   3.832   2.285
 9597SOL    HW229691   1.429   3.753   2.225
 9598SOL     OW29692   2.254   4.337   3.817
 9598SOL    HW129693   2.210   4.425   3.835
 9598SOL    HW229694   2.225   4.270   3.885
 9599SOL     OW29695   4.639   0.267   4.829
 9599SOL    HW129696   4.711   0.289   4.895
 9599SOL    HW229697   4.679   0.242   4.742
 9600SOL     OW29698   3.993   1.003   0.510
 9600SOL    HW129699   3.934   1.080   0.485
 9600SOL    HW229700   3.980   0.983   0.607
 9601SOL     OW29701   0.630   3.548   0.431
 9601SOL    HW129702   0.682   3.596   0.501
 9601SOL    HW229703   0.683   3.469   0.399
 9602SOL     OW29704   4.271   4.410   5.724
 9602SOL    HW129705   4.363   4.420   5.684
 9602SOL    HW229706   4.256   4.483   5.791
 9603SOL     OW29707   5.371   0.043   5.552
 9603SOL    HW129708   5.277   0.035   5.519
 9603SOL    HW229709   5.434   0.015   5.480
 9604SOL     OW29710   4.795   6.643   1.249
 9604SOL    HW129711   4.794   6.739   1.278
 9604SOL    HW229712   4.808   6.585   1.329
 9605SOL     OW29713   4.968   4.832   1.636
 9605SOL    HW129714   4.943   4.891   1.559
 9605SOL    HW229715   4.941   4.877   1.722
 9606SOL     OW29716   1.636   1.856   6.562
 9606SOL    HW129717   1.666   1.937   6.611
 9606SOL    HW229718   1.541   1.868   6.531
 9607SOL     OW29719   1.630   2.529   6.789
 9607SOL    HW129720   1.720   2.486   6.793
 9607SOL    HW229721   1.637   2.617   6.742
 9608SOL     OW29722   6.253   2.192   4.566
 9608SOL    HW129723   6.164   2.239   4.562
 9608SOL    HW229724   6.301   2.218   4.649
 9609SOL     OW29725   5.012   3.163   0.686
 9609SOL    HW129726   5.110   3.178   0.680
 9609SOL    HW229727   4.964   3.237   0.639
 9610SOL     OW29728   1.166   4.796   2.941
 9610SOL    HW129729   1.138   4.888   2.968
 9610SOL    HW229730   1.207   4.799   2.850
 9611SOL     OW29731   2.583   0.749   0.721
 9611SOL    HW129732   2.562   0.780   0.628
 9611SOL    HW229733   2.521   0.793   0.786
 9612SOL     OW29734   0.072   1.804   3.720
 9612SOL    HW129735   0.042   1.783   3.626
 9612SOL    HW229736   0.150   1.867   3.716
 9613SOL     OW29737   5.911   4.572   4.295
 9613SOL    HW129738   5.833   4.635   4.291
 9613SOL    HW229739   5.943   4.553   4.203
 9614SOL     OW29740   3.980   2.138   3.101
 9614SOL    HW129741   4.031   2.197   3.038
 9614SOL    HW229742   3.997   2.042   3.078
 9615SOL     OW29743   1.437   4.232   1.311
 9615SOL    HW129744   1.512   4.182   1.266
 9615SOL    HW229745   1.406   4.180   1.390
 9616SOL     OW29746   4.588   3.912   6.064
 9616SOL    HW129747   4.576   3.848   6.140
 9616SOL    HW229748   4.632   3.865   5.988
 9617SOL     OW29749   1.535   3.419   2.821
 9617SOL    HW129750   1.586   3.373   2.748
 9617SOL    HW229751   1.469   3.483   2.781
 9618SOL     OW29752   2.272   2.363   0.424
 9618SOL    HW129753   2.241   2.274   0.456
 9618SOL    HW229754   2.335   2.351   0.347
 9619SOL     OW29755   2.463   0.020   6.829
 9619SOL    HW129756   2.411   0.105   6.837
 9619SOL    HW229757   2.560   0.038   6.847
 9620SOL     OW29758   5.629   1.134   5.033
 9620SOL    HW129759   5.597   1.169   4.944
 9620SOL    HW229760   5.581   1.183   5.106
 9621SOL     OW29761   1.869   3.805   3.354
 9621SOL    HW129762   1.861   3.827   3.257
 9621SOL    HW229763   1.965   3.811   3.382
 9622SOL     OW29764   4.371   0.109   6.936
 9622SOL    HW129765   4.382   0.172   6.859
 9622SOL    HW229766   4.305   0.038   6.912
 9623SOL     OW29767   1.478   3.262   6.786
 9623SOL    HW129768   1.455   3.179   6.838
 9623SOL    HW229769   1.468   3.342   6.845
 9624SOL     OW29770   6.672   3.142   3.659
 9624SOL    HW129771   6.704   3.077   3.591
 9624SOL    HW229772   6.676   3.100   3.750
 9625SOL     OW29773   5.766   6.041   1.486
 9625SOL    HW129774   5.698   6.026   1.559
 9625SOL    HW229775   5.845   5.983   1.502
 9626SOL     OW29776   3.849   0.701   0.441
 9626SOL    HW129777   3.892   0.628   0.389
 9626SOL    HW229778   3.868   0.789   0.397
 9627SOL     OW29779   0.981   0.408   0.425
 9627SOL    HW129780   0.962   0.330   0.484
 9627SOL    HW229781   1.054   0.385   0.361
 9628SOL     OW29782   3.704   6.780   1.964
 9628SOL    HW129783   3.703   6.701   1.903
 9628SOL    HW229784   3.727   6.862   1.912
 9629SOL     OW29785   2.326   0.474   0.951
 9629SOL    HW129786   2.358   0.567   0.930
 9629SOL    HW229787   2.254   0.449   0.887
 9630SOL     OW29788   0.368   2.282   6.064
 9630SOL    HW129789   0.281   2.248   6.098
 9630SOL    HW229790   0.352   2.344   5.987
 9631SOL     OW29791   7.014   5.710   0.487
 9631SOL    HW129792   6.995   5.717   0.389
 9631SOL    HW229793   0.018   5.615   0.509
 9632SOL     OW29794   1.437   5.978   2.568
 9632SOL    HW129795   1.508   5.980   2.638
 9632SOL    HW229796   1.348   5.963   2.612
 9633SOL     OW29797   0.249   5.235   6.785
 9633SOL    HW129798   0.193   5.214   6.704
 9633SOL    HW229799   0.199   5.299   6.843
 9634SOL     OW29800   0.216   5.898   5.674
 9634SOL    HW129801   0.150   5.836   5.716
 9634SOL    HW229802   0.261   5.852   5.598
 9635SOL     OW29803   6.859   6.117   5.424
 9635SOL    HW129804   6.866   6.108   5.324
 9635SOL    HW229805   6.782   6.063   5.457
 9636SOL     OW29806   4.187   1.589   0.631
 9636SOL    HW129807   4.143   1.500   0.615
 9636SOL    HW229808   4.281   1.575   0.661
 9637SOL     OW29809   2.443   0.712   6.725
 9637SOL    HW129810   2.540   0.696   6.745
 9637SOL    HW229811   2.422   0.809   6.735
 9638SOL     OW29812   6.796   2.507   6.802
 9638SOL    HW129813   6.830   2.417   6.775
 9638SOL    HW229814   6.758   2.501   6.895
 9639SOL     OW29815   3.472   0.576   2.722
 9639SOL    HW129816   3.372   0.563   2.723
 9639SOL    HW229817   3.495   0.653   2.661
 9640SOL     OW29818   1.514   1.811   3.237
 9640SOL    HW129819   1.543   1.847   3.148
 9640SOL    HW229820   1.591   1.764   3.280
 9641SOL     OW29821   5.354   5.482   6.139
 9641SOL    HW129822   5.407   5.451   6.218
 9641SOL    HW229823   5.406   5.465   6.055
 9642SOL     OW29824   3.178   6.396   3.150
 9642SOL    HW129825   3.151   6.301   3.163
 9642SOL    HW229826   3.198   6.413   3.053
 9643SOL     OW29827   4.032   5.009   2.627
 9643SOL    HW129828   4.036   4.979   2.532
 9643SOL    HW229829   4.122   4.997   2.670
 9644SOL     OW29830   2.473   0.979   0.850
 9644SOL    HW129831   2.405   1.045   0.821
 9644SOL    HW229832   2.544   1.025   0.904
 9645SOL     OW29833   2.716   5.256   5.367
 9645SOL    HW129834   2.798   5.210   5.335
 9645SOL    HW229835   2.741   5.337   5.420
 9646SOL     OW29836   3.441   5.165   3.851
 9646SOL    HW129837   3.366   5.135   3.793
 9646SOL    HW229838   3.419   5.146   3.947
 9647SOL     OW29839   6.662   3.109   6.185
 9647SOL    HW129840   6.697   3.137   6.096
 9647SOL    HW229841   6.651   3.010   6.187
 9648SOL     OW29842   4.283   3.737   0.642
 9648SOL    HW129843   4.249   3.671   0.709
 9648SOL    HW229844   4.208   3.796   0.613
 9649SOL     OW29845   2.003   5.063   1.697
 9649SOL    HW129846   2.055   5.104   1.772
 9649SOL    HW229847   1.931   5.126   1.668
 9650SOL     OW29848   1.590   0.681   1.296
 9650SOL    HW129849   1.532   0.762   1.310
 9650SOL    HW229850   1.533   0.605   1.264
 9651SOL     OW29851   0.806   1.774   6.861
 9651SOL    HW129852   0.850   1.837   6.797
 9651SOL    HW229853   0.861   1.766   6.943
 9652SOL     OW29854   1.492   4.856   1.519
 9652SOL    HW129855   1.503   4.779   1.582
 9652SOL    HW229856   1.522   4.828   1.428
 9653SOL     OW29857   6.013   5.856   4.627
 9653SOL    HW129858   5.948   5.781   4.612
 9653SOL    HW229859   5.964   5.942   4.633
 9654SOL     OW29860   2.125   3.001   2.338
 9654SOL    HW129861   2.166   2.995   2.429
 9654SOL    HW229862   2.157   3.084   2.292
 9655SOL     OW29863   6.406   1.761   0.124
 9655SOL    HW129864   6.317   1.770   0.168
 9655SOL    HW229865   6.447   1.852   0.113
 9656SOL     OW29866   2.313   1.717   2.800
 9656SOL    HW129867   2.223   1.675   2.813
 9656SOL    HW229868   2.304   1.816   2.798
 9657SOL     OW29869   0.135   0.491   4.746
 9657SOL    HW129870   0.059   0.457   4.801
 9657SOL    HW229871   0.150   0.588   4.765
 9658SOL     OW29872   5.833   1.020   2.425
 9658SOL    HW129873   5.815   0.923   2.437
 9658SOL    HW229874   5.760   1.061   2.370
 9659SOL     OW29875   1.633   4.965   6.839
 9659SOL    HW129876   1.700   4.979   6.911
 9659SOL    HW229877   1.543   4.949   6.880
 9660SOL     OW29878   1.112   4.890   0.645
 9660SOL    HW129879   1.146   4.797   0.629
 9660SOL    HW229880   1.025   4.902   0.597
 9661SOL     OW29881   4.095   0.716   0.665
 9661SOL    HW129882   4.083   0.753   0.574
 9661SOL    HW229883   4.006   0.688   0.702
 9662SOL     OW29884   5.485   2.227   3.915
 9662SOL    HW129885   5.472   2.312   3.865
 9662SOL    HW229886   5.540   2.164   3.861
 9663SOL     OW29887   3.040   5.607   2.429
 9663SOL    HW129888   3.135   5.609   2.461
 9663SOL    HW229889   3.018   5.516   2.394
 9664SOL     OW29890   3.171   6.152   1.324
 9664SOL    HW129891   3.160   6.057   1.350
 9664SOL    HW229892   3.260   6.164   1.279
 9665SOL     OW29893   5.631   4.371   3.479
 9665SOL    HW129894   5.729   4.390   3.488
 9665SOL    HW229895   5.601   4.396   3.387
 9666SOL     OW29896   5.933   4.751   4.829
 9666SOL    HW129897   5.946   4.843   4.866
 9666SOL    HW229898   5.897   4.691   4.900
 9667SOL     OW29899   2.894   3.655   3.041
 9667SOL    HW129900   2.955   3.666   3.120
 9667SOL    HW229901   2.805   3.621   3.072
 9668SOL     OW29902   0.346   1.768   5.051
 9668SOL    HW129903   0.292   1.697   5.096
 9668SOL    HW229904   0.287   1.825   4.994
 9669SOL     OW29905   1.968   6.790   6.969
 9669SOL    HW129906   1.947   6.864   6.906
 9669SOL    HW229907   2.037   6.820   0.015
 9670SOL     OW29908   6.700   4.200   6.876
 9670SOL    HW129909   6.702   4.122   6.814
 9670SOL    HW229910   6.629   4.186   6.945
 9671SOL     OW29911   6.662   1.393   0.018
 9671SOL    HW129912   6.727   1.448   6.984
 9671SOL    HW229913   6.685   1.400   0.115
 9672SOL     OW29914   0.480   6.715   5.503
 9672SOL    HW129915   0.469   6.662   5.419
 9672SOL    HW229916   0.417   6.679   5.573
 9673SOL     OW29917   2.111   2.539   6.119
 9673SOL    HW129918   2.097   2.512   6.023
 9673SOL    HW229919   2.209   2.554   6.135
 9674SOL     OW29920   2.638   6.261   2.102
 9674SOL    HW129921   2.707   6.330   2.125
 9674SOL    HW229922   2.563   6.305   2.053
 9675SOL     OW29923   6.570   2.207   2.290
 9675SOL    HW129924   6.607   2.118   2.266
 9675SOL    HW229925   6.490   2.196   2.349
 9676SOL     OW29926   6.791   2.853   4.556
 9676SOL    HW129927   6.786   2.909   4.473
 9676SOL    HW229928   6.871   2.880   4.610
 9677SOL     OW29929   1.716   3.429   5.630
 9677SOL    HW129930   1.748   3.503   5.688
 9677SOL    HW229931   1.617   3.418   5.643
 9678SOL     OW29932   3.825   3.567   2.964
 9678SOL    HW129933   3.790   3.598   2.876
 9678SOL    HW229934   3.779   3.483   2.991
 9679SOL     OW29935   0.616   3.852   1.128
 9679SOL    HW129936   0.689   3.845   1.060
 9679SOL    HW229937   0.581   3.945   1.130
 9680SOL     OW29938   4.471   5.425   3.067
 9680SOL    HW129939   4.396   5.405   3.004
 9680SOL    HW229940   4.496   5.521   3.058
 9681SOL     OW29941   0.825   0.647   4.008
 9681SOL    HW129942   0.768   0.710   4.062
 9681SOL    HW229943   0.843   0.687   3.918
 9682SOL     OW29944   0.870   4.187   2.169
 9682SOL    HW129945   0.912   4.195   2.260
 9682SOL    HW229946   0.771   4.200   2.177
 9683SOL     OW29947   4.247   6.985   5.055
 9683SOL    HW129948   4.187   6.911   5.084
 9683SOL    HW229949   4.217   0.051   5.099
 9684SOL     OW29950   0.883   4.179   3.396
 9684SOL    HW129951   0.897   4.263   3.448
 9684SOL    HW229952   0.833   4.199   3.311
 9685SOL     OW29953   1.776   1.651   6.412
 9685SOL    HW129954   1.827   1.702   6.344
 9685SOL    HW229955   1.712   1.712   6.459
 9686SOL     OW29956   5.961   2.592   2.181
 9686SOL    HW129957   5.952   2.690   2.201
 9686SOL    HW229958   6.058   2.569   2.170
 9687SOL     OW29959   3.122   1.074   4.625
 9687SOL    HW129960   3.091   1.167   4.606
 9687SOL    HW229961   3.222   1.072   4.632
 9688SOL     OW29962   5.439   1.568   4.214
 9688SOL    HW129963   5.460   1.662   4.186
 9688SOL    HW229964   5.517   1.529   4.264
 9689SOL     OW29965   2.836   5.449   5.485
 9689SOL    HW129966   2.928   5.444   5.446
 9689SOL    HW229967   2.789   5.530   5.451
 9690SOL     OW29968   6.371   3.440   0.249
 9690SOL    HW129969   6.416   3.433   0.338
 9690SOL    HW229970   6.430   3.401   0.178
 9691SOL     OW29971   1.473   4.979   0.945
 9691SOL    HW129972   1.422   5.029   1.015
 9691SOL    HW229973   1.413   4.911   0.902
 9692SOL     OW29974   2.944   5.432   0.614
 9692SOL    HW129975   2.860   5.379   0.618
 9692SOL    HW229976   2.989   5.430   0.704
 9693SOL     OW29977   6.028   5.431   1.461
 9693SOL    HW129978   6.021   5.514   1.516
 9693SOL    HW229979   5.940   5.384   1.460
 9694SOL     OW29980   0.966   1.291   0.179
 9694SOL    HW129981   0.976   1.201   0.222
 9694SOL    HW229982   0.897   1.344   0.227
 9695SOL     OW29983   6.318   4.925   0.012
 9695SOL    HW129984   6.374   4.886   6.958
 9695SOL    HW229985   6.300   4.855   0.081
 9696SOL     OW29986   4.054   4.157   0.123
 9696SOL    HW129987   3.969   4.208   0.108
 9696SOL    HW229988   4.130   4.203   0.077
 9697SOL     OW29989   0.366   5.920   6.462
 9697SOL    HW129990   0.399   5.937   6.555
 9697SOL    HW229991   0.273   5.956   6.453
 9698SOL     OW29992   4.800   1.503   5.646
 9698SOL    HW129993   4.900   1.499   5.644
 9698SOL    HW229994   4.763   1.413   5.623
 9699SOL     OW29995   1.359   2.419   6.389
 9699SOL    HW129996   1.377   2.329   6.348
 9699SOL    HW229997   1.262   2.440   6.382
 9700SOL     OW29998   3.738   2.895   3.470
 9700SOL    HW129999   3.798   2.953   3.526
 9700SOL    HW230000   3.771   2.895   3.375
 9701SOL     OW30001   4.223   4.749   4.063
 9701SOL    HW130002   4.255   4.734   4.156
 9701SOL    HW230003   4.206   4.661   4.019
 9702SOL     OW30004   5.335   0.603   0.268
 9702SOL    HW130005   5.366   0.686   0.314
 9702SOL    HW230006   5.350   0.524   0.328
 9703SOL     OW30007   2.804   5.849   4.314
 9703SOL    HW130008   2.785   5.814   4.406
 9703SOL    HW230009   2.843   5.941   4.320
 9704SOL     OW30010   2.534   1.559   4.073
 9704SOL    HW130011   2.464   1.494   4.104
 9704SOL    HW230012   2.552   1.545   3.975
 9705SOL     OW30013   3.788   4.303   0.599
 9705SOL    HW130014   3.808   4.401   0.593
 9705SOL    HW230015   3.767   4.279   0.694
 9706SOL     OW30016   0.019   2.242   3.342
 9706SOL    HW130017   0.009   2.143   3.348
 9706SOL    HW230018   6.956   2.286   3.375
 9707SOL     OW30019   3.357   5.454   1.435
 9707SOL    HW130020   3.300   5.372   1.437
 9707SOL    HW230021   3.446   5.432   1.394
 9708SOL     OW30022   1.610   1.709   1.446
 9708SOL    HW130023   1.672   1.661   1.384
 9708SOL    HW230024   1.518   1.710   1.406
 9709SOL     OW30025   1.745   6.291   3.594
 9709SOL    HW130026   1.660   6.330   3.629
 9709SOL    HW230027   1.770   6.212   3.649
 9710SOL     OW30028   1.281   0.138   3.553
 9710SOL    HW130029   1.366   0.165   3.599
 9710SOL    HW230030   1.222   0.218   3.544
 9711SOL     OW30031   1.942   3.070   6.216
 9711SOL    HW130032   1.949   2.984   6.267
 9711SOL    HW230033   1.977   3.057   6.123
 9712SOL     OW30034   4.927   3.572   4.692
 9712SOL    HW130035   4.890   3.567   4.785
 9712SOL    HW230036   4.999   3.642   4.689
 9713SOL     OW30037   0.266   5.385   3.335
 9713SOL    HW130038   0.241   5.305   3.281
 9713SOL    HW230039   0.183   5.426   3.375
 9714SOL     OW30040   2.658   1.937   2.530
 9714SOL    HW130041   2.758   1.941   2.531
 9714SOL    HW230042   2.629   1.868   2.464
 9715SOL     OW30043   5.576   5.709   6.137
 9715SOL    HW130044   5.525   5.638   6.088
 9715SOL    HW230045   5.638   5.665   6.202
 9716SOL     OW30046   3.157   0.892   6.155
 9716SOL    HW130047   3.074   0.844   6.126
 9716SOL    HW230048   3.226   0.887   6.084
 9717SOL     OW30049   5.831   5.321   3.266
 9717SOL    HW130050   5.804   5.407   3.309
 9717SOL    HW230051   5.842   5.250   3.335
 9718SOL     OW30052   5.762   2.815   1.909
 9718SOL    HW130053   5.665   2.817   1.933
 9718SOL    HW230054   5.773   2.784   1.815
 9719SOL     OW30055   0.202   1.369   0.205
 9719SOL    HW130056   0.256   1.337   0.127
 9719SOL    HW230057   0.218   1.466   0.219
 9720SOL     OW30058   0.991   0.777   0.770
 9720SOL    HW130059   1.083   0.810   0.750
 9720SOL    HW230060   0.994   0.711   0.845
 9721SOL     OW30061   0.282   2.474   3.600
 9721SOL    HW130062   0.229   2.417   3.663
 9721SOL    HW230063   0.304   2.421   3.518
 9722SOL     OW30064   0.192   0.169   4.770
 9722SOL    HW130065   0.183   0.126   4.681
 9722SOL    HW230066   0.192   0.269   4.759
 9723SOL     OW30067   6.564   0.297   4.137
 9723SOL    HW130068   6.562   0.255   4.227
 9723SOL    HW230069   6.638   0.364   4.132
 9724SOL     OW30070   3.996   2.597   1.617
 9724SOL    HW130071   4.002   2.678   1.559
 9724SOL    HW230072   3.916   2.604   1.676
 9725SOL     OW30073   4.045   2.879   5.916
 9725SOL    HW130074   4.132   2.925   5.932
 9725SOL    HW230075   4.006   2.851   6.004
 9726SOL     OW30076   4.803   6.052   4.668
 9726SOL    HW130077   4.822   6.015   4.577
 9726SOL    HW230078   4.704   6.052   4.683
 9727SOL     OW30079   0.595   0.658   6.777
 9727SOL    HW130080   0.637   0.624   6.861
 9727SOL    HW230081   0.496   0.663   6.789
 9728SOL     OW30082   3.126   6.027   6.345
 9728SOL    HW130083   3.072   6.110   6.360
 9728SOL    HW230084   3.102   5.958   6.413
 9729SOL     OW30085   3.333   5.348   2.683
 9729SOL    HW130086   3.387   5.308   2.609
 9729SOL    HW230087   3.371   5.322   2.771
 9730SOL     OW30088   5.052   3.781   2.760
 9730SOL    HW130089   5.010   3.872   2.767
 9730SOL    HW230090   4.981   3.712   2.751
 9731SOL     OW30091   4.943   4.646   0.865
 9731SOL    HW130092   4.996   4.701   0.930
 9731SOL    HW230093   4.907   4.565   0.912
 9732SOL     OW30094   5.108   6.574   4.872
 9732SOL    HW130095   5.035   6.507   4.885
 9732SOL    HW230096   5.122   6.625   4.957
 9733SOL     OW30097   4.985   4.715   4.251
 9733SOL    HW130098   5.037   4.632   4.271
 9733SOL    HW230099   5.030   4.765   4.177
 9734SOL     OW30100   6.352   2.281   5.951
 9734SOL    HW130101   6.424   2.350   5.949
 9734SOL    HW230102   6.389   2.193   5.923
 9735SOL     OW30103   2.921   5.213   0.887
 9735SOL    HW130104   2.918   5.254   0.978
 9735SOL    HW230105   3.015   5.209   0.855
 9736SOL     OW30106   3.618   1.881   1.641
 9736SOL    HW130107   3.581   1.800   1.596
 9736SOL    HW230108   3.559   1.959   1.623
 9737SOL     OW30109   4.155   1.597   4.629
 9737SOL    HW130110   4.168   1.644   4.716
 9737SOL    HW230111   4.207   1.643   4.558
 9738SOL     OW30112   2.521   0.460   2.041
 9738SOL    HW130113   2.543   0.542   1.989
 9738SOL    HW230114   2.571   0.382   2.004
 9739SOL     OW30115   5.087   4.527   2.289
 9739SOL    HW130116   5.167   4.578   2.320
 9739SOL    HW230117   5.005   4.562   2.334
 9740SOL     OW30118   6.931   2.809   3.064
 9740SOL    HW130119   6.975   2.750   2.997
 9740SOL    HW230120   6.831   2.802   3.054
 9741SOL     OW30121   3.609   2.016   2.442
 9741SOL    HW130122   3.563   2.087   2.494
 9741SOL    HW230123   3.568   2.008   2.351
 9742SOL     OW30124   3.580   1.546   3.275
 9742SOL    HW130125   3.551   1.482   3.346
 9742SOL    HW230126   3.623   1.496   3.200
 9743SOL     OW30127   1.150   1.114   5.555
 9743SOL    HW130128   1.108   1.025   5.538
 9743SOL    HW230129   1.121   1.149   5.644
 9744SOL     OW30130   2.600   0.373   1.408
 9744SOL    HW130131   2.518   0.351   1.355
 9744SOL    HW230132   2.581   0.363   1.506
 9745SOL     OW30133   0.763   0.870   4.852
 9745SOL    HW130134   0.701   0.875   4.930
 9745SOL    HW230135   0.822   0.951   4.851
 9746SOL     OW30136   6.015   6.957   4.594
 9746SOL    HW130137   6.029   6.891   4.520
 9746SOL    HW230138   6.083   6.942   4.665
 9747SOL     OW30139   6.920   0.072   6.278
 9747SOL    HW130140   6.928   0.132   6.358
 9747SOL    HW230141   6.869   7.009   6.304
 9748SOL     OW30142   1.979   4.376   4.822
 9748SOL    HW130143   1.963   4.283   4.790
 9748SOL    HW230144   1.891   4.417   4.849
 9749SOL     OW30145   0.418   5.081   4.822
 9749SOL    HW130146   0.510   5.094   4.785
 9749SOL    HW230147   0.355   5.059   4.748
 9750SOL     OW30148   2.424   5.552   2.296
 9750SOL    HW130149   2.397   5.624   2.232
 9750SOL    HW230150   2.495   5.588   2.357
 9751SOL     OW30151   1.199   2.086   0.696
 9751SOL    HW130152   1.224   2.172   0.740
 9751SOL    HW230153   1.115   2.050   0.738
 9752SOL     OW30154   3.418   6.695   5.892
 9752SOL    HW130155   3.423   6.794   5.880
 9752SOL    HW230156   3.505   6.661   5.928
 9753SOL     OW30157   0.057   0.183   0.020
 9753SOL    HW130158   0.026   0.162   0.112
 9753SOL    HW230159   0.071   0.098   6.989
 9754SOL     OW30160   0.098   3.699   6.714
 9754SOL    HW130161   0.025   3.731   6.653
 9754SOL    HW230162   0.089   3.600   6.727
 9755SOL     OW30163   4.144   5.543   4.930
 9755SOL    HW130164   4.054   5.586   4.927
 9755SOL    HW230165   4.208   5.602   4.979
 9756SOL     OW30166   4.522   3.211   6.353
 9756SOL    HW130167   4.610   3.173   6.383
 9756SOL    HW230168   4.536   3.302   6.315
 9757SOL     OW30169   5.970   0.772   3.990
 9757SOL    HW130170   6.013   0.861   3.971
 9757SOL    HW230171   5.871   0.781   3.980
 9758SOL     OW30172   3.306   0.806   0.232
 9758SOL    HW130173   3.403   0.783   0.239
 9758SOL    HW230174   3.269   0.820   0.324
 9759SOL     OW30175   3.051   6.318   2.013
 9759SOL    HW130176   2.993   6.304   2.093
 9759SOL    HW230177   3.009   6.387   1.953
 9760SOL     OW30178   5.021   3.989   6.722
 9760SOL    HW130179   4.998   4.028   6.811
 9760SOL    HW230180   5.023   3.889   6.728
 9761SOL     OW30181   4.902   5.748   2.853
 9761SOL    HW130182   4.862   5.699   2.931
 9761SOL    HW230183   4.961   5.821   2.887
 9762SOL     OW30184   3.385   1.030   2.112
 9762SOL    HW130185   3.342   1.112   2.074
 9762SOL    HW230186   3.318   0.979   2.167
 9763SOL     OW30187   1.870   1.982   1.753
 9763SOL    HW130188   1.968   1.961   1.765
 9763SOL    HW230189   1.821   1.958   1.836
 9764SOL     OW30190   0.350   2.494   3.926
 9764SOL    HW130191   0.410   2.415   3.913
 9764SOL    HW230192   0.328   2.535   3.837
 9765SOL     OW30193   0.428   0.972   5.846
 9765SOL    HW130194   0.507   0.912   5.857
 9765SOL    HW230195   0.459   1.061   5.810
 9766SOL     OW30196   2.570   0.846   2.159
 9766SOL    HW130197   2.505   0.831   2.233
 9766SOL    HW230198   2.609   0.938   2.167
 9767SOL     OW30199   4.208   0.223   5.250
 9767SOL    HW130200   4.236   0.310   5.209
 9767SOL    HW230201   4.114   0.232   5.285
 9768SOL     OW30202   4.398   2.196   3.072
 9768SOL    HW130203   4.415   2.293   3.088
 9768SOL    HW230204   4.483   2.144   3.084
 9769SOL     OW30205   0.303   2.232   0.561
 9769SOL    HW130206   0.316   2.318   0.512
 9769SOL    HW230207   0.205   2.212   0.568
 9770SOL     OW30208   0.559   3.163   5.316
 9770SOL    HW130209   0.565   3.152   5.217
 9770SOL    HW230210   0.594   3.254   5.340
 9771SOL     OW30211   1.823   6.395   3.966
 9771SOL    HW130212   1.897   6.385   3.899
 9771SOL    HW230213   1.770   6.477   3.944
 9772SOL     OW30214   5.899   6.768   1.417
 9772SOL    HW130215   5.864   6.848   1.368
 9772SOL    HW230216   5.847   6.687   1.390
 9773SOL     OW30217   5.277   5.195   4.064
 9773SOL    HW130218   5.180   5.168   4.069
 9773SOL    HW230219   5.309   5.224   4.154
 9774SOL     OW30220   6.868   5.482   4.375
 9774SOL    HW130221   6.826   5.569   4.350
 9774SOL    HW230222   6.949   5.467   4.319
 9775SOL     OW30223   2.535   1.654   4.652
 9775SOL    HW130224   2.625   1.697   4.644
 9775SOL    HW230225   2.474   1.693   4.584
 9776SOL     OW30226   0.595   4.701   4.430
 9776SOL    HW130227   0.680   4.654   4.408
 9776SOL    HW230228   0.518   4.650   4.392
 9777SOL     OW30229   4.780   5.763   6.074
 9777SOL    HW130230   4.792   5.682   6.017
 9777SOL    HW230231   4.849   5.831   6.051
 9778SOL     OW30232   3.413   0.835   4.970
 9778SOL    HW130233   3.339   0.872   5.025
 9778SOL    HW230234   3.496   0.828   5.024
 9779SOL     OW30235   3.446   2.199   6.574
 9779SOL    HW130236   3.488   2.189   6.664
 9779SOL    HW230237   3.517   2.192   6.503
 9780SOL     OW30238   1.525   3.486   1.249
 9780SOL    HW130239   1.559   3.411   1.192
 9780SOL    HW230240   1.595   3.557   1.256
 9781SOL     OW30241   0.517   6.816   4.160
 9781SOL    HW130242   0.551   6.744   4.100
 9781SOL    HW230243   0.544   6.796   4.254
 9782SOL     OW30244   6.051   0.235   1.209
 9782SOL    HW130245   5.964   0.197   1.175
 9782SOL    HW230246   6.120   0.228   1.137
 9783SOL     OW30247   6.282   6.771   3.523
 9783SOL    HW130248   6.256   6.858   3.480
 9783SOL    HW230249   6.251   6.771   3.618
 9784SOL     OW30250   4.549   0.518   4.777
 9784SOL    HW130251   4.452   0.500   4.759
 9784SOL    HW230252   4.592   0.434   4.811
 9785SOL     OW30253   1.143   1.764   0.951
 9785SOL    HW130254   1.148   1.677   0.902
 9785SOL    HW230255   1.156   1.748   1.049
 9786SOL     OW30256   1.789   0.317   3.492
 9786SOL    HW130257   1.836   0.320   3.580
 9786SOL    HW230258   1.842   0.262   3.427
 9787SOL     OW30259   5.903   4.148   1.416
 9787SOL    HW130260   5.877   4.236   1.456
 9787SOL    HW230261   5.982   4.160   1.357
 9788SOL     OW30262   0.205   0.196   6.525
 9788SOL    HW130263   0.105   0.202   6.535
 9788SOL    HW230264   0.228   0.110   6.480
 9789SOL     OW30265   1.793   4.422   4.448
 9789SOL    HW130266   1.834   4.333   4.471
 9789SOL    HW230267   1.812   4.487   4.521
 9790SOL     OW30268   0.368   0.897   3.796
 9790SOL    HW130269   0.371   0.895   3.696
 9790SOL    HW230270   0.381   0.991   3.828
 9791SOL     OW30271   1.049   2.594   0.673
 9791SOL    HW130272   1.099   2.599   0.587
 9791SOL    HW230273   0.976   2.526   0.665
 9792SOL     OW30274   4.548   5.757   2.262
 9792SOL    HW130275   4.520   5.684   2.199
 9792SOL    HW230276   4.622   5.809   2.221
 9793SOL     OW30277   5.617   6.314   2.122
 9793SOL    HW130278   5.667   6.400   2.117
 9793SOL    HW230279   5.575   6.305   2.213
 9794SOL     OW30280   3.404   4.075   6.812
 9794SOL    HW130281   3.369   4.001   6.871
 9794SOL    HW230282   3.359   4.071   6.723
 9795SOL     OW30283   2.312   4.739   2.934
 9795SOL    HW130284   2.386   4.721   2.869
 9795SOL    HW230285   2.232   4.772   2.884
 9796SOL     OW30286   4.094   5.017   6.198
 9796SOL    HW130287   4.039   5.089   6.154
 9796SOL    HW230288   4.075   5.015   6.296
 9797SOL     OW30289   6.197   3.149   5.126
 9797SOL    HW130290   6.169   3.085   5.198
 9797SOL    HW230291   6.284   3.119   5.087
 9798SOL     OW30292   3.473   1.367   2.077
 9798SOL    HW130293   3.406   1.318   2.132
 9798SOL    HW230294   3.428   1.411   1.999
 9799SOL     OW30295   4.057   3.567   3.345
 9799SOL    HW130296   4.091   3.617   3.425
 9799SOL    HW230297   4.014   3.482   3.374
 9800SOL     OW30298   4.055   6.958   0.449
 9800SOL    HW130299   4.124   6.914   0.506
 9800SOL    HW230300   4.075   6.939   0.352
 9801SOL     OW30301   5.986   5.084   1.490
 9801SOL    HW130302   6.027   5.018   1.554
 9801SOL    HW230303   6.041   5.087   1.406
 9802SOL     OW30304   0.750   5.831   2.185
 9802SOL    HW130305   0.777   5.908   2.243
 9802SOL    HW230306   0.771   5.745   2.231
 9803SOL     OW30307   5.581   0.150   6.451
 9803SOL    HW130308   5.505   0.096   6.487
 9803SOL    HW230309   5.559   0.248   6.458
 9804SOL     OW30310   4.746   5.771   4.083
 9804SOL    HW130311   4.717   5.747   3.990
 9804SOL    HW230312   4.759   5.870   4.090
 9805SOL     OW30313   3.720   4.238   0.864
 9805SOL    HW130314   3.782   4.219   0.941
 9805SOL    HW230315   3.641   4.289   0.897
 9806SOL     OW30316   6.872   1.433   2.530
 9806SOL    HW130317   6.899   1.347   2.572
 9806SOL    HW230318   6.773   1.433   2.513
 9807SOL     OW30319   2.081   3.575   1.311
 9807SOL    HW130320   2.093   3.493   1.366
 9807SOL    HW230321   2.063   3.550   1.216
 9808SOL     OW30322   2.408   2.232   3.091
 9808SOL    HW130323   2.410   2.314   3.033
 9808SOL    HW230324   2.320   2.229   3.140
 9809SOL     OW30325   0.498   0.095   4.385
 9809SOL    HW130326   0.463   0.107   4.292
 9809SOL    HW230327   0.504   7.017   4.406
 9810SOL     OW30328   4.891   1.575   2.997
 9810SOL    HW130329   4.821   1.596   2.928
 9810SOL    HW230330   4.892   1.476   3.014
 9811SOL     OW30331   1.265   0.672   3.278
 9811SOL    HW130332   1.189   0.732   3.254
 9811SOL    HW230333   1.346   0.696   3.224
 9812SOL     OW30334   5.734   2.761   6.520
 9812SOL    HW130335   5.672   2.784   6.445
 9812SOL    HW230336   5.686   2.769   6.607
 9813SOL     OW30337   6.293   4.786   0.249
 9813SOL    HW130338   6.212   4.812   0.301
 9813SOL    HW230339   6.362   4.749   0.312
 9814SOL     OW30340   6.511   1.487   6.107
 9814SOL    HW130341   6.443   1.548   6.148
 9814SOL    HW230342   6.466   1.404   6.075
 9815SOL     OW30343   6.890   5.116   2.273
 9815SOL    HW130344   6.910   5.096   2.368
 9815SOL    HW230345   6.896   5.215   2.257
 9816SOL     OW30346   6.901   1.853   4.973
 9816SOL    HW130347   6.853   1.940   4.989
 9816SOL    HW230348   6.994   1.872   4.941
 9817SOL     OW30349   2.388   1.809   0.341
 9817SOL    HW130350   2.300   1.801   0.387
 9817SOL    HW230351   2.392   1.896   0.291
 9818SOL     OW30352   0.225   6.868   2.654
 9818SOL    HW130353   0.227   6.964   2.682
 9818SOL    HW230354   0.156   6.855   2.583
 9819SOL     OW30355   5.786   1.391   4.873
 9819SOL    HW130356   5.883   1.378   4.852
 9819SOL    HW230357   5.733   1.319   4.829
 9820SOL     OW30358   3.504   0.454   6.516
 9820SOL    HW130359   3.582   0.394   6.532
 9820SOL    HW230360   3.498   0.476   6.418
 9821SOL     OW30361   4.996   4.378   6.709
 9821SOL    HW130362   4.929   4.446   6.738
 9821SOL    HW230363   5.065   4.366   6.780
 9822SOL     OW30364   3.490   6.549   3.896
 9822SOL    HW130365   3.436   6.465   3.899
 9822SOL    HW230366   3.445   6.615   3.836
 9823SOL     OW30367   4.242   5.482   3.384
 9823SOL    HW130368   4.198   5.489   3.474
 9823SOL    HW230369   4.204   5.553   3.324
 9824SOL     OW30370   1.355   6.025   5.632
 9824SOL    HW130371   1.272   6.059   5.676
 9824SOL    HW230372   1.363   5.926   5.648
 9825SOL     OW30373   0.835   6.303   4.444
 9825SOL    HW130374   0.874   6.359   4.518
 9825SOL    HW230375   0.759   6.249   4.480
 9826SOL     OW30376   1.660   5.728   5.963
 9826SOL    HW130377   1.566   5.736   5.928
 9826SOL    HW230378   1.723   5.722   5.886
 9827SOL     OW30379   1.371   4.804   1.906
 9827SOL    HW130380   1.430   4.724   1.912
 9827SOL    HW230381   1.277   4.776   1.887
 9828SOL     OW30382   4.874   2.375   4.218
 9828SOL    HW130383   4.905   2.292   4.172
 9828SOL    HW230384   4.949   2.414   4.272
 9829SOL     OW30385   5.403   3.919   5.478
 9829SOL    HW130386   5.349   3.894   5.558
 9829SOL    HW230387   5.499   3.932   5.505
 9830SOL     OW30388   5.863   1.085   3.317
 9830SOL    HW130389   5.932   1.133   3.371
 9830SOL    HW230390   5.801   1.036   3.379
 9831SOL     OW30391   0.759   4.884   1.415
 9831SOL    HW130392   0.756   4.923   1.322
 9831SOL    HW230393   0.673   4.902   1.462
 9832SOL     OW30394   5.344   5.776   5.200
 9832SOL    HW130395   5.246   5.783   5.220
 9832SOL    HW230396   5.394   5.841   5.257
 9833SOL     OW30397   3.592   2.927   4.089
 9833SOL    HW130398   3.493   2.932   4.107
 9833SOL    HW230399   3.640   2.908   4.175
 9834SOL     OW30400   3.599   5.877   6.431
 9834SOL    HW130401   3.669   5.898   6.362
 9834SOL    HW230402   3.528   5.820   6.390
 9835SOL     OW30403   3.638   3.167   3.670
 9835SOL    HW130404   3.712   3.173   3.603
 9835SOL    HW230405   3.625   3.071   3.696
 9836SOL     OW30406   6.879   2.875   6.425
 9836SOL    HW130407   6.928   2.962   6.435
 9836SOL    HW230408   6.899   2.817   6.503
 9837SOL     OW30409   6.180   0.916   4.558
 9837SOL    HW130410   6.156   0.821   4.579
 9837SOL    HW230411   6.150   0.938   4.465
 9838SOL     OW30412   0.700   5.963   0.749
 9838SOL    HW130413   0.676   6.061   0.745
 9838SOL    HW230414   0.617   5.908   0.740
 9839SOL     OW30415   3.993   6.373   3.883
 9839SOL    HW130416   4.040   6.339   3.965
 9839SOL    HW230417   3.919   6.310   3.858
 9840SOL     OW30418   6.171   2.257   6.407
 9840SOL    HW130419   6.156   2.288   6.313
 9840SOL    HW230420   6.214   2.330   6.460
 9841SOL     OW30421   6.929   5.617   2.136
 9841SOL    HW130422   6.999   5.594   2.204
 9841SOL    HW230423   6.838   5.607   2.177
 9842SOL     OW30424   4.050   0.256   0.241
 9842SOL    HW130425   4.020   0.351   0.245
 9842SOL    HW230426   4.016   0.214   0.157
 9843SOL     OW30427   0.675   0.121   0.562
 9843SOL    HW130428   0.607   0.130   0.490
 9843SOL    HW230429   0.632   0.134   0.651
 9844SOL     OW30430   5.598   1.225   4.789
 9844SOL    HW130431   5.640   1.204   4.701
 9844SOL    HW230432   5.504   1.255   4.775
 9845SOL     OW30433   1.285   3.562   2.417
 9845SOL    HW130434   1.353   3.490   2.404
 9845SOL    HW230435   1.293   3.630   2.344
 9846SOL     OW30436   6.044   2.504   2.729
 9846SOL    HW130437   5.961   2.467   2.688
 9846SOL    HW230438   6.092   2.561   2.661
 9847SOL     OW30439   3.893   4.186   6.776
 9847SOL    HW130440   3.973   4.156   6.723
 9847SOL    HW230441   3.854   4.107   6.823
 9848SOL     OW30442   3.193   3.526   5.594
 9848SOL    HW130443   3.257   3.471   5.647
 9848SOL    HW230444   3.241   3.603   5.552
 9849SOL     OW30445   1.449   1.580   2.231
 9849SOL    HW130446   1.376   1.528   2.276
 9849SOL    HW230447   1.535   1.565   2.280
 9850SOL     OW30448   2.037   0.666   3.977
 9850SOL    HW130449   2.089   0.616   3.907
 9850SOL    HW230450   2.085   0.661   4.064
 9851SOL     OW30451   3.361   5.533   4.131
 9851SOL    HW130452   3.421   5.485   4.067
 9851SOL    HW230453   3.277   5.559   4.085
 9852SOL     OW30454   2.637   0.447   6.745
 9852SOL    HW130455   2.625   0.456   6.844
 9852SOL    HW230456   2.723   0.399   6.726
 9853SOL     OW30457   0.200   4.129   4.233
 9853SOL    HW130458   0.146   4.184   4.296
 9853SOL    HW230459   0.164   4.140   4.140
 9854SOL     OW30460   6.504   3.861   0.074
 9854SOL    HW130461   6.431   3.882   0.139
 9854SOL    HW230462   6.592   3.860   0.121
 9855SOL     OW30463   0.740   6.642   0.670
 9855SOL    HW130464   0.833   6.611   0.648
 9855SOL    HW230465   0.701   6.580   0.738
 9856SOL     OW30466   4.933   4.653   3.153
 9856SOL    HW130467   4.972   4.621   3.239
 9856SOL    HW230468   4.842   4.614   3.141
 9857SOL     OW30469   4.664   6.680   5.515
 9857SOL    HW130470   4.705   6.685   5.606
 9857SOL    HW230471   4.682   6.765   5.466
 9858SOL     OW30472   6.728   5.551   2.794
 9858SOL    HW130473   6.633   5.536   2.819
 9858SOL    HW230474   6.756   5.643   2.823
 9859SOL     OW30475   0.335   6.320   3.081
 9859SOL    HW130476   0.241   6.345   3.059
 9859SOL    HW230477   0.334   6.233   3.132
 9860SOL     OW30478   1.255   3.306   3.379
 9860SOL    HW130479   1.250   3.235   3.308
 9860SOL    HW230480   1.326   3.282   3.445
 9861SOL     OW30481   4.062   2.181   4.347
 9861SOL    HW130482   4.005   2.178   4.265
 9861SOL    HW230483   4.043   2.100   4.403
 9862SOL     OW30484   1.648   2.769   6.660
 9862SOL    HW130485   1.570   2.777   6.598
 9862SOL    HW230486   1.733   2.791   6.611
 9863SOL     OW30487   3.721   5.920   1.996
 9863SOL    HW130488   3.778   5.926   2.079
 9863SOL    HW230489   3.651   5.991   1.999
 9864SOL     OW30490   3.058   6.063   5.378
 9864SOL    HW130491   3.092   6.109   5.296
 9864SOL    HW230492   2.969   6.100   5.402
 9865SOL     OW30493   2.557   4.995   6.224
 9865SOL    HW130494   2.631   4.946   6.178
 9865SOL    HW230495   2.553   4.966   6.320
 9866SOL     OW30496   0.635   5.546   5.670
 9866SOL    HW130497   0.624   5.619   5.602
 9866SOL    HW230498   0.644   5.458   5.624
 9867SOL     OW30499   5.138   1.400   2.663
 9867SOL    HW130500   5.069   1.351   2.611
 9867SOL    HW230501   5.152   1.491   2.623
 9868SOL     OW30502   2.212   4.724   3.201
 9868SOL    HW130503   2.270   4.748   3.123
 9868SOL    HW230504   2.119   4.758   3.185
 9869SOL     OW30505   5.454   1.501   2.564
 9869SOL    HW130506   5.549   1.531   2.559
 9869SOL    HW230507   5.431   1.451   2.481
 9870SOL     OW30508   2.197   2.902   2.820
 9870SOL    HW130509   2.122   2.925   2.882
 9870SOL    HW230510   2.277   2.875   2.873
 9871SOL     OW30511   6.011   5.162   3.145
 9871SOL    HW130512   5.948   5.231   3.179
 9871SOL    HW230513   6.016   5.087   3.210
 9872SOL     OW30514   0.813   6.438   4.809
 9872SOL    HW130515   0.750   6.503   4.767
 9872SOL    HW230516   0.898   6.436   4.756
 9873SOL     OW30517   0.671   0.735   5.244
 9873SOL    HW130518   0.668   0.730   5.344
 9873SOL    HW230519   0.765   0.754   5.215
 9874SOL     OW30520   6.743   1.842   3.868
 9874SOL    HW130521   6.744   1.749   3.831
 9874SOL    HW230522   6.723   1.907   3.795
 9875SOL     OW30523   6.001   5.703   0.861
 9875SOL    HW130524   5.905   5.721   0.884
 9875SOL    HW230525   6.049   5.668   0.942
 9876SOL     OW30526   0.426   0.266   3.118
 9876SOL    HW130527   0.335   0.278   3.078
 9876SOL    HW230528   0.495   0.300   3.055
 9877SOL     OW30529   1.418   5.668   5.052
 9877SOL    HW130530   1.376   5.579   5.067
 9877SOL    HW230531   1.460   5.700   5.137
 9878SOL     OW30532   4.643   3.916   0.681
 9878SOL    HW130533   4.623   3.842   0.616
 9878SOL    HW230534   4.567   3.926   0.745
 9879SOL     OW30535   5.406   5.652   4.322
 9879SOL    HW130536   5.431   5.712   4.246
 9879SOL    HW230537   5.488   5.626   4.373
 9880SOL     OW30538   2.633   1.257   0.880
 9880SOL    HW130539   2.725   1.221   0.864
 9880SOL    HW230540   2.595   1.291   0.794
 9881SOL     OW30541   6.374   0.241   3.012
 9881SOL    HW130542   6.330   0.186   2.941
 9881SOL    HW230543   6.353   0.202   3.102
 9882SOL     OW30544   3.380   4.076   4.032
 9882SOL    HW130545   3.371   4.158   3.975
 9882SOL    HW230546   3.290   4.052   4.070
 9883SOL     OW30547   1.509   5.421   3.153
 9883SOL    HW130548   1.564   5.341   3.177
 9883SOL    HW230549   1.544   5.501   3.202
 9884SOL     OW30550   3.253   2.587   5.371
 9884SOL    HW130551   3.223   2.567   5.464
 9884SOL    HW230552   3.226   2.513   5.310
 9885SOL     OW30553   5.181   2.071   5.103
 9885SOL    HW130554   5.087   2.045   5.124
 9885SOL    HW230555   5.197   2.061   5.005
 9886SOL     OW30556   2.709   6.298   1.564
 9886SOL    HW130557   2.612   6.305   1.587
 9886SOL    HW230558   2.731   6.364   1.492
 9887SOL     OW30559   3.854   1.545   0.264
 9887SOL    HW130560   3.949   1.573   0.276
 9887SOL    HW230561   3.850   1.451   0.231
 9888SOL     OW30562   6.308   6.488   4.379
 9888SOL    HW130563   6.377   6.558   4.401
 9888SOL    HW230564   6.317   6.461   4.284
 9889SOL     OW30565   6.751   6.064   1.997
 9889SOL    HW130566   6.757   6.123   1.916
 9889SOL    HW230567   6.832   6.005   2.001
 9890SOL     OW30568   2.132   3.101   3.392
 9890SOL    HW130569   2.137   3.188   3.440
 9890SOL    HW230570   2.070   3.109   3.314
 9891SOL     OW30571   3.663   0.344   2.027
 9891SOL    HW130572   3.634   0.268   1.969
 9891SOL    HW230573   3.619   0.337   2.117
 9892SOL     OW30574   2.362   5.889   3.119
 9892SOL    HW130575   2.268   5.914   3.141
 9892SOL    HW230576   2.412   5.868   3.203
 9893SOL     OW30577   5.688   4.730   4.357
 9893SOL    HW130578   5.724   4.781   4.435
 9893SOL    HW230579   5.638   4.649   4.389
 9894SOL     OW30580   4.178   3.725   5.583
 9894SOL    HW130581   4.223   3.647   5.539
 9894SOL    HW230582   4.246   3.792   5.611
 9895SOL     OW30583   4.710   2.812   6.061
 9895SOL    HW130584   4.770   2.771   5.993
 9895SOL    HW230585   4.762   2.874   6.120
 9896SOL     OW30586   4.084   3.932   6.922
 9896SOL    HW130587   4.004   3.988   6.945
 9896SOL    HW230588   4.054   3.840   6.900
 9897SOL     OW30589   1.175   1.253   2.642
 9897SOL    HW130590   1.273   1.269   2.658
 9897SOL    HW230591   1.162   1.162   2.604
 9898SOL     OW30592   0.360   5.454   0.002
 9898SOL    HW130593   0.410   5.402   6.953
 9898SOL    HW230594   0.263   5.459   6.996
 9899SOL     OW30595   3.656   5.145   0.914
 9899SOL    HW130596   3.634   5.145   0.817
 9899SOL    HW230597   3.753   5.124   0.927
 9900SOL     OW30598   2.485   5.477   2.981
 9900SOL    HW130599   2.500   5.388   3.022
 9900SOL    HW230600   2.396   5.478   2.934
 9901SOL     OW30601   3.103   1.369   6.129
 9901SOL    HW130602   3.018   1.389   6.080
 9901SOL    HW230603   3.172   1.335   6.065
 9902SOL     OW30604   4.093   4.743   0.009
 9902SOL    HW130605   4.047   4.812   0.065
 9902SOL    HW230606   4.073   4.652   0.045
 9903SOL     OW30607   2.926   1.116   0.946
 9903SOL    HW130608   2.873   1.033   0.927
 9903SOL    HW230609   3.017   1.106   0.906
 9904SOL     OW30610   6.243   5.843   1.845
 9904SOL    HW130611   6.198   5.823   1.932
 9904SOL    HW230612   6.288   5.761   1.810
 9905SOL     OW30613   2.356   6.733   0.230
 9905SOL    HW130614   2.367   6.808   0.164
 9905SOL    HW230615   2.323   6.770   0.317
 9906SOL     OW30616   3.312   3.627   6.423
 9906SOL    HW130617   3.401   3.630   6.468
 9906SOL    HW230618   3.324   3.597   6.328
 9907SOL     OW30619   0.829   6.916   3.189
 9907SOL    HW130620   0.880   6.934   3.105
 9907SOL    HW230621   0.815   7.002   3.238
 9908SOL     OW30622   6.525   2.885   6.086
 9908SOL    HW130623   6.453   2.891   6.156
 9908SOL    HW230624   6.592   2.817   6.114
 9909SOL     OW30625   2.434   6.432   2.987
 9909SOL    HW130626   2.343   6.470   2.969
 9909SOL    HW230627   2.426   6.338   3.019
 9910SOL     OW30628   0.951   5.569   0.735
 9910SOL    HW130629   1.032   5.573   0.792
 9910SOL    HW230630   0.877   5.620   0.779
 9911SOL     OW30631   3.169   4.865   2.034
 9911SOL    HW130632   3.213   4.803   1.969
 9911SOL    HW230633   3.070   4.866   2.018
 9912SOL     OW30634   5.742   6.337   0.452
 9912SOL    HW130635   5.732   6.405   0.525
 9912SOL    HW230636   5.820   6.361   0.394
 9913SOL     OW30637   6.642   1.735   2.354
 9913SOL    HW130638   6.670   1.830   2.366
 9913SOL    HW230639   6.698   1.692   2.282
 9914SOL     OW30640   2.139   5.712   3.625
 9914SOL    HW130641   2.238   5.720   3.616
 9914SOL    HW230642   2.116   5.625   3.669
 9915SOL     OW30643   6.272   5.573   3.752
 9915SOL    HW130644   6.359   5.623   3.749
 9915SOL    HW230645   6.267   5.512   3.673
 9916SOL     OW30646   1.832   3.221   0.812
 9916SOL    HW130647   1.876   3.256   0.729
 9916SOL    HW230648   1.735   3.242   0.810
 9917SOL     OW30649   1.819   4.002   4.319
 9917SOL    HW130650   1.786   4.056   4.242
 9917SOL    HW230651   1.915   3.978   4.305
 9918SOL     OW30652   1.779   2.040   3.854
 9918SOL    HW130653   1.724   2.042   3.770
 9918SOL    HW230654   1.728   2.082   3.928
 9919SOL     OW30655   0.704   5.911   1.561
 9919SOL    HW130656   0.744   5.929   1.651
 9919SOL    HW230657   0.755   5.961   1.491
 9920SOL     OW30658   3.043   1.005   3.166
 9920SOL    HW130659   3.062   1.103   3.159
 9920SOL    HW230660   3.096   0.956   3.097
 9921SOL     OW30661   4.853   0.632   2.211
 9921SOL    HW130662   4.793   0.552   2.203
 9921SOL    HW230663   4.909   0.623   2.294
 9922SOL     OW30664   6.509   2.978   2.209
 9922SOL    HW130665   6.479   3.062   2.165
 9922SOL    HW230666   6.436   2.942   2.267
 9923SOL     OW30667   5.600   6.875   6.458
 9923SOL    HW130668   5.659   6.794   6.457
 9923SOL    HW230669   5.653   6.955   6.487
 9924SOL     OW30670   5.708   6.999   3.664
 9924SOL    HW130671   5.683   0.037   3.586
 9924SOL    HW230672   5.627   6.984   3.721
 9925SOL     OW30673   4.119   2.161   4.964
 9925SOL    HW130674   4.129   2.259   4.979
 9925SOL    HW230675   4.060   2.122   5.035
 9926SOL     OW30676   1.498   1.401   6.060
 9926SOL    HW130677   1.509   1.425   5.964
 9926SOL    HW230678   1.490   1.484   6.115
 9927SOL     OW30679   2.232   4.274   4.098
 9927SOL    HW130680   2.162   4.333   4.138
 9927SOL    HW230681   2.318   4.287   4.147
 9928SOL     OW30682   6.850   3.269   3.198
 9928SOL    HW130683   6.885   3.189   3.247
 9928SOL    HW230684   6.764   3.246   3.152
 9929SOL     OW30685   1.214   5.097   5.210
 9929SOL    HW130686   1.188   5.127   5.118
 9929SOL    HW230687   1.198   4.999   5.219
 9930SOL     OW30688   6.675   6.311   6.728
 9930SOL    HW130689   6.766   6.275   6.750
 9930SOL    HW230690   6.683   6.386   6.663
 9931SOL     OW30691   1.458   4.068   0.188
 9931SOL    HW130692   1.486   4.105   0.099
 9931SOL    HW230693   1.492   4.128   0.260
 9932SOL     OW30694   1.415   1.665   1.206
 9932SOL    HW130695   1.474   1.725   1.152
 9932SOL    HW230696   1.389   1.585   1.152
 9933SOL     OW30697   1.656   1.983   3.615
 9933SOL    HW130698   1.645   2.081   3.596
 9933SOL    HW230699   1.567   1.944   3.636
 9934SOL     OW30700   5.255   0.308   5.832
 9934SOL    HW130701   5.260   0.370   5.754
 9934SOL    HW230702   5.204   0.226   5.806
 9935SOL     OW30703   3.462   2.967   0.180
 9935SOL    HW130704   3.485   2.910   0.102
 9935SOL    HW230705   3.364   2.959   0.200
 9936SOL     OW30706   4.600   5.980   0.371
 9936SOL    HW130707   4.559   6.064   0.337
 9936SOL    HW230708   4.529   5.913   0.391
 9937SOL     OW30709   1.577   0.339   4.954
 9937SOL    HW130710   1.489   0.292   4.957
 9937SOL    HW230711   1.648   0.276   4.921
 9938SOL     OW30712   0.767   1.732   3.371
 9938SOL    HW130713   0.847   1.681   3.339
 9938SOL    HW230714   0.697   1.733   3.299
 9939SOL     OW30715   3.136   3.885   0.767
 9939SOL    HW130716   3.133   3.786   0.755
 9939SOL    HW230717   3.047   3.924   0.742
 9940SOL     OW30718   6.531   1.000   2.638
 9940SOL    HW130719   6.610   1.060   2.649
 9940SOL    HW230720   6.544   0.941   2.559
 9941SOL     OW30721   5.717   3.552   0.523
 9941SOL    HW130722   5.767   3.614   0.463
 9941SOL    HW230723   5.775   3.527   0.601
 9942SOL     OW30724   5.478   4.768   2.719
 9942SOL    HW130725   5.417   4.697   2.754
 9942SOL    HW230726   5.472   4.771   2.619
 9943SOL     OW30727   1.150   4.433   5.155
 9943SOL    HW130728   1.228   4.396   5.105
 9943SOL    HW230729   1.154   4.404   5.250
 9944SOL     OW30730   1.998   5.332   6.738
 9944SOL    HW130731   2.050   5.263   6.688
 9944SOL    HW230732   1.905   5.299   6.753
 9945SOL     OW30733   6.185   3.407   5.745
 9945SOL    HW130734   6.147   3.446   5.661
 9945SOL    HW230735   6.123   3.425   5.821
 9946SOL     OW30736   5.969   1.851   0.733
 9946SOL    HW130737   5.926   1.928   0.686
 9946SOL    HW230738   6.023   1.798   0.667
 9947SOL     OW30739   0.018   0.214   3.052
 9947SOL    HW130740   0.051   0.266   3.131
 9947SOL    HW230741   6.960   0.261   3.011
 9948SOL     OW30742   4.859   1.060   5.449
 9948SOL    HW130743   4.915   0.978   5.444
 9948SOL    HW230744   4.883   1.113   5.530
 9949SOL     OW30745   6.773   3.131   2.452
 9949SOL    HW130746   6.771   3.069   2.374
 9949SOL    HW230747   6.829   3.211   2.430
 9950SOL     OW30748   5.665   4.029   6.531
 9950SOL    HW130749   5.567   4.040   6.545
 9950SOL    HW230750   5.715   4.088   6.594
 9951SOL     OW30751   6.425   2.419   2.617
 9951SOL    HW130752   6.512   2.439   2.572
 9951SOL    HW230753   6.350   2.432   2.551
 9952SOL     OW30754   1.561   4.699   1.316
 9952SOL    HW130755   1.605   4.609   1.311
 9952SOL    HW230756   1.601   4.759   1.247
 9953SOL     OW30757   6.224   4.136   5.077
 9953SOL    HW130758   6.171   4.126   4.992
 9953SOL    HW230759   6.239   4.233   5.096
 9954SOL     OW30760   4.463   2.192   1.824
 9954SOL    HW130761   4.507   2.261   1.882
 9954SOL    HW230762   4.448   2.109   1.878
 9955SOL     OW30763   6.285   4.828   2.346
 9955SOL    HW130764   6.273   4.808   2.443
 9955SOL    HW230765   6.373   4.874   2.333
 9956SOL     OW30766   0.945   4.607   3.698
 9956SOL    HW130767   1.045   4.611   3.685
 9956SOL    HW230768   0.905   4.556   3.622
 9957SOL     OW30769   5.715   6.851   0.651
 9957SOL    HW130770   5.706   6.937   0.599
 9957SOL    HW230771   5.644   6.788   0.622
 9958SOL     OW30772   6.502   6.571   5.717
 9958SOL    HW130773   6.597   6.546   5.698
 9958SOL    HW230774   6.486   6.570   5.815
 9959SOL     OW30775   6.318   5.303   0.002
 9959SOL    HW130776   6.381   5.281   0.077
 9959SOL    HW230777   6.257   5.377   0.030
 9960SOL     OW30778   6.457   6.937   6.434
 9960SOL    HW130779   6.510   6.995   6.372
 9960SOL    HW230780   6.435   6.989   6.517
 9961SOL     OW30781   3.064   0.154   0.312
 9961SOL    HW130782   3.007   0.230   0.342
 9961SOL    HW230783   3.033   0.069   0.355
 9962SOL     OW30784   3.700   0.941   1.507
 9962SOL    HW130785   3.738   0.995   1.431
 9962SOL    HW230786   3.712   0.991   1.593
 9963SOL     OW30787   0.468   0.144   6.638
 9963SOL    HW130788   0.505   0.160   6.546
 9963SOL    HW230789   0.370   0.161   6.638
 9964SOL     OW30790   4.625   5.362   4.719
 9964SOL    HW130791   4.576   5.277   4.704
 9964SOL    HW230792   4.717   5.355   4.679
 9965SOL     OW30793   2.129   5.264   4.715
 9965SOL    HW130794   2.141   5.340   4.651
 9965SOL    HW230795   2.210   5.205   4.713
 9966SOL     OW30796   1.998   4.231   2.005
 9966SOL    HW130797   2.060   4.179   2.064
 9966SOL    HW230798   2.041   4.244   1.915
 9967SOL     OW30799   6.786   0.298   2.631
 9967SOL    HW130800   6.795   0.394   2.607
 9967SOL    HW230801   6.715   0.256   2.574
 9968SOL     OW30802   4.064   6.177   0.628
 9968SOL    HW130803   4.050   6.184   0.529
 9968SOL    HW230804   4.147   6.125   0.646
 9969SOL     OW30805   0.722   6.662   3.104
 9969SOL    HW130806   0.691   6.606   3.181
 9969SOL    HW230807   0.760   6.748   3.139
 9970SOL     OW30808   1.038   3.225   1.396
 9970SOL    HW130809   1.103   3.158   1.360
 9970SOL    HW230810   1.065   3.251   1.488
 9971SOL     OW30811   0.356   5.511   5.911
 9971SOL    HW130812   0.362   5.520   5.811
 9971SOL    HW230813   0.373   5.416   5.937
 9972SOL     OW30814   3.158   4.510   5.713
 9972SOL    HW130815   3.139   4.433   5.652
 9972SOL    HW230816   3.236   4.562   5.678
 9973SOL     OW30817   3.092   2.169   2.705
 9973SOL    HW130818   3.114   2.103   2.634
 9973SOL    HW230819   3.152   2.154   2.784
 9974SOL     OW30820   0.496   3.683   3.121
 9974SOL    HW130821   0.473   3.605   3.063
 9974SOL    HW230822   0.412   3.735   3.142
 9975SOL     OW30823   1.302   4.448   6.877
 9975SOL    HW130824   1.312   4.371   6.814
 9975SOL    HW230825   1.216   4.495   6.857
 9976SOL     OW30826   4.279   5.783   5.055
 9976SOL    HW130827   4.314   5.790   4.961
 9976SOL    HW230828   4.355   5.794   5.119
 9977SOL     OW30829   4.121   0.351   5.825
 9977SOL    HW130830   4.181   0.293   5.768
 9977SOL    HW230831   4.123   0.318   5.919
 9978SOL     OW30832   6.348   3.145   0.024
 9978SOL    HW130833   6.266   3.198   0.047
 9978SOL    HW230834   6.427   3.207   0.018
 9979SOL     OW30835   3.519   4.061   3.633
 9979SOL    HW130836   3.556   4.111   3.712
 9979SOL    HW230837   3.429   4.024   3.658
 9980SOL     OW30838   0.229   6.724   6.539
 9980SOL    HW130839   0.251   6.671   6.457
 9980SOL    HW230840   0.299   6.708   6.609
 9981SOL     OW30841   5.201   0.849   0.866
 9981SOL    HW130842   5.219   0.751   0.873
 9981SOL    HW230843   5.210   0.891   0.956
 9982SOL     OW30844   2.756   2.062   4.918
 9982SOL    HW130845   2.806   2.110   4.989
 9982SOL    HW230846   2.680   2.119   4.886
 9983SOL     OW30847   0.633   2.801   1.933
 9983SOL    HW130848   0.709   2.848   1.977
 9983SOL    HW230849   0.563   2.867   1.907
 9984SOL     OW30850   1.247   4.709   1.259
 9984SOL    HW130851   1.227   4.624   1.211
 9984SOL    HW230852   1.337   4.703   1.302
 9985SOL     OW30853   5.208   4.516   5.781
 9985SOL    HW130854   5.274   4.553   5.715
 9985SOL    HW230855   5.203   4.417   5.771
 9986SOL     OW30856   5.808   4.182   6.714
 9986SOL    HW130857   5.891   4.223   6.750
 9986SOL    HW230858   5.731   4.245   6.726
 9987SOL     OW30859   5.052   1.663   0.398
 9987SOL    HW130860   5.014   1.742   0.349
 9987SOL    HW230861   4.991   1.585   0.387
 9988SOL     OW30862   5.348   6.743   4.033
 9988SOL    HW130863   5.401   6.722   3.951
 9988SOL    HW230864   5.362   6.672   4.101
 9989SOL     OW30865   6.349   5.189   2.002
 9989SOL    HW130866   6.444   5.193   1.971
 9989SOL    HW230867   6.334   5.260   2.071
 9990SOL     OW30868   0.278   5.842   2.891
 9990SOL    HW130869   0.185   5.827   2.858
 9990SOL    HW230870   0.297   5.940   2.894
 9991SOL     OW30871   2.011   3.426   1.878
 9991SOL    HW130872   2.018   3.394   1.783
 9991SOL    HW230873   2.102   3.447   1.913
 9992SOL     OW30874   2.138   4.118   0.535
 9992SOL    HW130875   2.144   4.210   0.576
 9992SOL    HW230876   2.080   4.060   0.592
 9993SOL     OW30877   3.606   7.000   4.341
 9993SOL    HW130878   3.524   0.003   4.393
 9993SOL    HW230879   3.666   0.061   4.336
 9994SOL     OW30880   5.941   4.753   5.506
 9994SOL    HW130881   5.973   4.846   5.487
 9994SOL    HW230882   5.853   4.738   5.460
 9995SOL     OW30883   4.398   2.071   6.253
 9995SOL    HW130884   4.381   2.167   6.273
 9995SOL    HW230885   4.477   2.063   6.193
 9996SOL     OW30886   2.362   4.707   1.242
 9996SOL    HW130887   2.401   4.710   1.334
 9996SOL    HW230888   2.401   4.781   1.187
 9997SOL     OW30889   5.432   0.360   3.122
 9997SOL    HW130890   5.396   0.374   3.030
 9997SOL    HW230891   5.425   0.446   3.173
 9998SOL     OW30892   5.401   3.754   2.330
 9998SOL    HW130893   5.343   3.810   2.271
 9998SOL    HW230894   5.444   3.811   2.399
 9999SOL     OW30895   0.726   0.372   4.706
 9999SOL    HW130896   0.640   0.364   4.654
 9999SOL    HW230897   0.746   0.468   4.723
10000SOL     OW30898   4.484   3.420   1.719
10000SOL    HW130899   4.413   3.361   1.757
10000SOL    HW230900   4.573   3.376   1.729
10001SOL     OW30901   4.250   6.746   1.413
10001SOL    HW130902   4.314   6.677   1.446
10001SOL    HW230903   4.204   6.789   1.491
10002SOL     OW30904   2.212   6.576   2.942
10002SOL    HW130905   2.129   6.531   2.975
10002SOL    HW230906   2.187   6.654   2.885
10003SOL     OW30907   0.308   1.508   2.686
10003SOL    HW130908   0.287   1.602   2.710
10003SOL    HW230909   0.299   1.450   2.767
10004SOL     OW30910   0.151   2.584   3.235
10004SOL    HW130911   0.223   2.594   3.304
10004SOL    HW230912   0.133   2.673   3.193
10005SOL     OW30913   2.869   6.064   2.514
10005SOL    HW130914   2.793   6.003   2.536
10005SOL    HW230915   2.838   6.159   2.517
10006SOL     OW30916   5.574   1.883   6.276
10006SOL    HW130917   5.629   1.965   6.261
10006SOL    HW230918   5.478   1.909   6.287
10007SOL     OW30919   1.803   4.963   3.375
10007SOL    HW130920   1.813   4.957   3.474
10007SOL    HW230921   1.774   5.055   3.350
10008SOL     OW30922   4.034   0.831   6.120
10008SOL    HW130923   3.965   0.790   6.180
10008SOL    HW230924   4.002   0.827   6.025
10009SOL     OW30925   1.316   5.403   2.004
10009SOL    HW130926   1.267   5.386   2.089
10009SOL    HW230927   1.325   5.318   1.953
10010SOL     OW30928   2.056   4.964   0.809
10010SOL    HW130929   2.090   4.973   0.902
10010SOL    HW230930   1.974   5.021   0.798
10011SOL     OW30931   3.073   3.526   0.047
10011SOL    HW130932   3.111   3.580   0.122
10011SOL    HW230933   3.052   3.587   6.990
10012SOL     OW30934   5.994   1.817   2.933
10012SOL    HW130935   5.932   1.742   2.910
10012SOL    HW230936   5.986   1.839   3.030
10013SOL     OW30937   0.199   6.137   5.801
10013SOL    HW130938   0.213   6.066   5.731
10013SOL    HW230939   0.215   6.098   5.891
10014SOL     OW30940   1.120   1.154   3.206
10014SOL    HW130941   1.045   1.196   3.156
10014SOL    HW230942   1.203   1.156   3.150
10015SOL     OW30943   4.164   0.662   6.934
10015SOL    HW130944   4.182   0.626   0.006
10015SOL    HW230945   4.152   0.761   6.939
10016SOL     OW30946   2.824   1.220   4.671
10016SOL    HW130947   2.850   1.290   4.737
10016SOL    HW230948   2.770   1.262   4.598
10017SOL     OW30949   3.282   1.671   3.006
10017SOL    HW130950   3.199   1.717   3.038
10017SOL    HW230951   3.347   1.739   2.972
10018SOL     OW30952   0.173   4.735   5.431
10018SOL    HW130953   0.210   4.824   5.407
10018SOL    HW230954   0.151   4.732   5.528
10019SOL     OW30955   6.786   1.578   2.155
10019SOL    HW130956   6.878   1.607   2.178
10019SOL    HW230957   6.774   1.482   2.181
10020SOL     OW30958   6.497   0.891   2.985
10020SOL    HW130959   6.406   0.929   2.967
10020SOL    HW230960   6.521   0.907   3.081
10021SOL     OW30961   2.238   3.801   1.262
10021SOL    HW130962   2.185   3.716   1.263
10021SOL    HW230963   2.335   3.779   1.250
10022SOL     OW30964   1.181   6.772   6.093
10022SOL    HW130965   1.192   6.755   5.995
10022SOL    HW230966   1.089   6.747   6.121
10023SOL     OW30967   1.176   1.408   4.960
10023SOL    HW130968   1.143   1.371   4.873
10023SOL    HW230969   1.099   1.435   5.017
10024SOL     OW30970   1.799   4.311   3.498
10024SOL    HW130971   1.712   4.306   3.449
10024SOL    HW230972   1.855   4.232   3.474
10025SOL     OW30973   0.656   2.736   1.411
10025SOL    HW130974   0.714   2.721   1.331
10025SOL    HW230975   0.705   2.791   1.478
10026SOL     OW30976   6.576   1.088   4.384
10026SOL    HW130977   6.497   1.059   4.330
10026SOL    HW230978   6.548   1.156   4.452
10027SOL     OW30979   3.241   1.270   5.916
10027SOL    HW130980   3.224   1.177   5.884
10027SOL    HW230981   3.211   1.335   5.846
10028SOL     OW30982   3.816   6.319   2.114
10028SOL    HW130983   3.807   6.416   2.092
10028SOL    HW230984   3.908   6.288   2.092
10029SOL     OW30985   0.055   5.404   4.216
10029SOL    HW130986   0.137   5.431   4.166
10029SOL    HW230987   0.019   5.318   4.179
10030SOL     OW30988   2.805   6.946   4.046
10030SOL    HW130989   2.758   6.933   3.958
10030SOL    HW230990   2.903   6.950   4.031
10031SOL     OW30991   1.695   6.779   3.672
10031SOL    HW130992   1.639   6.756   3.593
10031SOL    HW230993   1.680   6.875   3.698
10032SOL     OW30994   2.748   5.725   4.555
10032SOL    HW130995   2.755   5.631   4.521
10032SOL    HW230996   2.767   5.726   4.654
10033SOL     OW30997   2.092   1.396   4.764
10033SOL    HW130998   2.156   1.322   4.743
10033SOL    HW230999   2.062   1.440   4.680
10034SOL     OW31000   2.378   1.344   1.889
10034SOL    HW131001   2.456   1.362   1.829
10034SOL    HW231002   2.363   1.245   1.894
10035SOL     OW31003   0.544   2.992   2.242
10035SOL    HW131004   0.586   3.067   2.293
10035SOL    HW231005   0.460   3.023   2.198
10036SOL     OW31006   0.283   1.650   0.266
10036SOL    HW131007   0.283   1.712   0.188
10036SOL    HW231008   0.261   1.700   0.349
10037SOL     OW31009   6.180   0.653   6.013
10037SOL    HW131010   6.183   0.607   6.101
10037SOL    HW231011   6.209   0.748   6.024
10038SOL     OW31012   4.864   6.966   6.672
10038SOL    HW131013   4.774   6.978   6.713
10038SOL    HW231014   4.906   6.883   6.709
10039SOL     OW31015   0.129   4.843   1.300
10039SOL    HW131016   0.212   4.888   1.267
10039SOL    HW231017   0.060   4.842   1.226
10040SOL     OW31018   2.938   0.552   0.511
10040SOL    HW131019   2.968   0.594   0.597
10040SOL    HW231020   2.924   0.623   0.442
10041SOL     OW31021   5.895   4.308   5.458
10041SOL    HW131022   5.990   4.291   5.486
10041SOL    HW231023   5.880   4.271   5.366
10042SOL     OW31024   6.271   0.762   5.137
10042SOL    HW131025   6.235   0.694   5.073
10042SOL    HW231026   6.280   0.720   5.227
10043SOL     OW31027   0.594   0.386   2.919
10043SOL    HW131028   0.565   0.363   2.826
10043SOL    HW231029   0.643   0.473   2.918
10044SOL     OW31030   3.206   2.306   6.788
10044SOL    HW131031   3.200   2.230   6.724
10044SOL    HW231032   3.301   2.323   6.812
10045SOL     OW31033   4.121   6.763   4.400
10045SOL    HW131034   4.036   6.721   4.368
10045SOL    HW231035   4.102   6.857   4.430
10046SOL     OW31036   6.624   2.171   1.353
10046SOL    HW131037   6.547   2.115   1.324
10046SOL    HW231038   6.590   2.259   1.388
10047SOL     OW31039   0.881   3.052   3.147
10047SOL    HW131040   0.801   2.992   3.150
10047SOL    HW231041   0.914   3.068   3.240
10048SOL     OW31042   3.289   2.196   1.845
10048SOL    HW131043   3.272   2.277   1.788
10048SOL    HW231044   3.205   2.142   1.850
10049SOL     OW31045   1.086   5.469   4.815
10049SOL    HW131046   1.035   5.445   4.898
10049SOL    HW231047   1.184   5.458   4.833
10050SOL     OW31048   6.094   1.344   5.316
10050SOL    HW131049   6.159   1.390   5.256
10050SOL    HW231050   6.127   1.252   5.337
10051SOL     OW31051   6.120   1.704   0.571
10051SOL    HW131052   6.217   1.698   0.595
10051SOL    HW231053   6.091   1.618   0.527
10052SOL     OW31054   1.809   5.340   1.071
10052SOL    HW131055   1.767   5.257   1.036
10052SOL    HW231056   1.825   5.404   0.995
10053SOL     OW31057   2.798   6.326   3.567
10053SOL    HW131058   2.878   6.267   3.578
10053SOL    HW231059   2.762   6.317   3.474
10054SOL     OW31060   4.872   4.494   3.465
10054SOL    HW131061   4.810   4.416   3.472
10054SOL    HW231062   4.825   4.577   3.496
10055SOL     OW31063   4.994   2.905   0.081
10055SOL    HW131064   4.900   2.894   0.047
10055SOL    HW231065   5.055   2.923   0.003
10056SOL     OW31066   4.937   3.796   3.096
10056SOL    HW131067   4.888   3.762   3.176
10056SOL    HW231068   4.972   3.719   3.043
10057SOL     OW31069   2.297   2.605   2.816
10057SOL    HW131070   2.249   2.693   2.809
10057SOL    HW231071   2.288   2.555   2.730
10058SOL     OW31072   1.060   4.885   3.930
10058SOL    HW131073   1.075   4.788   3.949
10058SOL    HW231074   1.088   4.939   4.009
10059SOL     OW31075   4.663   6.343   1.673
10059SOL    HW131076   4.664   6.439   1.703
10059SOL    HW231077   4.574   6.302   1.695
10060SOL     OW31078   2.356   2.346   2.330
10060SOL    HW131079   2.305   2.278   2.382
10060SOL    HW231080   2.454   2.332   2.343
10061SOL     OW31081   0.168   1.870   5.781
10061SOL    HW131082   0.092   1.823   5.736
10061SOL    HW231083   0.250   1.863   5.723
10062SOL     OW31084   5.484   5.909   3.152
10062SOL    HW131085   5.419   5.887   3.079
10062SOL    HW231086   5.573   5.868   3.131
10063SOL     OW31087   0.700   2.603   2.113
10063SOL    HW131088   0.792   2.574   2.088
10063SOL    HW231089   0.676   2.685   2.061
10064SOL     OW31090   5.114   4.806   5.689
10064SOL    HW131091   5.090   4.799   5.592
10064SOL    HW231092   5.068   4.734   5.741
10065SOL     OW31093   0.233   0.336   2.867
10065SOL    HW131094   0.173   0.316   2.944
10065SOL    HW231095   0.226   0.262   2.800
10066SOL     OW31096   0.087   0.579   4.143
10066SOL    HW131097   0.050   0.666   4.175
10066SOL    HW231098   0.054   0.505   4.202
10067SOL     OW31099   4.722   6.513   3.466
10067SOL    HW131100   4.734   6.492   3.369
10067SOL    HW231101   4.628   6.540   3.484
10068SOL     OW31102   5.388   3.280   5.542
10068SOL    HW131103   5.486   3.264   5.537
10068SOL    HW231104   5.339   3.193   5.537
10069SOL     OW31105   4.700   1.638   4.221
10069SOL    HW131106   4.761   1.574   4.174
10069SOL    HW231107   4.605   1.612   4.204
10070SOL     OW31108   1.291   0.226   4.245
10070SOL    HW131109   1.283   0.303   4.182
10070SOL    HW231110   1.278   0.259   4.339
10071SOL     OW31111   5.086   4.484   5.044
10071SOL    HW131112   5.046   4.414   5.104
10071SOL    HW231113   5.119   4.442   4.960
10072SOL     OW31114   0.934   6.184   4.094
10072SOL    HW131115   0.916   6.280   4.072
10072SOL    HW231116   0.966   6.136   4.013
10073SOL     OW31117   6.869   5.990   6.147
10073SOL    HW131118   6.800   5.972   6.078
10073SOL    HW231119   6.851   6.078   6.191
10074SOL     OW31120   2.388   6.971   4.597
10074SOL    HW131121   2.456   6.984   4.525
10074SOL    HW231122   2.315   6.911   4.565
10075SOL     OW31123   1.083   2.895   4.389
10075SOL    HW131124   1.059   2.837   4.311
10075SOL    HW231125   1.161   2.854   4.438
10076SOL     OW31126   5.951   6.939   3.760
10076SOL    HW131127   6.002   0.000   3.731
10076SOL    HW231128   5.858   6.943   3.723
10077SOL     OW31129   2.747   1.415   5.664
10077SOL    HW131130   2.789   1.503   5.687
10077SOL    HW231131   2.649   1.427   5.651
10078SOL     OW31132   5.373   6.357   5.248
10078SOL    HW131133   5.439   6.399   5.309
10078SOL    HW231134   5.401   6.372   5.153
10079SOL     OW31135   0.733   2.708   6.039
10079SOL    HW131136   0.712   2.677   5.946
10079SOL    HW231137   0.803   2.779   6.035
10080SOL     OW31138   1.065   2.799   5.510
10080SOL    HW131139   1.102   2.719   5.461
10080SOL    HW231140   1.096   2.882   5.464
10081SOL     OW31141   0.649   1.128   0.482
10081SOL    HW131142   0.696   1.086   0.405
10081SOL    HW231143   0.556   1.093   0.488
10082SOL     OW31144   6.554   0.636   0.622
10082SOL    HW131145   6.570   0.561   0.687
10082SOL    HW231146   6.636   0.650   0.567
10083SOL     OW31147   5.224   1.302   4.395
10083SOL    HW131148   5.310   1.260   4.364
10083SOL    HW231149   5.195   1.259   4.480
10084SOL     OW31150   2.581   0.471   6.189
10084SOL    HW131151   2.583   0.485   6.288
10084SOL    HW231152   2.644   0.397   6.165
10085SOL     OW31153   1.317   5.092   2.754
10085SOL    HW131154   1.284   5.122   2.665
10085SOL    HW231155   1.246   5.107   2.823
10086SOL     OW31156   0.007   2.810   2.228
10086SOL    HW131157   6.953   2.875   2.208
10086SOL    HW231158   6.987   2.722   2.255
10087SOL     OW31159   2.069   0.664   3.456
10087SOL    HW131160   2.008   0.680   3.534
10087SOL    HW231161   2.031   0.709   3.375
10088SOL     OW31162   5.573   0.207   4.711
10088SOL    HW131163   5.557   0.158   4.625
10088SOL    HW231164   5.671   0.220   4.724
10089SOL     OW31165   2.423   2.584   2.197
10089SOL    HW131166   2.400   2.544   2.285
10089SOL    HW231167   2.458   2.513   2.136
10090SOL     OW31168   0.742   5.510   2.088
10090SOL    HW131169   0.829   5.473   2.055
10090SOL    HW231170   0.705   5.572   2.019
10091SOL     OW31171   0.647   1.642   4.533
10091SOL    HW131172   0.606   1.577   4.597
10091SOL    HW231173   0.710   1.593   4.473
10092SOL     OW31174   1.833   2.759   5.813
10092SOL    HW131175   1.817   2.661   5.809
10092SOL    HW231176   1.908   2.783   5.751
10093SOL     OW31177   6.674   6.718   6.078
10093SOL    HW131178   6.694   6.692   6.172
10093SOL    HW231179   6.650   6.815   6.074
10094SOL     OW31180   1.595   0.358   1.860
10094SOL    HW131181   1.535   0.435   1.840
10094SOL    HW231182   1.602   0.346   1.959
10095SOL     OW31183   0.253   2.093   5.084
10095SOL    HW131184   0.251   2.095   4.984
10095SOL    HW231185   0.177   2.147   5.119
10096SOL     OW31186   6.499   5.551   2.553
10096SOL    HW131187   6.551   5.629   2.587
10096SOL    HW231188   6.427   5.583   2.491
10097SOL     OW31189   1.232   2.653   6.050
10097SOL    HW131190   1.236   2.673   6.148
10097SOL    HW231191   1.196   2.732   6.001
10098SOL     OW31192   3.600   5.338   6.489
10098SOL    HW131193   3.602   5.291   6.401
10098SOL    HW231194   3.647   5.426   6.480
10099SOL     OW31195   0.478   4.115   4.299
10099SOL    HW131196   0.485   4.176   4.221
10099SOL    HW231197   0.398   4.056   4.289
10100SOL     OW31198   5.032   0.353   5.990
10100SOL    HW131199   5.091   0.352   5.909
10100SOL    HW231200   5.075   0.299   6.062
10101SOL     OW31201   6.779   4.352   2.533
10101SOL    HW131202   6.800   4.318   2.624
10101SOL    HW231203   6.681   4.373   2.527
10102SOL     OW31204   3.915   0.804   4.305
10102SOL    HW131205   3.915   0.889   4.252
10102SOL    HW231206   3.839   0.806   4.371
10103SOL     OW31207   0.535   2.817   0.544
10103SOL    HW131208   0.474   2.791   0.619
10103SOL    HW231209   0.615   2.757   0.545
10104SOL     OW31210   2.081   5.366   5.638
10104SOL    HW131211   2.062   5.370   5.539
10104SOL    HW231212   1.995   5.379   5.688
10105SOL     OW31213   3.276   0.494   0.065
10105SOL    HW131214   3.217   0.537   0.133
10105SOL    HW231215   3.321   0.415   0.105
10106SOL     OW31216   4.590   5.482   1.275
10106SOL    HW131217   4.610   5.553   1.342
10106SOL    HW231218   4.659   5.484   1.203
10107SOL     OW31219   5.730   1.074   6.125
10107SOL    HW131220   5.645   1.025   6.145
10107SOL    HW231221   5.808   1.014   6.144
10108SOL     OW31222   4.975   5.947   5.957
10108SOL    HW131223   5.068   5.975   5.979
10108SOL    HW231224   4.938   6.005   5.884
10109SOL     OW31225   4.834   5.574   3.075
10109SOL    HW131226   4.911   5.601   3.134
10109SOL    HW231227   4.810   5.479   3.093
10110SOL     OW31228   3.350   1.986   5.646
10110SOL    HW131229   3.418   1.914   5.657
10110SOL    HW231230   3.395   2.074   5.636
10111SOL     OW31231   6.476   2.387   1.445
10111SOL    HW131232   6.561   2.412   1.491
10111SOL    HW231233   6.446   2.462   1.387
10112SOL     OW31234   4.749   3.854   5.838
10112SOL    HW131235   4.775   3.930   5.778
10112SOL    HW231236   4.807   3.775   5.820
10113SOL     OW31237   3.615   6.856   1.067
10113SOL    HW131238   3.585   6.892   1.156
10113SOL    HW231239   3.679   6.781   1.082
10114SOL     OW31240   4.670   1.500   1.965
10114SOL    HW131241   4.767   1.523   1.973
10114SOL    HW231242   4.627   1.507   2.054
10115SOL     OW31243   1.169   1.708   4.853
10115SOL    HW131244   1.188   1.670   4.944
10115SOL    HW231245   1.214   1.652   4.784
10116SOL     OW31246   0.672   0.495   0.779
10116SOL    HW131247   0.685   0.437   0.859
10116SOL    HW231248   0.682   0.591   0.805
10117SOL     OW31249   4.488   6.904   5.995
10117SOL    HW131250   4.530   6.990   6.024
10117SOL    HW231251   4.412   6.882   6.056
10118SOL     OW31252   5.839   5.184   2.572
10118SOL    HW131253   5.783   5.177   2.489
10118SOL    HW231254   5.820   5.107   2.632
10119SOL     OW31255   1.876   0.086   6.087
10119SOL    HW131256   1.803   0.066   6.020
10119SOL    HW231257   1.848   0.053   6.177
10120SOL     OW31258   5.715   3.560   3.458
10120SOL    HW131259   5.808   3.529   3.438
10120SOL    HW231260   5.716   3.658   3.478
10121SOL     OW31261   5.812   4.525   3.735
10121SOL    HW131262   5.813   4.498   3.639
10121SOL    HW231263   5.891   4.486   3.782
10122SOL     OW31264   5.281   2.662   1.076
10122SOL    HW131265   5.183   2.675   1.058
10122SOL    HW231266   5.300   2.564   1.080
10123SOL     OW31267   0.283   6.708   6.969
10123SOL    HW131268   0.292   6.612   6.996
10123SOL    HW231269   0.313   6.720   6.875
10124SOL     OW31270   3.323   4.066   0.636
10124SOL    HW131271   3.386   4.057   0.713
10124SOL    HW231272   3.248   4.000   0.647
10125SOL     OW31273   2.446   0.379   0.177
10125SOL    HW131274   2.352   0.413   0.167
10125SOL    HW231275   2.488   0.372   0.086
10126SOL     OW31276   5.625   5.466   5.997
10126SOL    HW131277   5.715   5.433   5.971
10126SOL    HW231278   5.615   5.562   5.968
10127SOL     OW31279   4.025   4.912   5.044
10127SOL    HW131280   4.024   4.825   5.092
10127SOL    HW231281   3.945   4.966   5.070
10128SOL     OW31282   1.238   1.163   1.291
10128SOL    HW131283   1.293   1.237   1.252
10128SOL    HW231284   1.234   1.171   1.390
10129SOL     OW31285   5.438   2.633   2.810
10129SOL    HW131286   5.388   2.666   2.730
10129SOL    HW231287   5.373   2.611   2.883
10130SOL     OW31288   5.922   5.657   1.291
10130SOL    HW131289   5.870   5.586   1.337
10130SOL    HW231290   5.869   5.693   1.214
10131SOL     OW31291   0.307   0.213   0.306
10131SOL    HW131292   0.405   0.194   0.313
10131SOL    HW231293   0.256   0.139   0.349
10132SOL     OW31294   2.276   6.739   2.593
10132SOL    HW131295   2.266   6.641   2.582
10132SOL    HW231296   2.298   6.781   2.505
10133SOL     OW31297   6.343   4.419   2.909
10133SOL    HW131298   6.328   4.517   2.918
10133SOL    HW231299   6.267   4.370   2.952
10134SOL     OW31300   0.329   1.429   1.373
10134SOL    HW131301   0.344   1.428   1.472
10134SOL    HW231302   0.236   1.460   1.353
10135SOL     OW31303   3.192   6.161   2.880
10135SOL    HW131304   3.145   6.142   2.967
10135SOL    HW231305   3.162   6.094   2.812
10136SOL     OW31306   6.444   6.593   2.656
10136SOL    HW131307   6.373   6.580   2.587
10136SOL    HW231308   6.521   6.644   2.616
10137SOL     OW31309   5.523   4.941   4.212
10137SOL    HW131310   5.445   4.927   4.272
10137SOL    HW231311   5.605   4.901   4.252
10138SOL     OW31312   6.283   3.073   5.939
10138SOL    HW131313   6.342   3.079   6.019
10138SOL    HW231314   6.200   3.023   5.962
10139SOL     OW31315   3.948   3.307   3.425
10139SOL    HW131316   3.855   3.335   3.401
10139SOL    HW231317   3.958   3.208   3.410
10140SOL     OW31318   1.040   4.902   4.336
10140SOL    HW131319   1.070   4.958   4.258
10140SOL    HW231320   1.061   4.950   4.421
10141SOL     OW31321   2.329   0.635   3.540
10141SOL    HW131322   2.336   0.723   3.586
10141SOL    HW231323   2.238   0.624   3.501
10142SOL     OW31324   5.232   5.688   4.539
10142SOL    HW131325   5.296   5.683   4.463
10142SOL    HW231326   5.171   5.766   4.525
10143SOL     OW31327   4.544   6.215   1.262
10143SOL    HW131328   4.537   6.315   1.265
10143SOL    HW231329   4.530   6.184   1.168
10144SOL     OW31330   2.815   4.798   2.735
10144SOL    HW131331   2.894   4.757   2.688
10144SOL    HW231332   2.731   4.769   2.690
10145SOL     OW31333   2.843   0.359   6.121
10145SOL    HW131334   2.810   0.282   6.066
10145SOL    HW231335   2.914   0.327   6.184
10146SOL     OW31336   4.591   4.925   4.152
10146SOL    HW131337   4.537   4.926   4.067
10146SOL    HW231338   4.651   4.845   4.152
10147SOL     OW31339   4.861   5.910   4.403
10147SOL    HW131340   4.898   6.001   4.383
10147SOL    HW231341   4.766   5.906   4.371
10148SOL     OW31342   6.254   5.610   1.008
10148SOL    HW131343   6.333   5.663   0.975
10148SOL    HW231344   6.253   5.610   1.108
10149SOL     OW31345   3.962   2.819   1.468
10149SOL    HW131346   4.023   2.858   1.399
10149SOL    HW231347   3.906   2.892   1.507
10150SOL     OW31348   5.670   4.521   0.721
10150SOL    HW131349   5.731   4.539   0.798
10150SOL    HW231350   5.625   4.433   0.735
10151SOL     OW31351   0.562   5.299   6.010
10151SOL    HW131352   0.493   5.299   6.082
10151SOL    HW231353   0.606   5.209   6.006
10152SOL     OW31354   0.783   5.782   4.205
10152SOL    HW131355   0.848   5.834   4.149
10152SOL    HW231356   0.783   5.686   4.176
10153SOL     OW31357   5.394   5.305   3.827
10153SOL    HW131358   5.344   5.274   3.907
10153SOL    HW231359   5.484   5.340   3.855
10154SOL     OW31360   6.634   6.023   5.513
10154SOL    HW131361   6.541   5.994   5.489
10154SOL    HW231362   6.661   5.981   5.599
10155SOL     OW31363   3.603   1.255   5.600
10155SOL    HW131364   3.509   1.234   5.571
10155SOL    HW231365   3.609   1.350   5.628
10156SOL     OW31366   5.555   0.141   2.402
10156SOL    HW131367   5.606   0.151   2.487
10156SOL    HW231368   5.616   0.102   2.332
10157SOL     OW31369   5.069   0.581   3.777
10157SOL    HW131370   5.088   0.650   3.707
10157SOL    HW231371   5.149   0.570   3.836
10158SOL     OW31372   4.769   3.374   5.938
10158SOL    HW131373   4.833   3.337   6.006
10158SOL    HW231374   4.688   3.408   5.985
10159SOL     OW31375   1.467   1.010   6.318
10159SOL    HW131376   1.501   1.058   6.238
10159SOL    HW231377   1.537   1.008   6.389
10160SOL     OW31378   0.685   6.122   3.854
10160SOL    HW131379   0.612   6.190   3.855
10160SOL    HW231380   0.691   6.078   3.944
10161SOL     OW31381   2.833   5.789   4.833
10161SOL    HW131382   2.903   5.841   4.784
10161SOL    HW231383   2.869   5.699   4.857
10162SOL     OW31384   3.106   2.780   6.354
10162SOL    HW131385   3.117   2.727   6.438
10162SOL    HW231386   3.150   2.869   6.364
10163SOL     OW31387   0.660   3.541   5.800
10163SOL    HW131388   0.613   3.610   5.745
10163SOL    HW231389   0.603   3.460   5.808
10164SOL     OW31390   1.645   2.577   6.177
10164SOL    HW131391   1.565   2.517   6.187
10164SOL    HW231392   1.633   2.658   6.234
10165SOL     OW31393   6.968   2.124   3.053
10165SOL    HW131394   0.047   2.106   3.059
10165SOL    HW231395   6.953   2.217   3.020
10166SOL     OW31396   0.672   0.976   2.618
10166SOL    HW131397   0.661   1.074   2.634
10166SOL    HW231398   0.586   0.937   2.587
10167SOL     OW31399   4.965   0.786   0.715
10167SOL    HW131400   4.875   0.807   0.753
10167SOL    HW231401   5.037   0.819   0.776
10168SOL     OW31402   6.692   4.581   4.813
10168SOL    HW131403   6.658   4.566   4.720
10168SOL    HW231404   6.615   4.578   4.877
10169SOL     OW31405   6.656   4.038   5.070
10169SOL    HW131406   6.634   4.132   5.043
10169SOL    HW231407   6.736   4.038   5.130
10170SOL     OW31408   1.381   4.534   4.820
10170SOL    HW131409   1.333   4.619   4.802
10170SOL    HW231410   1.468   4.533   4.772
10171SOL     OW31411   5.971   2.581   6.444
10171SOL    HW131412   5.908   2.631   6.503
10171SOL    HW231413   5.979   2.628   6.356
10172SOL     OW31414   4.739   0.639   4.613
10172SOL    HW131415   4.662   0.596   4.659
10172SOL    HW231416   4.816   0.647   4.677
10173SOL     OW31417   1.826   2.650   2.733
10173SOL    HW131418   1.827   2.689   2.826
10173SOL    HW231419   1.919   2.626   2.706
10174SOL     OW31420   6.401   4.332   1.233
10174SOL    HW131421   6.462   4.302   1.159
10174SOL    HW231422   6.396   4.432   1.233
10175SOL     OW31423   5.744   2.595   5.671
10175SOL    HW131424   5.776   2.512   5.716
10175SOL    HW231425   5.693   2.570   5.588
10176SOL     OW31426   2.564   3.239   0.726
10176SOL    HW131427   2.542   3.305   0.655
10176SOL    HW231428   2.554   3.282   0.816
10177SOL     OW31429   1.570   0.030   5.315
10177SOL    HW131430   1.612   0.080   5.391
10177SOL    HW231431   1.617   6.962   5.303
10178SOL     OW31432   5.426   2.819   5.038
10178SOL    HW131433   5.442   2.868   5.124
10178SOL    HW231434   5.481   2.860   4.966
10179SOL     OW31435   6.976   3.243   6.908
10179SOL    HW131436   6.905   3.304   6.945
10179SOL    HW231437   6.978   3.158   6.961
10180SOL     OW31438   2.032   6.743   5.962
10180SOL    HW131439   1.936   6.731   5.934
10180SOL    HW231440   2.040   6.731   6.061
10181SOL     OW31441   6.197   3.426   2.285
10181SOL    HW131442   6.150   3.423   2.374
10181SOL    HW231443   6.289   3.390   2.295
10182SOL     OW31444   4.117   1.844   0.685
10182SOL    HW131445   4.155   1.900   0.612
10182SOL    HW231446   4.138   1.748   0.668
10183SOL     OW31447   1.816   1.536   5.882
10183SOL    HW131448   1.790   1.552   5.787
10183SOL    HW231449   1.738   1.558   5.942
10184SOL     OW31450   4.797   0.348   7.010
10184SOL    HW131451   4.712   0.397   0.010
10184SOL    HW231452   4.777   0.254   6.984
10185SOL     OW31453   4.481   0.990   0.268
10185SOL    HW131454   4.393   0.994   0.315
10185SOL    HW231455   4.486   0.906   0.213
10186SOL     OW31456   4.664   2.295   2.863
10186SOL    HW131457   4.647   2.271   2.767
10186SOL    HW231458   4.652   2.214   2.920
10187SOL     OW31459   0.649   2.377   2.578
10187SOL    HW131460   0.597   2.397   2.495
10187SOL    HW231461   0.617   2.434   2.653
10188SOL     OW31462   4.053   5.443   0.731
10188SOL    HW131463   3.985   5.371   0.718
10188SOL    HW231464   4.094   5.467   0.643
10189SOL     OW31465   1.008   6.729   4.865
10189SOL    HW131466   0.922   6.720   4.915
10189SOL    HW231467   1.082   6.692   4.921
10190SOL     OW31468   5.624   3.006   6.884
10190SOL    HW131469   5.587   3.099   6.895
10190SOL    HW231470   5.685   3.004   6.806
10191SOL     OW31471   6.881   4.553   6.609
10191SOL    HW131472   6.908   4.556   6.705
10191SOL    HW231473   6.828   4.635   6.587
10192SOL     OW31474   3.635   1.646   0.062
10192SOL    HW131475   3.548   1.617   0.102
10192SOL    HW231476   3.711   1.614   0.120
10193SOL     OW31477   4.891   4.039   0.665
10193SOL    HW131478   4.957   4.027   0.739
10193SOL    HW231479   4.806   3.992   0.687
10194SOL     OW31480   4.943   2.593   5.044
10194SOL    HW131481   4.952   2.519   4.978
10194SOL    HW231482   5.031   2.641   5.052
10195SOL     OW31483   5.790   4.469   2.329
10195SOL    HW131484   5.809   4.494   2.423
10195SOL    HW231485   5.855   4.514   2.268
10196SOL     OW31486   0.517   1.724   4.300
10196SOL    HW131487   0.568   1.680   4.374
10196SOL    HW231488   0.563   1.810   4.275
10197SOL     OW31489   5.492   0.491   0.028
10197SOL    HW131490   5.471   0.508   6.951
10197SOL    HW231491   5.451   0.563   0.084
10198SOL     OW31492   4.089   6.846   2.877
10198SOL    HW131493   4.034   6.913   2.927
10198SOL    HW231494   4.063   6.847   2.780
10199SOL     OW31495   0.750   2.399   5.791
10199SOL    HW131496   0.651   2.411   5.784
10199SOL    HW231497   0.777   2.401   5.887
10200SOL     OW31498   5.342   2.279   2.050
10200SOL    HW131499   5.384   2.370   2.061
10200SOL    HW231500   5.257   2.288   2.000
10201SOL     OW31501   2.133   3.581   0.845
10201SOL    HW131502   2.199   3.509   0.820
10201SOL    HW231503   2.144   3.659   0.784
10202SOL     OW31504   5.421   0.281   3.765
10202SOL    HW131505   5.343   0.259   3.706
10202SOL    HW231506   5.496   0.315   3.708
10203SOL     OW31507   0.093   2.845   5.401
10203SOL    HW131508   0.100   2.773   5.470
10203SOL    HW231509   0.163   2.915   5.419
10204SOL     OW31510   5.099   4.391   6.447
10204SOL    HW131511   5.061   4.397   6.539
10204SOL    HW231512   5.025   4.388   6.380
10205SOL     OW31513   0.298   1.337   6.650
10205SOL    HW131514   0.347   1.303   6.569
10205SOL    HW231515   0.286   1.436   6.641
10206SOL     OW31516   1.884   1.960   4.576
10206SOL    HW131517   1.861   1.929   4.484
10206SOL    HW231518   1.880   2.060   4.579
10207SOL     OW31519   2.364   2.602   6.126
10207SOL    HW131520   2.406   2.617   6.036
10207SOL    HW231521   2.419   2.647   6.196
10208SOL     OW31522   6.627   0.172   5.867
10208SOL    HW131523   6.612   0.077   5.839
10208SOL    HW231524   6.706   0.176   5.929
10209SOL     OW31525   6.716   6.647   5.405
10209SOL    HW131526   6.759   6.558   5.409
10209SOL    HW231527   6.769   6.708   5.346
10210SOL     OW31528   3.681   0.849   1.884
10210SOL    HW131529   3.679   0.910   1.963
10210SOL    HW231530   3.775   0.838   1.852
10211SOL     OW31531   5.068   5.433   6.066
10211SOL    HW131532   5.040   5.350   6.114
10211SOL    HW231533   5.122   5.491   6.126
10212SOL     OW31534   0.272   0.537   0.146
10212SOL    HW131535   0.201   0.507   0.210
10212SOL    HW231536   0.362   0.525   0.187
10213SOL     OW31537   6.674   3.061   1.396
10213SOL    HW131538   6.747   3.110   1.348
10213SOL    HW231539   6.713   3.007   1.470
10214SOL     OW31540   1.284   2.673   0.442
10214SOL    HW131541   1.286   2.574   0.428
10214SOL    HW231542   1.320   2.719   0.361
10215SOL     OW31543   3.472   3.935   2.061
10215SOL    HW131544   3.557   3.903   2.104
10215SOL    HW231545   3.427   4.000   2.122
10216SOL     OW31546   6.858   6.452   1.581
10216SOL    HW131547   6.933   6.504   1.540
10216SOL    HW231548   6.837   6.489   1.671
10217SOL     OW31549   4.243   1.745   4.870
10217SOL    HW131550   4.207   1.701   4.953
10217SOL    HW231551   4.274   1.837   4.892
10218SOL     OW31552   1.179   2.829   2.859
10218SOL    HW131553   1.215   2.762   2.794
10218SOL    HW231554   1.087   2.802   2.886
10219SOL     OW31555   6.441   6.088   2.848
10219SOL    HW131556   6.343   6.084   2.833
10219SOL    HW231557   6.471   6.183   2.855
10220SOL     OW31558   3.351   3.639   6.935
10220SOL    HW131559   3.283   3.598   6.995
10220SOL    HW231560   3.320   3.731   6.908
10221SOL     OW31561   1.422   5.321   2.921
10221SOL    HW131562   1.408   5.222   2.916
10221SOL    HW231563   1.470   5.344   3.005
10222SOL     OW31564   2.902   3.707   3.653
10222SOL    HW131565   2.998   3.693   3.677
10222SOL    HW231566   2.885   3.674   3.560
10223SOL     OW31567   2.609   6.831   0.662
10223SOL    HW131568   2.537   6.790   0.718
10223SOL    HW231569   2.650   6.908   0.712
10224SOL     OW31570   0.038   3.051   3.218
10224SOL    HW131571   0.063   2.989   3.292
10224SOL    HW231572   0.004   2.998   3.140
10225SOL     OW31573   1.720   3.864   6.032
10225SOL    HW131574   1.736   3.919   5.950
10225SOL    HW231575   1.808   3.836   6.070
10226SOL     OW31576   4.400   4.401   6.993
10226SOL    HW131577   4.364   4.414   6.901
10226SOL    HW231578   4.466   4.473   7.014
10227SOL     OW31579   5.299   4.151   1.162
10227SOL    HW131580   5.389   4.191   1.141
10227SOL    HW231581   5.276   4.170   1.257
10228SOL     OW31582   5.641   0.677   0.266
10228SOL    HW131583   5.710   0.686   0.194
10228SOL    HW231584   5.561   0.732   0.242
10229SOL     OW31585   0.323   2.006   4.494
10229SOL    HW131586   0.251   1.969   4.436
10229SOL    HW231587   0.368   1.931   4.544
10230SOL     OW31588   6.517   5.966   1.581
10230SOL    HW131589   6.511   5.973   1.681
10230SOL    HW231590   6.608   5.932   1.555
10231SOL     OW31591   0.555   3.835   2.332
10231SOL    HW131592   0.574   3.913   2.273
10231SOL    HW231593   0.461   3.804   2.317
10232SOL     OW31594   4.766   4.897   2.283
10232SOL    HW131595   4.824   4.853   2.214
10232SOL    HW231596   4.720   4.828   2.338
10233SOL     OW31597   3.230   3.792   5.976
10233SOL    HW131598   3.307   3.787   6.040
10233SOL    HW231599   3.265   3.797   5.883
10234SOL     OW31600   0.558   0.660   2.332
10234SOL    HW131601   0.551   0.566   2.365
10234SOL    HW231602   0.473   0.686   2.286
10235SOL     OW31603   1.064   0.814   3.014
10235SOL    HW131604   0.992   0.880   3.035
10235SOL    HW231605   1.028   0.721   3.021
10236SOL     OW31606   0.969   0.673   2.702
10236SOL    HW131607   0.923   0.586   2.685
10236SOL    HW231608   0.911   0.732   2.757
10237SOL     OW31609   6.698   3.902   5.715
10237SOL    HW131610   6.741   3.968   5.653
10237SOL    HW231611   6.604   3.885   5.687
10238SOL     OW31612   2.850   0.108   1.323
10238SOL    HW131613   2.820   0.104   1.418
10238SOL    HW231614   2.949   0.113   1.320
10239SOL     OW31615   1.148   2.342   4.957
10239SOL    HW131616   1.205   2.277   5.006
10239SOL    HW231617   1.082   2.293   4.900
10240SOL     OW31618   1.791   6.200   1.316
10240SOL    HW131619   1.700   6.168   1.291
10240SOL    HW231620   1.785   6.256   1.398
10241SOL     OW31621   4.198   3.628   1.840
10241SOL    HW131622   4.274   3.668   1.790
10241SOL    HW231623   4.130   3.698   1.860
10242SOL     OW31624   0.306   3.646   1.301
10242SOL    HW131625   0.397   3.641   1.260
10242SOL    HW231626   0.262   3.731   1.272
10243SOL     OW31627   3.500   5.376   2.167
10243SOL    HW131628   3.547   5.296   2.130
10243SOL    HW231629   3.509   5.453   2.103
10244SOL     OW31630   2.300   5.413   1.723
10244SOL    HW131631   2.385   5.363   1.740
10244SOL    HW231632   2.281   5.413   1.624
10245SOL     OW31633   6.164   4.259   1.304
10245SOL    HW131634   6.250   4.283   1.259
10245SOL    HW231635   6.180   4.248   1.402
10246SOL     OW31636   3.676   3.411   3.417
10246SOL    HW131637   3.675   3.497   3.366
10246SOL    HW231638   3.630   3.424   3.505
10247SOL     OW31639   0.730   3.584   4.950
10247SOL    HW131640   0.776   3.663   4.908
10247SOL    HW231641   0.635   3.581   4.920
10248SOL     OW31642   0.720   1.470   4.338
10248SOL    HW131643   0.764   1.396   4.389
10248SOL    HW231644   0.641   1.433   4.289
10249SOL     OW31645   2.457   4.342   5.843
10249SOL    HW131646   2.475   4.252   5.882
10249SOL    HW231647   2.449   4.409   5.917
10250SOL     OW31648   3.227   2.786   0.418
10250SOL    HW131649   3.279   2.717   0.468
10250SOL    HW231650   3.195   2.857   0.481
10251SOL     OW31651   1.144   0.680   4.880
10251SOL    HW131652   1.223   0.730   4.842
10251SOL    HW231653   1.160   0.662   4.977
10252SOL     OW31654   5.250   4.215   6.015
10252SOL    HW131655   5.223   4.202   6.110
10252SOL    HW231656   5.311   4.294   6.008
10253SOL     OW31657   3.692   5.788   0.300
10253SOL    HW131658   3.751   5.836   0.364
10253SOL    HW231659   3.645   5.713   0.347
10254SOL     OW31660   6.410   1.507   6.480
10254SOL    HW131661   6.499   1.465   6.501
10254SOL    HW231662   6.384   1.569   6.554
10255SOL     OW31663   3.966   4.656   1.739
10255SOL    HW131664   4.002   4.678   1.648
10255SOL    HW231665   3.879   4.608   1.730
10256SOL     OW31666   2.668   1.389   4.514
10256SOL    HW131667   2.573   1.404   4.541
10256SOL    HW231668   2.726   1.461   4.552
10257SOL     OW31669   3.343   5.707   3.431
10257SOL    HW131670   3.383   5.787   3.475
10257SOL    HW231671   3.243   5.712   3.437
10258SOL     OW31672   2.943   1.751   2.178
10258SOL    HW131673   2.963   1.749   2.080
10258SOL    HW231674   2.930   1.657   2.211
10259SOL     OW31675   1.507   3.960   3.687
10259SOL    HW131676   1.598   3.951   3.727
10259SOL    HW231677   1.438   3.949   3.759
10260SOL     OW31678   0.445   0.281   3.496
10260SOL    HW131679   0.468   0.229   3.414
10260SOL    HW231680   0.497   0.245   3.574
10261SOL     OW31681   6.853   4.300   1.442
10261SOL    HW131682   6.881   4.216   1.397
10261SOL    HW231683   6.754   4.302   1.451
10262SOL     OW31684   3.867   0.693   0.007
10262SOL    HW131685   3.799   0.758   6.994
10262SOL    HW231686   3.955   0.712   6.982
10263SOL     OW31687   5.404   0.072   3.118
10263SOL    HW131688   5.374   0.167   3.109
10263SOL    HW231689   5.394   0.025   3.030
10264SOL     OW31690   6.707   1.026   5.965
10264SOL    HW131691   6.798   0.988   5.950
10264SOL    HW231692   6.711   1.126   5.957
10265SOL     OW31693   1.788   1.070   2.556
10265SOL    HW131694   1.811   0.990   2.502
10265SOL    HW231695   1.859   1.140   2.545
10266SOL     OW31696   2.755   3.777   1.379
10266SOL    HW131697   2.851   3.749   1.379
10266SOL    HW231698   2.718   3.768   1.471
10267SOL     OW31699   6.551   0.441   0.809
10267SOL    HW131700   6.487   0.414   0.736
10267SOL    HW231701   6.580   0.359   0.858
10268SOL     OW31702   3.351   5.562   2.497
10268SOL    HW131703   3.366   5.465   2.476
10268SOL    HW231704   3.391   5.618   2.425
10269SOL     OW31705   2.293   1.432   6.947
10269SOL    HW131706   2.392   1.446   6.945
10269SOL    HW231707   2.249   1.515   6.981
10270SOL     OW31708   2.514   6.975   3.571
10270SOL    HW131709   2.469   7.017   3.492
10270SOL    HW231710   2.613   6.973   3.555
10271SOL     OW31711   2.238   1.137   6.858
10271SOL    HW131712   2.192   1.224   6.841
10271SOL    HW231713   2.201   1.094   6.940
10272SOL     OW31714   5.880   6.764   4.841
10272SOL    HW131715   5.955   6.697   4.843
10272SOL    HW231716   5.917   6.856   4.844
10273SOL     OW31717   1.838   5.530   3.146
10273SOL    HW131718   1.798   5.557   3.233
10273SOL    HW231719   1.874   5.610   3.099
10274SOL     OW31720   1.029   3.999   5.266
10274SOL    HW131721   0.983   4.051   5.337
10274SOL    HW231722   1.058   4.060   5.192
10275SOL     OW31723   0.145   0.729   2.005
10275SOL    HW131724   0.048   0.748   2.012
10275SOL    HW231725   0.174   0.739   1.909
10276SOL     OW31726   3.192   4.827   5.518
10276SOL    HW131727   3.130   4.787   5.450
10276SOL    HW231728   3.164   4.799   5.609
10277SOL     OW31729   0.895   5.366   3.867
10277SOL    HW131730   0.863   5.288   3.920
10277SOL    HW231731   0.936   5.333   3.782
10278SOL     OW31732   6.356   6.996   4.464
10278SOL    HW131733   6.319   0.032   4.538
10278SOL    HW231734   6.291   6.992   4.388
10279SOL     OW31735   1.261   4.768   4.210
10279SOL    HW131736   1.201   4.689   4.196
10279SOL    HW231737   1.216   4.835   4.270
10280SOL     OW31738   6.264   5.371   0.897
10280SOL    HW131739   6.242   5.463   0.930
10280SOL    HW231740   6.355   5.345   0.929
10281SOL     OW31741   5.949   0.169   4.924
10281SOL    HW131742   5.882   0.208   4.988
10281SOL    HW231743   6.024   0.128   4.975
10282SOL     OW31744   4.700   2.639   3.195
10282SOL    HW131745   4.705   2.559   3.256
10282SOL    HW231746   4.698   2.722   3.251
10283SOL     OW31747   0.047   2.322   0.684
10283SOL    HW131748   0.040   2.222   0.689
10283SOL    HW231749   7.012   2.364   0.756
10284SOL     OW31750   0.527   4.746   4.832
10284SOL    HW131751   0.516   4.764   4.734
10284SOL    HW231752   0.451   4.787   4.882
10285SOL     OW31753   6.794   6.475   6.332
10285SOL    HW131754   6.779   6.547   6.401
10285SOL    HW231755   6.861   6.410   6.366
10286SOL     OW31756   2.742   1.070   2.057
10286SOL    HW131757   2.759   1.046   2.153
10286SOL    HW231758   2.793   1.009   1.997
10287SOL     OW31759   0.571   5.920   2.615
10287SOL    HW131760   0.488   5.950   2.567
10287SOL    HW231761   0.604   5.993   2.674
10288SOL     OW31762   4.168   5.940   4.344
10288SOL    HW131763   4.187   5.906   4.252
10288SOL    HW231764   4.203   6.033   4.354
10289SOL     OW31765   4.142   6.268   6.949
10289SOL    HW131766   4.208   6.341   6.969
10289SOL    HW231767   4.186   6.198   6.893
10290SOL     OW31768   3.295   3.296   2.351
10290SOL    HW131769   3.325   3.378   2.303
10290SOL    HW231770   3.349   3.218   2.320
10291SOL     OW31771   3.221   2.035   2.471
10291SOL    HW131772   3.235   1.940   2.442
10291SOL    HW231773   3.236   2.096   2.394
10292SOL     OW31774   0.184   0.373   5.583
10292SOL    HW131775   0.114   0.304   5.568
10292SOL    HW231776   0.210   0.374   5.680
10293SOL     OW31777   1.401   3.168   5.439
10293SOL    HW131778   1.463   3.141   5.513
10293SOL    HW231779   1.402   3.267   5.429
10294SOL     OW31780   1.481   6.992   1.956
10294SOL    HW131781   1.502   0.041   1.886
10294SOL    HW231782   1.566   6.950   1.987
10295SOL     OW31783   2.072   1.375   0.943
10295SOL    HW131784   1.982   1.418   0.931
10295SOL    HW231785   2.114   1.409   1.028
10296SOL     OW31786   6.642   2.591   5.137
10296SOL    HW131787   6.741   2.585   5.120
10296SOL    HW231788   6.612   2.685   5.121
10297SOL     OW31789   4.460   1.232   1.086
10297SOL    HW131790   4.409   1.304   1.039
10297SOL    HW231791   4.554   1.262   1.103
10298SOL     OW31792   1.034   1.606   1.812
10298SOL    HW131793   1.022   1.515   1.852
10298SOL    HW231794   1.132   1.623   1.796
10299SOL     OW31795   5.052   0.059   2.444
10299SOL    HW131796   5.023   6.984   2.430
10299SOL    HW231797   5.150   0.066   2.427
10300SOL     OW31798   1.296   2.707   0.743
10300SOL    HW131799   1.348   2.689   0.660
10300SOL    HW231800   1.204   2.668   0.734
10301SOL     OW31801   4.185   1.542   0.031
10301SOL    HW131802   4.174   1.508   0.124
10301SOL    HW231803   4.096   1.574   7.016
10302SOL     OW31804   3.386   5.825   5.521
10302SOL    HW131805   3.318   5.897   5.538
10302SOL    HW231806   3.470   5.866   5.485
10303SOL     OW31807   0.697   4.546   5.115
10303SOL    HW131808   0.691   4.572   5.019
10303SOL    HW231809   0.786   4.572   5.152
10304SOL     OW31810   5.031   6.321   1.446
10304SOL    HW131811   5.101   6.355   1.383
10304SOL    HW231812   5.012   6.225   1.425
10305SOL     OW31813   2.823   3.696   5.260
10305SOL    HW131814   2.854   3.621   5.318
10305SOL    HW231815   2.876   3.697   5.176
10306SOL     OW31816   4.381   0.974   1.059
10306SOL    HW131817   4.424   0.912   1.125
10306SOL    HW231818   4.412   1.068   1.076
10307SOL     OW31819   1.758   0.146   4.898
10307SOL    HW131820   1.737   0.059   4.943
10307SOL    HW231821   1.843   0.138   4.846
10308SOL     OW31822   2.748   4.645   1.698
10308SOL    HW131823   2.656   4.608   1.692
10308SOL    HW231824   2.801   4.592   1.764
10309SOL     OW31825   0.241   0.934   4.932
10309SOL    HW131826   0.174   0.969   4.998
10309SOL    HW231827   0.288   1.012   4.889
10310SOL     OW31828   3.422   4.200   6.286
10310SOL    HW131829   3.375   4.147   6.216
10310SOL    HW231830   3.472   4.138   6.347
10311SOL     OW31831   5.865   6.227   0.090
10311SOL    HW131832   5.766   6.235   0.086
10311SOL    HW231833   5.904   6.248   0.001
10312SOL     OW31834   3.024   6.852   2.291
10312SOL    HW131835   3.036   6.810   2.201
10312SOL    HW231836   3.083   6.806   2.357
10313SOL     OW31837   5.148   6.573   3.128
10313SOL    HW131838   5.209   6.607   3.200
10313SOL    HW231839   5.200   6.553   3.046
10314SOL     OW31840   0.994   6.846   0.851
10314SOL    HW131841   1.085   6.828   0.888
10314SOL    HW231842   0.993   6.822   0.754
10315SOL     OW31843   4.876   4.898   3.808
10315SOL    HW131844   4.958   4.948   3.781
10315SOL    HW231845   4.796   4.958   3.803
10316SOL     OW31846   1.213   1.885   0.152
10316SOL    HW131847   1.297   1.890   0.098
10316SOL    HW231848   1.205   1.967   0.209
10317SOL     OW31849   4.236   6.234   4.703
10317SOL    HW131850   4.225   6.175   4.784
10317SOL    HW231851   4.331   6.264   4.696
10318SOL     OW31852   6.105   7.013   0.124
10318SOL    HW131853   6.161   0.045   0.060
10318SOL    HW231854   6.148   6.925   0.143
10319SOL     OW31855   1.173   4.481   4.185
10319SOL    HW131856   1.267   4.455   4.203
10319SOL    HW231857   1.114   4.448   4.259
10320SOL     OW31858   6.613   6.932   2.802
10320SOL    HW131859   6.548   6.926   2.878
10320SOL    HW231860   6.704   6.950   2.838
10321SOL     OW31861   5.879   2.383   2.980
10321SOL    HW131862   5.807   2.314   2.973
10321SOL    HW231863   5.949   2.365   2.911
10322SOL     OW31864   4.597   4.452   4.846
10322SOL    HW131865   4.609   4.386   4.920
10322SOL    HW231866   4.519   4.512   4.867
10323SOL     OW31867   1.637   4.437   6.087
10323SOL    HW131868   1.683   4.522   6.115
10323SOL    HW231869   1.689   4.395   6.013
10324SOL     OW31870   2.929   3.399   2.891
10324SOL    HW131871   2.888   3.474   2.943
10324SOL    HW231872   2.901   3.405   2.796
10325SOL     OW31873   5.396   5.917   4.783
10325SOL    HW131874   5.426   5.940   4.875
10325SOL    HW231875   5.341   5.833   4.786
10326SOL     OW31876   5.537   3.480   6.930
10326SOL    HW131877   5.500   3.552   6.871
10326SOL    HW231878   5.487   3.480   7.017
10327SOL     OW31879   1.725   5.241   6.764
10327SOL    HW131880   1.659   5.265   6.693
10327SOL    HW231881   1.698   5.156   6.808
10328SOL     OW31882   5.793   2.607   2.407
10328SOL    HW131883   5.807   2.706   2.400
10328SOL    HW231884   5.843   2.562   2.332
10329SOL     OW31885   3.477   1.997   1.874
10329SOL    HW131886   3.567   2.039   1.873
10329SOL    HW231887   3.407   2.068   1.860
10330SOL     OW31888   5.125   6.821   1.804
10330SOL    HW131889   5.083   6.738   1.767
10330SOL    HW231890   5.054   6.881   1.839
10331SOL     OW31891   5.195   5.211   5.908
10331SOL    HW131892   5.117   5.256   5.952
10331SOL    HW231893   5.165   5.166   5.824
10332SOL     OW31894   2.137   1.608   6.459
10332SOL    HW131895   2.180   1.629   6.371
10332SOL    HW231896   2.115   1.694   6.506
10333SOL     OW31897   1.387   3.814   4.532
10333SOL    HW131898   1.388   3.803   4.631
10333SOL    HW231899   1.435   3.736   4.490
10334SOL     OW31900   3.380   1.173   4.421
10334SOL    HW131901   3.421   1.210   4.338
10334SOL    HW231902   3.314   1.238   4.459
10335SOL     OW31903   2.109   3.643   4.519
10335SOL    HW131904   2.113   3.727   4.572
10335SOL    HW231905   2.051   3.576   4.566
10336SOL     OW31906   5.222   5.893   3.531
10336SOL    HW131907   5.242   5.979   3.578
10336SOL    HW231908   5.181   5.829   3.595
10337SOL     OW31909   6.455   6.205   0.085
10337SOL    HW131910   6.446   6.275   0.014
10337SOL    HW231911   6.551   6.179   0.095
10338SOL     OW31912   0.878   6.305   1.666
10338SOL    HW131913   0.912   6.399   1.657
10338SOL    HW231914   0.782   6.301   1.638
10339SOL     OW31915   5.477   2.409   5.778
10339SOL    HW131916   5.438   2.463   5.704
10339SOL    HW231917   5.576   2.404   5.767
10340SOL     OW31918   2.785   4.289   6.396
10340SOL    HW131919   2.843   4.281   6.315
10340SOL    HW231920   2.729   4.372   6.389
10341SOL     OW31921   2.691   4.700   3.390
10341SOL    HW131922   2.633   4.620   3.374
10341SOL    HW231923   2.646   4.782   3.355
10342SOL     OW31924   0.655   0.942   3.551
10342SOL    HW131925   0.694   1.004   3.620
10342SOL    HW231926   0.681   0.848   3.572
10343SOL     OW31927   3.886   5.214   1.850
10343SOL    HW131928   3.890   5.114   1.844
10343SOL    HW231929   3.868   5.252   1.759
10344SOL     OW31930   5.094   6.645   6.589
10344SOL    HW131931   5.187   6.672   6.565
10344SOL    HW231932   5.076   6.553   6.553
10345SOL     OW31933   1.159   4.058   4.809
10345SOL    HW131934   1.114   4.080   4.722
10345SOL    HW231935   1.200   3.967   4.803
10346SOL     OW31936   0.328   6.148   0.352
10346SOL    HW131937   0.369   6.179   0.438
10346SOL    HW231938   0.394   6.090   0.304
10347SOL     OW31939   6.505   1.615   5.120
10347SOL    HW131940   6.572   1.643   5.050
10347SOL    HW231941   6.495   1.688   5.187
10348SOL     OW31942   0.353   4.952   1.175
10348SOL    HW131943   0.418   5.019   1.138
10348SOL    HW231944   0.401   4.867   1.195
10349SOL     OW31945   7.005   6.489   6.597
10349SOL    HW131946   6.907   6.480   6.612
10349SOL    HW231947   0.007   6.584   6.575
10350SOL     OW31948   4.089   0.449   6.305
10350SOL    HW131949   4.124   0.542   6.295
10350SOL    HW231950   4.164   0.384   6.296
10351SOL     OW31951   4.372   5.937   5.761
10351SOL    HW131952   4.395   5.888   5.676
10351SOL    HW231953   4.346   6.031   5.739
10352SOL     OW31954   4.316   5.217   6.135
10352SOL    HW131955   4.245   5.146   6.132
10352SOL    HW231956   4.272   5.307   6.140
10353SOL     OW31957   0.657   3.752   5.376
10353SOL    HW131958   0.726   3.730   5.307
10353SOL    HW231959   0.570   3.708   5.351
10354SOL     OW31960   5.076   1.767   0.636
10354SOL    HW131961   5.068   1.722   0.547
10354SOL    HW231962   4.984   1.790   0.670
10355SOL     OW31963   0.946   3.978   2.792
10355SOL    HW131964   0.931   3.895   2.846
10355SOL    HW231965   0.961   4.056   2.853
10356SOL     OW31966   0.416   2.648   5.319
10356SOL    HW131967   0.510   2.627   5.291
10356SOL    HW231968   0.352   2.601   5.259
10357SOL     OW31969   2.878   3.122   6.076
10357SOL    HW131970   2.884   3.042   6.135
10357SOL    HW231971   2.910   3.099   5.984
10358SOL     OW31972   0.664   0.565   2.726
10358SOL    HW131973   0.587   0.550   2.664
10358SOL    HW231974   0.741   0.508   2.698
10359SOL     OW31975   1.059   1.487   0.901
10359SOL    HW131976   1.039   1.546   0.823
10359SOL    HW231977   1.111   1.408   0.870
10360SOL     OW31978   6.957   4.814   3.839
10360SOL    HW131979   6.980   4.897   3.890
10360SOL    HW231980   6.895   4.758   3.892
10361SOL     OW31981   2.525   5.378   0.713
10361SOL    HW131982   2.560   5.285   0.700
10361SOL    HW231983   2.585   5.428   0.775
10362SOL     OW31984   1.008   4.706   5.617
10362SOL    HW131985   1.010   4.640   5.692
10362SOL    HW231986   1.100   4.745   5.605
10363SOL     OW31987   5.378   0.510   4.916
10363SOL    HW131988   5.367   0.606   4.893
10363SOL    HW231989   5.358   0.453   4.836
10364SOL     OW31990   1.353   4.164   0.928
10364SOL    HW131991   1.422   4.212   0.873
10364SOL    HW231992   1.399   4.101   0.991
10365SOL     OW31993   5.169   5.010   0.160
10365SOL    HW131994   5.228   4.974   0.232
10365SOL    HW231995   5.211   4.995   0.071
10366SOL     OW31996   4.165   0.009   4.075
10366SOL    HW131997   4.217   0.024   4.159
10366SOL    HW231998   4.186   6.937   4.039
10367SOL     OW31999   6.279   1.208   2.724
10367SOL    HW132000   6.365   1.157   2.724
10367SOL    HW232001   6.273   1.263   2.640
10368SOL     OW32002   2.464   0.356   1.170
10368SOL    HW132003   2.446   0.437   1.114
10368SOL    HW232004   2.464   0.274   1.111
10369SOL     OW32005   4.139   2.785   6.437
10369SOL    HW132006   4.227   2.767   6.391
10369SOL    HW232007   4.150   2.774   6.535
10370SOL     OW32008   2.789   0.584   5.739
10370SOL    HW132009   2.831   0.610   5.653
10370SOL    HW232010   2.800   0.486   5.753
10371SOL     OW32011   4.728   6.911   5.381
10371SOL    HW132012   4.782   6.934   5.300
10371SOL    HW232013   4.687   6.994   5.419
10372SOL     OW32014   0.504   0.514   3.584
10372SOL    HW132015   0.480   0.420   3.562
10372SOL    HW232016   0.506   0.569   3.501
10373SOL     OW32017   1.442   6.176   5.389
10373SOL    HW132018   1.445   6.130   5.478
10373SOL    HW232019   1.373   6.249   5.392
10374SOL     OW32020   3.558   1.803   3.259
10374SOL    HW132021   3.561   1.704   3.246
10374SOL    HW232022   3.477   1.840   3.213
10375SOL     OW32023   0.100   1.998   1.077
10375SOL    HW132024   0.024   2.028   1.134
10375SOL    HW232025   0.182   2.051   1.100
10376SOL     OW32026   6.078   0.550   4.063
10376SOL    HW132027   6.061   0.481   3.992
10376SOL    HW232028   6.042   0.638   4.032
10377SOL     OW32029   6.920   6.545   3.602
10377SOL    HW132030   6.855   6.472   3.622
10377SOL    HW232031   6.886   6.601   3.526
10378SOL     OW32032   5.977   6.389   5.708
10378SOL    HW132033   5.902   6.326   5.688
10378SOL    HW232034   6.020   6.418   5.622
10379SOL     OW32035   4.305   1.353   3.919
10379SOL    HW132036   4.265   1.264   3.943
10379SOL    HW232037   4.289   1.418   3.993
10380SOL     OW32038   3.271   0.297   4.153
10380SOL    HW132039   3.183   0.253   4.172
10380SOL    HW232040   3.255   0.381   4.100
10381SOL     OW32041   3.628   5.419   4.789
10381SOL    HW132042   3.693   5.364   4.840
10381SOL    HW232043   3.545   5.365   4.773
10382SOL     OW32044   0.054   5.196   1.640
10382SOL    HW132045   7.004   5.156   1.581
10382SOL    HW232046   0.092   5.278   1.596
10383SOL     OW32047   5.582   3.356   1.074
10383SOL    HW132048   5.499   3.395   1.114
10383SOL    HW232049   5.596   3.263   1.109
10384SOL     OW32050   5.295   1.137   6.650
10384SOL    HW132051   5.316   1.051   6.604
10384SOL    HW232052   5.360   1.207   6.620
10385SOL     OW32053   0.315   2.917   6.676
10385SOL    HW132054   0.285   2.976   6.601
10385SOL    HW232055   0.415   2.906   6.671
10386SOL     OW32056   0.320   1.963   6.010
10386SOL    HW132057   0.256   1.924   5.944
10386SOL    HW232058   0.290   1.942   6.103
10387SOL     OW32059   1.716   3.932   2.882
10387SOL    HW132060   1.756   3.878   2.955
10387SOL    HW232061   1.663   3.873   2.822
10388SOL     OW32062   1.518   4.754   2.471
10388SOL    HW132063   1.456   4.808   2.528
10388SOL    HW232064   1.472   4.727   2.387
10389SOL     OW32065   1.678   5.429   3.500
10389SOL    HW132066   1.745   5.500   3.522
10389SOL    HW232067   1.628   5.404   3.583
10390SOL     OW32068   2.113   3.324   3.539
10390SOL    HW132069   2.133   3.299   3.634
10390SOL    HW232070   2.135   3.420   3.524
10391SOL     OW32071   3.741   5.631   4.408
10391SOL    HW132072   3.770   5.575   4.486
10391SOL    HW232073   3.820   5.676   4.368
10392SOL     OW32074   0.034   5.725   5.758
10392SOL    HW132075   0.007   5.659   5.827
10392SOL    HW232076   7.007   5.704   5.671
10393SOL     OW32077   1.011   1.732   4.332
10393SOL    HW132078   0.975   1.823   4.349
10393SOL    HW232079   1.016   1.682   4.419
10394SOL     OW32080   3.043   0.323   0.849
10394SOL    HW132081   3.072   0.363   0.763
10394SOL    HW232082   2.954   0.361   0.876
10395SOL     OW32083   1.391   0.539   3.653
10395SOL    HW132084   1.301   0.520   3.614
10395SOL    HW232085   1.403   0.638   3.664
10396SOL     OW32086   0.511   0.582   4.794
10396SOL    HW132087   0.556   0.601   4.707
10396SOL    HW232088   0.419   0.621   4.794
10397SOL     OW32089   4.374   2.188   2.486
10397SOL    HW132090   4.417   2.272   2.453
10397SOL    HW232091   4.277   2.190   2.465
10398SOL     OW32092   6.880   2.590   2.257
10398SOL    HW132093   6.897   2.566   2.353
10398SOL    HW232094   6.925   2.524   2.198
10399SOL     OW32095   6.707   3.008   5.693
10399SOL    HW132096   6.672   3.094   5.730
10399SOL    HW232097   6.648   2.932   5.722
10400SOL     OW32098   1.900   5.325   2.601
10400SOL    HW132099   1.952   5.248   2.565
10400SOL    HW232100   1.816   5.336   2.548
10401SOL     OW32101   1.291   5.858   1.340
10401SOL    HW132102   1.333   5.939   1.380
10401SOL    HW232103   1.197   5.850   1.371
10402SOL     OW32104   1.143   1.939   4.717
10402SOL    HW132105   1.202   1.962   4.639
10402SOL    HW232106   1.167   1.847   4.750
10403SOL     OW32107   5.437   1.253   3.206
10403SOL    HW132108   5.340   1.256   3.180
10403SOL    HW232109   5.445   1.266   3.304
10404SOL     OW32110   6.356   0.366   4.451
10404SOL    HW132111   6.271   0.316   4.436
10404SOL    HW232112   6.335   0.460   4.480
10405SOL     OW32113   3.243   6.874   6.524
10405SOL    HW132114   3.325   6.876   6.581
10405SOL    HW232115   3.167   6.917   6.574
10406SOL     OW32116   1.294   6.354   5.007
10406SOL    HW132117   1.392   6.349   5.023
10406SOL    HW232118   1.277   6.366   4.909
10407SOL     OW32119   3.245   0.991   6.884
10407SOL    HW132120   3.267   0.956   6.793
10407SOL    HW232121   3.224   0.915   6.945
10408SOL     OW32122   3.353   0.228   2.845
10408SOL    HW132123   3.279   0.291   2.869
10408SOL    HW232124   3.339   0.196   2.751
10409SOL     OW32125   0.185   4.943   2.459
10409SOL    HW132126   0.241   4.994   2.394
10409SOL    HW232127   0.241   4.916   2.537
10410SOL     OW32128   5.039   5.648   0.634
10410SOL    HW132129   4.988   5.729   0.662
10410SOL    HW232130   5.020   5.628   0.538
10411SOL     OW32131   2.575   5.011   1.661
10411SOL    HW132132   2.563   5.026   1.759
10411SOL    HW232133   2.672   4.998   1.641
10412SOL     OW32134   0.722   3.393   6.381
10412SOL    HW132135   0.737   3.421   6.286
10412SOL    HW232136   0.670   3.308   6.383
10413SOL     OW32137   6.301   0.824   4.120
10413SOL    HW132138   6.215   0.833   4.171
10413SOL    HW232139   6.329   0.728   4.121
10414SOL     OW32140   5.719   5.750   5.421
10414SOL    HW132141   5.662   5.831   5.404
10414SOL    HW232142   5.666   5.681   5.468
10415SOL     OW32143   0.211   4.590   3.321
10415SOL    HW132144   0.246   4.596   3.415
10415SOL    HW232145   0.112   4.601   3.322
10416SOL     OW32146   4.764   0.777   0.264
10416SOL    HW132147   4.689   0.749   0.325
10416SOL    HW232148   4.811   0.696   0.230
10417SOL     OW32149   4.707   4.622   4.557
10417SOL    HW132150   4.714   4.717   4.525
10417SOL    HW232151   4.646   4.572   4.496
10418SOL     OW32152   5.745   3.291   0.453
10418SOL    HW132153   5.713   3.240   0.532
10418SOL    HW232154   5.721   3.388   0.463
10419SOL     OW32155   1.353   6.969   4.636
10419SOL    HW132156   1.436   7.019   4.663
10419SOL    HW232157   1.273   0.008   4.649
10420SOL     OW32158   6.352   4.074   4.012
10420SOL    HW132159   6.449   4.055   4.026
10420SOL    HW232160   6.335   4.171   4.027
10421SOL     OW32161   0.018   3.607   4.253
10421SOL    HW132162   0.029   3.517   4.212
10421SOL    HW232163   0.087   3.621   4.324
10422SOL     OW32164   6.129   3.128   5.720
10422SOL    HW132165   6.040   3.171   5.734
10422SOL    HW232166   6.194   3.162   5.788
10423SOL     OW32167   2.424   5.646   1.880
10423SOL    HW132168   2.353   5.626   1.813
10423SOL    HW232169   2.509   5.670   1.833
10424SOL     OW32170   4.840   0.838   2.056
10424SOL    HW132171   4.855   0.751   2.103
10424SOL    HW232172   4.744   0.844   2.028
10425SOL     OW32173   0.224   4.336   0.726
10425SOL    HW132174   0.229   4.358   0.629
10425SOL    HW232175   0.148   4.272   0.743
10426SOL     OW32176   6.613   2.159   6.978
10426SOL    HW132177   6.702   2.140   7.020
10426SOL    HW232178   6.584   2.079   6.925
10427SOL     OW32179   6.151   0.184   4.412
10427SOL    HW132180   6.069   0.224   4.452
10427SOL    HW232181   6.136   0.169   4.314
10428SOL     OW32182   2.007   0.570   4.638
10428SOL    HW132183   2.064   0.645   4.604
10428SOL    HW232184   1.929   0.607   4.687
10429SOL     OW32185   2.007   4.616   2.004
10429SOL    HW132186   2.086   4.560   2.030
10429SOL    HW232187   2.033   4.712   2.007
10430SOL     OW32188   3.193   1.051   4.229
10430SOL    HW132189   3.273   1.063   4.288
10430SOL    HW232190   3.119   1.110   4.261
10431SOL     OW32191   4.347   2.308   3.527
10431SOL    HW132192   4.399   2.348   3.603
10431SOL    HW232193   4.362   2.362   3.444
10432SOL     OW32194   1.090   4.537   1.044
10432SOL    HW132195   1.036   4.478   1.105
10432SOL    HW232196   1.180   4.497   1.030
10433SOL     OW32197   2.951   6.532   4.140
10433SOL    HW132198   2.973   6.506   4.046
10433SOL    HW232199   2.901   6.619   4.139
10434SOL     OW32200   4.393   2.069   0.462
10434SOL    HW132201   4.453   2.006   0.512
10434SOL    HW232202   4.298   2.042   0.477
10435SOL     OW32203   2.528   1.611   1.501
10435SOL    HW132204   2.517   1.664   1.585
10435SOL    HW232205   2.578   1.526   1.522
10436SOL     OW32206   1.603   3.762   5.234
10436SOL    HW132207   1.637   3.668   5.231
10436SOL    HW232208   1.580   3.786   5.328
10437SOL     OW32209   6.929   0.099   5.161
10437SOL    HW132210   6.850   0.106   5.100
10437SOL    HW232211   7.006   0.148   5.122
10438SOL     OW32212   6.821   5.812   6.366
10438SOL    HW132213   6.829   5.870   6.285
10438SOL    HW232214   6.864   5.723   6.348
10439SOL     OW32215   5.685   5.165   5.234
10439SOL    HW132216   5.649   5.252   5.202
10439SOL    HW232217   5.756   5.133   5.172
10440SOL     OW32218   6.265   2.527   1.832
10440SOL    HW132219   6.325   2.455   1.867
10440SOL    HW232220   6.172   2.512   1.864
10441SOL     OW32221   4.929   1.579   5.958
10441SOL    HW132222   4.987   1.658   5.937
10441SOL    HW232223   4.970   1.496   5.921
10442SOL     OW32224   2.388   0.782   5.842
10442SOL    HW132225   2.313   0.719   5.862
10442SOL    HW232226   2.450   0.740   5.776
10443SOL     OW32227   0.591   1.013   0.066
10443SOL    HW132228   0.685   1.022   0.033
10443SOL    HW232229   0.528   1.030   7.010
10444SOL     OW32230   4.333   5.423   3.703
10444SOL    HW132231   4.262   5.490   3.682
10444SOL    HW232232   4.297   5.354   3.765
10445SOL     OW32233   1.376   3.644   3.895
10445SOL    HW132234   1.454   3.614   3.949
10445SOL    HW232235   1.398   3.635   3.797
10446SOL     OW32236   2.873   4.914   5.017
10446SOL    HW132237   2.776   4.917   5.042
10446SOL    HW232238   2.899   4.819   4.999
10447SOL     OW32239   1.434   2.043   2.809
10447SOL    HW132240   1.448   1.945   2.795
10447SOL    HW232241   1.494   2.074   2.883
10448SOL     OW32242   1.005   4.897   2.614
10448SOL    HW132243   0.958   4.842   2.682
10448SOL    HW232244   0.960   4.986   2.606
10449SOL     OW32245   3.847   5.043   4.225
10449SOL    HW132246   3.920   4.999   4.173
10449SOL    HW232247   3.762   4.992   4.213
10450SOL     OW32248   0.309   2.302   4.395
10450SOL    HW132249   0.316   2.214   4.443
10450SOL    HW232250   0.337   2.290   4.300
10451SOL     OW32251   2.320   2.043   5.089
10451SOL    HW132252   2.255   1.980   5.046
10451SOL    HW232253   2.390   2.068   5.022
10452SOL     OW32254   6.823   2.589   4.559
10452SOL    HW132255   6.827   2.687   4.579
10452SOL    HW232256   6.729   2.560   4.546
10453SOL     OW32257   3.031   5.695   4.246
10453SOL    HW132258   2.952   5.744   4.285
10453SOL    HW232259   3.058   5.622   4.308
10454SOL     OW32260   6.823   1.507   6.850
10454SOL    HW132261   6.782   1.543   6.766
10454SOL    HW232262   6.920   1.486   6.834
10455SOL     OW32263   0.964   5.410   2.680
10455SOL    HW132264   0.887   5.473   2.687
10455SOL    HW232265   1.040   5.445   2.736
10456SOL     OW32266   1.263   5.273   6.123
10456SOL    HW132267   1.328   5.323   6.180
10456SOL    HW232268   1.248   5.323   6.038
10457SOL     OW32269   4.524   1.549   1.108
10457SOL    HW132270   4.495   1.644   1.121
10457SOL    HW232271   4.468   1.506   1.037
10458SOL     OW32272   1.874   7.017   6.807
10458SOL    HW132273   1.864   0.096   6.796
10458SOL    HW232274   1.828   6.970   6.731
10459SOL     OW32275   5.197   6.085   0.860
10459SOL    HW132276   5.120   6.143   0.888
10459SOL    HW232277   5.282   6.123   0.895
10460SOL     OW32278   6.659   1.128   6.273
10460SOL    HW132279   6.734   1.152   6.212
10460SOL    HW232280   6.684   1.047   6.326
10461SOL     OW32281   6.676   4.022   5.957
10461SOL    HW132282   6.696   3.978   5.869
10461SOL    HW232283   6.671   4.121   5.943
10462SOL     OW32284   4.372   3.461   0.070
10462SOL    HW132285   4.354   3.529   7.019
10462SOL    HW232286   4.288   3.411   0.091
10463SOL     OW32287   4.737   2.752   5.035
10463SOL    HW132288   4.824   2.704   5.029
10463SOL    HW232289   4.751   2.843   5.075
10464SOL     OW32290   6.413   4.761   1.941
10464SOL    HW132291   6.371   4.850   1.924
10464SOL    HW232292   6.346   4.700   1.982
10465SOL     OW32293   5.256   4.172   0.546
10465SOL    HW132294   5.211   4.161   0.457
10465SOL    HW232295   5.192   4.212   0.611
10466SOL     OW32296   6.417   3.981   5.806
10466SOL    HW132297   6.448   3.892   5.839
10466SOL    HW232298   6.328   3.971   5.762
10467SOL     OW32299   0.707   3.706   0.035
10467SOL    HW132300   0.661   3.761   6.985
10467SOL    HW232301   0.641   3.676   0.104
10468SOL     OW32302   1.342   3.971   3.901
10468SOL    HW132303   1.361   4.031   3.979
10468SOL    HW232304   1.309   3.883   3.935
10469SOL     OW32305   1.136   0.867   3.961
10469SOL    HW132306   1.215   0.837   3.907
10469SOL    HW232307   1.152   0.846   4.057
10470SOL     OW32308   2.680   3.900   1.725
10470SOL    HW132309   2.764   3.952   1.744
10470SOL    HW232310   2.683   3.813   1.775
10471SOL     OW32311   2.129   4.556   5.761
10471SOL    HW132312   2.158   4.649   5.740
10471SOL    HW232313   2.030   4.549   5.750
10472SOL     OW32314   3.924   5.199   6.038
10472SOL    HW132315   3.917   5.288   5.992
10472SOL    HW232316   3.868   5.201   6.121
10473SOL     OW32317   6.195   5.662   0.673
10473SOL    HW132318   6.134   5.693   0.746
10473SOL    HW232319   6.270   5.726   0.662
10474SOL     OW32320   6.142   6.084   5.369
10474SOL    HW132321   6.207   6.147   5.327
10474SOL    HW232322   6.066   6.066   5.307
10475SOL     OW32323   6.987   5.976   1.528
10475SOL    HW132324   6.957   6.054   1.583
10475SOL    HW232325   6.931   5.971   1.445
10476SOL     OW32326   5.232   6.597   1.540
10476SOL    HW132327   5.229   6.497   1.539
10476SOL    HW232328   5.320   6.627   1.577
10477SOL     OW32329   6.566   5.927   3.445
10477SOL    HW132330   6.623   5.974   3.512
10477SOL    HW232331   6.475   5.913   3.483
10478SOL     OW32332   6.652   1.028   7.012
10478SOL    HW132333   6.610   0.973   0.064
10478SOL    HW232334   6.712   0.970   6.957
10479SOL     OW32335   7.015   4.572   3.025
10479SOL    HW132336   0.089   4.547   3.051
10479SOL    HW232337   6.954   4.495   3.042
10480SOL     OW32338   2.374   0.861   3.245
10480SOL    HW132339   2.412   0.901   3.328
10480SOL    HW232340   2.277   0.886   3.237
10481SOL     OW32341   6.292   0.667   2.054
10481SOL    HW132342   6.241   0.693   2.136
10481SOL    HW232343   6.233   0.615   1.993
10482SOL     OW32344   4.679   4.196   4.253
10482SOL    HW132345   4.741   4.190   4.175
10482SOL    HW232346   4.709   4.134   4.325
10483SOL     OW32347   6.194   0.896   6.397
10483SOL    HW132348   6.160   0.807   6.427
10483SOL    HW232349   6.287   0.886   6.363
10484SOL     OW32350   6.427   0.336   1.751
10484SOL    HW132351   6.328   0.333   1.737
10484SOL    HW232352   6.451   0.421   1.797
10485SOL     OW32353   5.747   3.234   5.965
10485SOL    HW132354   5.824   3.229   6.029
10485SOL    HW232355   5.771   3.294   5.889
10486SOL     OW32356   5.978   3.106   2.820
10486SOL    HW132357   5.948   3.021   2.778
10486SOL    HW232358   6.072   3.126   2.791
10487SOL     OW32359   3.736   6.886   3.049
10487SOL    HW132360   3.807   6.954   3.032
10487SOL    HW232361   3.752   6.806   2.992
10488SOL     OW32362   4.081   4.052   6.633
10488SOL    HW132363   4.073   4.123   6.563
10488SOL    HW232364   4.165   4.067   6.686
10489SOL     OW32365   1.739   5.489   5.209
10489SOL    HW132366   1.807   5.442   5.265
10489SOL    HW232367   1.755   5.467   5.112
10490SOL     OW32368   5.874   0.163   4.673
10490SOL    HW132369   5.872   0.173   4.772
10490SOL    HW232370   5.943   0.094   4.648
10491SOL     OW32371   6.699   5.735   4.863
10491SOL    HW132372   6.727   5.657   4.918
10491SOL    HW232373   6.607   5.764   4.892
10492SOL     OW32374   5.099   3.630   5.614
10492SOL    HW132375   5.079   3.574   5.533
10492SOL    HW232376   5.091   3.726   5.590
10493SOL     OW32377   3.428   1.501   0.181
10493SOL    HW132378   3.344   1.536   0.140
10493SOL    HW232379   3.406   1.428   0.246
10494SOL     OW32380   5.289   1.538   5.389
10494SOL    HW132381   5.360   1.595   5.348
10494SOL    HW232382   5.256   1.471   5.322
10495SOL     OW32383   1.084   0.183   6.788
10495SOL    HW132384   1.184   0.186   6.787
10495SOL    HW232385   1.051   0.153   6.698
10496SOL     OW32386   6.850   6.879   5.257
10496SOL    HW132387   6.888   6.960   5.212
10496SOL    HW232388   6.920   6.837   5.315
10497SOL     OW32389   2.420   0.985   6.735
10497SOL    HW132390   2.504   1.032   6.711
10497SOL    HW232391   2.376   1.032   6.811
10498SOL     OW32392   3.270   5.477   5.562
10498SOL    HW132393   3.276   5.498   5.464
10498SOL    HW232394   3.202   5.536   5.605
10499SOL     OW32395   3.318   5.812   2.850
10499SOL    HW132396   3.254   5.800   2.926
10499SOL    HW232397   3.410   5.828   2.885
10500SOL     OW32398   2.242   1.792   6.773
10500SOL    HW132399   2.149   1.820   6.749
10500SOL    HW232400   2.281   1.858   6.837
10501SOL     OW32401   1.729   3.607   3.453
10501SOL    HW132402   1.779   3.682   3.409
10501SOL    HW232403   1.789   3.528   3.463
10502SOL     OW32404   3.170   6.795   5.004
10502SOL    HW132405   3.156   6.729   5.078
10502SOL    HW232406   3.107   6.872   5.015
10503SOL     OW32407   2.571   3.316   6.703
10503SOL    HW132408   2.502   3.252   6.735
10503SOL    HW232409   2.566   3.324   6.603
10504SOL     OW32410   1.972   3.370   0.607
10504SOL    HW132411   1.976   3.366   0.507
10504SOL    HW232412   2.065   3.370   0.644
10505SOL     OW32413   0.362   6.211   0.076
10505SOL    HW132414   0.305   6.145   0.026
10505SOL    HW232415   0.361   6.189   0.173
10506SOL     OW32416   6.928   5.476   5.829
10506SOL    HW132417   6.927   5.377   5.813
10506SOL    HW232418   6.843   5.516   5.793
10507SOL     OW32419   3.046   0.944   3.432
10507SOL    HW132420   3.049   0.976   3.337
10507SOL    HW232421   3.044   1.022   3.494
10508SOL     OW32422   5.274   5.177   2.869
10508SOL    HW132423   5.237   5.265   2.898
10508SOL    HW232424   5.366   5.189   2.832
10509SOL     OW32425   2.484   1.078   5.209
10509SOL    HW132426   2.482   1.088   5.308
10509SOL    HW232427   2.408   1.020   5.179
10510SOL     OW32428   5.767   0.582   6.120
10510SOL    HW132429   5.672   0.562   6.143
10510SOL    HW232430   5.819   0.496   6.115
10511SOL     OW32431   6.959   2.501   1.960
10511SOL    HW132432   7.010   2.575   1.916
10511SOL    HW232433   6.863   2.529   1.971
10512SOL     OW32434   2.318   0.113   6.512
10512SOL    HW132435   2.307   0.087   6.608
10512SOL    HW232436   2.402   0.165   6.500
10513SOL     OW32437   6.917   2.463   0.849
10513SOL    HW132438   6.858   2.493   0.773
10513SOL    HW232439   6.894   2.514   0.932
10514SOL     OW32440   1.964   3.008   1.413
10514SOL    HW132441   2.049   3.021   1.463
10514SOL    HW232442   1.916   2.928   1.449
10515SOL     OW32443   0.381   3.381   4.968
10515SOL    HW132444   0.445   3.357   5.041
10515SOL    HW232445   0.323   3.302   4.949
10516SOL     OW32446   2.768   6.710   0.488
10516SOL    HW132447   2.714   6.777   0.539
10516SOL    HW232448   2.797   6.637   0.550
10517SOL     OW32449   0.515   2.606   3.669
10517SOL    HW132450   0.598   2.551   3.665
10517SOL    HW232451   0.437   2.551   3.642
10518SOL     OW32452   0.661   6.253   3.184
10518SOL    HW132453   0.717   6.300   3.116
10518SOL    HW232454   0.568   6.243   3.149
10519SOL     OW32455   3.949   3.068   5.359
10519SOL    HW132456   3.895   2.998   5.405
10519SOL    HW232457   4.042   3.068   5.395
10520SOL     OW32458   3.102   4.975   6.837
10520SOL    HW132459   3.149   5.046   6.890
10520SOL    HW232460   3.165   4.900   6.819
10521SOL     OW32461   6.334   5.369   2.211
10521SOL    HW132462   6.315   5.458   2.169
10521SOL    HW232463   6.415   5.378   2.270
10522SOL     OW32464   6.068   6.721   2.621
10522SOL    HW132465   6.067   6.693   2.717
10522SOL    HW232466   6.083   6.819   2.615
10523SOL     OW32467   5.677   6.557   6.551
10523SOL    HW132468   5.734   6.477   6.532
10523SOL    HW232469   5.712   6.604   6.633
10524SOL     OW32470   4.970   1.070   5.182
10524SOL    HW132471   4.921   1.136   5.125
10524SOL    HW232472   4.938   1.077   5.276
10525SOL     OW32473   1.995   0.001   5.484
10525SOL    HW132474   1.949   0.040   5.565
10525SOL    HW232475   1.947   0.032   5.402
10526SOL     OW32476   4.182   5.676   2.783
10526SOL    HW132477   4.277   5.647   2.797
10526SOL    HW232478   4.136   5.611   2.723
10527SOL     OW32479   1.964   2.740   4.207
10527SOL    HW132480   2.006   2.659   4.167
10527SOL    HW232481   1.866   2.740   4.187
10528SOL     OW32482   5.814   4.661   6.146
10528SOL    HW132483   5.745   4.620   6.207
10528SOL    HW232484   5.828   4.757   6.171
10529SOL     OW32485   6.964   5.812   4.852
10529SOL    HW132486   6.864   5.803   4.856
10529SOL    HW232487   6.996   5.782   4.762
10530SOL     OW32488   1.614   1.630   5.304
10530SOL    HW132489   1.601   1.547   5.250
10530SOL    HW232490   1.621   1.606   5.401
10531SOL     OW32491   2.500   2.537   4.553
10531SOL    HW132492   2.422   2.592   4.525
10531SOL    HW232493   2.579   2.558   4.495
10532SOL     OW32494   3.496   3.328   4.242
10532SOL    HW132495   3.590   3.334   4.208
10532SOL    HW232496   3.478   3.406   4.302
10533SOL     OW32497   3.827   0.713   6.283
10533SOL    HW132498   3.872   0.741   6.367
10533SOL    HW232499   3.837   0.615   6.270
10534SOL     OW32500   5.800   4.320   1.954
10534SOL    HW132501   5.730   4.296   1.887
10534SOL    HW232502   5.803   4.419   1.965
10535SOL     OW32503   0.475   1.093   1.683
10535SOL    HW132504   0.527   1.102   1.598
10535SOL    HW232505   0.407   1.166   1.689
10536SOL     OW32506   5.674   5.734   3.149
10536SOL    HW132507   5.639   5.657   3.202
10536SOL    HW232508   5.732   5.700   3.076
10537SOL     OW32509   6.306   5.360   1.489
10537SOL    HW132510   6.370   5.435   1.506
10537SOL    HW232511   6.213   5.396   1.478
10538SOL     OW32512   4.614   3.510   6.713
10538SOL    HW132513   4.682   3.527   6.784
10538SOL    HW232514   4.558   3.431   6.738
10539SOL     OW32515   1.168   2.948   5.061
10539SOL    HW132516   1.101   2.884   5.022
10539SOL    HW232517   1.244   2.896   5.101
10540SOL     OW32518   3.569   1.084   0.643
10540SOL    HW132519   3.513   1.081   0.725
10540SOL    HW232520   3.663   1.058   0.665
10541SOL     OW32521   3.178   2.412   1.727
10541SOL    HW132522   3.146   2.375   1.639
10541SOL    HW232523   3.099   2.433   1.785
10542SOL     OW32524   1.649   2.105   0.264
10542SOL    HW132525   1.558   2.137   0.291
10542SOL    HW232526   1.686   2.045   0.335
10543SOL     OW32527   2.638   0.452   4.358
10543SOL    HW132528   2.687   0.479   4.441
10543SOL    HW232529   2.668   0.509   4.282
10544SOL     OW32530   0.335   2.147   1.126
10544SOL    HW132531   0.341   2.104   1.216
10544SOL    HW232532   0.338   2.247   1.137
10545SOL     OW32533   3.845   1.105   2.979
10545SOL    HW132534   3.772   1.148   3.032
10545SOL    HW232535   3.928   1.101   3.034
10546SOL     OW32536   4.749   0.689   5.451
10546SOL    HW132537   4.716   0.596   5.442
10546SOL    HW232538   4.724   0.743   5.371
10547SOL     OW32539   4.793   6.228   2.023
10547SOL    HW132540   4.819   6.316   1.983
10547SOL    HW232541   4.822   6.154   1.962
10548SOL     OW32542   4.762   4.192   5.344
10548SOL    HW132543   4.686   4.222   5.401
10548SOL    HW232544   4.786   4.098   5.367
10549SOL     OW32545   0.842   1.386   1.988
10549SOL    HW132546   0.813   1.305   1.938
10549SOL    HW232547   0.784   1.396   2.070
10550SOL     OW32548   4.650   0.213   5.210
10550SOL    HW132549   4.605   0.146   5.151
10550SOL    HW232550   4.605   0.214   5.300
10551SOL     OW32551   1.667   3.068   6.278
10551SOL    HW132552   1.641   3.076   6.374
10551SOL    HW232553   1.764   3.089   6.267
10552SOL     OW32554   3.105   1.440   5.368
10552SOL    HW132555   3.050   1.501   5.425
10552SOL    HW232556   3.202   1.455   5.386
10553SOL     OW32557   2.638   4.628   6.502
10553SOL    HW132558   2.583   4.578   6.568
10553SOL    HW232559   2.725   4.655   6.544
10554SOL     OW32560   6.177   3.299   6.125
10554SOL    HW132561   6.216   3.226   6.069
10554SOL    HW232562   6.221   3.386   6.102
10555SOL     OW32563   3.314   2.475   1.291
10555SOL    HW132564   3.375   2.546   1.328
10555SOL    HW232565   3.305   2.487   1.192
10556SOL     OW32566   1.817   4.758   4.090
10556SOL    HW132567   1.738   4.778   4.032
10556SOL    HW232568   1.816   4.662   4.116
10557SOL     OW32569   5.634   1.445   3.037
10557SOL    HW132570   5.668   1.350   3.040
10557SOL    HW232571   5.555   1.450   2.976
10558SOL     OW32572   5.819   5.673   5.772
10558SOL    HW132573   5.905   5.674   5.722
10558SOL    HW232574   5.836   5.682   5.870
10559SOL     OW32575   4.351   2.901   1.181
10559SOL    HW132576   4.397   2.813   1.193
10559SOL    HW232577   4.401   2.972   1.229
10560SOL     OW32578   0.098   1.997   4.068
10560SOL    HW132579   0.092   1.916   4.010
10560SOL    HW232580   0.013   2.049   4.062
10561SOL     OW32581   2.074   3.901   6.552
10561SOL    HW132582   2.023   3.976   6.508
10561SOL    HW232583   2.169   3.929   6.564
10562SOL     OW32584   4.456   1.827   0.809
10562SOL    HW132585   4.379   1.891   0.811
10562SOL    HW232586   4.506   1.833   0.895
10563SOL     OW32587   1.457   2.777   2.354
10563SOL    HW132588   1.529   2.710   2.373
10563SOL    HW232589   1.453   2.794   2.255
10564SOL     OW32590   6.923   2.081   2.529
10564SOL    HW132591   6.916   1.996   2.581
10564SOL    HW232592   7.018   2.111   2.528
10565SOL     OW32593   5.353   1.883   4.886
10565SOL    HW132594   5.307   1.816   4.944
10565SOL    HW232595   5.443   1.848   4.860
10566SOL     OW32596   5.029   5.611   6.940
10566SOL    HW132597   5.037   5.638   6.845
10566SOL    HW232598   5.051   5.513   6.949
10567SOL     OW32599   2.428   5.432   4.780
10567SOL    HW132600   2.408   5.335   4.790
10567SOL    HW232601   2.420   5.458   4.684
10568SOL     OW32602   3.571   0.657   3.676
10568SOL    HW132603   3.498   0.593   3.653
10568SOL    HW232604   3.659   0.610   3.672
10569SOL     OW32605   6.511   2.382   3.969
10569SOL    HW132606   6.451   2.310   4.004
10569SOL    HW232607   6.577   2.343   3.904
10570SOL     OW32608   0.988   3.669   1.211
10570SOL    HW132609   0.973   3.616   1.295
10570SOL    HW232610   1.075   3.642   1.169
10571SOL     OW32611   6.746   6.727   4.749
10571SOL    HW132612   6.723   6.721   4.652
10571SOL    HW232613   6.774   6.637   4.782
10572SOL     OW32614   6.094   3.692   2.683
10572SOL    HW132615   6.111   3.664   2.588
10572SOL    HW232616   5.995   3.697   2.698
10573SOL     OW32617   6.284   5.140   5.520
10573SOL    HW132618   6.327   5.050   5.512
10573SOL    HW232619   6.224   5.141   5.600
10574SOL     OW32620   0.744   2.134   2.473
10574SOL    HW132621   0.705   2.222   2.501
10574SOL    HW232622   0.806   2.149   2.396
10575SOL     OW32623   0.084   6.824   6.207
10575SOL    HW132624   0.069   6.812   6.109
10575SOL    HW232625   7.015   6.826   6.254
10576SOL     OW32626   0.769   5.675   3.499
10576SOL    HW132627   0.824   5.708   3.575
10576SOL    HW232628   0.738   5.582   3.517
10577SOL     OW32629   0.103   2.658   5.846
10577SOL    HW132630   0.130   2.748   5.880
10577SOL    HW232631   0.120   2.653   5.747
10578SOL     OW32632   5.216   0.663   5.312
10578SOL    HW132633   5.250   0.582   5.266
10578SOL    HW232634   5.260   0.744   5.275
10579SOL     OW32635   5.853   6.412   1.138
10579SOL    HW132636   5.827   6.464   1.219
10579SOL    HW232637   5.902   6.329   1.166
10580SOL     OW32638   0.825   5.508   0.189
10580SOL    HW132639   0.783   5.479   0.103
10580SOL    HW232640   0.771   5.582   0.230
10581SOL     OW32641   4.144   2.296   2.951
10581SOL    HW132642   4.172   2.365   2.884
10581SOL    HW232643   4.221   2.274   3.011
10582SOL     OW32644   3.664   4.468   6.656
10582SOL    HW132645   3.623   4.406   6.723
10582SOL    HW232646   3.720   4.536   6.703
10583SOL     OW32647   5.046   1.161   1.253
10583SOL    HW132648   5.082   1.142   1.162
10583SOL    HW232649   4.983   1.239   1.248
10584SOL     OW32650   5.738   6.954   1.292
10584SOL    HW132651   5.664   6.893   1.261
10584SOL    HW232652   5.736   0.018   1.238
10585SOL     OW32653   2.716   4.568   6.856
10585SOL    HW132654   2.728   4.472   6.832
10585SOL    HW232655   2.802   4.604   6.893
10586SOL     OW32656   5.036   2.208   1.676
10586SOL    HW132657   5.115   2.180   1.621
10586SOL    HW232658   4.955   2.216   1.618
10587SOL     OW32659   0.268   3.298   0.242
10587SOL    HW132660   0.248   3.287   0.145
10587SOL    HW232661   0.238   3.389   0.272
10588SOL     OW32662   1.962   5.483   3.678
10588SOL    HW132663   1.999   5.453   3.766
10588SOL    HW232664   2.015   5.442   3.604
10589SOL     OW32665   6.056   0.855   4.266
10589SOL    HW132666   5.972   0.899   4.235
10589SOL    HW232667   6.040   0.758   4.281
10590SOL     OW32668   1.328   0.240   4.905
10590SOL    HW132669   1.266   0.166   4.879
10590SOL    HW232670   1.274   0.321   4.927
10591SOL     OW32671   1.340   2.413   1.640
10591SOL    HW132672   1.309   2.319   1.660
10591SOL    HW232673   1.429   2.428   1.683
10592SOL     OW32674   5.020   1.520   6.231
10592SOL    HW132675   5.026   1.608   6.277
10592SOL    HW232676   4.935   1.515   6.179
10593SOL     OW32677   1.593   3.731   2.264
10593SOL    HW132678   1.680   3.761   2.303
10593SOL    HW232679   1.568   3.642   2.302
10594SOL     OW32680   1.268   1.593   4.599
10594SOL    HW132681   1.311   1.662   4.542
10594SOL    HW232682   1.177   1.572   4.563
10595SOL     OW32683   1.701   5.762   4.721
10595SOL    HW132684   1.680   5.767   4.623
10595SOL    HW232685   1.788   5.714   4.733
10596SOL     OW32686   2.837   1.299   1.396
10596SOL    HW132687   2.786   1.264   1.318
10596SOL    HW232688   2.922   1.249   1.406
10597SOL     OW32689   1.562   1.019   3.735
10597SOL    HW132690   1.589   1.012   3.639
10597SOL    HW232691   1.639   0.994   3.794
10598SOL     OW32692   2.837   0.881   0.858
10598SOL    HW132693   2.884   0.840   0.937
10598SOL    HW232694   2.779   0.811   0.815
10599SOL     OW32695   5.104   0.190   6.253
10599SOL    HW132696   5.101   0.096   6.219
10599SOL    HW232697   5.019   0.212   6.299
10600SOL     OW32698   1.928   3.140   4.847
10600SOL    HW132699   1.967   3.221   4.891
10600SOL    HW232700   1.829   3.141   4.857
10601SOL     OW32701   4.166   6.107   5.263
10601SOL    HW132702   4.074   6.075   5.240
10601SOL    HW232703   4.170   6.207   5.254
10602SOL     OW32704   4.765   2.372   2.173
10602SOL    HW132705   4.862   2.353   2.156
10602SOL    HW232706   4.724   2.415   2.093
10603SOL     OW32707   0.752   5.548   5.197
10603SOL    HW132708   0.807   5.515   5.273
10603SOL    HW232709   0.666   5.587   5.231
10604SOL     OW32710   0.263   4.462   6.338
10604SOL    HW132711   0.323   4.388   6.367
10604SOL    HW232712   0.180   4.461   6.393
10605SOL     OW32713   1.145   5.301   6.676
10605SOL    HW132714   1.047   5.321   6.679
10605SOL    HW232715   1.168   5.259   6.588
10606SOL     OW32716   1.180   1.104   2.027
10606SOL    HW132717   1.234   1.179   2.066
10606SOL    HW232718   1.236   1.022   2.023
10607SOL     OW32719   5.885   3.931   6.817
10607SOL    HW132720   5.822   3.853   6.820
10607SOL    HW232721   5.836   4.013   6.787
10608SOL     OW32722   5.641   6.216   2.665
10608SOL    HW132723   5.662   6.145   2.598
10608SOL    HW232724   5.651   6.179   2.758
10609SOL     OW32725   4.064   6.287   2.874
10609SOL    HW132726   4.019   6.365   2.831
10609SOL    HW232727   4.161   6.288   2.852
10610SOL     OW32728   2.425   4.434   5.084
10610SOL    HW132729   2.334   4.401   5.061
10610SOL    HW232730   2.462   4.382   5.161
10611SOL     OW32731   5.062   2.275   6.029
10611SOL    HW132732   5.039   2.371   6.045
10611SOL    HW232733   5.056   2.255   5.932
10612SOL     OW32734   2.387   0.248   1.750
10612SOL    HW132735   2.322   0.259   1.675
10612SOL    HW232736   2.435   0.333   1.766
10613SOL     OW32737   1.237   6.442   6.969
10613SOL    HW132738   1.198   6.421   0.039
10613SOL    HW232739   1.334   6.461   6.979
10614SOL     OW32740   0.354   1.166   2.741
10614SOL    HW132741   0.340   1.121   2.830
10614SOL    HW232742   0.301   1.119   2.671
10615SOL     OW32743   0.333   6.611   6.021
10615SOL    HW132744   0.261   6.552   5.986
10615SOL    HW232745   0.327   6.702   5.978
10616SOL     OW32746   3.748   5.560   1.649
10616SOL    HW132747   3.795   5.581   1.563
10616SOL    HW232748   3.794   5.607   1.724
10617SOL     OW32749   6.494   1.971   6.548
10617SOL    HW132750   6.411   1.970   6.492
10617SOL    HW232751   6.561   1.907   6.510
10618SOL     OW32752   6.265   3.882   0.699
10618SOL    HW132753   6.236   3.977   0.684
10618SOL    HW232754   6.245   3.827   0.619
10619SOL     OW32755   0.153   3.476   3.380
10619SOL    HW132756   0.253   3.477   3.373
10619SOL    HW232757   0.120   3.382   3.375
10620SOL     OW32758   1.714   5.130   3.793
10620SOL    HW132759   1.667   5.200   3.740
10620SOL    HW232760   1.791   5.094   3.741
10621SOL     OW32761   3.831   0.660   0.708
10621SOL    HW132762   3.837   0.655   0.609
10621SOL    HW232763   3.810   0.569   0.745
10622SOL     OW32764   3.933   2.205   0.567
10622SOL    HW132765   3.931   2.274   0.639
10622SOL    HW232766   3.888   2.241   0.485
10623SOL     OW32767   0.486   1.394   4.211
10623SOL    HW132768   0.403   1.449   4.219
10623SOL    HW232769   0.484   1.344   4.124
10624SOL     OW32770   2.313   1.394   3.863
10624SOL    HW132771   2.265   1.346   3.789
10624SOL    HW232772   2.264   1.479   3.885
10625SOL     OW32773   0.862   2.704   1.247
10625SOL    HW132774   0.859   2.604   1.247
10625SOL    HW232775   0.950   2.734   1.211
10626SOL     OW32776   0.501   2.327   3.117
10626SOL    HW132777   0.553   2.364   3.040
10626SOL    HW232778   0.503   2.227   3.113
10627SOL     OW32779   3.851   5.438   4.618
10627SOL    HW132780   3.797   5.445   4.702
10627SOL    HW232781   3.843   5.346   4.581
10628SOL     OW32782   6.801   6.476   4.886
10628SOL    HW132783   6.800   6.377   4.901
10628SOL    HW232784   6.896   6.508   4.886
10629SOL     OW32785   3.174   4.717   6.753
10629SOL    HW132786   3.155   4.708   6.655
10629SOL    HW232787   3.098   4.679   6.806
10630SOL     OW32788   5.395   1.636   1.506
10630SOL    HW132789   5.315   1.644   1.567
10630SOL    HW232790   5.464   1.703   1.533
10631SOL     OW32791   1.520   0.100   4.130
10631SOL    HW132792   1.573   0.049   4.198
10631SOL    HW232793   1.453   0.158   4.177
10632SOL     OW32794   6.521   2.669   0.189
10632SOL    HW132795   6.518   2.593   0.253
10632SOL    HW232796   6.515   2.634   0.095
10633SOL     OW32797   1.343   4.961   6.892
10633SOL    HW132798   1.366   5.059   6.895
10633SOL    HW232799   1.280   4.944   6.816
10634SOL     OW32800   3.479   6.466   2.159
10634SOL    HW132801   3.426   6.498   2.081
10634SOL    HW232802   3.558   6.414   2.127
10635SOL     OW32803   0.941   0.486   1.227
10635SOL    HW132804   0.993   0.557   1.274
10635SOL    HW232805   0.864   0.457   1.285
10636SOL     OW32806   4.935   2.018   6.919
10636SOL    HW132807   4.906   2.096   6.974
10636SOL    HW232808   4.862   1.950   6.915
10637SOL     OW32809   3.287   3.998   6.578
10637SOL    HW132810   3.349   4.008   6.500
10637SOL    HW232811   3.200   4.043   6.556
10638SOL     OW32812   0.003   1.214   5.322
10638SOL    HW132813   6.935   1.171   5.343
10638SOL    HW232814   0.009   1.303   5.367
10639SOL     OW32815   3.425   1.774   4.675
10639SOL    HW132816   3.338   1.804   4.714
10639SOL    HW232817   3.425   1.793   4.577
10640SOL     OW32818   4.635   6.401   0.598
10640SOL    HW132819   4.588   6.459   0.531
10640SOL    HW232820   4.733   6.398   0.577
10641SOL     OW32821   3.372   6.697   6.861
10641SOL    HW132822   3.433   6.676   6.937
10641SOL    HW232823   3.297   6.631   6.859
10642SOL     OW32824   0.525   5.878   1.853
10642SOL    HW132825   0.576   5.803   1.895
10642SOL    HW232826   0.504   5.947   1.923
10643SOL     OW32827   3.539   3.402   5.942
10643SOL    HW132828   3.627   3.403   5.893
10643SOL    HW232829   3.482   3.478   5.909
10644SOL     OW32830   4.116   1.183   5.743
10644SOL    HW132831   4.088   1.171   5.838
10644SOL    HW232832   4.189   1.118   5.721
10645SOL     OW32833   1.628   0.539   3.497
10645SOL    HW132834   1.558   0.501   3.558
10645SOL    HW232835   1.694   0.467   3.474
10646SOL     OW32836   6.639   5.222   6.330
10646SOL    HW132837   6.554   5.173   6.349
10646SOL    HW232838   6.657   5.286   6.404
10647SOL     OW32839   6.776   6.120   0.849
10647SOL    HW132840   6.863   6.074   0.830
10647SOL    HW232841   6.701   6.054   0.841
10648SOL     OW32842   4.835   4.198   6.590
10648SOL    HW132843   4.837   4.116   6.646
10648SOL    HW232844   4.890   4.270   6.632
10649SOL     OW32845   6.772   5.107   6.077
10649SOL    HW132846   6.796   5.170   6.151
10649SOL    HW232847   6.676   5.120   6.052
10650SOL     OW32848   1.859   0.113   5.705
10650SOL    HW132849   1.954   0.137   5.724
10650SOL    HW232850   1.798   0.167   5.763
10651SOL     OW32851   1.573   0.595   5.468
10651SOL    HW132852   1.550   0.548   5.554
10651SOL    HW232853   1.524   0.682   5.463
10652SOL     OW32854   4.833   0.221   0.373
10652SOL    HW132855   4.874   0.140   0.330
10652SOL    HW232856   4.735   0.205   0.386
10653SOL     OW32857   5.891   3.902   4.161
10653SOL    HW132858   5.840   3.919   4.076
10653SOL    HW232859   5.944   3.818   4.151
10654SOL     OW32860   4.894   0.105   1.389
10654SOL    HW132861   4.877   0.172   1.317
10654SOL    HW232862   4.859   0.140   1.476
10655SOL     OW32863   2.798   6.125   0.906
10655SOL    HW132864   2.832   6.218   0.918
10655SOL    HW232865   2.787   6.105   0.808
10656SOL     OW32866   6.939   2.603   6.112
10656SOL    HW132867   7.012   2.573   6.174
10656SOL    HW232868   6.971   2.682   6.060
10657SOL     OW32869   5.820   0.231   0.265
10657SOL    HW132870   5.734   0.279   0.281
10657SOL    HW232871   5.802   0.141   0.227
10658SOL     OW32872   0.101   6.317   3.936
10658SOL    HW132873   0.156   6.381   3.990
10658SOL    HW232874   0.016   6.298   3.985
10659SOL     OW32875   5.580   1.106   1.725
10659SOL    HW132876   5.616   1.199   1.731
10659SOL    HW232877   5.485   1.110   1.694
10660SOL     OW32878   4.784   4.843   5.135
10660SOL    HW132879   4.706   4.871   5.079
10660SOL    HW232880   4.750   4.799   5.219
10661SOL     OW32881   6.861   0.798   1.943
10661SOL    HW132882   6.834   0.894   1.942
10661SOL    HW232883   6.796   0.746   2.000
10662SOL     OW32884   0.614   2.052   0.689
10662SOL    HW132885   0.569   2.117   0.752
10662SOL    HW232886   0.669   1.987   0.742
10663SOL     OW32887   1.163   2.309   1.982
10663SOL    HW132888   1.154   2.268   1.891
10663SOL    HW232889   1.259   2.335   1.997
10664SOL     OW32890   2.208   5.176   6.633
10664SOL    HW132891   2.262   5.093   6.619
10664SOL    HW232892   2.269   5.255   6.638
10665SOL     OW32893   5.538   2.121   6.544
10665SOL    HW132894   5.529   2.221   6.541
10665SOL    HW232895   5.449   2.079   6.531
10666SOL     OW32896   0.481   6.771   0.318
10666SOL    HW132897   0.494   6.761   0.417
10666SOL    HW232898   0.571   6.775   0.273
10667SOL     OW32899   3.183   2.175   5.369
10667SOL    HW132900   3.116   2.110   5.334
10667SOL    HW232901   3.185   2.255   5.309
10668SOL     OW32902   1.228   0.438   6.257
10668SOL    HW132903   1.140   0.450   6.302
10668SOL    HW232904   1.219   0.466   6.161
10669SOL     OW32905   2.403   5.348   6.545
10669SOL    HW132906   2.378   5.444   6.534
10669SOL    HW232907   2.495   5.333   6.510
10670SOL     OW32908   5.882   4.199   4.945
10670SOL    HW132909   5.782   4.205   4.933
10670SOL    HW232910   5.915   4.113   4.907
10671SOL     OW32911   2.292   2.614   3.474
10671SOL    HW132912   2.321   2.600   3.568
10671SOL    HW232913   2.256   2.706   3.463
10672SOL     OW32914   6.781   2.335   0.386
10672SOL    HW132915   6.786   2.243   0.348
10672SOL    HW232916   6.873   2.374   0.391
10673SOL     OW32917   3.191   4.048   3.379
10673SOL    HW132918   3.149   4.021   3.293
10673SOL    HW232919   3.144   4.002   3.455
10674SOL     OW32920   4.222   1.449   2.559
10674SOL    HW132921   4.185   1.372   2.610
10674SOL    HW232922   4.189   1.446   2.464
10675SOL     OW32923   1.091   1.943   5.309
10675SOL    HW132924   1.016   1.977   5.364
10675SOL    HW232925   1.177   1.951   5.360
10676SOL     OW32926   6.093   0.675   6.496
10676SOL    HW132927   6.093   0.696   6.594
10676SOL    HW232928   6.132   0.584   6.482
10677SOL     OW32929   4.581   1.070   6.613
10677SOL    HW132930   4.646   1.093   6.540
10677SOL    HW232931   4.488   1.087   6.581
10678SOL     OW32932   2.213   5.119   3.814
10678SOL    HW132933   2.277   5.073   3.876
10678SOL    HW232934   2.127   5.137   3.863
10679SOL     OW32935   6.045   5.567   3.959
10679SOL    HW132936   5.946   5.563   3.949
10679SOL    HW232937   6.087   5.580   3.869
10680SOL     OW32938   0.173   2.719   3.642
10680SOL    HW132939   0.214   2.628   3.640
10680SOL    HW232940   0.076   2.712   3.667
10681SOL     OW32941   0.889   3.478   0.011
10681SOL    HW132942   0.970   3.505   6.979
10681SOL    HW232943   0.843   3.559   0.047
10682SOL     OW32944   6.314   2.193   3.748
10682SOL    HW132945   6.223   2.234   3.743
10682SOL    HW232946   6.340   2.181   3.844
10683SOL     OW32947   0.503   0.303   4.565
10683SOL    HW132948   0.409   0.336   4.575
10683SOL    HW232949   0.506   0.226   4.502
10684SOL     OW32950   4.801   5.854   0.795
10684SOL    HW132951   4.735   5.916   0.752
10684SOL    HW232952   4.784   5.851   0.894
10685SOL     OW32953   6.435   2.336   3.223
10685SOL    HW132954   6.440   2.349   3.124
10685SOL    HW232955   6.362   2.272   3.245
10686SOL     OW32956   5.414   4.523   1.319
10686SOL    HW132957   5.320   4.508   1.348
10686SOL    HW232958   5.445   4.612   1.352
10687SOL     OW32959   0.415   5.417   1.234
10687SOL    HW132960   0.433   5.374   1.322
10687SOL    HW232961   0.316   5.428   1.221
10688SOL     OW32962   1.348   4.743   0.874
10688SOL    HW132963   1.360   4.673   0.804
10688SOL    HW232964   1.281   4.712   0.941
10689SOL     OW32965   0.503   0.586   1.599
10689SOL    HW132966   0.563   0.522   1.647
10689SOL    HW232967   0.493   0.670   1.652
10690SOL     OW32968   3.727   0.633   3.150
10690SOL    HW132969   3.642   0.672   3.184
10690SOL    HW232970   3.742   0.543   3.192
10691SOL     OW32971   5.504   1.373   1.372
10691SOL    HW132972   5.589   1.357   1.422
10691SOL    HW232973   5.462   1.458   1.404
10692SOL     OW32974   5.626   6.560   3.887
10692SOL    HW132975   5.540   6.546   3.837
10692SOL    HW232976   5.693   6.602   3.826
10693SOL     OW32977   4.428   2.507   4.493
10693SOL    HW132978   4.345   2.452   4.484
10693SOL    HW232979   4.450   2.520   4.590
10694SOL     OW32980   3.242   6.226   0.057
10694SOL    HW132981   3.173   6.155   0.071
10694SOL    HW232982   3.331   6.194   0.090
10695SOL     OW32983   6.303   2.942   5.626
10695SOL    HW132984   6.236   2.992   5.682
10695SOL    HW232985   6.386   2.927   5.680
10696SOL     OW32986   6.458   0.636   1.004
10696SOL    HW132987   6.502   0.574   0.939
10696SOL    HW232988   6.374   0.595   1.039
10697SOL     OW32989   2.947   5.810   2.701
10697SOL    HW132990   2.989   5.900   2.709
10697SOL    HW232991   2.900   5.787   2.787
10698SOL     OW32992   3.902   0.040   3.966
10698SOL    HW132993   3.992   0.052   4.008
10698SOL    HW232994   3.901   0.086   3.877
10699SOL     OW32995   6.882   3.869   3.704
10699SOL    HW132996   6.952   3.940   3.696
10699SOL    HW232997   6.926   3.780   3.720
10700SOL     OW32998   0.821   3.119   2.894
10700SOL    HW132999   0.805   3.041   2.834
10700SOL    HW233000   0.817   3.090   2.989
10701SOL     OW33001   2.581   6.934   1.431
10701SOL    HW133002   2.540   6.861   1.377
10701SOL    HW233003   2.665   6.902   1.475
10702SOL     OW33004   5.061   2.107   1.157
10702SOL    HW133005   4.986   2.042   1.140
10702SOL    HW233006   5.036   2.167   1.233
10703SOL     OW33007   3.678   3.842   4.092
10703SOL    HW133008   3.678   3.789   4.007
10703SOL    HW233009   3.769   3.838   4.134
10704SOL     OW33010   5.160   5.105   1.314
10704SOL    HW133011   5.089   5.039   1.291
10704SOL    HW233012   5.241   5.056   1.349
10705SOL     OW33013   1.255   2.993   6.861
10705SOL    HW133014   1.214   3.084   6.857
10705SOL    HW233015   1.217   2.935   6.789
10706SOL     OW33016   3.204   3.646   0.710
10706SOL    HW133017   3.144   3.566   0.705
10706SOL    HW233018   3.296   3.621   0.681
10707SOL     OW33019   6.318   0.328   6.659
10707SOL    HW133020   6.248   0.329   6.588
10707SOL    HW233021   6.409   0.323   6.617
10708SOL     OW33022   4.537   3.033   1.333
10708SOL    HW133023   4.572   3.121   1.302
10708SOL    HW233024   4.577   3.010   1.422
10709SOL     OW33025   1.035   1.422   6.444
10709SOL    HW133026   1.013   1.360   6.519
10709SOL    HW233027   1.055   1.370   6.362
10710SOL     OW33028   6.867   6.896   3.680
10710SOL    HW133029   6.862   6.823   3.612
10710SOL    HW233030   6.953   6.886   3.731
10711SOL     OW33031   2.106   3.942   5.716
10711SOL    HW133032   2.022   3.888   5.725
10711SOL    HW233033   2.130   3.951   5.619
10712SOL     OW33034   3.861   2.324   6.042
10712SOL    HW133035   3.898   2.231   6.050
10712SOL    HW233036   3.920   2.388   6.092
10713SOL     OW33037   2.862   0.320   0.403
10713SOL    HW133038   2.816   0.256   0.464
10713SOL    HW233039   2.883   0.405   0.452
10714SOL     OW33040   4.818   5.612   4.517
10714SOL    HW133041   4.859   5.704   4.512
10714SOL    HW233042   4.796   5.581   4.425
10715SOL     OW33043   5.602   6.963   2.667
10715SOL    HW133044   5.620   0.041   2.682
10715SOL    HW233045   5.504   6.947   2.665
10716SOL     OW33046   6.370   2.121   2.429
10716SOL    HW133047   6.446   2.134   2.493
10716SOL    HW233048   6.304   2.057   2.469
10717SOL     OW33049   0.442   6.423   1.402
10717SOL    HW133050   0.483   6.514   1.398
10717SOL    HW233051   0.360   6.421   1.344
10718SOL     OW33052   0.015   5.035   5.030
10718SOL    HW133053   7.002   5.119   4.987
10718SOL    HW233054   6.999   5.029   5.123
10719SOL     OW33055   3.458   6.179   3.669
10719SOL    HW133056   3.467   6.234   3.585
10719SOL    HW233057   3.427   6.087   3.645
10720SOL     OW33058   0.859   3.170   5.896
10720SOL    HW133059   0.811   3.162   5.809
10720SOL    HW233060   0.953   3.200   5.879
10721SOL     OW33061   5.329   1.402   3.983
10721SOL    HW133062   5.397   1.455   4.035
10721SOL    HW233063   5.245   1.455   3.975
10722SOL     OW33064   0.735   5.170   0.517
10722SOL    HW133065   0.750   5.072   0.500
10722SOL    HW233066   0.822   5.213   0.541
10723SOL     OW33067   0.125   4.129   6.137
10723SOL    HW133068   0.075   4.101   6.054
10723SOL    HW233069   0.126   4.053   6.202
10724SOL     OW33070   3.896   6.296   5.417
10724SOL    HW133071   3.841   6.345   5.350
10724SOL    HW233072   3.985   6.341   5.426
10725SOL     OW33073   6.980   0.424   5.139
10725SOL    HW133074   0.035   0.403   5.201
10725SOL    HW233075   7.015   0.427   5.045
10726SOL     OW33076   6.725   0.364   3.305
10726SOL    HW133077   6.625   0.365   3.301
10726SOL    HW233078   6.760   0.448   3.264
10727SOL     OW33079   5.164   5.658   6.195
10727SOL    HW133080   5.183   5.715   6.275
10727SOL    HW233081   5.240   5.595   6.180
10728SOL     OW33082   5.013   6.141   4.442
10728SOL    HW133083   4.972   6.129   4.532
10728SOL    HW233084   5.106   6.104   4.442
10729SOL     OW33085   6.452   3.166   4.237
10729SOL    HW133086   6.383   3.096   4.217
10729SOL    HW233087   6.474   3.164   4.335
10730SOL     OW33088   1.165   5.999   4.243
10730SOL    HW133089   1.129   6.028   4.154
10730SOL    HW233090   1.089   5.992   4.308
10731SOL     OW33091   5.004   4.098   4.963
10731SOL    HW133092   5.024   4.027   4.895
10731SOL    HW233093   4.911   4.085   4.998
10732SOL     OW33094   5.779   6.058   2.491
10732SOL    HW133095   5.783   5.968   2.536
10732SOL    HW233096   5.804   6.048   2.394
10733SOL     OW33097   0.975   1.798   5.659
10733SOL    HW133098   0.915   1.754   5.726
10733SOL    HW233099   0.962   1.755   5.570
10734SOL     OW33100   0.581   0.852   4.605
10734SOL    HW133101   0.627   0.867   4.693
10734SOL    HW233102   0.635   0.893   4.532
10735SOL     OW33103   0.367   0.791   2.214
10735SOL    HW133104   0.294   0.755   2.155
10735SOL    HW233105   0.405   0.874   2.173
10736SOL     OW33106   5.236   5.932   4.423
10736SOL    HW133107   5.174   5.881   4.363
10736SOL    HW233108   5.325   5.941   4.379
10737SOL     OW33109   6.099   1.114   0.290
10737SOL    HW133110   6.131   1.209   0.289
10737SOL    HW233111   5.999   1.112   0.301
10738SOL     OW33112   0.408   6.206   2.223
10738SOL    HW133113   0.439   6.262   2.146
10738SOL    HW233114   0.467   6.222   2.302
10739SOL     OW33115   5.157   2.495   4.017
10739SOL    HW133116   5.175   2.405   4.057
10739SOL    HW233117   5.127   2.558   4.088
10740SOL     OW33118   2.990   1.002   6.378
10740SOL    HW133119   3.069   1.048   6.420
10740SOL    HW233120   3.023   0.936   6.310
10741SOL     OW33121   2.321   2.852   4.160
10741SOL    HW133122   2.234   2.901   4.160
10741SOL    HW233123   2.389   2.903   4.212
10742SOL     OW33124   6.657   0.219   2.405
10742SOL    HW133125   6.563   0.186   2.398
10742SOL    HW233126   6.700   0.218   2.315
10743SOL     OW33127   3.658   2.839   5.639
10743SOL    HW133128   3.698   2.756   5.601
10743SOL    HW233129   3.704   2.919   5.600
10744SOL     OW33130   1.557   1.292   0.819
10744SOL    HW133131   1.484   1.316   0.754
10744SOL    HW233132   1.638   1.262   0.769
10745SOL     OW33133   3.857   5.764   2.344
10745SOL    HW133134   3.819   5.674   2.322
10745SOL    HW233135   3.916   5.755   2.425
10746SOL     OW33136   2.593   5.467   5.791
10746SOL    HW133137   2.500   5.479   5.826
10746SOL    HW233138   2.590   5.420   5.702
10747SOL     OW33139   6.539   0.244   4.698
10747SOL    HW133140   6.519   0.317   4.633
10747SOL    HW233141   6.545   0.157   4.649
10748SOL     OW33142   3.772   6.253   2.543
10748SOL    HW133143   3.729   6.298   2.465
10748SOL    HW233144   3.871   6.251   2.529
10749SOL     OW33145   5.134   2.516   2.284
10749SOL    HW133146   5.131   2.592   2.218
10749SOL    HW233147   5.074   2.443   2.252
10750SOL     OW33148   3.334   1.422   4.583
10750SOL    HW133149   3.382   1.465   4.507
10750SOL    HW233150   3.368   1.458   4.670
10751SOL     OW33151   5.936   6.066   3.938
10751SOL    HW133152   5.965   5.975   3.911
10751SOL    HW233153   5.955   6.131   3.865
10752SOL     OW33154   0.135   6.049   6.480
10752SOL    HW133155   0.116   6.118   6.410
10752SOL    HW233156   0.123   6.090   6.571
10753SOL     OW33157   4.626   6.920   4.920
10753SOL    HW133158   4.723   6.942   4.928
10753SOL    HW233159   4.576   6.963   4.995
10754SOL     OW33160   6.653   5.667   2.085
10754SOL    HW133161   6.624   5.572   2.071
10754SOL    HW233162   6.683   5.706   1.998
10755SOL     OW33163   0.732   1.483   2.244
10755SOL    HW133164   0.656   1.538   2.209
10755SOL    HW233165   0.818   1.532   2.227
10756SOL     OW33166   0.707   0.266   0.016
10756SOL    HW133167   0.784   0.209   7.010
10756SOL    HW233168   0.656   0.293   6.954
10757SOL     OW33169   0.163   2.441   2.158
10757SOL    HW133170   0.256   2.471   2.138
10757SOL    HW233171   0.121   2.406   2.074
10758SOL     OW33172   0.206   1.340   0.960
10758SOL    HW133173   0.163   1.430   0.974
10758SOL    HW233174   0.305   1.352   0.951
10759SOL     OW33175   3.166   5.203   5.585
10759SOL    HW133176   3.195   5.299   5.577
10759SOL    HW233177   3.241   5.143   5.559
10760SOL     OW33178   1.033   4.530   6.950
10760SOL    HW133179   1.087   4.570   0.005
10760SOL    HW233180   1.001   4.440   6.977
10761SOL     OW33181   1.709   1.384   6.458
10761SOL    HW133182   1.756   1.472   6.445
10761SOL    HW233183   1.760   1.312   6.412
10762SOL     OW33184   1.410   5.912   1.100
10762SOL    HW133185   1.407   5.863   1.188
10762SOL    HW233186   1.394   5.847   1.026
10763SOL     OW33187   4.888   1.422   2.515
10763SOL    HW133188   4.849   1.513   2.525
10763SOL    HW233189   4.860   1.383   2.428
10764SOL     OW33190   5.156   6.957   4.012
10764SOL    HW133191   5.219   6.881   4.030
10764SOL    HW233192   5.135   7.003   4.098
10765SOL     OW33193   6.843   3.226   1.752
10765SOL    HW133194   6.827   3.318   1.716
10765SOL    HW233195   6.921   3.185   1.706
10766SOL     OW33196   3.618   5.790   6.883
10766SOL    HW133197   3.628   5.879   6.928
10766SOL    HW233198   3.533   5.788   6.831
10767SOL     OW33199   1.538   5.331   6.616
10767SOL    HW133200   1.463   5.370   6.670
10767SOL    HW233201   1.550   5.385   6.533
10768SOL     OW33202   5.895   5.943   0.022
10768SOL    HW133203   5.971   5.906   6.988
10768SOL    HW233204   5.918   6.035   0.054
10769SOL     OW33205   3.117   4.098   4.569
10769SOL    HW133206   3.098   4.073   4.664
10769SOL    HW233207   3.214   4.123   4.560
10770SOL     OW33208   4.285   0.464   4.254
10770SOL    HW133209   4.332   0.388   4.300
10770SOL    HW233210   4.302   0.458   4.156
10771SOL     OW33211   5.039   6.132   5.489
10771SOL    HW133212   4.987   6.213   5.515
10771SOL    HW233213   5.095   6.102   5.566
10772SOL     OW33214   5.004   3.157   4.043
10772SOL    HW133215   4.969   3.231   4.101
10772SOL    HW233216   4.958   3.072   4.065
10773SOL     OW33217   1.063   3.689   0.650
10773SOL    HW133218   1.151   3.735   0.641
10773SOL    HW233219   1.056   3.647   0.741
10774SOL     OW33220   6.699   3.075   0.506
10774SOL    HW133221   6.755   2.994   0.490
10774SOL    HW233222   6.668   3.076   0.602
10775SOL     OW33223   2.191   4.423   6.347
10775SOL    HW133224   2.230   4.511   6.319
10775SOL    HW233225   2.102   4.438   6.389
10776SOL     OW33226   6.763   3.698   3.106
10776SOL    HW133227   6.838   3.677   3.167
10776SOL    HW233228   6.752   3.624   3.039
10777SOL     OW33229   0.883   6.286   2.188
10777SOL    HW133230   0.975   6.260   2.218
10777SOL    HW233231   0.868   6.254   2.095
10778SOL     OW33232   5.051   6.940   3.525
10778SOL    HW133233   5.031   6.893   3.439
10778SOL    HW233234   4.976   7.004   3.546
10779SOL     OW33235   5.832   2.682   5.390
10779SOL    HW133236   5.881   2.768   5.400
10779SOL    HW233237   5.893   2.606   5.413
10780SOL     OW33238   1.086   5.764   4.825
10780SOL    HW133239   1.182   5.791   4.834
10780SOL    HW233240   1.079   5.664   4.830
10781SOL     OW33241   6.149   2.703   5.626
10781SOL    HW133242   6.192   2.786   5.592
10781SOL    HW233243   6.205   2.662   5.698
10782SOL     OW33244   1.474   3.280   5.080
10782SOL    HW133245   1.522   3.216   5.140
10782SOL    HW233246   1.378   3.287   5.110
10783SOL     OW33247   1.495   3.886   4.174
10783SOL    HW133248   1.422   3.950   4.199
10783SOL    HW233249   1.537   3.850   4.257
10784SOL     OW33250   4.718   5.384   3.968
10784SOL    HW133251   4.682   5.435   3.890
10784SOL    HW233252   4.646   5.370   4.036
10785SOL     OW33253   1.599   5.650   1.970
10785SOL    HW133254   1.665   5.588   1.928
10785SOL    HW233255   1.513   5.647   1.918
10786SOL     OW33256   4.826   1.278   2.735
10786SOL    HW133257   4.740   1.233   2.712
10786SOL    HW233258   4.846   1.350   2.668
10787SOL     OW33259   2.935   1.159   3.554
10787SOL    HW133260   2.962   1.222   3.627
10787SOL    HW233261   2.857   1.198   3.504
10788SOL     OW33262   1.533   3.099   6.527
10788SOL    HW133263   1.449   3.138   6.489
10788SOL    HW233264   1.568   3.159   6.599
10789SOL     OW33265   6.866   2.517   2.806
10789SOL    HW133266   6.780   2.514   2.857
10789SOL    HW233267   6.902   2.424   2.796
10790SOL     OW33268   7.005   2.820   5.163
10790SOL    HW133269   7.006   2.914   5.129
10790SOL    HW233270   0.032   2.816   5.251
10791SOL     OW33271   2.324   2.834   3.085
10791SOL    HW133272   2.375   2.807   3.166
10791SOL    HW233273   2.230   2.858   3.110
10792SOL     OW33274   3.953   1.097   2.434
10792SOL    HW133275   4.003   1.013   2.453
10792SOL    HW233276   3.959   1.120   2.337
10793SOL     OW33277   3.781   2.137   3.765
10793SOL    HW133278   3.856   2.200   3.780
10793SOL    HW233279   3.748   2.102   3.853
10794SOL     OW33280   4.468   2.915   0.115
10794SOL    HW133281   4.562   2.902   0.083
10794SOL    HW233282   4.452   2.859   0.197
10795SOL     OW33283   6.384   2.600   3.276
10795SOL    HW133284   6.390   2.502   3.259
10795SOL    HW233285   6.354   2.647   3.194
10796SOL     OW33286   6.820   2.216   6.740
10796SOL    HW133287   6.738   2.245   6.690
10796SOL    HW233288   6.795   2.195   6.834
10797SOL     OW33289   5.631   4.363   6.760
10797SOL    HW133290   5.538   4.366   6.724
10797SOL    HW233291   5.683   4.439   6.722
10798SOL     OW33292   2.622   5.740   0.736
10798SOL    HW133293   2.560   5.801   0.784
10798SOL    HW233294   2.649   5.665   0.797
10799SOL     OW33295   1.923   1.104   3.495
10799SOL    HW133296   1.921   1.197   3.460
10799SOL    HW233297   1.860   1.047   3.442
10800SOL     OW33298   1.125   0.373   5.058
10800SOL    HW133299   1.110   0.282   5.096
10800SOL    HW233300   1.038   0.414   5.033
10801SOL     OW33301   2.985   6.034   6.768
10801SOL    HW133302   2.930   6.040   6.851
10801SOL    HW233303   2.992   6.124   6.725
10802SOL     OW33304   0.961   4.857   3.507
10802SOL    HW133305   0.874   4.873   3.461
10802SOL    HW233306   0.945   4.808   3.593
10803SOL     OW33307   0.226   3.887   4.589
10803SOL    HW133308   0.138   3.909   4.631
10803SOL    HW233309   0.211   3.854   4.495
10804SOL     OW33310   4.774   5.174   6.330
10804SOL    HW133311   4.694   5.204   6.278
10804SOL    HW233312   4.798   5.081   6.304
10805SOL     OW33313   5.523   5.885   6.761
10805SOL    HW133314   5.449   5.850   6.818
10805SOL    HW233315   5.544   5.979   6.788
10806SOL     OW33316   6.476   3.112   5.045
10806SOL    HW133317   6.492   3.155   4.957
10806SOL    HW233318   6.527   3.161   5.116
10807SOL     OW33319   4.515   2.609   5.028
10807SOL    HW133320   4.431   2.664   5.032
10807SOL    HW233321   4.594   2.670   5.022
10808SOL     OW33322   0.691   2.200   1.418
10808SOL    HW133323   0.705   2.128   1.349
10808SOL    HW233324   0.647   2.279   1.375
10809SOL     OW33325   0.635   1.071   2.920
10809SOL    HW133326   0.710   1.022   2.963
10809SOL    HW233327   0.552   1.015   2.923
10810SOL     OW33328   1.905   2.117   6.521
10810SOL    HW133329   1.869   2.126   6.428
10810SOL    HW233330   1.953   2.201   6.546
10811SOL     OW33331   4.539   5.338   6.253
10811SOL    HW133332   4.455   5.286   6.237
10811SOL    HW233333   4.540   5.372   6.347
10812SOL     OW33334   6.805   3.001   2.211
10812SOL    HW133335   6.813   3.064   2.133
10812SOL    HW233336   6.708   2.980   2.225
10813SOL     OW33337   2.998   6.255   2.304
10813SOL    HW133338   2.952   6.182   2.353
10813SOL    HW233339   2.935   6.332   2.292
10814SOL     OW33340   1.820   6.085   4.388
10814SOL    HW133341   1.818   6.135   4.475
10814SOL    HW233342   1.730   6.091   4.345
10815SOL     OW33343   5.589   2.830   5.897
10815SOL    HW133344   5.600   2.872   5.807
10815SOL    HW233345   5.637   2.742   5.899
10816SOL     OW33346   2.231   2.719   1.191
10816SOL    HW133347   2.252   2.709   1.288
10816SOL    HW233348   2.209   2.815   1.172
10817SOL     OW33349   3.508   1.556   1.785
10817SOL    HW133350   3.604   1.527   1.776
10817SOL    HW233351   3.459   1.536   1.701
10818SOL     OW33352   4.329   3.552   5.450
10818SOL    HW133353   4.277   3.475   5.489
10818SOL    HW233354   4.412   3.516   5.407
10819SOL     OW33355   2.004   3.388   5.003
10819SOL    HW133356   1.962   3.450   5.070
10819SOL    HW233357   2.017   3.437   4.916
10820SOL     OW33358   0.487   6.200   5.150
10820SOL    HW133359   0.475   6.162   5.242
10820SOL    HW233360   0.486   6.125   5.083
10821SOL     OW33361   0.017   0.700   6.975
10821SOL    HW133362   6.947   0.677   7.013
10821SOL    HW233363   0.066   0.616   6.952
10822SOL     OW33364   0.299   5.486   5.606
10822SOL    HW133365   0.306   5.578   5.568
10822SOL    HW233366   0.375   5.430   5.573
10823SOL     OW33367   2.647   2.527   0.457
10823SOL    HW133368   2.611   2.605   0.508
10823SOL    HW233369   2.655   2.448   0.518
10824SOL     OW33370   5.008   1.439   4.675
10824SOL    HW133371   4.986   1.447   4.772
10824SOL    HW233372   4.994   1.528   4.631
10825SOL     OW33373   4.607   1.524   2.224
10825SOL    HW133374   4.637   1.474   2.306
10825SOL    HW233375   4.550   1.602   2.252
10826SOL     OW33376   0.077   3.243   0.759
10826SOL    HW133377   0.088   3.175   0.687
10826SOL    HW233378   7.007   3.288   0.750
10827SOL     OW33379   6.919   2.577   5.043
10827SOL    HW133380   6.992   2.550   4.980
10827SOL    HW233381   6.936   2.669   5.076
10828SOL     OW33382   2.995   4.615   6.928
10828SOL    HW133383   2.991   4.678   7.006
10828SOL    HW233384   3.022   4.524   6.961
10829SOL     OW33385   1.474   3.698   1.020
10829SOL    HW133386   1.532   3.657   0.950
10829SOL    HW233387   1.494   3.656   1.108
10830SOL     OW33388   6.075   0.359   3.888
10830SOL    HW133389   6.158   0.304   3.895
10830SOL    HW233390   5.995   0.299   3.889
10831SOL     OW33391   5.439   3.141   2.491
10831SOL    HW133392   5.421   3.053   2.535
10831SOL    HW233393   5.475   3.206   2.558
10832SOL     OW33394   1.749   2.918   2.351
10832SOL    HW133395   1.810   2.969   2.290
10832SOL    HW233396   1.766   2.820   2.342
10833SOL     OW33397   2.971   0.019   4.652
10833SOL    HW133398   3.053   0.065   4.684
10833SOL    HW233399   2.963   6.949   4.695
10834SOL     OW33400   6.723   2.126   5.554
10834SOL    HW133401   6.676   2.198   5.503
10834SOL    HW233402   6.820   2.124   5.528
10835SOL     OW33403   0.798   0.950   0.674
10835SOL    HW133404   0.865   0.880   0.701
10835SOL    HW233405   0.808   0.970   0.577
10836SOL     OW33406   7.015   1.281   1.158
10836SOL    HW133407   6.939   1.276   1.093
10836SOL    HW233408   0.082   1.289   1.107
10837SOL     OW33409   1.670   5.562   0.657
10837SOL    HW133410   1.696   5.656   0.675
10837SOL    HW233411   1.606   5.530   0.727
10838SOL     OW33412   6.420   6.242   1.296
10838SOL    HW133413   6.511   6.249   1.338
10838SOL    HW233414   6.425   6.271   1.201
10839SOL     OW33415   2.731   1.517   6.662
10839SOL    HW133416   2.795   1.546   6.734
10839SOL    HW233417   2.739   1.579   6.584
10840SOL     OW33418   0.836   0.964   3.153
10840SOL    HW133419   0.910   0.946   3.219
10840SOL    HW233420   0.836   1.061   3.129
10841SOL     OW33421   4.502   4.540   0.310
10841SOL    HW133422   4.499   4.577   0.217
10841SOL    HW233423   4.596   4.517   0.334
10842SOL     OW33424   5.917   1.730   2.222
10842SOL    HW133425   5.897   1.634   2.240
10842SOL    HW233426   5.981   1.737   2.145
10843SOL     OW33427   1.001   1.980   1.268
10843SOL    HW133428   0.905   1.966   1.246
10843SOL    HW233429   1.051   1.895   1.255
10844SOL     OW33430   4.424   6.644   3.726
10844SOL    HW133431   4.459   6.707   3.795
10844SOL    HW233432   4.474   6.557   3.732
10845SOL     OW33433   2.458   3.490   1.205
10845SOL    HW133434   2.467   3.588   1.223
10845SOL    HW233435   2.393   3.450   1.270
10846SOL     OW33436   3.152   2.303   1.485
10846SOL    HW133437   3.211   2.224   1.469
10846SOL    HW233438   3.170   2.372   1.414
10847SOL     OW33439   5.154   1.828   5.664
10847SOL    HW133440   5.252   1.835   5.644
10847SOL    HW233441   5.122   1.914   5.705
10848SOL     OW33442   2.329   0.466   6.094
10848SOL    HW133443   2.304   0.370   6.089
10848SOL    HW233444   2.410   0.477   6.151
10849SOL     OW33445   0.504   4.269   5.023
10849SOL    HW133446   0.586   4.256   4.967
10849SOL    HW233447   0.531   4.278   5.119
10850SOL     OW33448   5.878   0.911   3.098
10850SOL    HW133449   5.884   0.969   3.179
10850SOL    HW233450   5.901   0.964   3.017
10851SOL     OW33451   4.798   2.757   0.388
10851SOL    HW133452   4.817   2.753   0.486
10851SOL    HW233453   4.885   2.752   0.338
10852SOL     OW33454   6.024   1.381   5.725
10852SOL    HW133455   5.948   1.316   5.727
10852SOL    HW233456   6.000   1.458   5.667
10853SOL     OW33457   1.726   6.651   5.619
10853SOL    HW133458   1.818   6.686   5.633
10853SOL    HW233459   1.697   6.599   5.699
10854SOL     OW33460   5.740   6.838   6.918
10854SOL    HW133461   5.826   6.875   6.882
10854SOL    HW233462   5.722   6.749   6.878
10855SOL     OW33463   0.870   5.823   6.868
10855SOL    HW133464   0.947   5.797   6.925
10855SOL    HW233465   0.809   5.744   6.856
10856SOL     OW33466   4.658   0.097   6.388
10856SOL    HW133467   4.597   0.112   6.466
10856SOL    HW233468   4.668   7.019   6.371
10857SOL     OW33469   5.944   6.561   4.624
10857SOL    HW133470   5.845   6.545   4.620
10857SOL    HW233471   5.985   6.496   4.688
10858SOL     OW33472   1.674   2.931   1.421
10858SOL    HW133473   1.711   2.853   1.472
10858SOL    HW233474   1.612   2.897   1.350
10859SOL     OW33475   2.184   5.119   1.913
10859SOL    HW133476   2.270   5.069   1.926
10859SOL    HW233477   2.191   5.209   1.955
10860SOL     OW33478   5.534   1.569   2.272
10860SOL    HW133479   5.628   1.543   2.247
10860SOL    HW233480   5.479   1.486   2.281
10861SOL     OW33481   2.459   4.944   1.160
10861SOL    HW133482   2.472   5.011   1.086
10861SOL    HW233483   2.467   4.991   1.248
10862SOL     OW33484   4.049   4.719   5.226
10862SOL    HW133485   3.959   4.691   5.258
10862SOL    HW233486   4.119   4.661   5.269
10863SOL     OW33487   0.249   6.898   4.334
10863SOL    HW133488   0.257   6.865   4.428
10863SOL    HW233489   0.332   6.874   4.283
10864SOL     OW33490   2.884   3.436   2.634
10864SOL    HW133491   2.873   3.413   2.537
10864SOL    HW233492   2.847   3.528   2.650
10865SOL     OW33493   3.567   2.045   2.168
10865SOL    HW133494   3.601   2.102   2.093
10865SOL    HW233495   3.557   1.951   2.137
10866SOL     OW33496   0.453   3.634   5.181
10866SOL    HW133497   0.436   3.556   5.120
10866SOL    HW233498   0.410   3.716   5.142
10867SOL     OW33499   5.153   3.054   0.427
10867SOL    HW133500   5.202   3.108   0.495
10867SOL    HW233501   5.120   2.969   0.469
10868SOL     OW33502   7.007   0.224   6.079
10868SOL    HW133503   0.067   0.254   6.131
10868SOL    HW233504   6.950   0.166   6.136
10869NA      NA33505   6.543   1.215   6.935
10870NA      NA33506   4.795   4.578   4.777
10871NA      NA33507   1.081   4.596   3.085
10872NA      NA33508   6.633   3.395   3.614
10873NA      NA33509   4.415   2.421   5.142
10874NA      NA33510   2.674   3.480   6.865
10875NA      NA33511   1.510   5.431   0.203
10876NA      NA33512   4.260   4.800   1.996
10877NA      NA33513   5.498   3.810   1.235
10878NA      NA33514   3.550   1.958   0.459
10879NA      NA33515   5.029   6.105   1.668
10880NA      NA33516   2.527   6.541   4.458
10881NA      NA33517   3.328   5.596   2.722
10882NA      NA33518   4.516   4.928   5.700
   7.01958   7.01958   7.01958
