Generated by trjconv : CNT in water t= 273.00000
33518
    1C        C    1   2.845   2.771   4.745
    1C        C    2   2.899   2.723   4.866
    1C        C    3   2.848   2.779   4.984
    1C        C    4   2.850   2.778   4.260
    1C        C    5   2.906   2.731   4.381
    1C        C    6   2.849   2.776   4.503
    1C        C    7   3.013   2.640   4.624
    1C        C    8   2.901   2.726   4.624
    1C        C    9   3.077   2.604   4.745
    1C        C   10   3.011   2.636   4.866
    1C        C   11   3.178   2.487   4.977
    1C        C   12   3.062   2.565   4.976
    1C        C   13   2.846   2.769   3.775
    1C        C   14   2.900   2.720   3.896
    1C        C   15   2.853   2.776   4.017
    1C        C   16   3.021   2.647   4.138
    1C        C   17   2.911   2.735   4.140
    1C        C   18   3.081   2.611   4.261
    1C        C   19   3.023   2.652   4.383
    1C        C   20   3.209   2.551   4.507
    1C        C   21   3.080   2.608   4.504
    1C        C   22   3.280   2.532   4.628
    1C        C   23   3.207   2.547   4.748
    1C        C   24   3.410   2.482   4.866
    1C        C   25   3.267   2.496   4.866
    1C        C   26   3.491   2.475   4.980
    1C        C   27   2.847   2.768   3.282
    1C        C   28   2.903   2.726   3.405
    1C        C   29   2.853   2.770   3.530
    1C        C   30   3.020   2.645   3.654
    1C        C   31   2.903   2.723   3.654
    1C        C   32   3.081   2.604   3.775
    1C        C   33   3.015   2.638   3.895
    1C        C   34   3.208   2.546   4.019
    1C        C   35   3.078   2.603   4.017
    1C        C   36   3.276   2.528   4.141
    1C        C   37   3.211   2.558   4.263
    1C        C   38   3.416   2.504   4.383
    1C        C   39   3.278   2.533   4.385
    1C        C   40   3.489   2.503   4.504
    1C        C   41   3.419   2.505   4.627
    1C        C   42   3.631   2.482   4.749
    1C        C   43   3.489   2.482   4.748
    1C        C   44   3.706   2.490   4.868
    1C        C   45   3.630   2.482   4.986
    1C        C   46   2.837   2.753   2.795
    1C        C   47   2.893   2.710   2.917
    1C        C   48   2.844   2.762   3.038
    1C        C   49   3.020   2.643   3.163
    1C        C   50   2.904   2.724   3.160
    1C        C   51   3.077   2.604   3.286
    1C        C   52   3.016   2.641   3.408
    1C        C   53   3.205   2.547   3.529
    1C        C   54   3.076   2.605   3.530
    1C        C   55   3.275   2.528   3.651
    1C        C   56   3.209   2.545   3.775
    1C        C   57   3.416   2.503   3.894
    1C        C   58   3.276   2.525   3.897
    1C        C   59   3.484   2.500   4.018
    1C        C   60   3.416   2.507   4.141
    1C        C   61   3.630   2.496   4.263
    1C        C   62   3.489   2.498   4.262
    1C        C   63   3.703   2.502   4.383
    1C        C   64   3.630   2.495   4.505
    1C        C   65   3.834   2.544   4.622
    1C        C   66   3.700   2.498   4.627
    1C        C   67   3.905   2.559   4.743
    1C        C   68   3.842   2.527   4.865
    1C        C   69   4.052   2.589   4.979
    1C        C   70   3.925   2.529   4.978
    1C        C   71   2.829   2.739   2.308
    1C        C   72   2.885   2.696   2.430
    1C        C   73   2.833   2.746   2.552
    1C        C   74   3.009   2.627   2.673
    1C        C   75   2.891   2.705   2.673
    1C        C   76   3.071   2.596   2.796
    1C        C   77   3.013   2.635   2.919
    1C        C   78   3.206   2.543   3.040
    1C        C   79   3.076   2.600   3.041
    1C        C   80   3.275   2.528   3.162
    1C        C   81   3.208   2.551   3.284
    1C        C   82   3.412   2.500   3.403
    1C        C   83   3.273   2.524   3.407
    1C        C   84   3.482   2.495   3.526
    1C        C   85   3.413   2.500   3.649
    1C        C   86   3.626   2.497   3.769
    1C        C   87   3.484   2.493   3.771
    1C        C   88   3.693   2.515   3.892
    1C        C   89   3.625   2.505   4.015
    1C        C   90   3.830   2.553   4.133
    1C        C   91   3.695   2.512   4.138
    1C        C   92   3.896   2.579   4.256
    1C        C   93   3.838   2.543   4.379
    1C        C   94   4.027   2.638   4.500
    1C        C   95   3.903   2.570   4.502
    1C        C   96   4.089   2.677   4.620
    1C        C   97   4.028   2.631   4.739
    1C        C   98   4.183   2.771   4.864
    1C        C   99   4.096   2.657   4.861
    1C        C  100   4.216   2.842   4.980
    1C        C  101   2.824   2.731   2.069
    1C        C  102   2.993   2.594   2.192
    1C        C  103   2.884   2.686   2.188
    1C        C  104   3.063   2.571   2.314
    1C        C  105   2.999   2.613   2.432
    1C        C  106   3.203   2.539   2.552
    1C        C  107   3.070   2.588   2.552
    1C        C  108   3.271   2.520   2.674
    1C        C  109   3.200   2.540   2.795
    1C        C  110   3.409   2.497   2.916
    1C        C  111   3.270   2.519   2.916
    1C        C  112   3.481   2.489   3.037
    1C        C  113   3.413   2.497   3.161
    1C        C  114   3.626   2.493   3.278
    1C        C  115   3.485   2.494   3.282
    1C        C  116   3.694   2.504   3.401
    1C        C  117   3.623   2.501   3.524
    1C        C  118   3.830   2.546   3.647
    1C        C  119   3.694   2.507   3.646
    1C        C  120   3.895   2.574   3.769
    1C        C  121   3.829   2.555   3.893
    1C        C  122   4.024   2.645   4.013
    1C        C  123   3.900   2.577   4.013
    1C        C  124   4.085   2.679   4.136
    1C        C  125   4.024   2.639   4.256
    1C        C  126   4.190   2.773   4.378
    1C        C  127   4.086   2.677   4.378
    1C        C  128   4.245   2.822   4.499
    1C        C  129   4.196   2.769   4.620
    1C        C  130   4.325   2.935   4.738
    1C        C  131   4.242   2.820   4.744
    1C        C  132   4.351   3.004   4.858
    1C        C  133   4.281   2.965   4.973
    1C        C  134   3.176   2.472   2.084
    1C        C  135   3.042   2.513   2.084
    1C        C  136   3.264   2.487   2.192
    1C        C  137   3.195   2.519   2.311
    1C        C  138   3.406   2.478   2.429
    1C        C  139   3.267   2.502   2.432
    1C        C  140   3.481   2.479   2.549
    1C        C  141   3.409   2.488   2.670
    1C        C  142   3.620   2.496   2.790
    1C        C  143   3.479   2.487   2.793
    1C        C  144   3.692   2.502   2.912
    1C        C  145   3.622   2.494   3.034
    1C        C  146   3.831   2.534   3.156
    1C        C  147   3.695   2.497   3.155
    1C        C  148   3.896   2.563   3.278
    1C        C  149   3.831   2.540   3.401
    1C        C  150   4.022   2.631   3.523
    1C        C  151   3.895   2.569   3.524
    1C        C  152   4.081   2.670   3.645
    1C        C  153   4.020   2.639   3.768
    1C        C  154   4.197   2.761   3.888
    1C        C  155   4.081   2.681   3.889
    1C        C  156   4.244   2.817   4.009
    1C        C  157   4.191   2.772   4.132
    1C        C  158   4.333   2.927   4.251
    1C        C  159   4.242   2.819   4.255
    1C        C  160   4.374   2.989   4.372
    1C        C  161   4.332   2.933   4.494
    1C        C  162   4.436   3.116   4.618
    1C        C  163   4.372   2.991   4.617
    1C        C  164   4.462   3.186   4.738
    1C        C  165   4.429   3.121   4.859
    1C        C  166   4.509   3.323   4.972
    1C        C  167   4.476   3.188   4.973
    1C        C  168   3.478   2.431   2.073
    1C        C  169   3.402   2.460   2.188
    1C        C  170   3.619   2.465   2.306
    1C        C  171   3.477   2.467   2.308
    1C        C  172   3.695   2.483   2.424
    1C        C  173   3.622   2.483   2.545
    1C        C  174   3.828   2.529   2.666
    1C        C  175   3.690   2.499   2.668
    1C        C  176   3.895   2.558   2.787
    1C        C  177   3.828   2.539   2.911
    1C        C  178   4.022   2.622   3.033
    1C        C  179   3.897   2.556   3.033
    1C        C  180   4.082   2.662   3.154
    1C        C  181   4.022   2.628   3.278
    1C        C  182   4.191   2.757   3.398
    1C        C  183   4.081   2.668   3.400
    1C        C  184   4.242   2.807   3.519
    1C        C  185   4.192   2.758   3.642
    1C        C  186   4.330   2.920   3.763
    1C        C  187   4.242   2.809   3.763
    1C        C  188   4.373   2.980   3.884
    1C        C  189   4.337   2.924   4.009
    1C        C  190   4.445   3.108   4.127
    1C        C  191   4.377   2.985   4.130
    1C        C  192   4.472   3.171   4.250
    1C        C  193   4.443   3.112   4.375
    1C        C  194   4.509   3.316   4.491
    1C        C  195   4.468   3.181   4.496
    1C        C  196   4.524   3.386   4.613
    1C        C  197   4.513   3.319   4.736
    1C        C  198   4.560   3.536   4.850
    1C        C  199   4.532   3.396   4.854
    1C        C  200   4.584   3.619   4.964
    1C        C  201   3.616   2.410   2.071
    1C        C  202   3.826   2.505   2.183
    1C        C  203   3.690   2.459   2.183
    1C        C  204   3.900   2.533   2.301
    1C        C  205   3.831   2.520   2.424
    1C        C  206   4.022   2.618   2.541
    1C        C  207   3.896   2.554   2.545
    1C        C  208   4.079   2.659   2.664
    1C        C  209   4.018   2.628   2.787
    1C        C  210   4.190   2.749   2.908
    1C        C  211   4.079   2.662   2.910
    1C        C  212   4.243   2.798   3.030
    1C        C  213   4.194   2.747   3.152
    1C        C  214   4.324   2.916   3.268
    1C        C  215   4.242   2.802   3.273
    1C        C  216   4.360   2.975   3.392
    1C        C  217   4.329   2.919   3.517
    1C        C  218   4.433   3.102   3.637
    1C        C  219   4.369   2.977   3.640
    1C        C  220   4.465   3.168   3.759
    1C        C  221   4.441   3.104   3.882
    1C        C  222   4.508   3.307   4.004
    1C        C  223   4.474   3.170   4.003
    1C        C  224   4.522   3.378   4.125
    1C        C  225   4.515   3.306   4.247
    1C        C  226   4.524   3.522   4.365
    1C        C  227   4.524   3.381   4.366
    1C        C  228   4.516   3.595   4.486
    1C        C  229   4.532   3.527   4.609
    1C        C  230   4.508   3.742   4.727
    1C        C  231   4.543   3.604   4.726
    1C        C  232   4.499   3.819   4.845
    1C        C  233   4.551   3.756   4.959
    1C        C  234   4.015   2.608   2.061
    1C        C  235   3.892   2.542   2.066
    1C        C  236   4.085   2.644   2.176
    1C        C  237   4.025   2.601   2.296
    1C        C  238   4.191   2.738   2.419
    1C        C  239   4.084   2.644   2.417
    1C        C  240   4.245   2.786   2.540
    1C        C  241   4.193   2.743   2.664
    1C        C  242   4.333   2.904   2.784
    1C        C  243   4.246   2.793   2.785
    1C        C  244   4.375   2.964   2.904
    1C        C  245   4.332   2.907   3.026
    1C        C  246   4.441   3.094   3.147
    1C        C  247   4.370   2.972   3.146
    1C        C  248   4.459   3.159   3.271
    1C        C  249   4.427   3.099   3.395
    1C        C  250   4.498   3.303   3.513
    1C        C  251   4.456   3.168   3.515
    1C        C  252   4.513   3.371   3.636
    1C        C  253   4.503   3.304   3.759
    1C        C  254   4.527   3.516   3.877
    1C        C  255   4.517   3.375   3.881
    1C        C  256   4.522   3.588   3.998
    1C        C  257   4.523   3.519   4.122
    1C        C  258   4.491   3.732   4.243
    1C        C  259   4.515   3.592   4.243
    1C        C  260   4.476   3.802   4.364
    1C        C  261   4.490   3.734   4.487
    1C        C  262   4.426   3.940   4.604
    1C        C  263   4.479   3.809   4.606
    1C        C  264   4.404   4.011   4.725
    1C        C  265   4.442   3.948   4.846
    1C        C  266   4.324   4.136   4.957
    1C        C  267   4.397   4.018   4.959
    1C        C  268   4.261   2.773   2.059
    1C        C  269   4.197   2.731   2.177
    1C        C  270   4.344   2.888   2.298
    1C        C  271   4.246   2.785   2.298
    1C        C  272   4.378   2.953   2.419
    1C        C  273   4.337   2.893   2.541
    1C        C  274   4.444   3.082   2.660
    1C        C  275   4.370   2.961   2.660
    1C        C  276   4.471   3.151   2.780
    1C        C  277   4.442   3.088   2.903
    1C        C  278   4.507   3.292   3.022
    1C        C  279   4.472   3.155   3.024
    1C        C  280   4.514   3.361   3.145
    1C        C  281   4.491   3.297   3.268
    1C        C  282   4.514   3.510   3.387
    1C        C  283   4.509   3.369   3.389
    1C        C  284   4.513   3.583   3.509
    1C        C  285   4.523   3.512   3.631
    1C        C  286   4.497   3.722   3.755
    1C        C  287   4.523   3.583   3.753
    1C        C  288   4.476   3.793   3.875
    1C        C  289   4.493   3.726   3.999
    1C        C  290   4.424   3.929   4.116
    1C        C  291   4.477   3.798   4.119
    1C        C  292   4.394   3.995   4.238
    1C        C  293   4.425   3.934   4.361
    1C        C  294   4.323   4.124   4.480
    1C        C  295   4.392   4.001   4.481
    1C        C  296   4.283   4.187   4.600
    1C        C  297   4.326   4.129   4.721
    1C        C  298   4.198   4.313   4.838
    1C        C  299   4.285   4.199   4.838
    1C        C  300   4.177   4.409   4.941
    1C        C  301   4.348   2.881   2.060
    1C        C  302   4.468   3.066   2.177
    1C        C  303   4.393   2.944   2.177
    1C        C  304   4.478   3.142   2.297
    1C        C  305   4.443   3.078   2.418
    1C        C  306   4.503   3.285   2.536
    1C        C  307   4.472   3.147   2.538
    1C        C  308   4.510   3.358   2.657
    1C        C  309   4.503   3.289   2.780
    1C        C  310   4.522   3.503   2.901
    1C        C  311   4.521   3.362   2.900
    1C        C  312   4.519   3.577   3.021
    1C        C  313   4.519   3.502   3.141
    1C        C  314   4.486   3.714   3.264
    1C        C  315   4.514   3.576   3.262
    1C        C  316   4.470   3.785   3.386
    1C        C  317   4.490   3.722   3.510
    1C        C  318   4.427   3.923   3.626
    1C        C  319   4.473   3.790   3.633
    1C        C  320   4.392   3.985   3.748
    1C        C  321   4.424   3.924   3.871
    1C        C  322   4.312   4.106   3.992
    1C        C  323   4.391   3.989   3.992
    1C        C  324   4.278   4.170   4.113
    1C        C  325   4.324   4.117   4.236
    1C        C  326   4.181   4.278   4.353
    1C        C  327   4.281   4.178   4.356
    1C        C  328   4.133   4.333   4.474
    1C        C  329   4.186   4.289   4.598
    1C        C  330   4.020   4.433   4.714
    1C        C  331   4.134   4.348   4.715
    1C        C  332   3.971   4.490   4.833
    1C        C  333   4.053   4.476   4.946
    1C        C  334   4.553   3.265   2.064
    1C        C  335   4.534   3.126   2.065
    1C        C  336   4.529   3.350   2.172
    1C        C  337   4.510   3.280   2.293
    1C        C  338   4.515   3.495   2.409
    1C        C  339   4.518   3.354   2.413
    1C        C  340   4.519   3.567   2.531
    1C        C  341   4.525   3.498   2.655
    1C        C  342   4.495   3.709   2.772
    1C        C  343   4.516   3.569   2.776
    1C        C  344   4.480   3.781   2.893
    1C        C  345   4.495   3.716   3.018
    1C        C  346   4.419   3.913   3.136
    1C        C  347   4.470   3.781   3.140
    1C        C  348   4.386   3.976   3.257
    1C        C  349   4.423   3.918   3.381
    1C        C  350   4.313   4.099   3.502
    1C        C  351   4.395   3.984   3.502
    1C        C  352   4.268   4.156   3.624
    1C        C  353   4.315   4.103   3.746
    1C        C  354   4.172   4.261   3.869
    1C        C  355   4.270   4.159   3.868
    1C        C  356   4.119   4.312   3.989
    1C        C  357   4.180   4.272   4.111
    1C        C  358   4.005   4.397   4.232
    1C        C  359   4.123   4.319   4.231
    1C        C  360   3.949   4.443   4.352
    1C        C  361   4.016   4.412   4.473
    1C        C  362   3.827   4.517   4.591
    1C        C  363   3.956   4.461   4.591
    1C        C  364   3.763   4.548   4.713
    1C        C  365   3.839   4.541   4.832
    1C        C  366   3.629   4.589   4.949
    1C        C  367   3.766   4.569   4.948
    1C        C  368   4.514   3.567   2.052
    1C        C  369   4.523   3.491   2.170
    1C        C  370   4.504   3.708   2.285
    1C        C  371   4.516   3.568   2.288
    1C        C  372   4.485   3.778   2.407
    1C        C  373   4.500   3.706   2.528
    1C        C  374   4.427   3.908   2.649
    1C        C  375   4.479   3.776   2.649
    1C        C  376   4.399   3.975   2.770
    1C        C  377   4.430   3.913   2.893
    1C        C  378   4.322   4.099   3.012
    1C        C  379   4.397   3.979   3.013
    1C        C  380   4.274   4.155   3.133
    1C        C  381   4.314   4.097   3.255
    1C        C  382   4.178   4.258   3.379
    1C        C  383   4.275   4.156   3.378
    1C        C  384   4.126   4.312   3.498
    1C        C  385   4.176   4.263   3.621
    1C        C  386   4.006   4.386   3.743
    1C        C  387   4.124   4.308   3.744
    1C        C  388   3.942   4.424   3.863
    1C        C  389   4.002   4.390   3.986
    1C        C  390   3.818   4.494   4.108
    1C        C  391   3.945   4.432   4.109
    1C        C  392   3.750   4.522   4.229
    1C        C  393   3.818   4.497   4.350
    1C        C  394   3.614   4.552   4.474
    1C        C  395   3.753   4.530   4.471
    1C        C  396   3.543   4.563   4.596
    1C        C  397   3.622   4.558   4.713
    1C        C  398   3.411   4.548   4.838
    1C        C  399   3.551   4.569   4.835
    1C        C  400   3.341   4.516   4.955
    1C        C  401   4.504   3.706   2.051
    1C        C  402   4.459   3.919   2.167
    1C        C  403   4.501   3.785   2.167
    1C        C  404   4.414   3.981   2.286
    1C        C  405   4.436   3.911   2.407
    1C        C  406   4.328   4.095   2.526
    1C        C  407   4.403   3.976   2.528
    1C        C  408   4.283   4.152   2.646
    1C        C  409   4.321   4.093   2.769
    1C        C  410   4.173   4.248   2.889
    1C        C  411   4.272   4.148   2.890
    1C        C  412   4.120   4.295   3.011
    1C        C  413   4.174   4.255   3.135
    1C        C  414   4.001   4.378   3.253
    1C        C  415   4.117   4.297   3.257
    1C        C  416   3.943   4.418   3.375
    1C        C  417   4.006   4.387   3.498
    1C        C  418   3.816   4.478   3.619
    1C        C  419   3.945   4.420   3.621
    1C        C  420   3.746   4.501   3.740
    1C        C  421   3.812   4.479   3.863
    1C        C  422   3.610   4.535   3.988
    1C        C  423   3.748   4.508   3.986
    1C        C  424   3.539   4.545   4.110
    1C        C  425   3.611   4.546   4.231
    1C        C  426   3.400   4.551   4.356
    1C        C  427   3.541   4.557   4.353
    1C        C  428   3.328   4.552   4.477
    1C        C  429   3.402   4.566   4.597
    1C        C  430   3.196   4.516   4.723
    1C        C  431   3.335   4.546   4.719
    1C        C  432   3.126   4.488   4.844
    1C        C  433   3.205   4.487   4.959
    1C        C  434   4.385   4.119   2.049
    1C        C  435   4.455   3.997   2.051
    1C        C  436   4.304   4.162   2.158
    1C        C  437   4.333   4.098   2.281
    1C        C  438   4.183   4.249   2.402
    1C        C  439   4.284   4.150   2.403
    1C        C  440   4.132   4.301   2.523
    1C        C  441   4.182   4.251   2.646
    1C        C  442   4.006   4.375   2.764
    1C        C  443   4.126   4.300   2.766
    1C        C  444   3.946   4.414   2.886
    1C        C  445   4.004   4.375   3.009
    1C        C  446   3.813   4.472   3.129
    1C        C  447   3.939   4.410   3.130
    1C        C  448   3.745   4.489   3.252
    1C        C  449   3.813   4.472   3.374
    1C        C  450   3.609   4.527   3.498
    1C        C  451   3.748   4.500   3.497
    1C        C  452   3.538   4.539   3.619
    1C        C  453   3.608   4.531   3.741
    1C        C  454   3.400   4.547   3.867
    1C        C  455   3.541   4.543   3.865
    1C        C  456   3.329   4.536   3.988
    1C        C  457   3.397   4.545   4.112
    1C        C  458   3.191   4.509   4.237
    1C        C  459   3.328   4.542   4.235
    1C        C  460   3.122   4.492   4.359
    1C        C  461   3.190   4.522   4.480
    1C        C  462   2.997   4.436   4.602
    1C        C  463   3.125   4.496   4.603
    1C        C  464   2.930   4.403   4.722
    1C        C  465   2.990   4.444   4.844
    1C        C  466   2.798   4.342   4.960
    1C        C  467   2.906   4.431   4.960
    1C        C  468   4.120   4.281   2.045
    1C        C  469   4.193   4.253   2.161
    1C        C  470   4.009   4.373   2.279
    1C        C  471   4.129   4.297   2.280
    1C        C  472   3.942   4.399   2.400
    1C        C  473   4.010   4.372   2.521
    1C        C  474   3.814   4.461   2.644
    1C        C  475   3.944   4.406   2.641
    1C        C  476   3.748   4.492   2.765
    1C        C  477   3.815   4.468   2.887
    1C        C  478   3.606   4.521   3.010
    1C        C  479   3.744   4.490   3.007
    1C        C  480   3.538   4.535   3.132
    1C        C  481   3.608   4.523   3.254
    1C        C  482   3.397   4.536   3.377
    1C        C  483   3.538   4.538   3.376
    1C        C  484   3.326   4.538   3.500
    1C        C  485   3.397   4.546   3.622
    1C        C  486   3.192   4.502   3.743
    1C        C  487   3.328   4.539   3.745
    1C        C  488   3.129   4.478   3.867
    1C        C  489   3.192   4.500   3.992
    1C        C  490   2.998   4.419   4.113
    1C        C  491   3.125   4.481   4.115
    1C        C  492   2.940   4.384   4.237
    1C        C  493   2.999   4.424   4.360
    1C        C  494   2.832   4.297   4.483
    1C        C  495   2.936   4.392   4.482
    1C        C  496   2.778   4.251   4.605
    1C        C  497   2.819   4.315   4.725
    1C        C  498   2.668   4.164   4.844
    1C        C  499   2.756   4.275   4.845
    1C        C  500   2.603   4.117   4.959
    1C        C  501   4.004   4.357   2.041
    1C        C  502   3.816   4.467   2.155
    1C        C  503   3.944   4.407   2.158
    1C        C  504   3.749   4.487   2.277
    1C        C  505   3.815   4.460   2.399
    1C        C  506   3.609   4.511   2.521
    1C        C  507   3.748   4.484   2.521
    1C        C  508   3.538   4.514   2.643
    1C        C  509   3.609   4.519   2.765
    1C        C  510   3.396   4.522   2.887
    1C        C  511   3.538   4.525   2.886
    1C        C  512   3.326   4.521   3.009
    1C        C  513   3.396   4.530   3.131
    1C        C  514   3.191   4.488   3.255
    1C        C  515   3.328   4.525   3.255
    1C        C  516   3.124   4.469   3.378
    1C        C  517   3.190   4.498   3.499
    1C        C  518   2.999   4.411   3.625
    1C        C  519   3.124   4.477   3.622
    1C        C  520   2.944   4.368   3.748
    1C        C  521   3.008   4.406   3.868
    1C        C  522   2.843   4.276   3.995
    1C        C  523   2.948   4.371   3.991
    1C        C  524   2.789   4.233   4.119
    1C        C  525   2.833   4.292   4.239
    1C        C  526   2.696   4.132   4.363
    1C        C  527   2.780   4.246   4.362
    1C        C  528   2.656   4.073   4.485
    1C        C  529   2.694   4.138   4.605
    1C        C  530   2.582   3.961   4.730
    1C        C  531   2.643   4.090   4.727
    1C        C  532   2.545   3.902   4.854
    1C        C  533   2.533   3.995   4.961
    1C        C  534   3.618   4.555   2.044
    1C        C  535   3.751   4.511   2.039
    1C        C  536   3.537   4.543   2.162
    1C        C  537   3.610   4.514   2.281
    1C        C  538   3.394   4.515   2.403
    1C        C  539   3.535   4.516   2.401
    1C        C  540   3.322   4.511   2.524
    1C        C  541   3.396   4.516   2.644
    1C        C  542   3.186   4.486   2.766
    1C        C  543   3.324   4.514   2.766
    1C        C  544   3.122   4.460   2.890
    1C        C  545   3.189   4.487   3.012
    1C        C  546   2.995   4.402   3.133
    1C        C  547   3.123   4.462   3.134
    1C        C  548   2.938   4.364   3.257
    1C        C  549   3.000   4.401   3.378
    1C        C  550   2.833   4.279   3.504
    1C        C  551   2.942   4.369   3.503
    1C        C  552   2.784   4.227   3.626
    1C        C  553   2.838   4.275   3.748
    1C        C  554   2.706   4.116   3.876
    1C        C  555   2.794   4.226   3.873
    1C        C  556   2.664   4.059   3.998
    1C        C  557   2.705   4.119   4.119
    1C        C  558   2.601   3.939   4.246
    1C        C  559   2.666   4.064   4.243
    1C        C  560   2.568   3.876   4.368
    1C        C  561   2.592   3.947   4.488
    1C        C  562   2.528   3.749   4.616
    1C        C  563   2.565   3.886   4.612
    1C        C  564   2.514   3.682   4.739
    1C        C  565   2.526   3.760   4.858
    1C        C  566   2.526   3.551   4.976
    1C        C  567   2.530   3.690   4.979
    1C        C  568   3.330   4.476   2.044
    1C        C  569   3.398   4.517   2.160
    1C        C  570   3.185   4.474   2.279
    1C        C  571   3.324   4.506   2.281
    1C        C  572   3.116   4.457   2.401
    1C        C  573   3.184   4.480   2.522
    1C        C  574   2.990   4.404   2.648
    1C        C  575   3.115   4.468   2.645
    1C        C  576   2.931   4.363   2.770
    1C        C  577   2.995   4.399   2.891
    1C        C  578   2.826   4.270   3.015
    1C        C  579   2.933   4.363   3.012
    1C        C  580   2.779   4.219   3.138
    1C        C  581   2.835   4.268   3.258
    1C        C  582   2.700   4.110   3.383
    1C        C  583   2.788   4.221   3.383
    1C        C  584   2.663   4.052   3.507
    1C        C  585   2.697   4.116   3.628
    1C        C  586   2.597   3.935   3.756
    1C        C  587   2.662   4.061   3.753
    1C        C  588   2.573   3.869   3.879
    1C        C  589   2.603   3.932   4.002
    1C        C  590   2.537   3.733   4.127
    1C        C  591   2.581   3.868   4.126
    1C        C  592   2.520   3.668   4.251
    1C        C  593   2.533   3.739   4.372
    1C        C  594   2.512   3.533   4.501
    1C        C  595   2.517   3.674   4.497
    1C        C  596   2.518   3.462   4.622
    1C        C  597   2.515   3.540   4.740
    1C        C  598   2.532   3.329   4.865
    1C        C  599   2.528   3.470   4.862
    1C        C  600   2.538   3.249   4.980
    1C        C  601   3.198   4.436   2.045
    1C        C  602   2.982   4.393   2.158
    1C        C  603   3.116   4.444   2.158
    1C        C  604   2.927   4.357   2.284
    1C        C  605   2.989   4.394   2.406
    1C        C  606   2.821   4.269   2.529
    1C        C  607   2.927   4.362   2.528
    1C        C  608   2.775   4.214   2.651
    1C        C  609   2.825   4.270   2.771
    1C        C  610   2.689   4.108   2.895
    1C        C  611   2.777   4.218   2.893
    1C        C  612   2.649   4.051   3.018
    1C        C  613   2.689   4.110   3.140
    1C        C  614   2.592   3.924   3.266
    1C        C  615   2.654   4.051   3.264
    1C        C  616   2.567   3.861   3.391
    1C        C  617   2.596   3.928   3.512
    1C        C  618   2.529   3.730   3.635
    1C        C  619   2.570   3.866   3.636
    1C        C  620   2.518   3.663   3.759
    1C        C  621   2.527   3.736   3.880
    1C        C  622   2.513   3.526   4.011
    1C        C  623   2.520   3.667   4.004
    1C        C  624   2.510   3.456   4.133
    1C        C  625   2.507   3.527   4.255
    1C        C  626   2.536   3.321   4.382
    1C        C  627   2.512   3.461   4.380
    1C        C  628   2.556   3.252   4.504
    1C        C  629   2.540   3.323   4.625
    1C        C  630   2.594   3.117   4.746
    1C        C  631   2.553   3.253   4.747
    1C        C  632   2.614   3.047   4.868
    1C        C  633   2.562   3.111   4.985
    1C        C  634   2.784   4.300   2.054
    1C        C  635   2.891   4.391   2.048
    1C        C  636   2.750   4.229   2.170
    1C        C  637   2.812   4.274   2.289
    1C        C  638   2.678   4.107   2.409
    1C        C  639   2.763   4.220   2.410
    1C        C  640   2.639   4.050   2.532
    1C        C  641   2.688   4.103   2.653
    1C        C  642   2.584   3.918   2.775
    1C        C  643   2.649   4.044   2.775
    1C        C  644   2.558   3.857   2.900
    1C        C  645   2.588   3.923   3.021
    1C        C  646   2.531   3.721   3.147
    1C        C  647   2.568   3.857   3.144
    1C        C  648   2.516   3.653   3.269
    1C        C  649   2.531   3.725   3.390
    1C        C  650   2.511   3.518   3.519
    1C        C  651   2.515   3.659   3.514
    1C        C  652   2.514   3.450   3.643
    1C        C  653   2.515   3.522   3.764
    1C        C  654   2.536   3.315   3.888
    1C        C  655   2.516   3.455   3.888
    1C        C  656   2.550   3.248   4.012
    1C        C  657   2.536   3.317   4.135
    1C        C  658   2.601   3.120   4.257
    1C        C  659   2.554   3.253   4.260
    1C        C  660   2.629   3.055   4.379
    1C        C  661   2.598   3.117   4.502
    1C        C  662   2.707   2.937   4.624
    1C        C  663   2.623   3.051   4.624
    1C        C  664   2.751   2.878   4.744
    1C        C  665   2.700   2.933   4.866
    1C        C  666   2.743   2.870   4.983
    1C        C  667   2.679   4.020   2.057
    1C        C  668   2.685   4.104   2.169
    1C        C  669   2.588   3.910   2.291
    1C        C  670   2.644   4.041   2.288
    1C        C  671   2.557   3.848   2.414
    1C        C  672   2.584   3.920   2.533
    1C        C  673   2.518   3.716   2.661
    1C        C  674   2.554   3.853   2.654
    1C        C  675   2.505   3.648   2.784
    1C        C  676   2.528   3.719   2.903
    1C        C  677   2.513   3.508   3.029
    1C        C  678   2.516   3.650   3.026
    1C        C  679   2.509   3.440   3.153
    1C        C  680   2.507   3.512   3.274
    1C        C  681   2.530   3.304   3.400
    1C        C  682   2.508   3.444   3.398
    1C        C  683   2.549   3.241   3.524
    1C        C  684   2.533   3.310   3.646
    1C        C  685   2.600   3.110   3.769
    1C        C  686   2.546   3.241   3.769
    1C        C  687   2.634   3.051   3.893
    1C        C  688   2.604   3.118   4.014
    1C        C  689   2.712   2.937   4.138
    1C        C  690   2.632   3.053   4.136
    1C        C  691   2.759   2.886   4.261
    1C        C  692   2.710   2.939   4.382
    1C        C  693   2.756   2.882   4.503
    1C        C  694   2.629   3.889   2.055
    1C        C  695   2.525   3.702   2.174
    1C        C  696   2.581   3.832   2.174
    1C        C  697   2.514   3.637   2.298
    1C        C  698   2.518   3.713   2.417
    1C        C  699   2.487   3.504   2.542
    1C        C  700   2.500   3.645   2.540
    1C        C  701   2.498   3.436   2.665
    1C        C  702   2.497   3.507   2.788
    1C        C  703   2.511   3.294   2.913
    1C        C  704   2.498   3.435   2.909
    1C        C  705   2.537   3.225   3.033
    1C        C  706   2.536   3.301   3.152
    1C        C  707   2.595   3.102   3.276
    1C        C  708   2.551   3.237   3.277
    1C        C  709   2.629   3.046   3.402
    1C        C  710   2.600   3.109   3.525
    1C        C  711   2.707   2.927   3.648
    1C        C  712   2.629   3.045   3.647
    1C        C  713   2.754   2.876   3.771
    1C        C  714   2.714   2.934   3.893
    1C        C  715   2.758   2.881   4.016
    1C        C  716   2.449   3.499   2.066
    1C        C  717   2.494   3.631   2.057
    1C        C  718   2.465   3.420   2.185
    1C        C  719   2.484   3.498   2.302
    1C        C  720   2.506   3.288   2.425
    1C        C  721   2.481   3.427   2.424
    1C        C  722   2.532   3.221   2.546
    1C        C  723   2.516   3.295   2.666
    1C        C  724   2.591   3.100   2.791
    1C        C  725   2.532   3.229   2.789
    1C        C  726   2.620   3.032   2.911
    1C        C  727   2.581   3.091   3.034
    1C        C  728   2.704   2.918   3.161
    1C        C  729   2.620   3.032   3.156
    1C        C  730   2.752   2.872   3.285
    1C        C  731   2.715   2.934   3.407
    1C        C  732   2.760   2.876   3.527
    1C        C  733   2.493   3.199   2.069
    1C        C  734   2.483   3.278   2.184
    1C        C  735   2.579   3.085   2.305
    1C        C  736   2.521   3.214   2.305
    1C        C  737   2.614   3.022   2.427
    1C        C  738   2.594   3.094   2.546
    1C        C  739   2.698   2.914   2.670
    1C        C  740   2.622   3.033   2.670
    1C        C  741   2.742   2.857   2.792
    1C        C  742   2.702   2.917   2.914
    1C        C  743   2.747   2.866   3.037
    1C        C  744   2.542   3.068   2.073
    1C        C  745   2.681   2.894   2.186
    1C        C  746   2.603   3.012   2.186
    1C        C  747   2.733   2.843   2.307
    1C        C  748   2.688   2.901   2.428
    1C        C  749   2.738   2.851   2.550
    1C        C  750   2.732   2.835   2.070
    1C        C  751   3.657   2.287   2.000
    1C        O  752   3.616   2.173   2.034
    1C        O  753   3.705   2.278   1.868
    1C        C  754   4.639   3.043   2.000
    1C        O  755   4.643   3.041   1.875
    1C        O  756   4.767   3.046   2.056
    1C        C  757   4.424   4.213   1.941
    1C        O  758   4.535   4.271   1.950
    1C        O  759   4.387   4.181   1.810
    1C        C  760   3.602   4.656   1.937
    1C        O  761   3.666   4.764   1.930
    1C        O  762   3.539   4.612   1.820
    1C        C  763   2.886   4.496   1.944
    1C        O  764   2.932   4.468   1.831
    1C        O  765   2.816   4.617   1.958
    1C        C  766   2.354   3.459   1.960
    1C        O  767   2.392   3.427   1.844
    1C        O  768   2.220   3.491   1.983
    1C        C  769   4.677   3.586   5.074
    1C        O  770   4.659   3.533   5.187
    1C        O  771   4.810   3.621   5.049
    1C        C  772   4.294   4.486   4.989
    1C        O  773   4.320   4.476   5.112
    1C        O  774   4.308   4.623   4.961
    1C        C  775   4.151   2.538   5.076
    1C        O  776   4.222   2.437   5.053
    1C        O  777   4.161   2.570   5.212
    1C        C  778   2.874   4.553   5.037
    1C        O  779   2.775   4.627   5.015
    1C        O  780   2.952   4.587   5.148
    1C        C  781   2.481   3.041   5.087
    1C        O  782   2.359   3.025   5.061
    1C        O  783   2.539   3.029   5.213
    1C        C  784   2.423   3.993   5.059
    1C        O  785   2.306   4.038   5.043
    1C        O  786   2.454   3.978   5.195
    1C        C  787   2.959   2.420   2.004
    1C        O  788   2.975   2.390   1.882
    1C        O  789   2.864   2.339   2.063
    1C        C  790   3.172   2.368   5.065
    1C        O  791   3.163   2.255   5.010
    1C        O  792   3.208   2.366   5.200
    1C        H  793   4.308   3.003   5.069
    1C        H  794   4.266   2.784   5.055
    1C        H  795   4.518   3.123   5.046
    1C        H  796   4.572   3.347   5.055
    1C        H  797   4.604   3.823   5.022
    1C        H  798   4.447   3.996   5.050
    1C        H  799   4.323   4.188   5.050
    1C        H  800   4.032   4.526   5.037
    1C        H  801   3.815   4.565   5.044
    1C        H  802   3.590   4.637   5.037
    1C        H  803   3.380   4.531   5.054
    1C        H  804   3.157   4.476   5.054
    1C        H  805   3.909   2.455   5.054
    1C        H  806   3.662   2.544   5.067
    1C        H  807   2.990   2.525   5.044
    1C        H  808   3.448   2.425   5.065
    1C        H  809   2.891   2.747   5.077
    1C        H  810   2.671   2.846   5.059
    1C        H  811   2.560   3.298   5.073
    1C        H  812   2.488   3.504   5.065
    1C        H  813   2.482   3.743   5.059
    1C        H  814   2.611   4.162   5.056
    1C        H  815   2.746   4.337   5.054
    1C        H  816   2.678   2.843   1.978
    1C        H  817   2.809   2.663   1.988
    1C        H  818   3.211   2.411   2.003
    1C        H  819   3.431   2.411   1.979
    1C        H  820   3.847   2.519   1.971
    1C        H  821   4.077   2.592   1.975
    1C        H  822   4.268   2.707   1.975
    1C        H  823   4.407   2.901   1.973
    1C        H  824   4.568   3.304   1.966
    1C        H  825   4.550   3.521   1.962
    1C        H  826   4.484   3.747   1.954
    1C        H  827   3.774   4.458   1.949
    1C        H  828   3.999   4.407   1.947
    1C        H  829   4.124   4.215   1.961
    1C        H  830   4.486   3.955   1.958
    1C        H  831   2.644   3.833   1.965
    1C        H  832   2.735   4.048   1.970
    1C        H  833   2.714   4.302   1.974
    1C        H  834   3.376   4.491   1.949
    1C        H  835   3.159   4.399   1.952
    1C        H  836   2.542   3.016   1.980
    1C        H  837   2.506   3.249   1.976
    1C        H  838   2.471   3.690   1.970
    2V3OU   H29  839   2.808   3.550   2.543
    2V3OU   C27  840   2.790   3.504   2.643
    2V3OU   H27  841   2.736   3.574   2.713
    2V3OU   H28  842   2.733   3.408   2.633
    2V3OU   O11  843   2.910   3.469   2.711
    2V3OU   C15  844   2.925   3.401   2.831
    2V3OU   C13  845   3.054   3.375   2.881
    2V3OU   C14  846   3.079   3.269   2.968
    2V3OU   C16  847   2.980   3.186   3.019
    2V3OU    H6  848   2.996   3.104   3.091
    2V3OU   C12  849   3.212   3.229   3.020
    2V3OU    O2  850   3.237   3.126   3.086
    2V3OU   C10  851   3.327   3.306   2.971
    2V3OU    C8  852   3.456   3.270   3.006
    2V3OU   O10  853   3.484   3.157   3.076
    2V3OU   H26  854   3.399   3.113   3.092
    2V3OU    C6  855   3.565   3.354   2.966
    2V3OU    C5  856   3.538   3.467   2.889
    2V3OU    C4  857   3.701   3.294   2.958
    2V3OU    H4  858   3.725   3.223   3.042
    2V3OU    H5  859   3.711   3.231   2.865
    2V3OU    C2  860   3.814   3.397   2.953
    2V3OU    O6  861   3.803   3.477   3.071
    2V3OU   H21  862   3.761   3.560   3.042
    2V3OU    C3  863   3.782   3.497   2.842
    2V3OU    H2  864   3.859   3.578   2.838
    2V3OU    H3  865   3.781   3.444   2.743
    2V3OU   C25  866   3.950   3.327   2.942
    2V3OU    O7  867   3.999   3.295   2.834
    2V3OU   C26  868   4.032   3.293   3.065
    2V3OU   H22  869   4.067   3.389   3.112
    2V3OU   H23  870   4.115   3.222   3.038
    2V3OU    O8  871   3.961   3.212   3.156
    2V3OU   H24  872   3.928   3.267   3.229
    2V3OU    C1  873   3.648   3.565   2.861
    2V3OU    H1  874   3.624   3.617   2.763
    2V3OU    O3  875   3.652   3.655   2.972
    2V3OU   C19  876   3.611   3.791   2.960
    2V3OU    H9  877   3.520   3.804   2.894
    2V3OU    O4  878   3.710   3.854   2.882
    2V3OU   C20  879   3.843   3.875   2.928
    2V3OU   H10  880   3.898   3.776   2.930
    2V3OU   C24  881   3.606   3.856   3.098
    2V3OU   H16  882   3.544   3.792   3.167
    2V3OU   H17  883   3.565   3.960   3.098
    2V3OU   C23  884   3.746   3.869   3.158
    2V3OU   H15  885   3.791   3.764   3.164
    2V3OU    N1  886   3.735   3.957   3.273
    2V3OU   H19  887   3.813   3.933   3.330
    2V3OU   H20  888   3.652   3.935   3.324
    2V3OU   C21  889   3.845   3.944   3.065
    2V3OU   H11  890   3.952   3.923   3.092
    2V3OU    O5  891   3.824   4.085   3.068
    2V3OU   H18  892   3.787   4.102   3.157
    2V3OU   C22  893   3.911   3.957   2.820
    2V3OU   H12  894   3.860   4.055   2.803
    2V3OU   H13  895   3.906   3.898   2.725
    2V3OU   H14  896   4.021   3.960   2.837
    2V3OU   C11  897   3.165   3.468   2.859
    2V3OU    O1  898   3.138   3.583   2.817
    2V3OU    C9  899   3.301   3.427   2.901
    2V3OU    C7  900   3.405   3.509   2.859
    2V3OU    O9  901   3.388   3.619   2.777
    2V3OU   H25  902   3.292   3.629   2.780
    2V3OU   C17  903   2.826   3.315   2.885
    2V3OU    H7  904   2.728   3.344   2.847
    2V3OU   C18  905   2.850   3.218   2.981
    2V3OU    H8  906   2.780   3.173   3.053
    3SOL     OW  907   2.064   5.399   6.563
    3SOL    HW1  908   2.013   5.314   6.576
    3SOL    HW2  909   2.088   5.410   6.467
    4SOL     OW  910   6.899   0.772   2.057
    4SOL    HW1  911   6.807   0.801   2.032
    4SOL    HW2  912   6.900   0.672   2.068
    5SOL     OW  913   4.241   2.158   2.241
    5SOL    HW1  914   4.205   2.137   2.332
    5SOL    HW2  915   4.182   2.117   2.171
    6SOL     OW  916   4.379   1.200   1.507
    6SOL    HW1  917   4.462   1.255   1.507
    6SOL    HW2  918   4.299   1.260   1.519
    7SOL     OW  919   0.941   4.182   3.672
    7SOL    HW1  920   0.974   4.090   3.691
    7SOL    HW2  921   0.862   4.202   3.730
    8SOL     OW  922   3.292   1.062   5.614
    8SOL    HW1  923   3.229   1.116   5.670
    8SOL    HW2  924   3.384   1.068   5.652
    9SOL     OW  925   4.780   1.479   5.790
    9SOL    HW1  926   4.774   1.519   5.698
    9SOL    HW2  927   4.771   1.552   5.858
   10SOL     OW  928   2.356   4.894   5.249
   10SOL    HW1  929   2.292   4.955   5.202
   10SOL    HW2  930   2.308   4.811   5.279
   11SOL     OW  931   3.086   1.021   5.442
   11SOL    HW1  932   3.126   1.026   5.350
   11SOL    HW2  933   3.158   1.009   5.510
   12SOL     OW  934   2.964   5.296   3.350
   12SOL    HW1  935   2.973   5.204   3.388
   12SOL    HW2  936   2.913   5.291   3.263
   13SOL     OW  937   3.605   6.750   4.263
   13SOL    HW1  938   3.547   6.671   4.280
   13SOL    HW2  939   3.586   6.786   4.172
   14SOL     OW  940   3.711   4.857   6.325
   14SOL    HW1  941   3.770   4.839   6.247
   14SOL    HW2  942   3.762   4.908   6.395
   15SOL     OW  943   1.144   6.636   1.127
   15SOL    HW1  944   1.201   6.567   1.082
   15SOL    HW2  945   1.074   6.591   1.182
   16SOL     OW  946   5.707   2.845   6.128
   16SOL    HW1  947   5.761   2.785   6.186
   16SOL    HW2  948   5.758   2.930   6.111
   17SOL     OW  949   5.777   5.526   6.284
   17SOL    HW1  950   5.812   5.432   6.290
   17SOL    HW2  951   5.851   5.590   6.302
   18SOL     OW  952   3.557   1.258   5.601
   18SOL    HW1  953   3.554   1.203   5.684
   18SOL    HW2  954   3.590   1.202   5.525
   19SOL     OW  955   0.205   1.383   2.696
   19SOL    HW1  956   0.204   1.483   2.686
   19SOL    HW2  957   0.276   1.344   2.638
   20SOL     OW  958   4.962   1.918   4.260
   20SOL    HW1  959   4.988   1.984   4.190
   20SOL    HW2  960   4.864   1.900   4.254
   21SOL     OW  961   3.388   0.712   2.004
   21SOL    HW1  962   3.474   0.672   2.036
   21SOL    HW2  963   3.326   0.639   1.974
   22SOL     OW  964   1.162   6.273   0.122
   22SOL    HW1  965   1.238   6.315   0.171
   22SOL    HW2  966   1.192   6.246   0.031
   23SOL     OW  967   5.209   5.399   2.398
   23SOL    HW1  968   5.193   5.460   2.319
   23SOL    HW2  969   5.159   5.434   2.477
   24SOL     OW  970   3.434   0.466   2.715
   24SOL    HW1  971   3.349   0.415   2.702
   24SOL    HW2  972   3.414   0.556   2.754
   25SOL     OW  973   3.718   0.108   3.558
   25SOL    HW1  974   3.637   0.093   3.502
   25SOL    HW2  975   3.780   0.030   3.549
   26SOL     OW  976   6.527   1.094   0.657
   26SOL    HW1  977   6.594   1.157   0.696
   26SOL    HW2  978   6.469   1.058   0.729
   27SOL     OW  979   1.882   0.776   2.372
   27SOL    HW1  980   1.931   0.850   2.420
   27SOL    HW2  981   1.859   0.704   2.436
   28SOL     OW  982   2.322   0.456   5.027
   28SOL    HW1  983   2.292   0.484   4.935
   28SOL    HW2  984   2.325   0.356   5.031
   29SOL     OW  985   6.204   1.687   1.490
   29SOL    HW1  986   6.214   1.603   1.438
   29SOL    HW2  987   6.248   1.763   1.440
   30SOL     OW  988   4.130   0.821   3.214
   30SOL    HW1  989   4.187   0.901   3.229
   30SOL    HW2  990   4.042   0.833   3.260
   31SOL     OW  991   0.764   2.210   6.279
   31SOL    HW1  992   0.723   2.275   6.216
   31SOL    HW2  993   0.864   2.220   6.276
   32SOL     OW  994   0.185   1.610   2.974
   32SOL    HW1  995   0.211   1.542   2.905
   32SOL    HW2  996   0.174   1.565   3.063
   33SOL     OW  997   0.710   4.369   4.672
   33SOL    HW1  998   0.746   4.430   4.743
   33SOL    HW2  999   0.616   4.344   4.694
   34SOL     OW 1000   2.579   6.905   5.005
   34SOL    HW1 1001   2.629   6.969   5.064
   34SOL    HW2 1002   2.621   6.815   5.010
   35SOL     OW 1003   4.986   3.090   5.970
   35SOL    HW1 1004   4.996   3.168   5.908
   35SOL    HW2 1005   4.890   3.079   5.995
   36SOL     OW 1006   4.776   1.684   4.539
   36SOL    HW1 1007   4.858   1.628   4.525
   36SOL    HW2 1008   4.705   1.656   4.473
   37SOL     OW 1009   1.239   1.586   5.545
   37SOL    HW1 1010   1.220   1.665   5.603
   37SOL    HW2 1011   1.337   1.584   5.524
   38SOL     OW 1012   0.998   5.228   2.463
   38SOL    HW1 1013   0.954   5.161   2.522
   38SOL    HW2 1014   1.077   5.267   2.509
   39SOL     OW 1015   6.320   4.538   6.159
   39SOL    HW1 1016   6.418   4.518   6.157
   39SOL    HW2 1017   6.300   4.611   6.094
   40SOL     OW 1018   4.773   1.905   0.505
   40SOL    HW1 1019   4.683   1.867   0.483
   40SOL    HW2 1020   4.802   1.966   0.431
   41SOL     OW 1021   6.982   4.472   3.345
   41SOL    HW1 1022   7.009   4.566   3.367
   41SOL    HW2 1023   7.021   4.447   3.256
   42SOL     OW 1024   3.227   5.267   3.961
   42SOL    HW1 1025   3.162   5.324   4.010
   42SOL    HW2 1026   3.319   5.306   3.968
   43SOL     OW 1027   5.215   0.007   5.675
   43SOL    HW1 1028   5.127   0.052   5.659
   43SOL    HW2 1029   5.205   6.963   5.749
   44SOL     OW 1030   4.809   2.371   6.061
   44SOL    HW1 1031   4.877   2.444   6.052
   44SOL    HW2 1032   4.759   2.383   6.147
   45SOL     OW 1033   4.904   5.409   1.135
   45SOL    HW1 1034   4.846   5.335   1.168
   45SOL    HW2 1035   4.848   5.490   1.119
   46SOL     OW 1036   0.737   2.795   3.463
   46SOL    HW1 1037   0.817   2.806   3.522
   46SOL    HW2 1038   0.677   2.724   3.501
   47SOL     OW 1039   4.598   4.439   1.093
   47SOL    HW1 1040   4.680   4.400   1.052
   47SOL    HW2 1041   4.546   4.488   1.023
   48SOL     OW 1042   6.818   2.706   6.429
   48SOL    HW1 1043   6.911   2.737   6.446
   48SOL    HW2 1044   6.820   2.618   6.382
   49SOL     OW 1045   5.733   3.403   2.337
   49SOL    HW1 1046   5.691   3.318   2.303
   49SOL    HW2 1047   5.670   3.448   2.399
   50SOL     OW 1048   5.491   0.997   4.802
   50SOL    HW1 1049   5.489   1.091   4.837
   50SOL    HW2 1050   5.584   0.972   4.777
   51SOL     OW 1051   2.623   6.394   3.206
   51SOL    HW1 1052   2.710   6.392   3.255
   51SOL    HW2 1053   2.588   6.487   3.204
   52SOL     OW 1054   6.170   3.242   2.185
   52SOL    HW1 1055   6.254   3.218   2.234
   52SOL    HW2 1056   6.091   3.213   2.239
   53SOL     OW 1057   4.306   0.893   3.847
   53SOL    HW1 1058   4.286   0.944   3.763
   53SOL    HW2 1059   4.339   0.802   3.823
   54SOL     OW 1060   5.414   5.555   0.933
   54SOL    HW1 1061   5.338   5.539   0.869
   54SOL    HW2 1062   5.448   5.468   0.967
   55SOL     OW 1063   1.866   3.087   6.055
   55SOL    HW1 1064   1.871   3.132   6.144
   55SOL    HW2 1065   1.959   3.065   6.024
   56SOL     OW 1066   0.413   0.588   1.571
   56SOL    HW1 1067   0.487   0.656   1.569
   56SOL    HW2 1068   0.347   0.613   1.641
   57SOL     OW 1069   4.552   0.886   1.272
   57SOL    HW1 1070   4.643   0.909   1.306
   57SOL    HW2 1071   4.494   0.967   1.275
   58SOL     OW 1072   1.288   7.016   5.052
   58SOL    HW1 1073   1.280   7.005   5.151
   58SOL    HW2 1074   1.380   6.993   5.022
   59SOL     OW 1075   0.301   2.679   5.926
   59SOL    HW1 1076   0.348   2.750   5.872
   59SOL    HW2 1077   0.226   2.641   5.872
   60SOL     OW 1078   5.351   2.712   4.301
   60SOL    HW1 1079   5.351   2.808   4.274
   60SOL    HW2 1080   5.258   2.684   4.323
   61SOL     OW 1081   6.717   2.181   4.368
   61SOL    HW1 1082   6.724   2.098   4.312
   61SOL    HW2 1083   6.780   2.250   4.331
   62SOL     OW 1084   1.964   0.656   2.124
   62SOL    HW1 1085   1.875   0.619   2.095
   62SOL    HW2 1086   1.954   0.697   2.215
   63SOL     OW 1087   5.197   0.935   4.039
   63SOL    HW1 1088   5.200   0.869   4.115
   63SOL    HW2 1089   5.199   1.028   4.076
   64SOL     OW 1090   0.080   2.989   5.680
   64SOL    HW1 1091   0.158   2.931   5.703
   64SOL    HW2 1092   0.042   2.960   5.592
   65SOL     OW 1093   0.591   4.550   6.113
   65SOL    HW1 1094   0.577   4.646   6.138
   65SOL    HW2 1095   0.536   4.492   6.173
   66SOL     OW 1096   3.718   0.611   4.145
   66SOL    HW1 1097   3.802   0.558   4.142
   66SOL    HW2 1098   3.674   0.600   4.234
   67SOL     OW 1099   6.733   2.520   5.972
   67SOL    HW1 1100   6.736   2.541   5.874
   67SOL    HW2 1101   6.803   2.572   6.020
   68SOL     OW 1102   0.149   1.196   0.080
   68SOL    HW1 1103   0.055   1.168   0.059
   68SOL    HW2 1104   0.166   1.286   0.039
   69SOL     OW 1105   0.806   3.343   6.368
   69SOL    HW1 1106   0.802   3.440   6.395
   69SOL    HW2 1107   0.784   3.286   6.447
   70SOL     OW 1108   5.165   4.591   4.223
   70SOL    HW1 1109   5.146   4.520   4.291
   70SOL    HW2 1110   5.232   4.557   4.157
   71SOL     OW 1111   4.273   2.138   3.035
   71SOL    HW1 1112   4.348   2.081   3.068
   71SOL    HW2 1113   4.187   2.088   3.046
   72SOL     OW 1114   1.528   1.099   3.367
   72SOL    HW1 1115   1.453   1.094   3.433
   72SOL    HW2 1116   1.612   1.127   3.413
   73SOL     OW 1117   3.953   0.339   1.358
   73SOL    HW1 1118   3.880   0.298   1.303
   73SOL    HW2 1119   4.032   0.358   1.300
   74SOL     OW 1120   3.720   0.592   6.914
   74SOL    HW1 1121   3.664   0.647   6.853
   74SOL    HW2 1122   3.815   0.620   6.907
   75SOL     OW 1123   4.243   0.466   1.388
   75SOL    HW1 1124   4.265   0.562   1.367
   75SOL    HW2 1125   4.283   0.441   1.476
   76SOL     OW 1126   2.806   2.963   0.951
   76SOL    HW1 1127   2.874   3.007   1.010
   76SOL    HW2 1128   2.790   3.020   0.871
   77SOL     OW 1129   0.919   0.265   3.676
   77SOL    HW1 1130   0.934   0.242   3.772
   77SOL    HW2 1131   0.821   0.255   3.655
   78SOL     OW 1132   5.104   1.640   0.159
   78SOL    HW1 1133   5.131   1.546   0.138
   78SOL    HW2 1134   5.052   1.642   0.244
   79SOL     OW 1135   3.375   5.715   1.023
   79SOL    HW1 1136   3.397   5.629   0.975
   79SOL    HW2 1137   3.318   5.772   0.964
   80SOL     OW 1138   4.760   0.775   3.508
   80SOL    HW1 1139   4.777   0.760   3.605
   80SOL    HW2 1140   4.787   0.868   3.484
   81SOL     OW 1141   2.338   0.250   2.362
   81SOL    HW1 1142   2.378   0.336   2.331
   81SOL    HW2 1143   2.240   0.251   2.346
   82SOL     OW 1144   5.816   5.158   0.613
   82SOL    HW1 1145   5.908   5.172   0.577
   82SOL    HW2 1146   5.749   5.168   0.539
   83SOL     OW 1147   0.260   0.205   0.630
   83SOL    HW1 1148   0.225   0.179   0.539
   83SOL    HW2 1149   0.347   0.160   0.646
   84SOL     OW 1150   6.274   3.453   2.599
   84SOL    HW1 1151   6.193   3.459   2.540
   84SOL    HW2 1152   6.258   3.505   2.683
   85SOL     OW 1153   1.768   1.151   3.471
   85SOL    HW1 1154   1.801   1.241   3.501
   85SOL    HW2 1155   1.775   1.087   3.548
   86SOL     OW 1156   0.410   1.251   6.454
   86SOL    HW1 1157   0.337   1.198   6.497
   86SOL    HW2 1158   0.447   1.316   6.521
   87SOL     OW 1159   5.167   4.270   0.910
   87SOL    HW1 1160   5.148   4.180   0.870
   87SOL    HW2 1161   5.102   4.337   0.875
   88SOL     OW 1162   2.901   1.703   6.407
   88SOL    HW1 1163   2.915   1.633   6.336
   88SOL    HW2 1164   2.903   1.793   6.365
   89SOL     OW 1165   2.355   3.083   7.007
   89SOL    HW1 1166   2.270   3.136   7.005
   89SOL    HW2 1167   2.343   3.001   0.040
   90SOL     OW 1168   3.920   5.514   1.951
   90SOL    HW1 1169   3.851   5.453   1.989
   90SOL    HW2 1170   3.987   5.537   2.022
   91SOL     OW 1171   6.363   4.209   6.093
   91SOL    HW1 1172   6.344   4.300   6.128
   91SOL    HW2 1173   6.438   4.213   6.027
   92SOL     OW 1174   4.479   4.497   1.329
   92SOL    HW1 1175   4.402   4.551   1.298
   92SOL    HW2 1176   4.525   4.454   1.251
   93SOL     OW 1177   3.221   3.621   0.215
   93SOL    HW1 1178   3.179   3.667   0.137
   93SOL    HW2 1179   3.207   3.675   0.298
   94SOL     OW 1180   3.154   5.455   6.465
   94SOL    HW1 1181   3.197   5.399   6.394
   94SOL    HW2 1182   3.221   5.518   6.504
   95SOL     OW 1183   1.864   0.604   2.576
   95SOL    HW1 1184   1.842   0.680   2.638
   95SOL    HW2 1185   1.957   0.573   2.593
   96SOL     OW 1186   3.960   6.767   5.808
   96SOL    HW1 1187   3.927   6.681   5.770
   96SOL    HW2 1188   3.914   6.784   5.896
   97SOL     OW 1189   2.118   3.018   6.052
   97SOL    HW1 1190   2.128   3.035   6.150
   97SOL    HW2 1191   2.168   3.088   6.001
   98SOL     OW 1192   1.195   2.819   0.927
   98SOL    HW1 1193   1.120   2.757   0.953
   98SOL    HW2 1194   1.167   2.874   0.848
   99SOL     OW 1195   4.410   3.232   1.484
   99SOL    HW1 1196   4.409   3.232   1.584
   99SOL    HW2 1197   4.399   3.325   1.451
  100SOL     OW 1198   1.192   6.458   3.424
  100SOL    HW1 1199   1.202   6.426   3.518
  100SOL    HW2 1200   1.211   6.556   3.420
  101SOL     OW 1201   1.237   4.553   2.136
  101SOL    HW1 1202   1.280   4.567   2.225
  101SOL    HW2 1203   1.286   4.607   2.067
  102SOL     OW 1204   3.101   5.267   1.945
  102SOL    HW1 1205   3.161   5.187   1.949
  102SOL    HW2 1206   3.157   5.350   1.940
  103SOL     OW 1207   2.470   1.826   2.068
  103SOL    HW1 1208   2.549   1.824   2.007
  103SOL    HW2 1209   2.441   1.732   2.087
  104SOL     OW 1210   1.344   5.482   2.671
  104SOL    HW1 1211   1.431   5.451   2.634
  104SOL    HW2 1212   1.358   5.569   2.720
  105SOL     OW 1213   5.927   0.984   6.394
  105SOL    HW1 1214   5.942   0.885   6.383
  105SOL    HW2 1215   5.832   1.001   6.420
  106SOL     OW 1216   3.310   6.066   3.685
  106SOL    HW1 1217   3.363   6.029   3.761
  106SOL    HW2 1218   3.329   6.163   3.675
  107SOL     OW 1219   0.936   1.173   0.135
  107SOL    HW1 1220   0.985   1.100   0.088
  107SOL    HW2 1221   0.958   1.171   0.233
  108SOL     OW 1222   3.972   6.939   6.221
  108SOL    HW1 1223   3.929   0.005   6.208
  108SOL    HW2 1224   3.943   6.899   6.308
  109SOL     OW 1225   2.318   1.352   2.720
  109SOL    HW1 1226   2.397   1.395   2.676
  109SOL    HW2 1227   2.348   1.269   2.768
  110SOL     OW 1228   2.927   5.279   4.129
  110SOL    HW1 1229   2.837   5.314   4.157
  110SOL    HW2 1230   2.924   5.255   4.032
  111SOL     OW 1231   2.172   1.113   4.016
  111SOL    HW1 1232   2.268   1.115   3.987
  111SOL    HW2 1233   2.143   1.206   4.041
  112SOL     OW 1234   3.358   5.822   0.205
  112SOL    HW1 1235   3.267   5.783   0.218
  112SOL    HW2 1236   3.426   5.763   0.248
  113SOL     OW 1237   0.910   6.293   2.321
  113SOL    HW1 1238   0.896   6.317   2.417
  113SOL    HW2 1239   1.002   6.254   2.310
  114SOL     OW 1240   0.976   6.409   1.234
  114SOL    HW1 1241   0.910   6.420   1.308
  114SOL    HW2 1242   0.954   6.327   1.181
  115SOL     OW 1243   4.849   0.834   2.879
  115SOL    HW1 1244   4.908   0.793   2.949
  115SOL    HW2 1245   4.853   0.779   2.796
  116SOL     OW 1246   6.792   6.285   0.753
  116SOL    HW1 1247   6.849   6.347   0.699
  116SOL    HW2 1248   6.702   6.277   0.711
  117SOL     OW 1249   6.811   1.668   1.273
  117SOL    HW1 1250   6.760   1.752   1.288
  117SOL    HW2 1251   6.787   1.629   1.184
  118SOL     OW 1252   1.768   0.998   2.511
  118SOL    HW1 1253   1.858   1.009   2.469
  118SOL    HW2 1254   1.711   0.938   2.454
  119SOL     OW 1255   0.154   0.251   0.001
  119SOL    HW1 1256   0.081   0.262   6.956
  119SOL    HW2 1257   0.185   0.340   0.033
  120SOL     OW 1258   5.177   1.630   5.635
  120SOL    HW1 1259   5.142   1.541   5.664
  120SOL    HW2 1260   5.179   1.635   5.536
  121SOL     OW 1261   1.818   3.208   0.451
  121SOL    HW1 1262   1.803   3.181   0.546
  121SOL    HW2 1263   1.878   3.141   0.407
  122SOL     OW 1264   1.501   3.848   0.334
  122SOL    HW1 1265   1.595   3.873   0.311
  122SOL    HW2 1266   1.485   3.866   0.431
  123SOL     OW 1267   1.281   1.874   2.847
  123SOL    HW1 1268   1.252   1.808   2.777
  123SOL    HW2 1269   1.236   1.853   2.933
  124SOL     OW 1270   3.575   2.636   0.720
  124SOL    HW1 1271   3.496   2.665   0.773
  124SOL    HW2 1272   3.632   2.716   0.699
  125SOL     OW 1273   4.042   2.588   0.587
  125SOL    HW1 1274   4.050   2.686   0.568
  125SOL    HW2 1275   3.951   2.557   0.560
  126SOL     OW 1276   3.664   3.605   1.830
  126SOL    HW1 1277   3.596   3.580   1.899
  126SOL    HW2 1278   3.708   3.522   1.795
  127SOL     OW 1279   0.976   4.944   6.318
  127SOL    HW1 1280   0.934   4.886   6.388
  127SOL    HW2 1281   0.923   4.938   6.233
  128SOL     OW 1282   4.522   3.156   1.190
  128SOL    HW1 1283   4.565   3.066   1.195
  128SOL    HW2 1284   4.479   3.178   1.278
  129SOL     OW 1285   2.928   3.530   6.244
  129SOL    HW1 1286   3.027   3.525   6.235
  129SOL    HW2 1287   2.894   3.609   6.192
  130SOL     OW 1288   1.301   1.316   4.223
  130SOL    HW1 1289   1.287   1.219   4.206
  130SOL    HW2 1290   1.334   1.330   4.316
  131SOL     OW 1291   4.784   0.616   3.241
  131SOL    HW1 1292   4.691   0.626   3.277
  131SOL    HW2 1293   4.822   0.706   3.220
  132SOL     OW 1294   3.024   2.484   1.639
  132SOL    HW1 1295   3.024   2.584   1.635
  132SOL    HW2 1296   3.011   2.455   1.734
  133SOL     OW 1297   5.098   0.973   4.383
  133SOL    HW1 1298   5.143   0.894   4.424
  133SOL    HW2 1299   5.001   0.953   4.369
  134SOL     OW 1300   0.054   1.210   2.539
  134SOL    HW1 1301   0.102   1.276   2.597
  134SOL    HW2 1302   0.082   1.118   2.564
  135SOL     OW 1303   4.864   3.713   4.191
  135SOL    HW1 1304   4.891   3.649   4.262
  135SOL    HW2 1305   4.857   3.665   4.104
  136SOL     OW 1306   1.479   5.038   5.548
  136SOL    HW1 1307   1.516   5.125   5.517
  136SOL    HW2 1308   1.477   5.036   5.648
  137SOL     OW 1309   4.469   1.450   3.167
  137SOL    HW1 1310   4.503   1.401   3.086
  137SOL    HW2 1311   4.545   1.498   3.211
  138SOL     OW 1312   1.197   3.595   2.970
  138SOL    HW1 1313   1.295   3.599   2.987
  138SOL    HW2 1314   1.175   3.649   2.889
  139SOL     OW 1315   1.952   6.679   5.674
  139SOL    HW1 1316   1.996   6.611   5.733
  139SOL    HW2 1317   1.855   6.684   5.695
  140SOL     OW 1318   1.930   6.796   4.183
  140SOL    HW1 1319   1.964   6.702   4.188
  140SOL    HW2 1320   1.962   6.839   4.099
  141SOL     OW 1321   0.235   2.687   4.663
  141SOL    HW1 1322   0.213   2.593   4.688
  141SOL    HW2 1323   0.176   2.717   4.588
  142SOL     OW 1324   2.124   3.795   2.219
  142SOL    HW1 1325   2.046   3.774   2.161
  142SOL    HW2 1326   2.197   3.728   2.203
  143SOL     OW 1327   6.064   5.201   0.498
  143SOL    HW1 1328   6.127   5.159   0.563
  143SOL    HW2 1329   6.085   5.298   0.488
  144SOL     OW 1330   1.658   4.653   6.002
  144SOL    HW1 1331   1.640   4.654   5.904
  144SOL    HW2 1332   1.750   4.618   6.019
  145SOL     OW 1333   1.417   4.660   1.969
  145SOL    HW1 1334   1.512   4.688   1.982
  145SOL    HW2 1335   1.404   4.630   1.875
  146SOL     OW 1336   5.329   0.328   6.247
  146SOL    HW1 1337   5.331   0.229   6.262
  146SOL    HW2 1338   5.393   0.352   6.174
  147SOL     OW 1339   5.590   2.063   6.148
  147SOL    HW1 1340   5.648   2.123   6.094
  147SOL    HW2 1341   5.533   2.117   6.210
  148SOL     OW 1342   0.012   5.423   0.756
  148SOL    HW1 1343   0.023   5.387   0.849
  148SOL    HW2 1344   0.079   5.495   0.740
  149SOL     OW 1345   3.590   2.093   5.077
  149SOL    HW1 1346   3.536   2.144   5.144
  149SOL    HW2 1347   3.532   2.067   5.000
  150SOL     OW 1348   5.469   6.483   6.664
  150SOL    HW1 1349   5.513   6.559   6.616
  150SOL    HW2 1350   5.499   6.482   6.759
  151SOL     OW 1351   3.364   0.500   1.378
  151SOL    HW1 1352   3.265   0.487   1.376
  151SOL    HW2 1353   3.408   0.416   1.410
  152SOL     OW 1354   0.054   1.580   1.217
  152SOL    HW1 1355   6.993   1.633   1.230
  152SOL    HW2 1356   0.061   1.510   1.288
  153SOL     OW 1357   2.963   6.939   3.498
  153SOL    HW1 1358   3.059   6.929   3.472
  153SOL    HW2 1359   2.918   7.001   3.434
  154SOL     OW 1360   1.122   3.311   0.628
  154SOL    HW1 1361   1.138   3.284   0.723
  154SOL    HW2 1362   1.200   3.366   0.597
  155SOL     OW 1363   0.952   1.246   4.225
  155SOL    HW1 1364   0.915   1.173   4.284
  155SOL    HW2 1365   0.892   1.326   4.229
  156SOL     OW 1366   0.004   0.885   0.828
  156SOL    HW1 1367   6.981   0.965   0.791
  156SOL    HW2 1368   0.094   0.875   0.785
  157SOL     OW 1369   5.887   3.691   0.620
  157SOL    HW1 1370   5.953   3.616   0.625
  157SOL    HW2 1371   5.923   3.764   0.563
  158SOL     OW 1372   1.642   3.204   1.952
  158SOL    HW1 1373   1.589   3.186   2.035
  158SOL    HW2 1374   1.687   3.120   1.922
  159SOL     OW 1375   4.566   5.046   1.657
  159SOL    HW1 1376   4.663   5.070   1.656
  159SOL    HW2 1377   4.514   5.116   1.705
  160SOL     OW 1378   5.603   6.652   0.910
  160SOL    HW1 1379   5.513   6.609   0.914
  160SOL    HW2 1380   5.641   6.658   1.002
  161SOL     OW 1381   1.147   0.167   3.583
  161SOL    HW1 1382   1.053   0.197   3.598
  161SOL    HW2 1383   1.204   0.246   3.561
  162SOL     OW 1384   3.975   6.146   0.289
  162SOL    HW1 1385   4.052   6.172   0.229
  162SOL    HW2 1386   3.978   6.048   0.306
  163SOL     OW 1387   6.798   5.871   2.076
  163SOL    HW1 1388   6.701   5.849   2.089
  163SOL    HW2 1389   6.807   5.963   2.037
  164SOL     OW 1390   1.177   4.256   3.502
  164SOL    HW1 1391   1.259   4.246   3.445
  164SOL    HW2 1392   1.149   4.167   3.537
  165SOL     OW 1393   4.936   4.120   0.400
  165SOL    HW1 1394   4.865   4.099   0.467
  165SOL    HW2 1395   4.928   4.058   0.322
  166SOL     OW 1396   1.216   2.952   2.207
  166SOL    HW1 1397   1.216   2.861   2.247
  166SOL    HW2 1398   1.239   3.019   2.278
  167SOL     OW 1399   5.610   2.177   6.890
  167SOL    HW1 1400   5.575   2.084   6.899
  167SOL    HW2 1401   5.636   2.193   6.795
  168SOL     OW 1402   3.505   1.710   0.506
  168SOL    HW1 1403   3.591   1.720   0.456
  168SOL    HW2 1404   3.506   1.770   0.585
  169SOL     OW 1405   6.429   2.387   0.888
  169SOL    HW1 1406   6.485   2.464   0.857
  169SOL    HW2 1407   6.463   2.302   0.848
  170SOL     OW 1408   0.047   6.434   2.340
  170SOL    HW1 1409   6.990   6.457   2.395
  170SOL    HW2 1410   0.130   6.445   2.396
  171SOL     OW 1411   3.003   4.612   0.041
  171SOL    HW1 1412   3.045   4.662   0.117
  171SOL    HW2 1413   2.992   4.674   6.986
  172SOL     OW 1414   6.242   1.417   3.391
  172SOL    HW1 1415   6.298   1.372   3.321
  172SOL    HW2 1416   6.300   1.442   3.468
  173SOL     OW 1417   5.820   1.120   4.016
  173SOL    HW1 1418   5.835   1.130   3.918
  173SOL    HW2 1419   5.730   1.158   4.040
  174SOL     OW 1420   3.793   5.185   3.821
  174SOL    HW1 1421   3.716   5.135   3.860
  174SOL    HW2 1422   3.806   5.158   3.726
  175SOL     OW 1423   3.060   0.417   1.441
  175SOL    HW1 1424   2.980   0.447   1.390
  175SOL    HW2 1425   3.101   0.496   1.488
  176SOL     OW 1426   6.519   4.726   2.056
  176SOL    HW1 1427   6.546   4.682   2.142
  176SOL    HW2 1428   6.451   4.669   2.010
  177SOL     OW 1429   5.177   3.502   4.314
  177SOL    HW1 1430   5.079   3.498   4.297
  177SOL    HW2 1431   5.194   3.523   4.410
  178SOL     OW 1432   3.077   3.968   5.375
  178SOL    HW1 1433   3.045   3.932   5.288
  178SOL    HW2 1434   3.175   3.989   5.369
  179SOL     OW 1435   4.294   1.377   6.254
  179SOL    HW1 1436   4.205   1.422   6.256
  179SOL    HW2 1437   4.293   1.303   6.187
  180SOL     OW 1438   1.849   6.901   0.843
  180SOL    HW1 1439   1.931   6.853   0.812
  180SOL    HW2 1440   1.837   6.886   0.941
  181SOL     OW 1441   3.064   3.341   5.806
  181SOL    HW1 1442   3.043   3.330   5.903
  181SOL    HW2 1443   3.042   3.434   5.777
  182SOL     OW 1444   4.261   1.849   6.229
  182SOL    HW1 1445   4.299   1.757   6.225
  182SOL    HW2 1446   4.186   1.851   6.296
  183SOL     OW 1447   3.551   1.634   3.490
  183SOL    HW1 1448   3.568   1.572   3.566
  183SOL    HW2 1449   3.465   1.609   3.445
  184SOL     OW 1450   0.686   6.127   3.912
  184SOL    HW1 1451   0.589   6.107   3.925
  184SOL    HW2 1452   0.713   6.103   3.819
  185SOL     OW 1453   1.033   1.116   4.668
  185SOL    HW1 1454   1.030   1.047   4.595
  185SOL    HW2 1455   1.102   1.184   4.647
  186SOL     OW 1456   6.334   1.341   4.128
  186SOL    HW1 1457   6.360   1.262   4.074
  186SOL    HW2 1458   6.238   1.335   4.153
  187SOL     OW 1459   5.205   6.501   2.654
  187SOL    HW1 1460   5.212   6.432   2.582
  187SOL    HW2 1461   5.180   6.589   2.613
  188SOL     OW 1462   1.103   3.197   3.670
  188SOL    HW1 1463   1.045   3.278   3.663
  188SOL    HW2 1464   1.175   3.202   3.601
  189SOL     OW 1465   1.663   5.704   0.402
  189SOL    HW1 1466   1.615   5.774   0.349
  189SOL    HW2 1467   1.709   5.640   0.340
  190SOL     OW 1468   6.195   4.212   5.575
  190SOL    HW1 1469   6.170   4.189   5.481
  190SOL    HW2 1470   6.157   4.301   5.599
  191SOL     OW 1471   6.231   0.329   0.276
  191SOL    HW1 1472   6.199   0.409   0.326
  191SOL    HW2 1473   6.222   0.345   0.178
  192SOL     OW 1474   0.841   5.320   1.398
  192SOL    HW1 1475   0.791   5.323   1.485
  192SOL    HW2 1476   0.784   5.275   1.329
  193SOL     OW 1477   4.629   3.693   5.399
  193SOL    HW1 1478   4.713   3.746   5.412
  193SOL    HW2 1479   4.642   3.626   5.326
  194SOL     OW 1480   4.039   6.604   3.266
  194SOL    HW1 1481   3.993   6.666   3.330
  194SOL    HW2 1482   4.136   6.628   3.259
  195SOL     OW 1483   1.356   1.030   4.524
  195SOL    HW1 1484   1.337   1.123   4.556
  195SOL    HW2 1485   1.271   0.978   4.519
  196SOL     OW 1486   2.486   0.117   6.819
  196SOL    HW1 1487   2.549   0.053   6.774
  196SOL    HW2 1488   2.412   0.141   6.756
  197SOL     OW 1489   2.599   0.002   1.538
  197SOL    HW1 1490   2.669   0.068   1.513
  197SOL    HW2 1491   2.575   6.970   1.458
  198SOL     OW 1492   4.640   6.590   1.895
  198SOL    HW1 1493   4.707   6.585   1.821
  198SOL    HW2 1494   4.663   6.524   1.966
  199SOL     OW 1495   6.479   1.725   3.793
  199SOL    HW1 1496   6.527   1.803   3.833
  199SOL    HW2 1497   6.547   1.659   3.759
  200SOL     OW 1498   1.008   4.392   1.790
  200SOL    HW1 1499   1.015   4.371   1.887
  200SOL    HW2 1500   0.966   4.482   1.778
  201SOL     OW 1501   5.591   6.915   6.253
  201SOL    HW1 1502   5.611   7.013   6.262
  201SOL    HW2 1503   5.625   6.866   6.333
  202SOL     OW 1504   5.233   0.318   5.409
  202SOL    HW1 1505   5.156   0.324   5.345
  202SOL    HW2 1506   5.212   0.369   5.492
  203SOL     OW 1507   4.651   2.532   4.580
  203SOL    HW1 1508   4.664   2.631   4.581
  203SOL    HW2 1509   4.555   2.511   4.599
  204SOL     OW 1510   6.668   0.524   6.258
  204SOL    HW1 1511   6.667   0.562   6.350
  204SOL    HW2 1512   6.634   0.591   6.193
  205SOL     OW 1513   0.771   0.764   3.003
  205SOL    HW1 1514   0.719   0.816   2.936
  205SOL    HW2 1515   0.709   0.717   3.065
  206SOL     OW 1516   0.312   5.431   2.048
  206SOL    HW1 1517   0.237   5.493   2.021
  206SOL    HW2 1518   0.400   5.475   2.029
  207SOL     OW 1519   4.561   0.702   4.168
  207SOL    HW1 1520   4.481   0.733   4.219
  207SOL    HW2 1521   4.623   0.780   4.152
  208SOL     OW 1522   5.559   3.616   5.628
  208SOL    HW1 1523   5.544   3.540   5.691
  208SOL    HW2 1524   5.485   3.620   5.561
  209SOL     OW 1525   0.785   4.656   4.554
  209SOL    HW1 1526   0.835   4.577   4.520
  209SOL    HW2 1527   0.804   4.668   4.652
  210SOL     OW 1528   4.272   2.165   1.205
  210SOL    HW1 1529   4.233   2.235   1.265
  210SOL    HW2 1530   4.199   2.126   1.148
  211SOL     OW 1531   1.815   6.119   3.533
  211SOL    HW1 1532   1.861   6.046   3.584
  211SOL    HW2 1533   1.873   6.201   3.532
  212SOL     OW 1534   1.504   4.720   0.921
  212SOL    HW1 1535   1.585   4.735   0.977
  212SOL    HW2 1536   1.447   4.802   0.922
  213SOL     OW 1537   3.547   1.114   5.807
  213SOL    HW1 1538   3.486   1.139   5.882
  213SOL    HW2 1539   3.633   1.080   5.845
  214SOL     OW 1540   4.461   5.609   1.826
  214SOL    HW1 1541   4.491   5.689   1.878
  214SOL    HW2 1542   4.363   5.614   1.811
  215SOL     OW 1543   2.258   3.734   1.448
  215SOL    HW1 1544   2.326   3.767   1.382
  215SOL    HW2 1545   2.235   3.639   1.428
  216SOL     OW 1546   2.283   5.987   4.420
  216SOL    HW1 1547   2.362   6.042   4.393
  216SOL    HW2 1548   2.312   5.893   4.438
  217SOL     OW 1549   2.075   2.804   3.592
  217SOL    HW1 1550   2.042   2.898   3.599
  217SOL    HW2 1551   2.004   2.741   3.622
  218SOL     OW 1552   1.077   2.653   4.591
  218SOL    HW1 1553   0.980   2.643   4.614
  218SOL    HW2 1554   1.096   2.749   4.570
  219SOL     OW 1555   3.803   6.787   6.076
  219SOL    HW1 1556   3.718   6.774   6.128
  219SOL    HW2 1557   3.873   6.825   6.136
  220SOL     OW 1558   3.584   6.754   0.437
  220SOL    HW1 1559   3.616   6.794   0.523
  220SOL    HW2 1560   3.498   6.798   0.411
  221SOL     OW 1561   6.522   3.774   2.750
  221SOL    HW1 1562   6.605   3.795   2.801
  221SOL    HW2 1563   6.539   3.697   2.689
  222SOL     OW 1564   2.890   4.795   5.641
  222SOL    HW1 1565   2.854   4.791   5.734
  222SOL    HW2 1566   2.880   4.706   5.597
  223SOL     OW 1567   5.885   3.330   1.186
  223SOL    HW1 1568   5.857   3.402   1.249
  223SOL    HW2 1569   5.806   3.273   1.162
  224SOL     OW 1570   2.704   2.037   4.232
  224SOL    HW1 1571   2.617   1.992   4.214
  224SOL    HW2 1572   2.735   2.015   4.325
  225SOL     OW 1573   6.294   2.026   5.795
  225SOL    HW1 1574   6.303   1.939   5.843
  225SOL    HW2 1575   6.205   2.029   5.748
  226SOL     OW 1576   2.166   0.498   6.270
  226SOL    HW1 1577   2.097   0.568   6.251
  226SOL    HW2 1578   2.149   0.458   6.361
  227SOL     OW 1579   1.865   3.409   3.042
  227SOL    HW1 1580   1.871   3.509   3.048
  227SOL    HW2 1581   1.935   3.375   2.980
  228SOL     OW 1582   3.390   6.351   3.630
  228SOL    HW1 1583   3.434   6.428   3.676
  228SOL    HW2 1584   3.294   6.346   3.659
  229SOL     OW 1585   5.134   6.033   0.211
  229SOL    HW1 1586   5.037   6.016   0.228
  229SOL    HW2 1587   5.145   6.122   0.167
  230SOL     OW 1588   2.785   4.749   2.547
  230SOL    HW1 1589   2.744   4.716   2.463
  230SOL    HW2 1590   2.737   4.831   2.579
  231SOL     OW 1591   6.329   1.534   6.374
  231SOL    HW1 1592   6.348   1.585   6.458
  231SOL    HW2 1593   6.349   1.437   6.389
  232SOL     OW 1594   1.197   4.105   6.132
  232SOL    HW1 1595   1.165   4.200   6.134
  232SOL    HW2 1596   1.265   4.095   6.059
  233SOL     OW 1597   2.228   1.757   4.228
  233SOL    HW1 1598   2.235   1.664   4.265
  233SOL    HW2 1599   2.157   1.759   4.157
  234SOL     OW 1600   4.449   6.071   5.167
  234SOL    HW1 1601   4.548   6.056   5.170
  234SOL    HW2 1602   4.414   6.085   5.259
  235SOL     OW 1603   3.344   3.060   1.555
  235SOL    HW1 1604   3.435   3.095   1.581
  235SOL    HW2 1605   3.348   3.025   1.462
  236SOL     OW 1606   5.593   2.856   6.455
  236SOL    HW1 1607   5.552   2.902   6.376
  236SOL    HW2 1608   5.660   2.789   6.422
  237SOL     OW 1609   6.301   5.777   1.814
  237SOL    HW1 1610   6.259   5.865   1.790
  237SOL    HW2 1611   6.290   5.713   1.737
  238SOL     OW 1612   5.899   2.078   7.001
  238SOL    HW1 1613   5.830   2.008   7.017
  238SOL    HW2 1614   5.915   2.088   6.903
  239SOL     OW 1615   0.184   5.890   6.136
  239SOL    HW1 1616   0.095   5.914   6.097
  239SOL    HW2 1617   0.184   5.794   6.163
  240SOL     OW 1618   0.892   2.733   5.509
  240SOL    HW1 1619   0.811   2.675   5.502
  240SOL    HW2 1620   0.876   2.805   5.577
  241SOL     OW 1621   1.606   6.963   4.641
  241SOL    HW1 1622   1.662   6.884   4.615
  241SOL    HW2 1623   1.528   6.933   4.694
  242SOL     OW 1624   2.938   3.553   5.449
  242SOL    HW1 1625   2.896   3.464   5.431
  242SOL    HW2 1626   3.038   3.544   5.448
  243SOL     OW 1627   5.010   0.836   5.979
  243SOL    HW1 1628   5.027   0.915   6.037
  243SOL    HW2 1629   4.980   0.759   6.036
  244SOL     OW 1630   5.082   2.912   4.405
  244SOL    HW1 1631   5.169   2.958   4.385
  244SOL    HW2 1632   5.096   2.813   4.400
  245SOL     OW 1633   0.353   3.631   5.359
  245SOL    HW1 1634   0.413   3.706   5.330
  245SOL    HW2 1635   0.338   3.568   5.283
  246SOL     OW 1636   4.950   2.650   2.818
  246SOL    HW1 1637   4.983   2.744   2.824
  246SOL    HW2 1638   5.020   2.587   2.851
  247SOL     OW 1639   2.953   0.861   1.613
  247SOL    HW1 1640   2.867   0.873   1.563
  247SOL    HW2 1641   2.939   0.888   1.709
  248SOL     OW 1642   3.787   1.772   3.199
  248SOL    HW1 1643   3.706   1.831   3.203
  248SOL    HW2 1644   3.842   1.785   3.281
  249SOL     OW 1645   4.420   0.026   6.083
  249SOL    HW1 1646   4.443   6.987   6.008
  249SOL    HW2 1647   4.355   7.004   6.144
  250SOL     OW 1648   5.800   3.011   0.916
  250SOL    HW1 1649   5.899   3.021   0.912
  250SOL    HW2 1650   5.776   2.914   0.913
  251SOL     OW 1651   4.563   4.042   6.475
  251SOL    HW1 1652   4.544   3.945   6.463
  251SOL    HW2 1653   4.523   4.073   6.562
  252SOL     OW 1654   5.843   0.462   6.694
  252SOL    HW1 1655   5.929   0.425   6.727
  252SOL    HW2 1656   5.807   0.403   6.621
  253SOL     OW 1657   1.832   4.229   6.718
  253SOL    HW1 1658   1.896   4.267   6.786
  253SOL    HW2 1659   1.749   4.199   6.764
  254SOL     OW 1660   5.215   3.483   3.285
  254SOL    HW1 1661   5.167   3.422   3.348
  254SOL    HW2 1662   5.201   3.451   3.191
  255SOL     OW 1663   1.802   3.272   4.182
  255SOL    HW1 1664   1.782   3.174   4.172
  255SOL    HW2 1665   1.831   3.309   4.094
  256SOL     OW 1666   6.262   4.592   6.585
  256SOL    HW1 1667   6.166   4.613   6.567
  256SOL    HW2 1668   6.292   4.519   6.524
  257SOL     OW 1669   4.610   6.837   4.266
  257SOL    HW1 1670   4.521   6.822   4.223
  257SOL    HW2 1671   4.635   6.933   4.258
  258SOL     OW 1672   6.413   5.163   4.824
  258SOL    HW1 1673   6.382   5.116   4.741
  258SOL    HW2 1674   6.426   5.260   4.803
  259SOL     OW 1675   1.440   2.604   2.177
  259SOL    HW1 1676   1.350   2.586   2.217
  259SOL    HW2 1677   1.464   2.700   2.190
  260SOL     OW 1678   4.101   0.723   0.754
  260SOL    HW1 1679   4.115   0.688   0.846
  260SOL    HW2 1680   4.075   0.819   0.757
  261SOL     OW 1681   0.165   3.771   1.267
  261SOL    HW1 1682   0.126   3.807   1.181
  261SOL    HW2 1683   0.095   3.721   1.317
  262SOL     OW 1684   0.551   3.847   1.068
  262SOL    HW1 1685   0.585   3.782   1.136
  262SOL    HW2 1686   0.625   3.870   1.005
  263SOL     OW 1687   0.880   1.718   4.023
  263SOL    HW1 1688   0.921   1.736   4.112
  263SOL    HW2 1689   0.788   1.680   4.035
  264SOL     OW 1690   4.876   4.014   5.964
  264SOL    HW1 1691   4.962   4.039   5.918
  264SOL    HW2 1692   4.897   3.959   6.045
  265SOL     OW 1693   4.476   4.526   3.465
  265SOL    HW1 1694   4.476   4.525   3.565
  265SOL    HW2 1695   4.455   4.618   3.432
  266SOL     OW 1696   4.082   3.763   5.606
  266SOL    HW1 1697   3.984   3.742   5.603
  266SOL    HW2 1698   4.122   3.720   5.687
  267SOL     OW 1699   6.036   2.353   5.963
  267SOL    HW1 1700   6.047   2.306   5.875
  267SOL    HW2 1701   6.126   2.375   6.000
  268SOL     OW 1702   4.394   6.822   5.206
  268SOL    HW1 1703   4.397   6.922   5.206
  268SOL    HW2 1704   4.457   6.786   5.137
  269SOL     OW 1705   1.795   3.105   1.132
  269SOL    HW1 1706   1.833   3.161   1.059
  269SOL    HW2 1707   1.861   3.099   1.207
  270SOL     OW 1708   6.771   0.126   1.550
  270SOL    HW1 1709   6.680   0.087   1.559
  270SOL    HW2 1710   6.820   0.080   1.476
  271SOL     OW 1711   2.473   1.742   0.421
  271SOL    HW1 1712   2.554   1.684   0.431
  271SOL    HW2 1713   2.459   1.796   0.504
  272SOL     OW 1714   3.459   5.401   3.956
  272SOL    HW1 1715   3.494   5.308   3.969
  272SOL    HW2 1716   3.528   5.467   3.985
  273SOL     OW 1717   1.990   4.901   4.978
  273SOL    HW1 1718   1.916   4.923   5.042
  273SOL    HW2 1719   2.014   4.804   4.986
  274SOL     OW 1720   4.480   2.511   3.926
  274SOL    HW1 1721   4.456   2.442   3.994
  274SOL    HW2 1722   4.526   2.588   3.971
  275SOL     OW 1723   6.176   5.848   5.883
  275SOL    HW1 1724   6.175   5.779   5.811
  275SOL    HW2 1725   6.215   5.933   5.847
  276SOL     OW 1726   0.671   5.415   3.368
  276SOL    HW1 1727   0.649   5.384   3.461
  276SOL    HW2 1728   0.767   5.391   3.348
  277SOL     OW 1729   2.370   3.247   0.987
  277SOL    HW1 1730   2.273   3.259   1.006
  277SOL    HW2 1731   2.414   3.337   0.983
  278SOL     OW 1732   0.155   5.057   1.699
  278SOL    HW1 1733   0.162   5.094   1.792
  278SOL    HW2 1734   0.183   5.127   1.633
  279SOL     OW 1735   0.392   2.911   4.307
  279SOL    HW1 1736   0.470   2.878   4.362
  279SOL    HW2 1737   0.426   2.968   4.232
  280SOL     OW 1738   2.665   6.912   2.957
  280SOL    HW1 1739   2.639   6.955   2.871
  280SOL    HW2 1740   2.685   6.815   2.940
  281SOL     OW 1741   3.592   4.931   2.148
  281SOL    HW1 1742   3.565   5.011   2.094
  281SOL    HW2 1743   3.613   4.855   2.087
  282SOL     OW 1744   4.189   2.079   5.529
  282SOL    HW1 1745   4.145   2.125   5.452
  282SOL    HW2 1746   4.286   2.103   5.532
  283SOL     OW 1747   6.694   0.974   5.903
  283SOL    HW1 1748   6.699   0.928   5.992
  283SOL    HW2 1749   6.607   0.951   5.859
  284SOL     OW 1750   0.160   4.457   4.837
  284SOL    HW1 1751   0.150   4.365   4.797
  284SOL    HW2 1752   0.072   4.485   4.875
  285SOL     OW 1753   5.436   5.349   6.376
  285SOL    HW1 1754   5.498   5.273   6.396
  285SOL    HW2 1755   5.479   5.435   6.404
  286SOL     OW 1756   3.107   4.914   4.702
  286SOL    HW1 1757   3.162   4.983   4.750
  286SOL    HW2 1758   3.044   4.871   4.767
  287SOL     OW 1759   0.439   4.839   6.161
  287SOL    HW1 1760   0.354   4.859   6.113
  287SOL    HW2 1761   0.517   4.864   6.103
  288SOL     OW 1762   4.103   2.389   0.303
  288SOL    HW1 1763   4.145   2.440   0.228
  288SOL    HW2 1764   4.140   2.421   0.390
  289SOL     OW 1765   0.172   5.408   4.993
  289SOL    HW1 1766   0.170   5.310   5.012
  289SOL    HW2 1767   0.080   5.439   4.969
  290SOL     OW 1768   4.889   1.655   3.896
  290SOL    HW1 1769   4.828   1.693   3.965
  290SOL    HW2 1770   4.929   1.728   3.842
  291SOL     OW 1771   3.285   0.660   4.742
  291SOL    HW1 1772   3.267   0.563   4.729
  291SOL    HW2 1773   3.377   0.682   4.711
  292SOL     OW 1774   3.630   2.092   2.913
  292SOL    HW1 1775   3.656   2.164   2.977
  292SOL    HW2 1776   3.709   2.035   2.893
  293SOL     OW 1777   4.405   5.357   2.072
  293SOL    HW1 1778   4.387   5.454   2.054
  293SOL    HW2 1779   4.485   5.327   2.020
  294SOL     OW 1780   6.789   5.514   6.283
  294SOL    HW1 1781   6.819   5.541   6.192
  294SOL    HW2 1782   6.789   5.414   6.289
  295SOL     OW 1783   3.331   1.191   5.109
  295SOL    HW1 1784   3.262   1.122   5.127
  295SOL    HW2 1785   3.329   1.261   5.180
  296SOL     OW 1786   6.099   1.804   1.917
  296SOL    HW1 1787   6.018   1.831   1.970
  296SOL    HW2 1788   6.125   1.879   1.856
  297SOL     OW 1789   3.044   4.850   2.601
  297SOL    HW1 1790   2.965   4.794   2.576
  297SOL    HW2 1791   3.024   4.898   2.686
  298SOL     OW 1792   3.455   6.610   0.700
  298SOL    HW1 1793   3.376   6.672   0.699
  298SOL    HW2 1794   3.439   6.538   0.768
  299SOL     OW 1795   4.641   2.853   7.014
  299SOL    HW1 1796   4.659   2.756   7.000
  299SOL    HW2 1797   4.648   2.901   6.927
  300SOL     OW 1798   5.079   1.023   1.537
  300SOL    HW1 1799   5.129   1.088   1.594
  300SOL    HW2 1800   5.140   0.949   1.508
  301SOL     OW 1801   5.313   2.768   0.852
  301SOL    HW1 1802   5.366   2.814   0.781
  301SOL    HW2 1803   5.229   2.819   0.869
  302SOL     OW 1804   0.260   0.754   3.443
  302SOL    HW1 1805   0.302   0.845   3.446
  302SOL    HW2 1806   0.181   0.752   3.504
  303SOL     OW 1807   6.954   6.619   2.119
  303SOL    HW1 1808   0.015   6.569   2.138
  303SOL    HW2 1809   6.875   6.564   2.146
  304SOL     OW 1810   2.087   6.502   5.812
  304SOL    HW1 1811   2.128   6.477   5.900
  304SOL    HW2 1812   2.138   6.460   5.738
  305SOL     OW 1813   1.590   2.940   0.528
  305SOL    HW1 1814   1.595   2.851   0.574
  305SOL    HW2 1815   1.501   2.949   0.484
  306SOL     OW 1816   1.782   0.804   3.349
  306SOL    HW1 1817   1.734   0.846   3.272
  306SOL    HW2 1818   1.791   0.871   3.422
  307SOL     OW 1819   5.161   5.266   0.735
  307SOL    HW1 1820   5.092   5.249   0.806
  307SOL    HW2 1821   5.143   5.207   0.656
  308SOL     OW 1822   5.438   3.143   4.559
  308SOL    HW1 1823   5.437   3.239   4.531
  308SOL    HW2 1824   5.391   3.133   4.647
  309SOL     OW 1825   2.104   5.688   0.545
  309SOL    HW1 1826   2.082   5.624   0.619
  309SOL    HW2 1827   2.197   5.671   0.514
  310SOL     OW 1828   5.035   6.749   5.698
  310SOL    HW1 1829   5.086   6.781   5.778
  310SOL    HW2 1830   5.062   6.655   5.677
  311SOL     OW 1831   3.876   5.303   2.727
  311SOL    HW1 1832   3.956   5.244   2.718
  311SOL    HW2 1833   3.853   5.313   2.824
  312SOL     OW 1834   4.446   1.068   4.273
  312SOL    HW1 1835   4.451   1.072   4.373
  312SOL    HW2 1836   4.523   1.016   4.237
  313SOL     OW 1837   3.063   3.331   2.176
  313SOL    HW1 1838   3.134   3.264   2.153
  313SOL    HW2 1839   3.019   3.304   2.262
  314SOL     OW 1840   2.711   4.487   6.732
  314SOL    HW1 1841   2.659   4.459   6.652
  314SOL    HW2 1842   2.732   4.585   6.726
  315SOL     OW 1843   1.363   3.352   4.274
  315SOL    HW1 1844   1.341   3.255   4.271
  315SOL    HW2 1845   1.452   3.365   4.317
  316SOL     OW 1846   2.874   1.445   4.513
  316SOL    HW1 1847   2.807   1.391   4.463
  316SOL    HW2 1848   2.827   1.507   4.576
  317SOL     OW 1849   6.809   1.430   1.401
  317SOL    HW1 1850   6.807   1.525   1.367
  317SOL    HW2 1851   6.816   1.368   1.323
  318SOL     OW 1852   0.491   5.572   6.539
  318SOL    HW1 1853   0.472   5.550   6.635
  318SOL    HW2 1854   0.429   5.521   6.480
  319SOL     OW 1855   6.366   1.571   3.592
  319SOL    HW1 1856   6.400   1.618   3.510
  319SOL    HW2 1857   6.373   1.631   3.671
  320SOL     OW 1858   6.280   2.595   1.035
  320SOL    HW1 1859   6.332   2.676   1.064
  320SOL    HW2 1860   6.337   2.539   0.974
  321SOL     OW 1861   3.265   1.243   7.019
  321SOL    HW1 1862   3.250   1.170   6.953
  321SOL    HW2 1863   3.179   1.289   0.017
  322SOL     OW 1864   3.032   3.110   3.664
  322SOL    HW1 1865   3.003   3.165   3.586
  322SOL    HW2 1866   2.994   3.148   3.749
  323SOL     OW 1867   1.309   2.999   5.995
  323SOL    HW1 1868   1.282   3.094   6.006
  323SOL    HW2 1869   1.274   2.964   5.908
  324SOL     OW 1870   2.841   0.674   4.154
  324SOL    HW1 1871   2.803   0.588   4.188
  324SOL    HW2 1872   2.837   0.676   4.055
  325SOL     OW 1873   0.499   2.796   1.770
  325SOL    HW1 1874   0.481   2.795   1.672
  325SOL    HW2 1875   0.412   2.795   1.820
  326SOL     OW 1876   1.356   5.337   6.966
  326SOL    HW1 1877   1.275   5.307   7.018
  326SOL    HW2 1878   1.401   5.258   6.925
  327SOL     OW 1879   1.329   4.402   2.717
  327SOL    HW1 1880   1.276   4.335   2.769
  327SOL    HW2 1881   1.313   4.493   2.754
  328SOL     OW 1882   1.616   5.587   1.926
  328SOL    HW1 1883   1.656   5.508   1.973
  328SOL    HW2 1884   1.689   5.639   1.882
  329SOL     OW 1885   3.425   2.920   4.017
  329SOL    HW1 1886   3.514   2.915   3.972
  329SOL    HW2 1887   3.353   2.929   3.948
  330SOL     OW 1888   3.532   6.236   1.305
  330SOL    HW1 1889   3.509   6.205   1.398
  330SOL    HW2 1890   3.540   6.335   1.304
  331SOL     OW 1891   3.875   5.738   0.137
  331SOL    HW1 1892   3.809   5.664   0.141
  331SOL    HW2 1893   3.856   5.795   0.057
  332SOL     OW 1894   4.867   2.281   5.228
  332SOL    HW1 1895   4.908   2.335   5.154
  332SOL    HW2 1896   4.877   2.330   5.314
  333SOL     OW 1897   3.631   0.492   6.240
  333SOL    HW1 1898   3.625   0.468   6.337
  333SOL    HW2 1899   3.636   0.408   6.185
  334SOL     OW 1900   3.288   1.250   1.031
  334SOL    HW1 1901   3.264   1.299   1.115
  334SOL    HW2 1902   3.242   1.293   0.954
  335SOL     OW 1903   4.221   6.804   5.529
  335SOL    HW1 1904   4.282   6.872   5.488
  335SOL    HW2 1905   4.166   6.762   5.457
  336SOL     OW 1906   2.845   0.720   3.430
  336SOL    HW1 1907   2.825   0.782   3.507
  336SOL    HW2 1908   2.795   0.634   3.444
  337SOL     OW 1909   0.993   2.542   6.552
  337SOL    HW1 1910   1.008   2.627   6.502
  337SOL    HW2 1911   0.919   2.554   6.618
  338SOL     OW 1912   3.258   2.731   1.444
  338SOL    HW1 1913   3.289   2.717   1.349
  338SOL    HW2 1914   3.177   2.789   1.444
  339SOL     OW 1915   4.020   5.893   3.991
  339SOL    HW1 1916   4.014   5.826   4.065
  339SOL    HW2 1917   3.931   5.901   3.947
  340SOL     OW 1918   4.714   4.223   4.741
  340SOL    HW1 1919   4.723   4.150   4.674
  340SOL    HW2 1920   4.740   4.189   4.831
  341SOL     OW 1921   6.513   0.180   4.451
  341SOL    HW1 1922   6.586   0.113   4.448
  341SOL    HW2 1923   6.426   0.136   4.427
  342SOL     OW 1924   6.604   3.180   0.157
  342SOL    HW1 1925   6.637   3.105   0.100
  342SOL    HW2 1926   6.653   3.264   0.133
  343SOL     OW 1927   2.076   5.845   1.177
  343SOL    HW1 1928   2.063   5.760   1.227
  343SOL    HW2 1929   2.161   5.888   1.207
  344SOL     OW 1930   1.148   3.349   2.034
  344SOL    HW1 1931   1.194   3.352   2.122
  344SOL    HW2 1932   1.193   3.410   1.970
  345SOL     OW 1933   4.176   2.229   2.769
  345SOL    HW1 1934   4.225   2.317   2.771
  345SOL    HW2 1935   4.209   2.170   2.842
  346SOL     OW 1936   2.210   0.865   2.863
  346SOL    HW1 1937   2.127   0.916   2.883
  346SOL    HW2 1938   2.191   0.767   2.868
  347SOL     OW 1939   2.578   5.867   6.413
  347SOL    HW1 1940   2.621   5.820   6.490
  347SOL    HW2 1941   2.569   5.964   6.434
  348SOL     OW 1942   5.214   4.541   2.023
  348SOL    HW1 1943   5.180   4.449   2.041
  348SOL    HW2 1944   5.271   4.572   2.098
  349SOL     OW 1945   6.657   5.585   0.905
  349SOL    HW1 1946   6.632   5.488   0.898
  349SOL    HW2 1947   6.637   5.631   0.819
  350SOL     OW 1948   3.220   3.185   0.969
  350SOL    HW1 1949   3.230   3.275   0.926
  350SOL    HW2 1950   3.249   3.191   1.065
  351SOL     OW 1951   1.984   3.409   1.362
  351SOL    HW1 1952   1.943   3.329   1.405
  351SOL    HW2 1953   1.942   3.422   1.272
  352SOL     OW 1954   3.159   0.071   4.685
  352SOL    HW1 1955   3.228   0.141   4.665
  352SOL    HW2 1956   3.130   0.028   4.599
  353SOL     OW 1957   1.931   0.293   0.810
  353SOL    HW1 1958   1.902   0.384   0.840
  353SOL    HW2 1959   1.856   0.248   0.762
  354SOL     OW 1960   4.015   2.435   1.115
  354SOL    HW1 1961   3.929   2.432   1.166
  354SOL    HW2 1962   4.077   2.500   1.160
  355SOL     OW 1963   1.636   3.544   2.242
  355SOL    HW1 1964   1.635   3.468   2.307
  355SOL    HW2 1965   1.649   3.630   2.291
  356SOL     OW 1966   2.820   6.780   6.050
  356SOL    HW1 1967   2.849   6.863   6.002
  356SOL    HW2 1968   2.772   6.805   6.134
  357SOL     OW 1969   6.648   5.699   6.068
  357SOL    HW1 1970   6.676   5.793   6.089
  357SOL    HW2 1971   6.580   5.670   6.135
  358SOL     OW 1972   4.078   6.715   0.375
  358SOL    HW1 1973   4.084   6.815   0.382
  358SOL    HW2 1974   4.170   6.677   0.364
  359SOL     OW 1975   2.163   2.257   1.747
  359SOL    HW1 1976   2.114   2.276   1.832
  359SOL    HW2 1977   2.234   2.189   1.764
  360SOL     OW 1978   1.200   5.121   6.295
  360SOL    HW1 1979   1.132   5.053   6.322
  360SOL    HW2 1980   1.155   5.197   6.247
  361SOL     OW 1981   6.002   6.516   2.974
  361SOL    HW1 1982   6.050   6.444   3.024
  361SOL    HW2 1983   5.904   6.509   2.992
  362SOL     OW 1984   3.593   3.288   1.139
  362SOL    HW1 1985   3.508   3.304   1.188
  362SOL    HW2 1986   3.670   3.301   1.202
  363SOL     OW 1987   5.282   4.007   3.339
  363SOL    HW1 1988   5.192   3.964   3.330
  363SOL    HW2 1989   5.295   4.074   3.266
  364SOL     OW 1990   6.680   5.563   6.760
  364SOL    HW1 1991   6.594   5.552   6.810
  364SOL    HW2 1992   6.724   5.650   6.787
  365SOL     OW 1993   6.099   5.948   2.035
  365SOL    HW1 1994   6.041   6.003   1.975
  365SOL    HW2 1995   6.193   5.984   2.033
  366SOL     OW 1996   5.584   0.756   6.081
  366SOL    HW1 1997   5.584   0.714   6.172
  366SOL    HW2 1998   5.505   0.723   6.029
  367SOL     OW 1999   5.695   3.165   1.116
  367SOL    HW1 2000   5.622   3.124   1.171
  367SOL    HW2 2001   5.727   3.098   1.049
  368SOL     OW 2002   0.064   3.071   4.780
  368SOL    HW1 2003   0.149   3.045   4.826
  368SOL    HW2 2004   7.011   3.062   4.845
  369SOL     OW 2005   6.213   5.357   2.343
  369SOL    HW1 2006   6.166   5.432   2.391
  369SOL    HW2 2007   6.161   5.332   2.262
  370SOL     OW 2008   2.629   1.148   5.463
  370SOL    HW1 2009   2.615   1.239   5.423
  370SOL    HW2 2010   2.726   1.137   5.486
  371SOL     OW 2011   2.372   3.751   6.046
  371SOL    HW1 2012   2.399   3.656   6.028
  371SOL    HW2 2013   2.450   3.802   6.080
  372SOL     OW 2014   0.663   7.018   5.921
  372SOL    HW1 2015   0.669   6.922   5.945
  372SOL    HW2 2016   0.577   0.034   5.957
  373SOL     OW 2017   6.611   6.554   4.792
  373SOL    HW1 2018   6.581   6.496   4.868
  373SOL    HW2 2019   6.536   6.615   4.766
  374SOL     OW 2020   2.908   1.725   3.837
  374SOL    HW1 2021   3.000   1.764   3.838
  374SOL    HW2 2022   2.875   1.713   3.931
  375SOL     OW 2023   0.714   4.185   4.093
  375SOL    HW1 2024   0.789   4.229   4.141
  375SOL    HW2 2025   0.695   4.096   4.134
  376SOL     OW 2026   2.738   0.882   5.208
  376SOL    HW1 2027   2.829   0.845   5.229
  376SOL    HW2 2028   2.694   0.824   5.140
  377SOL     OW 2029   1.348   1.698   1.428
  377SOL    HW1 2030   1.311   1.622   1.375
  377SOL    HW2 2031   1.448   1.692   1.430
  378SOL     OW 2032   4.630   2.708   6.515
  378SOL    HW1 2033   4.548   2.689   6.567
  378SOL    HW2 2034   4.615   2.788   6.456
  379SOL     OW 2035   6.365   3.288   0.981
  379SOL    HW1 2036   6.358   3.318   1.076
  379SOL    HW2 2037   6.459   3.300   0.949
  380SOL     OW 2038   2.026   1.411   0.820
  380SOL    HW1 2039   2.006   1.315   0.799
  380SOL    HW2 2040   1.952   1.469   0.787
  381SOL     OW 2041   1.507   3.631   2.989
  381SOL    HW1 2042   1.532   3.584   3.073
  381SOL    HW2 2043   1.535   3.727   2.995
  382SOL     OW 2044   6.134   0.234   6.482
  382SOL    HW1 2045   6.073   0.216   6.404
  382SOL    HW2 2046   6.185   0.319   6.466
  383SOL     OW 2047   4.046   3.810   6.105
  383SOL    HW1 2048   4.008   3.902   6.100
  383SOL    HW2 2049   4.022   3.768   6.192
  384SOL     OW 2050   6.977   5.758   3.963
  384SOL    HW1 2051   6.924   5.833   3.923
  384SOL    HW2 2052   6.918   5.677   3.971
  385SOL     OW 2053   3.774   5.431   5.328
  385SOL    HW1 2054   3.676   5.450   5.333
  385SOL    HW2 2055   3.794   5.382   5.242
  386SOL     OW 2056   1.945   6.861   5.463
  386SOL    HW1 2057   1.976   6.795   5.531
  386SOL    HW2 2058   1.886   6.816   5.396
  387SOL     OW 2059   1.163   6.748   3.232
  387SOL    HW1 2060   1.221   6.675   3.196
  387SOL    HW2 2061   1.217   6.832   3.243
  388SOL     OW 2062   1.243   1.815   4.701
  388SOL    HW1 2063   1.340   1.840   4.709
  388SOL    HW2 2064   1.228   1.727   4.747
  389SOL     OW 2065   3.736   4.485   1.056
  389SOL    HW1 2066   3.645   4.443   1.056
  389SOL    HW2 2067   3.800   4.428   1.107
  390SOL     OW 2068   3.456   1.307   0.221
  390SOL    HW1 2069   3.483   1.216   0.253
  390SOL    HW2 2070   3.388   1.297   0.148
  391SOL     OW 2071   2.219   3.347   6.117
  391SOL    HW1 2072   2.217   3.336   6.017
  391SOL    HW2 2073   2.242   3.441   6.140
  392SOL     OW 2074   1.247   4.404   0.723
  392SOL    HW1 2075   1.234   4.335   0.652
  392SOL    HW2 2076   1.161   4.420   0.771
  393SOL     OW 2077   1.560   4.593   6.246
  393SOL    HW1 2078   1.577   4.496   6.264
  393SOL    HW2 2079   1.602   4.618   6.158
  394SOL     OW 2080   6.971   2.334   0.623
  394SOL    HW1 2081   0.046   2.314   0.625
  394SOL    HW2 2082   6.933   2.306   0.535
  395SOL     OW 2083   5.390   4.192   3.155
  395SOL    HW1 2084   5.313   4.245   3.120
  395SOL    HW2 2085   5.474   4.245   3.144
  396SOL     OW 2086   2.869   3.586   1.906
  396SOL    HW1 2087   2.913   3.609   1.993
  396SOL    HW2 2088   2.939   3.574   1.836
  397SOL     OW 2089   5.993   1.723   6.167
  397SOL    HW1 2090   5.948   1.674   6.242
  397SOL    HW2 2091   5.969   1.820   6.172
  398SOL     OW 2092   1.224   0.179   3.110
  398SOL    HW1 2093   1.301   0.238   3.085
  398SOL    HW2 2094   1.143   0.235   3.127
  399SOL     OW 2095   5.160   6.423   3.325
  399SOL    HW1 2096   5.190   6.365   3.400
  399SOL    HW2 2097   5.124   6.367   3.251
  400SOL     OW 2098   6.238   6.366   5.229
  400SOL    HW1 2099   6.304   6.339   5.299
  400SOL    HW2 2100   6.229   6.466   5.229
  401SOL     OW 2101   5.427   0.123   6.730
  401SOL    HW1 2102   5.345   0.096   6.679
  401SOL    HW2 2103   5.415   0.216   6.766
  402SOL     OW 2104   6.536   0.189   3.818
  402SOL    HW1 2105   6.494   0.280   3.822
  402SOL    HW2 2106   6.575   0.167   3.908
  403SOL     OW 2107   3.875   1.698   4.973
  403SOL    HW1 2108   3.952   1.760   4.984
  403SOL    HW2 2109   3.897   1.610   5.015
  404SOL     OW 2110   1.627   5.160   3.601
  404SOL    HW1 2111   1.608   5.066   3.573
  404SOL    HW2 2112   1.714   5.164   3.650
  405SOL     OW 2113   2.216   3.001   2.673
  405SOL    HW1 2114   2.243   3.097   2.664
  405SOL    HW2 2115   2.220   2.956   2.584
  406SOL     OW 2116   0.865   4.418   4.459
  406SOL    HW1 2117   0.797   4.402   4.530
  406SOL    HW2 2118   0.890   4.331   4.417
  407SOL     OW 2119   0.274   1.189   4.810
  407SOL    HW1 2120   0.196   1.207   4.869
  407SOL    HW2 2121   0.356   1.229   4.849
  408SOL     OW 2122   2.255   2.115   3.191
  408SOL    HW1 2123   2.282   2.039   3.249
  408SOL    HW2 2124   2.278   2.094   3.096
  409SOL     OW 2125   6.018   3.469   2.440
  409SOL    HW1 2126   5.982   3.378   2.417
  409SOL    HW2 2127   5.973   3.538   2.383
  410SOL     OW 2128   1.226   1.633   1.040
  410SOL    HW1 2129   1.231   1.576   1.122
  410SOL    HW2 2130   1.148   1.606   0.985
  411SOL     OW 2131   6.687   1.017   1.399
  411SOL    HW1 2132   6.747   1.035   1.478
  411SOL    HW2 2133   6.644   1.103   1.370
  412SOL     OW 2134   3.108   5.884   3.122
  412SOL    HW1 2135   3.110   5.830   3.038
  412SOL    HW2 2136   3.187   5.945   3.124
  413SOL     OW 2137   5.566   3.885   1.742
  413SOL    HW1 2138   5.537   3.924   1.655
  413SOL    HW2 2139   5.613   3.956   1.796
  414SOL     OW 2140   3.522   5.217   3.250
  414SOL    HW1 2141   3.490   5.174   3.166
  414SOL    HW2 2142   3.500   5.315   3.247
  415SOL     OW 2143   0.554   6.453   6.031
  415SOL    HW1 2144   0.518   6.534   6.078
  415SOL    HW2 2145   0.485   6.417   5.969
  416SOL     OW 2146   4.601   6.200   4.608
  416SOL    HW1 2147   4.683   6.245   4.572
  416SOL    HW2 2148   4.601   6.205   4.708
  417SOL     OW 2149   2.255   6.406   5.613
  417SOL    HW1 2150   2.231   6.480   5.551
  417SOL    HW2 2151   2.321   6.346   5.568
  418SOL     OW 2152   3.925   6.766   6.442
  418SOL    HW1 2153   3.924   6.711   6.526
  418SOL    HW2 2154   3.849   6.832   6.445
  419SOL     OW 2155   1.388   6.156   2.165
  419SOL    HW1 2156   1.444   6.087   2.120
  419SOL    HW2 2157   1.444   6.209   2.228
  420SOL     OW 2158   6.004   1.635   0.178
  420SOL    HW1 2159   6.038   1.544   0.202
  420SOL    HW2 2160   5.910   1.627   0.145
  421SOL     OW 2161   6.600   4.050   5.271
  421SOL    HW1 2162   6.690   4.020   5.302
  421SOL    HW2 2163   6.567   4.123   5.330
  422SOL     OW 2164   5.302   3.977   1.420
  422SOL    HW1 2165   5.296   4.006   1.324
  422SOL    HW2 2166   5.229   3.911   1.439
  423SOL     OW 2167   0.969   2.749   6.006
  423SOL    HW1 2168   1.023   2.763   5.923
  423SOL    HW2 2169   1.008   2.673   6.058
  424SOL     OW 2170   1.494   5.036   1.131
  424SOL    HW1 2171   1.424   5.057   1.199
  424SOL    HW2 2172   1.580   5.079   1.158
  425SOL     OW 2173   4.923   2.025   3.349
  425SOL    HW1 2174   4.985   2.055   3.277
  425SOL    HW2 2175   4.916   1.925   3.348
  426SOL     OW 2176   2.663   1.886   4.608
  426SOL    HW1 2177   2.660   1.879   4.707
  426SOL    HW2 2178   2.609   1.812   4.568
  427SOL     OW 2179   5.578   6.771   3.863
  427SOL    HW1 2180   5.540   6.862   3.847
  427SOL    HW2 2181   5.650   6.753   3.796
  428SOL     OW 2182   4.312   6.989   3.261
  428SOL    HW1 2183   4.286   0.044   3.205
  428SOL    HW2 2184   4.380   7.018   3.329
  429SOL     OW 2185   0.763   5.033   3.087
  429SOL    HW1 2186   0.668   5.059   3.068
  429SOL    HW2 2187   0.802   5.098   3.152
  430SOL     OW 2188   1.569   6.230   3.964
  430SOL    HW1 2189   1.498   6.280   3.914
  430SOL    HW2 2190   1.658   6.275   3.948
  431SOL     OW 2191   2.998   0.231   1.219
  431SOL    HW1 2192   2.955   0.250   1.307
  431SOL    HW2 2193   3.070   0.298   1.202
  432SOL     OW 2194   6.596   2.373   1.215
  432SOL    HW1 2195   6.534   2.438   1.258
  432SOL    HW2 2196   6.673   2.422   1.174
  433SOL     OW 2197   1.930   6.610   5.129
  433SOL    HW1 2198   2.006   6.672   5.110
  433SOL    HW2 2199   1.847   6.662   5.148
  434SOL     OW 2200   3.774   5.558   3.199
  434SOL    HW1 2201   3.725   5.594   3.120
  434SOL    HW2 2202   3.723   5.578   3.282
  435SOL     OW 2203   4.494   2.031   6.485
  435SOL    HW1 2204   4.413   2.038   6.544
  435SOL    HW2 2205   4.563   2.097   6.515
  436SOL     OW 2206   3.037   4.830   1.638
  436SOL    HW1 2207   3.031   4.788   1.729
  436SOL    HW2 2208   3.089   4.916   1.645
  437SOL     OW 2209   0.292   1.221   6.199
  437SOL    HW1 2210   0.364   1.229   6.268
  437SOL    HW2 2211   0.204   1.246   6.240
  438SOL     OW 2212   2.194   3.968   4.340
  438SOL    HW1 2213   2.192   3.952   4.241
  438SOL    HW2 2214   2.110   3.933   4.381
  439SOL     OW 2215   6.135   6.267   2.652
  439SOL    HW1 2216   6.086   6.261   2.739
  439SOL    HW2 2217   6.213   6.205   2.654
  440SOL     OW 2218   2.510   2.038   5.370
  440SOL    HW1 2219   2.457   2.115   5.333
  440SOL    HW2 2220   2.607   2.061   5.368
  441SOL     OW 2221   0.583   3.023   3.484
  441SOL    HW1 2222   0.642   2.944   3.469
  441SOL    HW2 2223   0.512   2.999   3.551
  442SOL     OW 2224   4.082   5.805   5.118
  442SOL    HW1 2225   4.037   5.801   5.029
  442SOL    HW2 2226   4.041   5.878   5.173
  443SOL     OW 2227   5.930   4.400   4.274
  443SOL    HW1 2228   5.963   4.309   4.251
  443SOL    HW2 2229   5.914   4.405   4.373
  444SOL     OW 2230   5.237   0.845   6.286
  444SOL    HW1 2231   5.192   0.898   6.359
  444SOL    HW2 2232   5.229   0.748   6.306
  445SOL     OW 2233   1.801   5.519   2.796
  445SOL    HW1 2234   1.858   5.547   2.873
  445SOL    HW2 2235   1.723   5.465   2.829
  446SOL     OW 2236   3.979   4.830   2.768
  446SOL    HW1 2237   3.941   4.811   2.678
  446SOL    HW2 2238   4.077   4.846   2.760
  447SOL     OW 2239   7.013   3.238   5.739
  447SOL    HW1 2240   6.956   3.234   5.821
  447SOL    HW2 2241   0.008   3.145   5.707
  448SOL     OW 2242   2.453   0.602   2.846
  448SOL    HW1 2243   2.494   0.647   2.926
  448SOL    HW2 2244   2.353   0.610   2.853
  449SOL     OW 2245   2.699   1.281   3.995
  449SOL    HW1 2246   2.639   1.308   3.920
  449SOL    HW2 2247   2.792   1.265   3.960
  450SOL     OW 2248   1.477   4.926   3.535
  450SOL    HW1 2249   1.413   4.935   3.458
  450SOL    HW2 2250   1.518   4.834   3.534
  451SOL     OW 2251   1.479   2.319   5.021
  451SOL    HW1 2252   1.552   2.276   4.968
  451SOL    HW2 2253   1.436   2.390   4.965
  452SOL     OW 2254   5.083   6.589   0.551
  452SOL    HW1 2255   5.015   6.638   0.606
  452SOL    HW2 2256   5.050   6.496   0.533
  453SOL     OW 2257   3.547   0.385   6.930
  453SOL    HW1 2258   3.616   0.316   6.952
  453SOL    HW2 2259   3.589   0.476   6.932
  454SOL     OW 2260   6.842   3.789   6.434
  454SOL    HW1 2261   6.800   3.872   6.397
  454SOL    HW2 2262   6.893   3.812   6.517
  455SOL     OW 2263   5.138   2.550   4.802
  455SOL    HW1 2264   5.051   2.568   4.755
  455SOL    HW2 2265   5.207   2.524   4.734
  456SOL     OW 2266   0.732   0.036   3.968
  456SOL    HW1 2267   0.666   0.095   3.921
  456SOL    HW2 2268   0.708   6.963   3.950
  457SOL     OW 2269   1.984   4.105   4.638
  457SOL    HW1 2270   1.936   4.145   4.560
  457SOL    HW2 2271   2.044   4.032   4.607
  458SOL     OW 2272   2.950   6.097   2.784
  458SOL    HW1 2273   2.936   6.143   2.872
  458SOL    HW2 2274   2.883   6.023   2.774
  459SOL     OW 2275   2.580   0.014   6.435
  459SOL    HW1 2276   2.575   7.017   6.533
  459SOL    HW2 2277   2.497   7.003   6.391
  460SOL     OW 2278   2.043   0.072   4.472
  460SOL    HW1 2279   1.980   0.067   4.395
  460SOL    HW2 2280   2.022   0.153   4.527
  461SOL     OW 2281   0.015   5.361   5.433
  461SOL    HW1 2282   7.001   5.268   5.427
  461SOL    HW2 2283   6.972   5.419   5.480
  462SOL     OW 2284   4.212   3.337   6.378
  462SOL    HW1 2285   4.244   3.431   6.368
  462SOL    HW2 2286   4.162   3.328   6.464
  463SOL     OW 2287   6.640   6.302   4.273
  463SOL    HW1 2288   6.542   6.319   4.271
  463SOL    HW2 2289   6.664   6.254   4.357
  464SOL     OW 2290   2.943   0.581   5.470
  464SOL    HW1 2291   2.930   0.649   5.397
  464SOL    HW2 2292   3.005   0.618   5.540
  465SOL     OW 2293   0.499   2.097   0.218
  465SOL    HW1 2294   0.495   2.001   0.244
  465SOL    HW2 2295   0.407   2.138   0.227
  466SOL     OW 2296   2.222   6.525   3.847
  466SOL    HW1 2297   2.279   6.536   3.765
  466SOL    HW2 2298   2.144   6.466   3.825
  467SOL     OW 2299   1.578   1.412   2.284
  467SOL    HW1 2300   1.624   1.382   2.200
  467SOL    HW2 2301   1.483   1.381   2.282
  468SOL     OW 2302   3.271   6.223   5.078
  468SOL    HW1 2303   3.221   6.144   5.044
  468SOL    HW2 2304   3.208   6.300   5.090
  469SOL     OW 2305   2.567   3.560   6.079
  469SOL    HW1 2306   2.647   3.609   6.115
  469SOL    HW2 2307   2.595   3.507   5.999
  470SOL     OW 2308   4.108   6.094   0.887
  470SOL    HW1 2309   4.152   6.119   0.801
  470SOL    HW2 2310   4.141   6.154   0.960
  471SOL     OW 2311   2.319   2.796   3.986
  471SOL    HW1 2312   2.401   2.744   3.961
  471SOL    HW2 2313   2.328   2.829   4.080
  472SOL     OW 2314   5.276   4.634   6.639
  472SOL    HW1 2315   5.252   4.574   6.562
  472SOL    HW2 2316   5.242   4.727   6.620
  473SOL     OW 2317   1.222   1.675   2.678
  473SOL    HW1 2318   1.175   1.587   2.675
  473SOL    HW2 2319   1.292   1.677   2.606
  474SOL     OW 2320   5.441   5.822   4.432
  474SOL    HW1 2321   5.500   5.903   4.437
  474SOL    HW2 2322   5.395   5.809   4.520
  475SOL     OW 2323   6.571   2.832   0.363
  475SOL    HW1 2324   6.482   2.786   0.362
  475SOL    HW2 2325   6.643   2.765   0.340
  476SOL     OW 2326   7.020   3.716   2.118
  476SOL    HW1 2327   0.047   3.639   2.157
  476SOL    HW2 2328   6.923   3.707   2.141
  477SOL     OW 2329   2.493   6.133   3.182
  477SOL    HW1 2330   2.562   6.070   3.216
  477SOL    HW2 2331   2.536   6.218   3.152
  478SOL     OW 2332   4.034   6.357   2.734
  478SOL    HW1 2333   4.037   6.331   2.830
  478SOL    HW2 2334   3.942   6.387   2.710
  479SOL     OW 2335   3.810   3.380   5.190
  479SOL    HW1 2336   3.885   3.359   5.128
  479SOL    HW2 2337   3.770   3.295   5.225
  480SOL     OW 2338   2.240   0.433   0.881
  480SOL    HW1 2339   2.238   0.361   0.950
  480SOL    HW2 2340   2.227   0.393   0.791
  481SOL     OW 2341   1.069   6.493   1.638
  481SOL    HW1 2342   1.009   6.416   1.615
  481SOL    HW2 2343   1.097   6.486   1.734
  482SOL     OW 2344   4.503   4.870   2.304
  482SOL    HW1 2345   4.521   4.777   2.336
  482SOL    HW2 2346   4.404   4.882   2.293
  483SOL     OW 2347   6.575   2.260   2.760
  483SOL    HW1 2348   6.577   2.174   2.810
  483SOL    HW2 2349   6.509   2.323   2.803
  484SOL     OW 2350   1.738   3.981   4.966
  484SOL    HW1 2351   1.764   4.077   4.971
  484SOL    HW2 2352   1.776   3.941   4.882
  485SOL     OW 2353   4.440   4.909   2.658
  485SOL    HW1 2354   4.473   4.840   2.593
  485SOL    HW2 2355   4.487   4.996   2.641
  486SOL     OW 2356   6.336   1.400   0.384
  486SOL    HW1 2357   6.406   1.341   0.424
  486SOL    HW2 2358   6.358   1.496   0.404
  487SOL     OW 2359   0.669   0.489   3.451
  487SOL    HW1 2360   0.768   0.475   3.448
  487SOL    HW2 2361   0.622   0.400   3.458
  488SOL     OW 2362   0.890   0.474   2.703
  488SOL    HW1 2363   0.901   0.428   2.615
  488SOL    HW2 2364   0.931   0.565   2.698
  489SOL     OW 2365   4.869   6.105   5.850
  489SOL    HW1 2366   4.830   6.085   5.759
  489SOL    HW2 2367   4.960   6.144   5.839
  490SOL     OW 2368   1.957   5.933   3.687
  490SOL    HW1 2369   1.875   5.897   3.732
  490SOL    HW2 2370   2.004   5.859   3.640
  491SOL     OW 2371   1.200   2.705   1.679
  491SOL    HW1 2372   1.188   2.787   1.624
  491SOL    HW2 2373   1.170   2.722   1.773
  492SOL     OW 2374   1.295   1.091   6.040
  492SOL    HW1 2375   1.353   1.163   6.077
  492SOL    HW2 2376   1.246   1.126   5.960
  493SOL     OW 2377   3.258   6.653   5.716
  493SOL    HW1 2378   3.287   6.726   5.777
  493SOL    HW2 2379   3.203   6.692   5.641
  494SOL     OW 2380   1.088   6.617   6.675
  494SOL    HW1 2381   1.068   6.612   6.773
  494SOL    HW2 2382   1.028   6.555   6.625
  495SOL     OW 2383   4.008   5.765   3.701
  495SOL    HW1 2384   3.972   5.684   3.655
  495SOL    HW2 2385   4.080   5.806   3.645
  496SOL     OW 2386   5.620   2.893   2.042
  496SOL    HW1 2387   5.659   2.962   1.981
  496SOL    HW2 2388   5.602   2.809   1.991
  497SOL     OW 2389   3.214   1.124   4.567
  497SOL    HW1 2390   3.221   1.036   4.520
  497SOL    HW2 2391   3.259   1.118   4.656
  498SOL     OW 2392   0.761   5.395   2.619
  498SOL    HW1 2393   0.834   5.373   2.554
  498SOL    HW2 2394   0.738   5.313   2.671
  499SOL     OW 2395   1.876   5.425   4.696
  499SOL    HW1 2396   1.877   5.352   4.765
  499SOL    HW2 2397   1.819   5.500   4.728
  500SOL     OW 2398   6.650   2.463   6.596
  500SOL    HW1 2399   6.625   2.369   6.621
  500SOL    HW2 2400   6.642   2.475   6.497
  501SOL     OW 2401   4.150   6.955   0.692
  501SOL    HW1 2402   4.099   6.872   0.670
  501SOL    HW2 2403   4.099   7.009   0.758
  502SOL     OW 2404   0.809   4.647   5.944
  502SOL    HW1 2405   0.858   4.581   5.888
  502SOL    HW2 2406   0.749   4.598   6.008
  503SOL     OW 2407   0.752   4.815   6.417
  503SOL    HW1 2408   0.777   4.725   6.381
  503SOL    HW2 2409   0.676   4.852   6.364
  504SOL     OW 2410   1.121   5.695   2.396
  504SOL    HW1 2411   1.035   5.650   2.376
  504SOL    HW2 2412   1.197   5.631   2.380
  505SOL     OW 2413   3.963   5.976   4.573
  505SOL    HW1 2414   3.954   5.897   4.512
  505SOL    HW2 2415   3.872   6.001   4.608
  506SOL     OW 2416   3.904   5.550   2.650
  506SOL    HW1 2417   3.917   5.451   2.644
  506SOL    HW2 2418   3.819   5.575   2.605
  507SOL     OW 2419   3.032   6.455   2.888
  507SOL    HW1 2420   3.106   6.443   2.954
  507SOL    HW2 2421   2.953   6.400   2.916
  508SOL     OW 2422   0.132   3.354   2.682
  508SOL    HW1 2423   0.185   3.438   2.686
  508SOL    HW2 2424   0.180   3.281   2.730
  509SOL     OW 2425   2.868   1.660   0.858
  509SOL    HW1 2426   2.793   1.711   0.899
  509SOL    HW2 2427   2.949   1.718   0.853
  510SOL     OW 2428   6.233   4.128   0.151
  510SOL    HW1 2429   6.169   4.052   0.136
  510SOL    HW2 2430   6.316   4.113   0.098
  511SOL     OW 2431   0.596   3.075   6.157
  511SOL    HW1 2432   0.533   3.070   6.234
  511SOL    HW2 2433   0.630   3.169   6.148
  512SOL     OW 2434   0.060   2.041   6.545
  512SOL    HW1 2435   0.084   2.017   6.451
  512SOL    HW2 2436   6.996   1.998   6.570
  513SOL     OW 2437   5.218   6.766   3.042
  513SOL    HW1 2438   5.312   6.737   3.058
  513SOL    HW2 2439   5.171   6.777   3.129
  514SOL     OW 2440   6.357   0.390   4.591
  514SOL    HW1 2441   6.350   0.397   4.492
  514SOL    HW2 2442   6.434   0.445   4.623
  515SOL     OW 2443   1.176   1.210   0.867
  515SOL    HW1 2444   1.077   1.205   0.871
  515SOL    HW2 2445   1.204   1.303   0.841
  516SOL     OW 2446   2.671   4.675   1.755
  516SOL    HW1 2447   2.735   4.640   1.823
  516SOL    HW2 2448   2.578   4.670   1.791
  517SOL     OW 2449   3.333   4.831   1.848
  517SOL    HW1 2450   3.329   4.858   1.752
  517SOL    HW2 2451   3.410   4.768   1.861
  518SOL     OW 2452   2.233   2.442   3.877
  518SOL    HW1 2453   2.296   2.519   3.885
  518SOL    HW2 2454   2.283   2.361   3.845
  519SOL     OW 2455   0.955   6.458   3.059
  519SOL    HW1 2456   1.047   6.461   3.020
  519SOL    HW2 2457   0.960   6.427   3.154
  520SOL     OW 2458   6.334   3.493   6.640
  520SOL    HW1 2459   6.422   3.479   6.685
  520SOL    HW2 2460   6.350   3.528   6.547
  521SOL     OW 2461   6.645   6.285   5.471
  521SOL    HW1 2462   6.640   6.363   5.410
  521SOL    HW2 2463   6.578   6.216   5.444
  522SOL     OW 2464   3.849   3.376   3.887
  522SOL    HW1 2465   3.906   3.457   3.869
  522SOL    HW2 2466   3.841   3.322   3.804
  523SOL     OW 2467   0.220   5.839   0.898
  523SOL    HW1 2468   0.319   5.823   0.887
  523SOL    HW2 2469   0.206   5.919   0.957
  524SOL     OW 2470   1.466   2.474   2.965
  524SOL    HW1 2471   1.557   2.450   3.001
  524SOL    HW2 2472   1.400   2.405   2.994
  525SOL     OW 2473   1.860   4.218   6.119
  525SOL    HW1 2474   1.915   4.156   6.175
  525SOL    HW2 2475   1.882   4.313   6.143
  526SOL     OW 2476   3.502   6.638   3.831
  526SOL    HW1 2477   3.591   6.593   3.847
  526SOL    HW2 2478   3.431   6.590   3.883
  527SOL     OW 2479   6.855   2.959   0.540
  527SOL    HW1 2480   6.850   3.059   0.528
  527SOL    HW2 2481   6.944   2.927   0.508
  528SOL     OW 2482   1.630   2.399   3.315
  528SOL    HW1 2483   1.646   2.360   3.406
  528SOL    HW2 2484   1.611   2.325   3.250
  529SOL     OW 2485   2.121   6.213   5.201
  529SOL    HW1 2486   2.080   6.123   5.191
  529SOL    HW2 2487   2.198   6.208   5.265
  530SOL     OW 2488   4.112   3.630   3.254
  530SOL    HW1 2489   4.194   3.660   3.205
  530SOL    HW2 2490   4.111   3.670   3.346
  531SOL     OW 2491   0.826   1.673   2.791
  531SOL    HW1 2492   0.826   1.747   2.859
  531SOL    HW2 2493   0.879   1.702   2.711
  532SOL     OW 2494   0.840   2.293   0.497
  532SOL    HW1 2495   0.762   2.275   0.557
  532SOL    HW2 2496   0.922   2.251   0.536
  533SOL     OW 2497   4.344   6.702   3.184
  533SOL    HW1 2498   4.421   6.741   3.234
  533SOL    HW2 2499   4.295   6.774   3.135
  534SOL     OW 2500   5.286   5.903   2.592
  534SOL    HW1 2501   5.365   5.881   2.648
  534SOL    HW2 2502   5.296   5.860   2.502
  535SOL     OW 2503   6.385   3.594   3.701
  535SOL    HW1 2504   6.381   3.664   3.772
  535SOL    HW2 2505   6.295   3.550   3.693
  536SOL     OW 2506   6.087   4.695   3.006
  536SOL    HW1 2507   6.178   4.667   2.973
  536SOL    HW2 2508   6.019   4.629   2.973
  537SOL     OW 2509   3.160   6.862   4.868
  537SOL    HW1 2510   3.171   6.936   4.802
  537SOL    HW2 2511   3.099   6.792   4.830
  538SOL     OW 2512   0.839   4.575   4.019
  538SOL    HW1 2513   0.812   4.565   4.115
  538SOL    HW2 2514   0.900   4.653   4.009
  539SOL     OW 2515   2.020   4.400   1.591
  539SOL    HW1 2516   1.956   4.468   1.553
  539SOL    HW2 2517   2.010   4.314   1.543
  540SOL     OW 2518   1.684   1.746   2.859
  540SOL    HW1 2519   1.671   1.673   2.791
  540SOL    HW2 2520   1.628   1.727   2.940
  541SOL     OW 2521   5.743   5.572   4.304
  541SOL    HW1 2522   5.658   5.610   4.269
  541SOL    HW2 2523   5.790   5.641   4.359
  542SOL     OW 2524   5.273   6.849   6.705
  542SOL    HW1 2525   5.260   6.905   6.624
  542SOL    HW2 2526   5.220   6.765   6.697
  543SOL     OW 2527   6.585   4.020   4.671
  543SOL    HW1 2528   6.627   3.945   4.722
  543SOL    HW2 2529   6.656   4.076   4.629
  544SOL     OW 2530   1.338   4.798   6.905
  544SOL    HW1 2531   1.367   4.806   6.810
  544SOL    HW2 2532   1.367   4.879   6.956
  545SOL     OW 2533   3.106   1.085   0.594
  545SOL    HW1 2534   3.162   1.144   0.535
  545SOL    HW2 2535   3.160   1.004   0.619
  546SOL     OW 2536   1.680   3.663   0.628
  546SOL    HW1 2537   1.762   3.721   0.628
  546SOL    HW2 2538   1.599   3.721   0.624
  547SOL     OW 2539   3.165   1.921   6.708
  547SOL    HW1 2540   3.208   1.903   6.619
  547SOL    HW2 2541   3.233   1.909   6.780
  548SOL     OW 2542   3.407   3.454   1.889
  548SOL    HW1 2543   3.371   3.366   1.856
  548SOL    HW2 2544   3.352   3.484   1.967
  549SOL     OW 2545   5.375   2.249   1.380
  549SOL    HW1 2546   5.289   2.200   1.382
  549SOL    HW2 2547   5.385   2.297   1.292
  550SOL     OW 2548   1.361   5.479   3.890
  550SOL    HW1 2549   1.420   5.455   3.813
  550SOL    HW2 2550   1.301   5.554   3.864
  551SOL     OW 2551   0.858   0.161   1.906
  551SOL    HW1 2552   0.850   0.241   1.847
  551SOL    HW2 2553   0.921   0.181   1.981
  552SOL     OW 2554   6.126   4.888   0.107
  552SOL    HW1 2555   6.045   4.833   0.126
  552SOL    HW2 2556   6.133   4.904   0.008
  553SOL     OW 2557   2.463   6.713   3.843
  553SOL    HW1 2558   2.448   6.787   3.909
  553SOL    HW2 2559   2.405   6.636   3.867
  554SOL     OW 2560   5.689   6.802   6.926
  554SOL    HW1 2561   5.746   6.765   6.853
  554SOL    HW2 2562   5.672   6.899   6.910
  555SOL     OW 2563   2.977   4.902   4.460
  555SOL    HW1 2564   3.003   4.960   4.382
  555SOL    HW2 2565   3.046   4.910   4.532
  556SOL     OW 2566   4.873   1.675   3.451
  556SOL    HW1 2567   4.957   1.647   3.405
  556SOL    HW2 2568   4.794   1.641   3.399
  557SOL     OW 2569   6.902   5.197   0.687
  557SOL    HW1 2570   6.828   5.214   0.622
  557SOL    HW2 2571   6.962   5.276   0.691
  558SOL     OW 2572   3.083   3.543   3.170
  558SOL    HW1 2573   3.018   3.573   3.099
  558SOL    HW2 2574   3.031   3.508   3.249
  559SOL     OW 2575   0.265   5.497   6.415
  559SOL    HW1 2576   0.284   5.566   6.346
  559SOL    HW2 2577   0.171   5.507   6.447
  560SOL     OW 2578   5.749   3.792   4.107
  560SOL    HW1 2579   5.832   3.841   4.080
  560SOL    HW2 2580   5.669   3.833   4.062
  561SOL     OW 2581   0.263   2.277   1.254
  561SOL    HW1 2582   0.251   2.178   1.252
  561SOL    HW2 2583   0.175   2.322   1.237
  562SOL     OW 2584   4.452   0.141   6.352
  562SOL    HW1 2585   4.394   0.065   6.323
  562SOL    HW2 2586   4.503   0.176   6.274
  563SOL     OW 2587   3.009   0.197   3.649
  563SOL    HW1 2588   3.039   0.245   3.566
  563SOL    HW2 2589   2.914   0.166   3.637
  564SOL     OW 2590   1.195   2.394   6.717
  564SOL    HW1 2591   1.129   2.447   6.664
  564SOL    HW2 2592   1.177   2.406   6.814
  565SOL     OW 2593   3.487   3.061   4.754
  565SOL    HW1 2594   3.480   3.061   4.654
  565SOL    HW2 2595   3.425   3.129   4.792
  566SOL     OW 2596   0.363   4.533   3.760
  566SOL    HW1 2597   0.462   4.520   3.763
  566SOL    HW2 2598   0.330   4.512   3.668
  567SOL     OW 2599   2.978   2.865   1.326
  567SOL    HW1 2600   2.956   2.822   1.414
  567SOL    HW2 2601   2.940   2.957   1.324
  568SOL     OW 2602   5.057   0.382   6.899
  568SOL    HW1 2603   5.062   0.283   6.911
  568SOL    HW2 2604   5.051   0.426   6.989
  569SOL     OW 2605   1.648   2.507   0.249
  569SOL    HW1 2606   1.580   2.580   0.251
  569SOL    HW2 2607   1.672   2.480   0.342
  570SOL     OW 2608   3.878   6.277   5.991
  570SOL    HW1 2609   3.881   6.257   6.089
  570SOL    HW2 2610   3.963   6.320   5.963
  571SOL     OW 2611   3.336   5.419   2.446
  571SOL    HW1 2612   3.254   5.397   2.392
  571SOL    HW2 2613   3.404   5.347   2.434
  572SOL     OW 2614   2.550   4.886   5.723
  572SOL    HW1 2615   2.601   4.817   5.671
  572SOL    HW2 2616   2.614   4.954   5.760
  573SOL     OW 2617   5.227   1.235   5.865
  573SOL    HW1 2618   5.256   1.222   5.960
  573SOL    HW2 2619   5.295   1.289   5.816
  574SOL     OW 2620   3.548   1.549   4.802
  574SOL    HW1 2621   3.500   1.630   4.769
  574SOL    HW2 2622   3.482   1.480   4.829
  575SOL     OW 2623   5.433   3.781   0.857
  575SOL    HW1 2624   5.440   3.871   0.902
  575SOL    HW2 2625   5.497   3.777   0.781
  576SOL     OW 2626   1.579   2.195   3.067
  576SOL    HW1 2627   1.600   2.147   2.982
  576SOL    HW2 2628   1.480   2.201   3.079
  577SOL     OW 2629   1.443   1.671   3.042
  577SOL    HW1 2630   1.383   1.592   3.059
  577SOL    HW2 2631   1.389   1.746   3.003
  578SOL     OW 2632   6.406   5.200   4.310
  578SOL    HW1 2633   6.463   5.137   4.257
  578SOL    HW2 2634   6.326   5.151   4.346
  579SOL     OW 2635   1.657   3.268   3.878
  579SOL    HW1 2636   1.698   3.223   3.799
  579SOL    HW2 2637   1.728   3.313   3.932
  580SOL     OW 2638   5.025   5.549   6.110
  580SOL    HW1 2639   5.050   5.642   6.082
  580SOL    HW2 2640   4.928   5.547   6.134
  581SOL     OW 2641   2.023   3.023   1.768
  581SOL    HW1 2642   1.926   3.010   1.791
  581SOL    HW2 2643   2.069   3.069   1.843
  582SOL     OW 2644   4.467   5.821   2.001
  582SOL    HW1 2645   4.478   5.891   1.930
  582SOL    HW2 2646   4.402   5.853   2.069
  583SOL     OW 2647   2.573   6.730   5.642
  583SOL    HW1 2648   2.633   6.807   5.663
  583SOL    HW2 2649   2.485   6.741   5.689
  584SOL     OW 2650   3.105   5.203   6.583
  584SOL    HW1 2651   3.073   5.256   6.504
  584SOL    HW2 2652   3.107   5.263   6.664
  585SOL     OW 2653   4.741   1.866   6.606
  585SOL    HW1 2654   4.817   1.831   6.550
  585SOL    HW2 2655   4.661   1.880   6.548
  586SOL     OW 2656   3.632   0.762   6.146
  586SOL    HW1 2657   3.614   0.825   6.222
  586SOL    HW2 2658   3.614   0.668   6.176
  587SOL     OW 2659   4.457   1.719   4.386
  587SOL    HW1 2660   4.429   1.679   4.473
  587SOL    HW2 2661   4.468   1.646   4.319
  588SOL     OW 2662   2.036   4.799   1.755
  588SOL    HW1 2663   2.108   4.753   1.807
  588SOL    HW2 2664   2.024   4.892   1.790
  589SOL     OW 2665   3.367   4.572   1.623
  589SOL    HW1 2666   3.272   4.578   1.655
  589SOL    HW2 2667   3.428   4.600   1.697
  590SOL     OW 2668   5.395   3.049   2.316
  590SOL    HW1 2669   5.486   3.076   2.286
  590SOL    HW2 2670   5.398   2.957   2.355
  591SOL     OW 2671   3.016   5.261   3.636
  591SOL    HW1 2672   2.994   5.356   3.658
  591SOL    HW2 2673   3.114   5.252   3.623
  592SOL     OW 2674   3.783   1.706   1.237
  592SOL    HW1 2675   3.724   1.733   1.161
  592SOL    HW2 2676   3.738   1.633   1.289
  593SOL     OW 2677   4.055   2.218   4.511
  593SOL    HW1 2678   4.035   2.156   4.587
  593SOL    HW2 2679   4.071   2.310   4.546
  594SOL     OW 2680   6.896   1.426   0.233
  594SOL    HW1 2681   6.827   1.498   0.227
  594SOL    HW2 2682   6.899   1.375   0.147
  595SOL     OW 2683   5.252   0.655   3.904
  595SOL    HW1 2684   5.273   0.708   3.822
  595SOL    HW2 2685   5.153   0.658   3.921
  596SOL     OW 2686   1.268   5.316   3.328
  596SOL    HW1 2687   1.336   5.378   3.369
  596SOL    HW2 2688   1.219   5.269   3.401
  597SOL     OW 2689   2.778   0.519   0.478
  597SOL    HW1 2690   2.781   0.427   0.517
  597SOL    HW2 2691   2.689   0.535   0.437
  598SOL     OW 2692   4.137   3.813   5.129
  598SOL    HW1 2693   4.209   3.766   5.078
  598SOL    HW2 2694   4.169   3.832   5.222
  599SOL     OW 2695   2.353   6.075   1.894
  599SOL    HW1 2696   2.451   6.060   1.902
  599SOL    HW2 2697   2.330   6.098   1.799
  600SOL     OW 2698   6.855   1.351   6.983
  600SOL    HW1 2699   6.937   1.407   6.971
  600SOL    HW2 2700   6.813   1.335   6.894
  601SOL     OW 2701   1.439   0.404   4.699
  601SOL    HW1 2702   1.531   0.444   4.693
  601SOL    HW2 2703   1.445   0.315   4.743
  602SOL     OW 2704   1.533   1.808   6.348
  602SOL    HW1 2705   1.543   1.711   6.326
  602SOL    HW2 2706   1.436   1.830   6.360
  603SOL     OW 2707   2.711   2.559   5.202
  603SOL    HW1 2708   2.781   2.552   5.273
  603SOL    HW2 2709   2.713   2.477   5.145
  604SOL     OW 2710   1.110   2.043   2.235
  604SOL    HW1 2711   1.179   1.975   2.259
  604SOL    HW2 2712   1.020   2.000   2.232
  605SOL     OW 2713   6.629   6.091   0.390
  605SOL    HW1 2714   6.691   6.033   0.443
  605SOL    HW2 2715   6.582   6.155   0.451
  606SOL     OW 2716   4.836   6.572   6.791
  606SOL    HW1 2717   4.756   6.619   6.754
  606SOL    HW2 2718   4.889   6.532   6.716
  607SOL     OW 2719   6.394   5.933   5.613
  607SOL    HW1 2720   6.478   5.961   5.566
  607SOL    HW2 2721   6.351   6.013   5.654
  608SOL     OW 2722   4.000   6.020   6.733
  608SOL    HW1 2723   3.916   6.020   6.678
  608SOL    HW2 2724   3.990   6.085   6.809
  609SOL     OW 2725   3.831   2.909   2.669
  609SOL    HW1 2726   3.891   2.836   2.636
  609SOL    HW2 2727   3.876   2.998   2.656
  610SOL     OW 2728   5.504   4.534   1.937
  610SOL    HW1 2729   5.412   4.497   1.953
  610SOL    HW2 2730   5.572   4.467   1.967
  611SOL     OW 2731   4.268   6.717   1.287
  611SOL    HW1 2732   4.252   6.628   1.245
  611SOL    HW2 2733   4.182   6.767   1.293
  612SOL     OW 2734   3.927   6.346   4.744
  612SOL    HW1 2735   3.831   6.346   4.715
  612SOL    HW2 2736   3.933   6.326   4.841
  613SOL     OW 2737   4.394   6.454   5.236
  613SOL    HW1 2738   4.387   6.463   5.335
  613SOL    HW2 2739   4.313   6.493   5.193
  614SOL     OW 2740   5.549   5.599   0.517
  614SOL    HW1 2741   5.485   5.670   0.486
  614SOL    HW2 2742   5.601   5.565   0.439
  615SOL     OW 2743   6.499   2.426   1.568
  615SOL    HW1 2744   6.467   2.483   1.492
  615SOL    HW2 2745   6.496   2.330   1.541
  616SOL     OW 2746   0.412   2.851   3.653
  616SOL    HW1 2747   0.416   2.809   3.743
  616SOL    HW2 2748   0.372   2.787   3.588
  617SOL     OW 2749   6.646   4.644   5.718
  617SOL    HW1 2750   6.551   4.624   5.742
  617SOL    HW2 2751   6.697   4.665   5.801
  618SOL     OW 2752   6.994   2.391   6.915
  618SOL    HW1 2753   6.965   2.325   6.846
  618SOL    HW2 2754   0.068   2.413   6.902
  619SOL     OW 2755   4.127   0.831   0.007
  619SOL    HW1 2756   4.172   0.885   0.077
  619SOL    HW2 2757   4.048   0.882   6.994
  620SOL     OW 2758   4.375   2.969   1.463
  620SOL    HW1 2759   4.391   3.060   1.502
  620SOL    HW2 2760   4.380   2.900   1.535
  621SOL     OW 2761   2.705   6.869   6.959
  621SOL    HW1 2762   2.691   6.888   6.862
  621SOL    HW2 2763   2.802   6.855   6.976
  622SOL     OW 2764   1.362   0.282   6.276
  622SOL    HW1 2765   1.458   0.253   6.274
  622SOL    HW2 2766   1.349   0.357   6.211
  623SOL     OW 2767   0.748   5.866   5.064
  623SOL    HW1 2768   0.699   5.945   5.102
  623SOL    HW2 2769   0.841   5.894   5.040
  624SOL     OW 2770   6.631   2.979   0.762
  624SOL    HW1 2771   6.559   2.910   0.760
  624SOL    HW2 2772   6.673   2.983   0.852
  625SOL     OW 2773   1.951   1.793   2.161
  625SOL    HW1 2774   2.002   1.865   2.115
  625SOL    HW2 2775   1.997   1.705   2.147
  626SOL     OW 2776   2.024   5.487   3.682
  626SOL    HW1 2777   1.980   5.570   3.715
  626SOL    HW2 2778   2.099   5.462   3.743
  627SOL     OW 2779   5.741   6.289   0.465
  627SOL    HW1 2780   5.653   6.284   0.418
  627SOL    HW2 2781   5.765   6.200   0.502
  628SOL     OW 2782   6.065   5.616   6.191
  628SOL    HW1 2783   6.097   5.591   6.100
  628SOL    HW2 2784   6.005   5.696   6.185
  629SOL     OW 2785   6.916   0.096   6.986
  629SOL    HW1 2786   6.937   0.005   7.021
  629SOL    HW2 2787   6.911   0.161   0.040
  630SOL     OW 2788   6.890   2.022   1.585
  630SOL    HW1 2789   6.872   2.112   1.545
  630SOL    HW2 2790   6.824   1.956   1.550
  631SOL     OW 2791   3.607   6.698   5.493
  631SOL    HW1 2792   3.526   6.671   5.545
  631SOL    HW2 2793   3.626   6.629   5.423
  632SOL     OW 2794   2.569   0.990   0.568
  632SOL    HW1 2795   2.669   0.989   0.561
  632SOL    HW2 2796   2.541   1.011   0.662
  633SOL     OW 2797   4.065   3.691   0.248
  633SOL    HW1 2798   4.149   3.743   0.265
  633SOL    HW2 2799   3.997   3.750   0.204
  634SOL     OW 2800   4.233   4.214   1.133
  634SOL    HW1 2801   4.156   4.151   1.135
  634SOL    HW2 2802   4.299   4.189   1.204
  635SOL     OW 2803   4.699   5.216   1.284
  635SOL    HW1 2804   4.658   5.166   1.208
  635SOL    HW2 2805   4.627   5.259   1.339
  636SOL     OW 2806   3.972   5.541   6.864
  636SOL    HW1 2807   4.002   5.633   6.838
  636SOL    HW2 2808   3.873   5.535   6.857
  637SOL     OW 2809   6.610   3.104   3.101
  637SOL    HW1 2810   6.585   3.163   3.177
  637SOL    HW2 2811   6.531   3.048   3.075
  638SOL     OW 2812   5.144   2.162   3.626
  638SOL    HW1 2813   5.157   2.136   3.530
  638SOL    HW2 2814   5.048   2.187   3.641
  639SOL     OW 2815   5.188   3.638   2.701
  639SOL    HW1 2816   5.269   3.693   2.682
  639SOL    HW2 2817   5.106   3.686   2.669
  640SOL     OW 2818   6.856   5.311   3.697
  640SOL    HW1 2819   6.819   5.281   3.785
  640SOL    HW2 2820   6.954   5.292   3.694
  641SOL     OW 2821   6.450   5.481   4.989
  641SOL    HW1 2822   6.482   5.461   4.897
  641SOL    HW2 2823   6.366   5.430   5.007
  642SOL     OW 2824   6.867   3.083   4.943
  642SOL    HW1 2825   6.881   3.007   5.006
  642SOL    HW2 2826   6.795   3.059   4.877
  643SOL     OW 2827   5.892   6.360   5.084
  643SOL    HW1 2828   5.868   6.429   5.016
  643SOL    HW2 2829   5.934   6.281   5.038
  644SOL     OW 2830   1.425   5.579   4.689
  644SOL    HW1 2831   1.474   5.664   4.667
  644SOL    HW2 2832   1.404   5.530   4.604
  645SOL     OW 2833   4.279   0.970   3.584
  645SOL    HW1 2834   4.370   0.978   3.543
  645SOL    HW2 2835   4.232   0.890   3.545
  646SOL     OW 2836   2.633   1.251   4.888
  646SOL    HW1 2837   2.563   1.226   4.955
  646SOL    HW2 2838   2.589   1.294   4.808
  647SOL     OW 2839   4.921   1.966   4.562
  647SOL    HW1 2840   4.928   2.057   4.521
  647SOL    HW2 2841   4.866   1.907   4.503
  648SOL     OW 2842   0.192   3.277   4.174
  648SOL    HW1 2843   0.126   3.284   4.100
  648SOL    HW2 2844   0.187   3.358   4.233
  649SOL     OW 2845   2.954   3.713   0.999
  649SOL    HW1 2846   2.884   3.653   1.038
  649SOL    HW2 2847   3.044   3.686   1.034
  650SOL     OW 2848   6.093   4.827   1.222
  650SOL    HW1 2849   6.055   4.773   1.147
  650SOL    HW2 2850   6.191   4.841   1.207
  651SOL     OW 2851   6.443   6.109   6.106
  651SOL    HW1 2852   6.437   6.009   6.098
  651SOL    HW2 2853   6.358   6.149   6.071
  652SOL     OW 2854   4.794   5.934   4.028
  652SOL    HW1 2855   4.793   5.845   3.984
  652SOL    HW2 2856   4.776   6.005   3.961
  653SOL     OW 2857   2.322   5.906   5.274
  653SOL    HW1 2858   2.236   5.866   5.306
  653SOL    HW2 2859   2.338   5.880   5.179
  654SOL     OW 2860   0.279   3.955   5.649
  654SOL    HW1 2861   0.371   3.916   5.647
  654SOL    HW2 2862   0.231   3.925   5.731
  655SOL     OW 2863   0.493   5.870   2.021
  655SOL    HW1 2864   0.560   5.804   1.990
  655SOL    HW2 2865   0.451   5.838   2.106
  656SOL     OW 2866   1.716   5.175   1.167
  656SOL    HW1 2867   1.697   5.236   1.090
  656SOL    HW2 2868   1.727   5.229   1.250
  657SOL     OW 2869   1.782   2.425   1.693
  657SOL    HW1 2870   1.702   2.446   1.637
  657SOL    HW2 2871   1.753   2.398   1.785
  658SOL     OW 2872   2.780   4.179   6.406
  658SOL    HW1 2873   2.719   4.253   6.436
  658SOL    HW2 2874   2.828   4.141   6.485
  659SOL     OW 2875   2.548   5.824   6.009
  659SOL    HW1 2876   2.493   5.769   5.947
  659SOL    HW2 2877   2.500   5.909   6.031
  660SOL     OW 2878   5.341   4.933   2.497
  660SOL    HW1 2879   5.419   4.989   2.526
  660SOL    HW2 2880   5.278   4.990   2.444
  661SOL     OW 2881   4.283   5.069   3.235
  661SOL    HW1 2882   4.206   5.085   3.173
  661SOL    HW2 2883   4.353   5.138   3.219
  662SOL     OW 2884   4.315   0.303   5.529
  662SOL    HW1 2885   4.287   0.374   5.593
  662SOL    HW2 2886   4.240   0.283   5.465
  663SOL     OW 2887   2.480   4.097   6.463
  663SOL    HW1 2888   2.561   4.074   6.516
  663SOL    HW2 2889   2.506   4.156   6.386
  664SOL     OW 2890   0.081   5.466   6.082
  664SOL    HW1 2891   0.069   5.400   6.008
  664SOL    HW2 2892   7.021   5.523   6.089
  665SOL     OW 2893   5.222   4.769   1.196
  665SOL    HW1 2894   5.313   4.806   1.180
  665SOL    HW2 2895   5.197   4.782   1.292
  666SOL     OW 2896   4.757   2.292   2.383
  666SOL    HW1 2897   4.676   2.332   2.340
  666SOL    HW2 2898   4.732   2.254   2.472
  667SOL     OW 2899   0.237   4.406   3.511
  667SOL    HW1 2900   0.146   4.445   3.496
  667SOL    HW2 2901   0.247   4.324   3.454
  668SOL     OW 2902   5.760   6.231   6.528
  668SOL    HW1 2903   5.692   6.194   6.464
  668SOL    HW2 2904   5.748   6.330   6.536
  669SOL     OW 2905   4.236   0.229   3.069
  669SOL    HW1 2906   4.211   0.294   3.141
  669SOL    HW2 2907   4.220   0.270   2.979
  670SOL     OW 2908   3.374   2.745   0.892
  670SOL    HW1 2909   3.396   2.815   0.960
  670SOL    HW2 2910   3.330   2.667   0.937
  671SOL     OW 2911   1.981   6.315   0.066
  671SOL    HW1 2912   1.948   6.275   7.003
  671SOL    HW2 2913   2.010   6.409   0.050
  672SOL     OW 2914   0.924   5.271   2.199
  672SOL    HW1 2915   0.933   5.187   2.145
  672SOL    HW2 2916   0.951   5.252   2.293
  673SOL     OW 2917   6.990   6.817   1.815
  673SOL    HW1 2918   6.963   6.826   1.911
  673SOL    HW2 2919   0.039   6.883   1.795
  674SOL     OW 2920   0.444   1.617   5.176
  674SOL    HW1 2921   0.381   1.631   5.100
  674SOL    HW2 2922   0.448   1.519   5.198
  675SOL     OW 2923   0.875   1.092   2.878
  675SOL    HW1 2924   0.790   1.056   2.839
  675SOL    HW2 2925   0.890   1.185   2.845
  676SOL     OW 2926   3.455   5.856   2.731
  676SOL    HW1 2927   3.447   5.772   2.678
  676SOL    HW2 2928   3.368   5.905   2.728
  677SOL     OW 2929   5.834   1.849   0.554
  677SOL    HW1 2930   5.877   1.833   0.643
  677SOL    HW2 2931   5.861   1.939   0.520
  678SOL     OW 2932   2.205   1.391   5.709
  678SOL    HW1 2933   2.189   1.485   5.679
  678SOL    HW2 2934   2.225   1.333   5.630
  679SOL     OW 2935   4.239   1.780   3.806
  679SOL    HW1 2936   4.248   1.861   3.864
  679SOL    HW2 2937   4.142   1.757   3.796
  680SOL     OW 2938   5.547   6.224   5.251
  680SOL    HW1 2939   5.619   6.163   5.284
  680SOL    HW2 2940   5.518   6.285   5.324
  681SOL     OW 2941   5.445   5.193   1.516
  681SOL    HW1 2942   5.445   5.148   1.605
  681SOL    HW2 2943   5.495   5.279   1.522
  682SOL     OW 2944   0.452   1.339   0.706
  682SOL    HW1 2945   0.415   1.263   0.653
  682SOL    HW2 2946   0.532   1.376   0.660
  683SOL     OW 2947   4.463   3.426   0.665
  683SOL    HW1 2948   4.463   3.382   0.755
  683SOL    HW2 2949   4.546   3.400   0.615
  684SOL     OW 2950   0.548   0.755   0.085
  684SOL    HW1 2951   0.622   0.693   0.061
  684SOL    HW2 2952   0.527   0.747   0.183
  685SOL     OW 2953   4.249   1.076   3.248
  685SOL    HW1 2954   4.159   1.119   3.246
  685SOL    HW2 2955   4.314   1.137   3.293
  686SOL     OW 2956   4.947   2.966   3.537
  686SOL    HW1 2957   4.876   2.980   3.469
  686SOL    HW2 2958   4.960   3.050   3.590
  687SOL     OW 2959   0.529   2.407   4.762
  687SOL    HW1 2960   0.494   2.390   4.670
  687SOL    HW2 2961   0.572   2.497   4.766
  688SOL     OW 2962   1.031   1.932   0.416
  688SOL    HW1 2963   1.045   2.031   0.417
  688SOL    HW2 2964   0.944   1.911   0.461
  689SOL     OW 2965   6.617   4.323   6.707
  689SOL    HW1 2966   6.561   4.321   6.624
  689SOL    HW2 2967   6.595   4.406   6.760
  690SOL     OW 2968   0.423   4.503   2.877
  690SOL    HW1 2969   0.435   4.578   2.812
  690SOL    HW2 2970   0.434   4.538   2.970
  691SOL     OW 2971   2.029   6.699   0.321
  691SOL    HW1 2972   2.046   6.650   0.407
  691SOL    HW2 2973   2.068   6.647   0.245
  692SOL     OW 2974   3.354   6.890   3.456
  692SOL    HW1 2975   3.294   6.956   3.411
  692SOL    HW2 2976   3.311   6.799   3.453
  693SOL     OW 2977   5.930   1.210   3.754
  693SOL    HW1 2978   5.945   1.167   3.665
  693SOL    HW2 2979   5.883   1.298   3.741
  694SOL     OW 2980   4.234   6.207   3.438
  694SOL    HW1 2981   4.182   6.281   3.480
  694SOL    HW2 2982   4.322   6.198   3.485
  695SOL     OW 2983   4.176   6.702   3.922
  695SOL    HW1 2984   4.214   6.705   4.015
  695SOL    HW2 2985   4.150   6.795   3.895
  696SOL     OW 2986   4.174   4.683   2.444
  696SOL    HW1 2987   4.112   4.742   2.392
  696SOL    HW2 2988   4.207   4.610   2.384
  697SOL     OW 2989   2.088   3.653   3.936
  697SOL    HW1 2990   2.090   3.639   3.837
  697SOL    HW2 2991   1.996   3.680   3.964
  698SOL     OW 2992   5.192   6.790   0.380
  698SOL    HW1 2993   5.151   6.716   0.433
  698SOL    HW2 2994   5.270   6.827   0.431
  699SOL     OW 2995   1.860   3.223   6.300
  699SOL    HW1 2996   1.783   3.172   6.338
  699SOL    HW2 2997   1.835   3.320   6.295
  700SOL     OW 2998   2.972   0.324   2.165
  700SOL    HW1 2999   2.882   0.318   2.123
  700SOL    HW2 3000   3.036   0.264   2.116
  701SOL     OW 3001   6.640   3.547   5.911
  701SOL    HW1 3002   6.734   3.579   5.918
  701SOL    HW2 3003   6.628   3.497   5.824
  702SOL     OW 3004   1.517   6.285   4.614
  702SOL    HW1 3005   1.463   6.287   4.698
  702SOL    HW2 3006   1.611   6.315   4.634
  703SOL     OW 3007   3.620   3.935   5.792
  703SOL    HW1 3008   3.556   3.887   5.851
  703SOL    HW2 3009   3.679   3.869   5.745
  704SOL     OW 3010   1.422   2.349   0.511
  704SOL    HW1 3011   1.430   2.445   0.484
  704SOL    HW2 3012   1.490   2.295   0.461
  705SOL     OW 3013   5.689   5.762   3.000
  705SOL    HW1 3014   5.720   5.667   2.987
  705SOL    HW2 3015   5.624   5.766   3.076
  706SOL     OW 3016   4.426   2.391   4.680
  706SOL    HW1 3017   4.437   2.437   4.768
  706SOL    HW2 3018   4.336   2.349   4.675
  707SOL     OW 3019   4.639   5.700   2.816
  707SOL    HW1 3020   4.729   5.677   2.780
  707SOL    HW2 3021   4.602   5.779   2.768
  708SOL     OW 3022   4.251   6.610   1.975
  708SOL    HW1 3023   4.323   6.679   1.971
  708SOL    HW2 3024   4.192   6.628   2.054
  709SOL     OW 3025   0.370   6.063   1.087
  709SOL    HW1 3026   0.271   6.065   1.072
  709SOL    HW2 3027   0.396   6.138   1.148
  710SOL     OW 3028   3.767   2.887   1.566
  710SOL    HW1 3029   3.860   2.857   1.585
  710SOL    HW2 3030   3.704   2.845   1.631
  711SOL     OW 3031   6.958   3.479   5.630
  711SOL    HW1 3032   0.021   3.522   5.602
  711SOL    HW2 3033   6.978   3.396   5.682
  712SOL     OW 3034   4.647   2.895   1.211
  712SOL    HW1 3035   4.671   2.799   1.227
  712SOL    HW2 3036   4.721   2.954   1.246
  713SOL     OW 3037   4.446   2.383   5.826
  713SOL    HW1 3038   4.492   2.442   5.760
  713SOL    HW2 3039   4.406   2.440   5.899
  714SOL     OW 3040   6.859   4.262   3.441
  714SOL    HW1 3041   6.869   4.254   3.540
  714SOL    HW2 3042   6.890   4.352   3.411
  715SOL     OW 3043   5.398   5.961   0.304
  715SOL    HW1 3044   5.299   5.974   0.302
  715SOL    HW2 3045   5.443   6.050   0.299
  716SOL     OW 3046   0.559   0.687   1.808
  716SOL    HW1 3047   0.642   0.632   1.802
  716SOL    HW2 3048   0.513   0.667   1.894
  717SOL     OW 3049   6.276   4.380   5.100
  717SOL    HW1 3050   6.256   4.403   5.004
  717SOL    HW2 3051   6.289   4.464   5.152
  718SOL     OW 3052   5.048   2.517   6.083
  718SOL    HW1 3053   5.105   2.544   6.160
  718SOL    HW2 3054   5.104   2.513   6.000
  719SOL     OW 3055   6.316   1.042   2.721
  719SOL    HW1 3056   6.237   1.068   2.666
  719SOL    HW2 3057   6.347   0.950   2.696
  720SOL     OW 3058   2.647   0.491   6.183
  720SOL    HW1 3059   2.600   0.428   6.121
  720SOL    HW2 3060   2.584   0.518   6.256
  721SOL     OW 3061   2.536   1.943   3.047
  721SOL    HW1 3062   2.592   1.874   3.001
  721SOL    HW2 3063   2.485   1.995   2.979
  722SOL     OW 3064   3.535   0.491   5.873
  722SOL    HW1 3065   3.467   0.459   5.807
  722SOL    HW2 3066   3.538   0.591   5.873
  723SOL     OW 3067   1.760   4.546   3.358
  723SOL    HW1 3068   1.857   4.540   3.378
  723SOL    HW2 3069   1.747   4.595   3.271
  724SOL     OW 3070   0.913   3.110   4.702
  724SOL    HW1 3071   0.878   3.022   4.733
  724SOL    HW2 3072   0.862   3.139   4.621
  725SOL     OW 3073   2.332   5.705   1.038
  725SOL    HW1 3074   2.259   5.636   1.044
  725SOL    HW2 3075   2.420   5.659   1.026
  726SOL     OW 3076   3.431   4.978   1.336
  726SOL    HW1 3077   3.421   4.879   1.347
  726SOL    HW2 3078   3.362   5.025   1.390
  727SOL     OW 3079   5.873   5.236   5.620
  727SOL    HW1 3080   5.947   5.267   5.560
  727SOL    HW2 3081   5.790   5.222   5.565
  728SOL     OW 3082   6.728   2.991   4.733
  728SOL    HW1 3083   6.681   2.903   4.738
  728SOL    HW2 3084   6.780   2.996   4.648
  729SOL     OW 3085   0.659   1.979   1.734
  729SOL    HW1 3086   0.654   2.037   1.815
  729SOL    HW2 3087   0.702   1.892   1.758
  730SOL     OW 3088   5.481   0.368   4.810
  730SOL    HW1 3089   5.454   0.302   4.740
  730SOL    HW2 3090   5.561   0.333   4.859
  731SOL     OW 3091   5.012   4.469   6.287
  731SOL    HW1 3092   5.005   4.553   6.341
  731SOL    HW2 3093   4.965   4.482   6.199
  732SOL     OW 3094   6.831   3.235   1.561
  732SOL    HW1 3095   6.828   3.220   1.660
  732SOL    HW2 3096   6.759   3.181   1.517
  733SOL     OW 3097   5.053   6.710   5.230
  733SOL    HW1 3098   5.145   6.679   5.255
  733SOL    HW2 3099   5.004   6.737   5.313
  734SOL     OW 3100   6.633   4.853   2.613
  734SOL    HW1 3101   6.604   4.911   2.537
  734SOL    HW2 3102   6.552   4.825   2.666
  735SOL     OW 3103   4.666   1.276   0.056
  735SOL    HW1 3104   4.680   1.375   0.054
  735SOL    HW2 3105   4.571   1.255   0.031
  736SOL     OW 3106   6.884   1.808   3.813
  736SOL    HW1 3107   6.914   1.713   3.802
  736SOL    HW2 3108   6.953   1.869   3.773
  737SOL     OW 3109   5.330   1.487   4.808
  737SOL    HW1 3110   5.240   1.501   4.767
  737SOL    HW2 3111   5.400   1.532   4.751
  738SOL     OW 3112   2.166   3.981   1.594
  738SOL    HW1 3113   2.191   3.898   1.543
  738SOL    HW2 3114   2.244   4.044   1.595
  739SOL     OW 3115   5.089   0.897   3.767
  739SOL    HW1 3116   5.107   0.934   3.858
  739SOL    HW2 3117   5.088   0.971   3.700
  740SOL     OW 3118   6.226   0.793   1.559
  740SOL    HW1 3119   6.220   0.752   1.468
  740SOL    HW2 3120   6.309   0.849   1.565
  741SOL     OW 3121   2.112   6.952   3.598
  741SOL    HW1 3122   2.090   6.863   3.640
  741SOL    HW2 3123   2.109   6.943   3.499
  742SOL     OW 3124   2.795   6.478   2.145
  742SOL    HW1 3125   2.890   6.467   2.176
  742SOL    HW2 3126   2.795   6.518   2.053
  743SOL     OW 3127   0.331   4.768   3.270
  743SOL    HW1 3128   0.236   4.757   3.243
  743SOL    HW2 3129   0.391   4.725   3.203
  744SOL     OW 3130   5.436   0.695   0.537
  744SOL    HW1 3131   5.365   0.624   0.542
  744SOL    HW2 3132   5.517   0.657   0.492
  745SOL     OW 3133   1.921   5.183   4.879
  745SOL    HW1 3134   1.951   5.092   4.908
  745SOL    HW2 3135   1.843   5.212   4.934
  746SOL     OW 3136   6.897   3.762   0.106
  746SOL    HW1 3137   6.992   3.793   0.098
  746SOL    HW2 3138   6.836   3.840   0.095
  747SOL     OW 3139   3.898   6.826   4.318
  747SOL    HW1 3140   3.799   6.832   4.308
  747SOL    HW2 3141   3.920   6.775   4.402
  748SOL     OW 3142   4.252   4.956   2.264
  748SOL    HW1 3143   4.244   5.031   2.198
  748SOL    HW2 3144   4.213   4.985   2.351
  749SOL     OW 3145   5.854   3.324   4.807
  749SOL    HW1 3146   5.778   3.332   4.742
  749SOL    HW2 3147   5.885   3.416   4.832
  750SOL     OW 3148   2.331   2.186   1.423
  750SOL    HW1 3149   2.257   2.243   1.389
  750SOL    HW2 3150   2.297   2.092   1.436
  751SOL     OW 3151   3.691   2.071   0.236
  751SOL    HW1 3152   3.710   2.005   0.163
  751SOL    HW2 3153   3.776   2.092   0.285
  752SOL     OW 3154   3.573   1.398   1.739
  752SOL    HW1 3155   3.614   1.321   1.690
  752SOL    HW2 3156   3.607   1.484   1.700
  753SOL     OW 3157   1.946   3.189   5.644
  753SOL    HW1 3158   1.929   3.181   5.546
  753SOL    HW2 3159   2.043   3.208   5.659
  754SOL     OW 3160   4.855   2.399   5.474
  754SOL    HW1 3161   4.813   2.316   5.511
  754SOL    HW2 3162   4.806   2.479   5.510
  755SOL     OW 3163   1.285   4.689   5.597
  755SOL    HW1 3164   1.347   4.699   5.675
  755SOL    HW2 3165   1.305   4.760   5.530
  756SOL     OW 3166   3.010   6.663   6.671
  756SOL    HW1 3167   2.986   6.747   6.623
  756SOL    HW2 3168   3.101   6.672   6.710
  757SOL     OW 3169   0.173   0.450   4.295
  757SOL    HW1 3170   0.228   0.388   4.351
  757SOL    HW2 3171   0.082   0.460   4.334
  758SOL     OW 3172   3.144   0.180   2.838
  758SOL    HW1 3173   3.189   0.136   2.759
  758SOL    HW2 3174   3.050   0.203   2.814
  759SOL     OW 3175   0.341   1.629   2.107
  759SOL    HW1 3176   0.268   1.632   2.039
  759SOL    HW2 3177   0.301   1.618   2.198
  760SOL     OW 3178   6.311   7.018   4.413
  760SOL    HW1 3179   6.277   6.937   4.365
  760SOL    HW2 3180   6.318   6.999   4.511
  761SOL     OW 3181   5.387   3.934   6.030
  761SOL    HW1 3182   5.344   4.024   6.038
  761SOL    HW2 3183   5.342   3.881   5.959
  762SOL     OW 3184   1.747   6.750   4.585
  762SOL    HW1 3185   1.838   6.749   4.626
  762SOL    HW2 3186   1.708   6.658   4.589
  763SOL     OW 3187   4.075   5.148   5.858
  763SOL    HW1 3188   4.070   5.056   5.897
  763SOL    HW2 3189   4.125   5.208   5.920
  764SOL     OW 3190   5.191   0.690   5.157
  764SOL    HW1 3191   5.281   0.718   5.190
  764SOL    HW2 3192   5.126   0.688   5.233
  765SOL     OW 3193   1.812   5.515   1.661
  765SOL    HW1 3194   1.885   5.489   1.725
  765SOL    HW2 3195   1.772   5.601   1.690
  766SOL     OW 3196   2.723   2.531   5.920
  766SOL    HW1 3197   2.652   2.507   5.853
  766SOL    HW2 3198   2.680   2.559   6.005
  767SOL     OW 3199   6.510   5.891   2.227
  767SOL    HW1 3200   6.529   5.977   2.273
  767SOL    HW2 3201   6.435   5.904   2.162
  768SOL     OW 3202   2.469   6.010   2.574
  768SOL    HW1 3203   2.384   6.056   2.601
  768SOL    HW2 3204   2.466   5.991   2.476
  769SOL     OW 3205   2.265   0.803   5.371
  769SOL    HW1 3206   2.245   0.874   5.304
  769SOL    HW2 3207   2.343   0.748   5.340
  770SOL     OW 3208   1.857   4.373   3.033
  770SOL    HW1 3209   1.784   4.438   3.011
  770SOL    HW2 3210   1.945   4.411   3.003
  771SOL     OW 3211   1.407   4.950   3.055
  771SOL    HW1 3212   1.328   4.934   2.995
  771SOL    HW2 3213   1.476   5.003   3.006
  772SOL     OW 3214   5.270   5.454   6.947
  772SOL    HW1 3215   5.327   5.469   6.866
  772SOL    HW2 3216   5.190   5.513   6.943
  773SOL     OW 3217   0.088   4.106   3.695
  773SOL    HW1 3218   0.041   4.143   3.775
  773SOL    HW2 3219   0.020   4.068   3.631
  774SOL     OW 3220   2.098   1.563   2.112
  774SOL    HW1 3221   2.042   1.480   2.109
  774SOL    HW2 3222   2.194   1.538   2.123
  775SOL     OW 3223   1.672   2.855   3.691
  775SOL    HW1 3224   1.749   2.796   3.666
  775SOL    HW2 3225   1.668   2.864   3.790
  776SOL     OW 3226   1.180   6.982   5.999
  776SOL    HW1 3227   1.176   0.059   5.999
  776SOL    HW2 3228   1.108   6.946   6.060
  777SOL     OW 3229   1.955   4.416   1.909
  777SOL    HW1 3230   1.971   4.379   1.817
  777SOL    HW2 3231   1.862   4.392   1.938
  778SOL     OW 3232   2.663   1.334   1.963
  778SOL    HW1 3233   2.658   1.272   1.885
  778SOL    HW2 3234   2.673   1.281   2.047
  779SOL     OW 3235   6.265   2.683   2.107
  779SOL    HW1 3236   6.279   2.591   2.069
  779SOL    HW2 3237   6.298   2.750   2.041
  780SOL     OW 3238   0.486   3.774   3.809
  780SOL    HW1 3239   0.540   3.703   3.854
  780SOL    HW2 3240   0.547   3.843   3.770
  781SOL     OW 3241   6.399   6.936   0.300
  781SOL    HW1 3242   6.337   6.967   0.372
  781SOL    HW2 3243   6.355   6.864   0.246
  782SOL     OW 3244   1.147   3.783   6.630
  782SOL    HW1 3245   1.231   3.770   6.577
  782SOL    HW2 3246   1.107   3.872   6.609
  783SOL     OW 3247   4.701   4.866   2.064
  783SOL    HW1 3248   4.654   4.785   2.030
  783SOL    HW2 3249   4.779   4.839   2.121
  784SOL     OW 3250   4.709   4.874   0.731
  784SOL    HW1 3251   4.796   4.826   0.739
  784SOL    HW2 3252   4.711   4.956   0.789
  785SOL     OW 3253   0.202   2.390   3.469
  785SOL    HW1 3254   0.240   2.385   3.561
  785SOL    HW2 3255   0.109   2.352   3.469
  786SOL     OW 3256   1.118   0.553   2.959
  786SOL    HW1 3257   1.087   0.609   3.036
  786SOL    HW2 3258   1.039   0.525   2.905
  787SOL     OW 3259   1.601   0.119   0.018
  787SOL    HW1 3260   1.518   0.069   0.043
  787SOL    HW2 3261   1.661   0.061   6.987
  788SOL     OW 3262   3.580   1.591   6.991
  788SOL    HW1 3263   3.492   1.615   0.010
  788SOL    HW2 3264   3.611   1.503   0.003
  789SOL     OW 3265   4.659   4.150   1.232
  789SOL    HW1 3266   4.619   4.135   1.142
  789SOL    HW2 3267   4.747   4.195   1.223
  790SOL     OW 3268   2.290   1.094   3.305
  790SOL    HW1 3269   2.243   1.006   3.308
  790SOL    HW2 3270   2.243   1.160   3.363
  791SOL     OW 3271   1.492   5.589   4.310
  791SOL    HW1 3272   1.448   5.603   4.221
  791SOL    HW2 3273   1.541   5.673   4.336
  792SOL     OW 3274   0.700   0.870   1.284
  792SOL    HW1 3275   0.800   0.865   1.293
  792SOL    HW2 3276   0.660   0.884   1.375
  793SOL     OW 3277   4.842   5.030   3.467
  793SOL    HW1 3278   4.877   5.047   3.375
  793SOL    HW2 3279   4.919   5.022   3.530
  794SOL     OW 3280   2.966   3.973   5.626
  794SOL    HW1 3281   3.008   3.934   5.543
  794SOL    HW2 3282   2.953   3.900   5.693
  795SOL     OW 3283   3.361   6.692   4.579
  795SOL    HW1 3284   3.432   6.740   4.630
  795SOL    HW2 3285   3.402   6.629   4.514
  796SOL     OW 3286   0.018   2.274   6.294
  796SOL    HW1 3287   0.041   2.371   6.289
  796SOL    HW2 3288   0.095   2.220   6.261
  797SOL     OW 3289   5.777   2.759   0.986
  797SOL    HW1 3290   5.841   2.742   1.061
  797SOL    HW2 3291   5.793   2.692   0.914
  798SOL     OW 3292   3.720   5.818   2.094
  798SOL    HW1 3293   3.677   5.810   2.184
  798SOL    HW2 3294   3.707   5.911   2.059
  799SOL     OW 3295   0.177   6.840   6.014
  799SOL    HW1 3296   0.188   6.907   5.941
  799SOL    HW2 3297   0.114   6.875   6.083
  800SOL     OW 3298   5.457   1.736   2.948
  800SOL    HW1 3299   5.411   1.647   2.959
  800SOL    HW2 3300   5.467   1.780   3.038
  801SOL     OW 3301   2.061   4.472   4.643
  801SOL    HW1 3302   2.069   4.440   4.548
  801SOL    HW2 3303   2.062   4.393   4.705
  802SOL     OW 3304   2.694   2.115   1.071
  802SOL    HW1 3305   2.619   2.173   1.102
  802SOL    HW2 3306   2.739   2.158   0.993
  803SOL     OW 3307   0.992   0.350   5.792
  803SOL    HW1 3308   0.942   0.263   5.784
  803SOL    HW2 3309   0.946   0.409   5.858
  804SOL     OW 3310   5.868   6.265   0.006
  804SOL    HW1 3311   5.875   6.236   6.933
  804SOL    HW2 3312   5.800   6.209   0.052
  805SOL     OW 3313   3.287   0.773   3.914
  805SOL    HW1 3314   3.356   0.815   3.973
  805SOL    HW2 3315   3.220   0.842   3.887
  806SOL     OW 3316   4.838   1.442   4.118
  806SOL    HW1 3317   4.789   1.397   4.043
  806SOL    HW2 3318   4.911   1.382   4.151
  807SOL     OW 3319   1.374   1.037   4.847
  807SOL    HW1 3320   1.298   0.978   4.875
  807SOL    HW2 3321   1.377   1.042   4.748
  808SOL     OW 3322   3.981   3.724   6.346
  808SOL    HW1 3323   3.887   3.728   6.310
  808SOL    HW2 3324   3.980   3.677   6.434
  809SOL     OW 3325   0.624   4.718   1.422
  809SOL    HW1 3326   0.681   4.648   1.379
  809SOL    HW2 3327   0.577   4.771   1.351
  810SOL     OW 3328   3.586   3.789   1.164
  810SOL    HW1 3329   3.580   3.695   1.197
  810SOL    HW2 3330   3.543   3.796   1.074
  811SOL     OW 3331   5.237   5.672   5.427
  811SOL    HW1 3332   5.206   5.595   5.482
  811SOL    HW2 3333   5.290   5.735   5.485
  812SOL     OW 3334   0.117   0.717   2.450
  812SOL    HW1 3335   0.067   0.636   2.479
  812SOL    HW2 3336   0.069   0.762   2.375
  813SOL     OW 3337   4.109   0.187   4.140
  813SOL    HW1 3338   4.131   0.095   4.173
  813SOL    HW2 3339   4.082   0.182   4.044
  814SOL     OW 3340   5.775   6.306   2.850
  814SOL    HW1 3341   5.838   6.356   2.791
  814SOL    HW2 3342   5.686   6.352   2.851
  815SOL     OW 3343   0.341   3.421   3.498
  815SOL    HW1 3344   0.412   3.478   3.459
  815SOL    HW2 3345   0.331   3.442   3.596
  816SOL     OW 3346   6.173   6.233   0.531
  816SOL    HW1 3347   6.208   6.305   0.591
  816SOL    HW2 3348   6.092   6.267   0.482
  817SOL     OW 3349   1.672   5.342   0.970
  817SOL    HW1 3350   1.711   5.414   0.913
  817SOL    HW2 3351   1.576   5.362   0.989
  818SOL     OW 3352   6.144   2.527   3.027
  818SOL    HW1 3353   6.125   2.564   2.936
  818SOL    HW2 3354   6.161   2.602   3.090
  819SOL     OW 3355   6.015   2.791   2.428
  819SOL    HW1 3356   5.972   2.704   2.403
  819SOL    HW2 3357   6.114   2.783   2.423
  820SOL     OW 3358   3.873   2.107   5.045
  820SOL    HW1 3359   3.886   2.108   5.144
  820SOL    HW2 3360   3.776   2.093   5.024
  821SOL     OW 3361   0.227   4.199   1.112
  821SOL    HW1 3362   0.265   4.107   1.121
  821SOL    HW2 3363   0.129   4.197   1.130
  822SOL     OW 3364   0.861   3.888   3.776
  822SOL    HW1 3365   0.830   3.794   3.787
  822SOL    HW2 3366   0.884   3.926   3.866
  823SOL     OW 3367   5.311   3.958   6.644
  823SOL    HW1 3368   5.329   4.043   6.595
  823SOL    HW2 3369   5.250   3.900   6.589
  824SOL     OW 3370   4.624   1.493   6.868
  824SOL    HW1 3371   4.622   1.419   6.801
  824SOL    HW2 3372   4.531   1.525   6.886
  825SOL     OW 3373   6.458   4.889   1.542
  825SOL    HW1 3374   6.448   4.889   1.642
  825SOL    HW2 3375   6.529   4.953   1.515
  826SOL     OW 3376   3.990   3.031   5.827
  826SOL    HW1 3377   3.992   3.131   5.829
  826SOL    HW2 3378   4.062   2.996   5.886
  827SOL     OW 3379   2.821   4.450   5.597
  827SOL    HW1 3380   2.749   4.480   5.659
  827SOL    HW2 3381   2.812   4.497   5.509
  828SOL     OW 3382   5.507   6.270   0.320
  828SOL    HW1 3383   5.441   6.251   0.393
  828SOL    HW2 3384   5.486   6.359   0.279
  829SOL     OW 3385   3.784   3.682   2.537
  829SOL    HW1 3386   3.883   3.680   2.524
  829SOL    HW2 3387   3.753   3.777   2.544
  830SOL     OW 3388   5.472   4.868   6.900
  830SOL    HW1 3389   5.401   4.925   6.857
  830SOL    HW2 3390   5.492   4.790   6.841
  831SOL     OW 3391   6.483   0.375   0.427
  831SOL    HW1 3392   6.487   0.473   0.443
  831SOL    HW2 3393   6.413   0.356   0.357
  832SOL     OW 3394   4.431   0.865   2.526
  832SOL    HW1 3395   4.392   0.791   2.581
  832SOL    HW2 3396   4.396   0.953   2.559
  833SOL     OW 3397   1.041   4.004   6.503
  833SOL    HW1 3398   1.100   4.060   6.444
  833SOL    HW2 3399   0.947   4.009   6.469
  834SOL     OW 3400   3.907   4.195   0.966
  834SOL    HW1 3401   3.827   4.185   1.026
  834SOL    HW2 3402   3.970   4.119   0.982
  835SOL     OW 3403   3.636   0.100   5.912
  835SOL    HW1 3404   3.640   0.053   6.000
  835SOL    HW2 3405   3.616   0.033   5.840
  836SOL     OW 3406   4.065   6.098   5.563
  836SOL    HW1 3407   4.086   6.196   5.552
  836SOL    HW2 3408   4.004   6.086   5.641
  837SOL     OW 3409   5.461   0.515   1.190
  837SOL    HW1 3410   5.435   0.539   1.284
  837SOL    HW2 3411   5.388   0.461   1.148
  838SOL     OW 3412   2.279   0.809   4.580
  838SOL    HW1 3413   2.287   0.806   4.480
  838SOL    HW2 3414   2.367   0.830   4.621
  839SOL     OW 3415   1.400   1.653   2.479
  839SOL    HW1 3416   1.482   1.705   2.458
  839SOL    HW2 3417   1.374   1.597   2.400
  840SOL     OW 3418   0.022   5.835   0.123
  840SOL    HW1 3419   6.969   5.830   0.058
  840SOL    HW2 3420   0.047   5.743   0.152
  841SOL     OW 3421   3.530   5.025   6.968
  841SOL    HW1 3422   3.462   4.952   6.978
  841SOL    HW2 3423   3.492   5.110   7.006
  842SOL     OW 3424   3.831   0.232   4.341
  842SOL    HW1 3425   3.751   0.173   4.329
  842SOL    HW2 3426   3.848   0.283   4.256
  843SOL     OW 3427   0.984   1.106   1.570
  843SOL    HW1 3428   0.956   1.169   1.497
  843SOL    HW2 3429   1.052   1.042   1.534
  844SOL     OW 3430   5.724   0.510   0.426
  844SOL    HW1 3431   5.764   0.534   0.514
  844SOL    HW2 3432   5.754   0.418   0.399
  845SOL     OW 3433   4.790   4.337   4.417
  845SOL    HW1 3434   4.859   4.388   4.469
  845SOL    HW2 3435   4.703   4.341   4.466
  846SOL     OW 3436   1.946   1.558   6.157
  846SOL    HW1 3437   1.886   1.479   6.140
  846SOL    HW2 3438   1.997   1.580   6.074
  847SOL     OW 3439   1.171   2.972   1.560
  847SOL    HW1 3440   1.225   3.043   1.605
  847SOL    HW2 3441   1.092   3.012   1.516
  848SOL     OW 3442   6.416   0.188   5.910
  848SOL    HW1 3443   6.353   0.125   5.866
  848SOL    HW2 3444   6.506   0.180   5.868
  849SOL     OW 3445   6.589   3.847   5.782
  849SOL    HW1 3446   6.594   3.772   5.848
  849SOL    HW2 3447   6.496   3.884   5.780
  850SOL     OW 3448   5.134   1.005   3.507
  850SOL    HW1 3449   5.222   1.045   3.532
  850SOL    HW2 3450   5.148   0.931   3.441
  851SOL     OW 3451   6.834   2.288   2.679
  851SOL    HW1 3452   6.858   2.215   2.743
  851SOL    HW2 3453   6.735   2.298   2.675
  852SOL     OW 3454   0.977   3.657   0.249
  852SOL    HW1 3455   1.062   3.657   0.197
  852SOL    HW2 3456   0.974   3.578   0.310
  853SOL     OW 3457   0.778   4.801   0.885
  853SOL    HW1 3458   0.767   4.855   0.801
  853SOL    HW2 3459   0.866   4.753   0.882
  854SOL     OW 3460   5.587   4.866   0.978
  854SOL    HW1 3461   5.510   4.909   1.024
  854SOL    HW2 3462   5.660   4.848   1.045
  855SOL     OW 3463   6.517   7.017   1.597
  855SOL    HW1 3464   6.518   6.996   1.695
  855SOL    HW2 3465   6.446   6.963   1.553
  856SOL     OW 3466   1.064   2.448   5.596
  856SOL    HW1 3467   0.973   2.468   5.633
  856SOL    HW2 3468   1.111   2.534   5.576
  857SOL     OW 3469   6.235   4.662   2.191
  857SOL    HW1 3470   6.252   4.566   2.169
  857SOL    HW2 3471   6.137   4.681   2.184
  858SOL     OW 3472   2.668   3.313   1.099
  858SOL    HW1 3473   2.582   3.345   1.140
  858SOL    HW2 3474   2.671   3.339   1.003
  859SOL     OW 3475   5.848   6.619   4.963
  859SOL    HW1 3476   5.770   6.612   5.026
  859SOL    HW2 3477   5.821   6.671   4.882
  860SOL     OW 3478   5.905   2.922   0.563
  860SOL    HW1 3479   5.936   3.001   0.511
  860SOL    HW2 3480   5.973   2.898   0.632
  861SOL     OW 3481   2.660   5.972   3.323
  861SOL    HW1 3482   2.653   5.883   3.369
  861SOL    HW2 3483   2.644   6.045   3.390
  862SOL     OW 3484   1.535   3.578   4.657
  862SOL    HW1 3485   1.590   3.613   4.732
  862SOL    HW2 3486   1.574   3.608   4.570
  863SOL     OW 3487   5.971   1.501   0.691
  863SOL    HW1 3488   6.043   1.556   0.647
  863SOL    HW2 3489   5.889   1.558   0.702
  864SOL     OW 3490   4.141   5.533   3.923
  864SOL    HW1 3491   4.189   5.448   3.899
  864SOL    HW2 3492   4.196   5.611   3.894
  865SOL     OW 3493   1.501   6.518   5.849
  865SOL    HW1 3494   1.487   6.432   5.897
  865SOL    HW2 3495   1.486   6.594   5.912
  866SOL     OW 3496   2.460   1.687   2.338
  866SOL    HW1 3497   2.522   1.674   2.415
  866SOL    HW2 3498   2.493   1.763   2.282
  867SOL     OW 3499   4.703   3.659   0.564
  867SOL    HW1 3500   4.758   3.613   0.494
  867SOL    HW2 3501   4.716   3.613   0.651
  868SOL     OW 3502   5.597   1.172   0.604
  868SOL    HW1 3503   5.608   1.073   0.610
  868SOL    HW2 3504   5.627   1.203   0.513
  869SOL     OW 3505   0.537   4.101   3.105
  869SOL    HW1 3506   0.448   4.069   3.074
  869SOL    HW2 3507   0.528   4.143   3.196
  870SOL     OW 3508   4.007   2.860   0.552
  870SOL    HW1 3509   3.936   2.930   0.538
  870SOL    HW2 3510   4.097   2.901   0.539
  871SOL     OW 3511   4.442   2.253   2.512
  871SOL    HW1 3512   4.387   2.170   2.504
  871SOL    HW2 3513   4.447   2.298   2.423
  872SOL     OW 3514   5.324   3.233   3.974
  872SOL    HW1 3515   5.274   3.147   3.962
  872SOL    HW2 3516   5.384   3.249   3.896
  873SOL     OW 3517   5.906   6.540   4.484
  873SOL    HW1 3518   5.848   6.598   4.427
  873SOL    HW2 3519   5.917   6.583   4.574
  874SOL     OW 3520   0.903   4.212   5.932
  874SOL    HW1 3521   0.952   4.293   5.901
  874SOL    HW2 3522   0.813   4.208   5.889
  875SOL     OW 3523   4.723   4.058   0.519
  875SOL    HW1 3524   4.700   3.979   0.462
  875SOL    HW2 3525   4.638   4.096   0.557
  876SOL     OW 3526   0.695   4.176   2.157
  876SOL    HW1 3527   0.657   4.115   2.088
  876SOL    HW2 3528   0.620   4.214   2.212
  877SOL     OW 3529   3.654   4.393   5.887
  877SOL    HW1 3530   3.716   4.317   5.905
  877SOL    HW2 3531   3.673   4.432   5.797
  878SOL     OW 3532   3.452   6.301   5.311
  878SOL    HW1 3533   3.400   6.257   5.237
  878SOL    HW2 3534   3.389   6.334   5.381
  879SOL     OW 3535   3.217   1.962   0.642
  879SOL    HW1 3536   3.149   2.004   0.581
  879SOL    HW2 3537   3.273   2.034   0.683
  880SOL     OW 3538   3.232   3.971   4.329
  880SOL    HW1 3539   3.327   3.940   4.330
  880SOL    HW2 3540   3.210   4.014   4.417
  881SOL     OW 3541   5.118   4.093   5.463
  881SOL    HW1 3542   5.024   4.125   5.447
  881SOL    HW2 3543   5.138   4.018   5.400
  882SOL     OW 3544   0.801   2.548   4.612
  882SOL    HW1 3545   0.855   2.520   4.692
  882SOL    HW2 3546   0.806   2.478   4.541
  883SOL     OW 3547   4.189   0.302   0.227
  883SOL    HW1 3548   4.254   0.351   0.285
  883SOL    HW2 3549   4.193   0.204   0.247
  884SOL     OW 3550   6.914   4.272   7.000
  884SOL    HW1 3551   6.903   4.307   0.070
  884SOL    HW2 3552   6.832   4.220   6.974
  885SOL     OW 3553   4.978   6.328   5.717
  885SOL    HW1 3554   4.923   6.405   5.752
  885SOL    HW2 3555   4.919   6.267   5.664
  886SOL     OW 3556   4.140   0.901   1.194
  886SOL    HW1 3557   4.219   0.963   1.199
  886SOL    HW2 3558   4.116   0.885   1.099
  887SOL     OW 3559   4.135   5.489   3.562
  887SOL    HW1 3560   4.098   5.558   3.500
  887SOL    HW2 3561   4.063   5.459   3.625
  888SOL     OW 3562   6.704   6.213   2.588
  888SOL    HW1 3563   6.625   6.182   2.535
  888SOL    HW2 3564   6.743   6.136   2.639
  889SOL     OW 3565   0.603   0.568   6.104
  889SOL    HW1 3566   0.556   0.575   6.192
  889SOL    HW2 3567   0.684   0.625   6.105
  890SOL     OW 3568   2.006   4.876   2.131
  890SOL    HW1 3569   1.986   4.818   2.210
  890SOL    HW2 3570   1.926   4.879   2.071
  891SOL     OW 3571   6.618   3.809   0.394
  891SOL    HW1 3572   6.595   3.760   0.478
  891SOL    HW2 3573   6.571   3.766   0.317
  892SOL     OW 3574   3.882   3.975   5.145
  892SOL    HW1 3575   3.959   3.919   5.114
  892SOL    HW2 3576   3.906   4.071   5.137
  893SOL     OW 3577   1.890   0.387   2.839
  893SOL    HW1 3578   1.988   0.396   2.856
  893SOL    HW2 3579   1.849   0.478   2.837
  894SOL     OW 3580   1.222   2.816   3.111
  894SOL    HW1 3581   1.275   2.883   3.163
  894SOL    HW2 3582   1.219   2.730   3.161
  895SOL     OW 3583   1.650   5.463   3.289
  895SOL    HW1 3584   1.746   5.484   3.307
  895SOL    HW2 3585   1.627   5.489   3.195
  896SOL     OW 3586   5.918   6.010   1.600
  896SOL    HW1 3587   6.011   5.977   1.580
  896SOL    HW2 3588   5.916   6.050   1.691
  897SOL     OW 3589   4.573   0.296   6.756
  897SOL    HW1 3590   4.491   0.240   6.770
  897SOL    HW2 3591   4.567   0.378   6.814
  898SOL     OW 3592   3.554   5.883   2.389
  898SOL    HW1 3593   3.483   5.867   2.458
  898SOL    HW2 3594   3.522   5.950   2.323
  899SOL     OW 3595   0.301   5.603   0.516
  899SOL    HW1 3596   0.252   5.632   0.598
  899SOL    HW2 3597   0.246   5.622   0.435
  900SOL     OW 3598   4.844   6.299   6.663
  900SOL    HW1 3599   4.798   6.319   6.577
  900SOL    HW2 3600   4.943   6.307   6.651
  901SOL     OW 3601   1.273   0.647   4.698
  901SOL    HW1 3602   1.348   0.674   4.758
  901SOL    HW2 3603   1.256   0.548   4.706
  902SOL     OW 3604   0.935   2.689   1.301
  902SOL    HW1 3605   0.993   2.610   1.280
  902SOL    HW2 3606   0.992   2.771   1.310
  903SOL     OW 3607   0.536   2.734   6.507
  903SOL    HW1 3608   0.588   2.660   6.463
  903SOL    HW2 3609   0.460   2.761   6.448
  904SOL     OW 3610   2.178   2.624   2.437
  904SOL    HW1 3611   2.256   2.623   2.374
  904SOL    HW2 3612   2.211   2.629   2.531
  905SOL     OW 3613   5.286   4.498   6.416
  905SOL    HW1 3614   5.273   4.555   6.335
  905SOL    HW2 3615   5.287   4.401   6.389
  906SOL     OW 3616   1.176   3.146   6.532
  906SOL    HW1 3617   1.274   3.124   6.526
  906SOL    HW2 3618   1.131   3.120   6.446
  907SOL     OW 3619   5.175   2.613   2.216
  907SOL    HW1 3620   5.081   2.617   2.250
  907SOL    HW2 3621   5.197   2.698   2.170
  908SOL     OW 3622   2.709   5.083   2.717
  908SOL    HW1 3623   2.654   5.155   2.760
  908SOL    HW2 3624   2.711   5.098   2.618
  909SOL     OW 3625   3.286   5.522   1.922
  909SOL    HW1 3626   3.238   5.578   1.855
  909SOL    HW2 3627   3.378   5.559   1.936
  910SOL     OW 3628   2.926   0.888   1.026
  910SOL    HW1 3629   2.897   0.793   1.037
  910SOL    HW2 3630   3.025   0.894   1.038
  911SOL     OW 3631   0.440   5.427   6.772
  911SOL    HW1 3632   0.480   5.499   6.827
  911SOL    HW2 3633   0.348   5.406   6.806
  912SOL     OW 3634   5.062   0.428   3.742
  912SOL    HW1 3635   5.110   0.449   3.657
  912SOL    HW2 3636   5.119   0.369   3.799
  913SOL     OW 3637   2.438   1.082   3.915
  913SOL    HW1 3638   2.507   1.126   3.857
  913SOL    HW2 3639   2.429   0.986   3.889
  914SOL     OW 3640   2.747   6.027   5.526
  914SOL    HW1 3641   2.809   5.958   5.491
  914SOL    HW2 3642   2.657   6.016   5.484
  915SOL     OW 3643   1.226   3.192   0.902
  915SOL    HW1 3644   1.292   3.206   0.828
  915SOL    HW2 3645   1.251   3.249   0.980
  916SOL     OW 3646   2.210   2.919   2.401
  916SOL    HW1 3647   2.193   3.017   2.389
  916SOL    HW2 3648   2.243   2.879   2.315
  917SOL     OW 3649   6.011   1.180   2.923
  917SOL    HW1 3650   6.024   1.081   2.915
  917SOL    HW2 3651   6.095   1.226   2.896
  918SOL     OW 3652   3.341   0.028   0.937
  918SOL    HW1 3653   3.275   0.014   0.864
  918SOL    HW2 3654   3.376   0.122   0.933
  919SOL     OW 3655   6.332   6.232   3.600
  919SOL    HW1 3656   6.385   6.192   3.675
  919SOL    HW2 3657   6.285   6.160   3.549
  920SOL     OW 3658   2.266   4.657   2.622
  920SOL    HW1 3659   2.364   4.639   2.633
  920SOL    HW2 3660   2.230   4.696   2.707
  921SOL     OW 3661   4.218   4.746   3.133
  921SOL    HW1 3662   4.121   4.743   3.106
  921SOL    HW2 3663   4.267   4.672   3.088
  922SOL     OW 3664   3.540   3.759   5.424
  922SOL    HW1 3665   3.617   3.808   5.465
  922SOL    HW2 3666   3.460   3.818   5.422
  923SOL     OW 3667   2.853   4.427   5.906
  923SOL    HW1 3668   2.927   4.426   5.838
  923SOL    HW2 3669   2.787   4.355   5.885
  924SOL     OW 3670   5.825   2.672   3.094
  924SOL    HW1 3671   5.870   2.662   3.006
  924SOL    HW2 3672   5.775   2.758   3.097
  925SOL     OW 3673   0.341   1.564   6.540
  925SOL    HW1 3674   0.419   1.546   6.481
  925SOL    HW2 3675   0.340   1.498   6.615
  926SOL     OW 3676   6.153   1.214   1.000
  926SOL    HW1 3677   6.183   1.134   1.052
  926SOL    HW2 3678   6.232   1.273   0.981
  927SOL     OW 3679   5.685   3.874   3.277
  927SOL    HW1 3680   5.747   3.905   3.349
  927SOL    HW2 3681   5.600   3.840   3.318
  928SOL     OW 3682   1.063   6.046   0.404
  928SOL    HW1 3683   1.132   6.022   0.336
  928SOL    HW2 3684   0.972   6.040   0.364
  929SOL     OW 3685   0.563   0.810   1.041
  929SOL    HW1 3686   0.590   0.828   1.135
  929SOL    HW2 3687   0.542   0.713   1.030
  930SOL     OW 3688   5.320   6.040   3.777
  930SOL    HW1 3689   5.302   5.982   3.857
  930SOL    HW2 3690   5.320   6.136   3.805
  931SOL     OW 3691   5.747   1.870   3.939
  931SOL    HW1 3692   5.764   1.944   3.873
  931SOL    HW2 3693   5.746   1.783   3.890
  932SOL     OW 3694   2.548   6.784   3.589
  932SOL    HW1 3695   2.509   6.866   3.546
  932SOL    HW2 3696   2.508   6.773   3.681
  933SOL     OW 3697   1.778   5.598   3.552
  933SOL    HW1 3698   1.726   5.515   3.570
  933SOL    HW2 3699   1.728   5.677   3.586
  934SOL     OW 3700   1.379   6.869   6.314
  934SOL    HW1 3701   1.361   6.772   6.298
  934SOL    HW2 3702   1.410   6.912   6.229
  935SOL     OW 3703   4.336   4.679   4.556
  935SOL    HW1 3704   4.353   4.615   4.481
  935SOL    HW2 3705   4.386   4.649   4.637
  936SOL     OW 3706   1.148   6.958   6.537
  936SOL    HW1 3707   1.077   6.892   6.559
  936SOL    HW2 3708   1.212   6.919   6.471
  937SOL     OW 3709   5.378   1.301   5.162
  937SOL    HW1 3710   5.374   1.359   5.243
  937SOL    HW2 3711   5.289   1.257   5.147
  938SOL     OW 3712   6.449   5.327   5.992
  938SOL    HW1 3713   6.541   5.295   5.970
  938SOL    HW2 3714   6.435   5.418   5.954
  939SOL     OW 3715   6.733   6.595   5.545
  939SOL    HW1 3716   6.753   6.532   5.470
  939SOL    HW2 3717   6.683   6.674   5.510
  940SOL     OW 3718   0.282   3.182   1.914
  940SOL    HW1 3719   0.376   3.147   1.918
  940SOL    HW2 3720   0.284   3.281   1.899
  941SOL     OW 3721   5.401   1.230   6.116
  941SOL    HW1 3722   5.427   1.134   6.129
  941SOL    HW2 3723   5.481   1.289   6.129
  942SOL     OW 3724   4.832   0.139   3.129
  942SOL    HW1 3725   4.787   0.228   3.116
  942SOL    HW2 3726   4.860   0.103   3.039
  943SOL     OW 3727   2.104   3.607   4.226
  943SOL    HW1 3728   2.108   3.511   4.254
  943SOL    HW2 3729   2.124   3.614   4.128
  944SOL     OW 3730   0.359   4.691   5.836
  944SOL    HW1 3731   0.434   4.758   5.832
  944SOL    HW2 3732   0.285   4.728   5.892
  945SOL     OW 3733   6.189   4.621   5.343
  945SOL    HW1 3734   6.110   4.637   5.285
  945SOL    HW2 3735   6.193   4.690   5.415
  946SOL     OW 3736   4.978   2.873   6.243
  946SOL    HW1 3737   4.948   2.876   6.339
  946SOL    HW2 3738   5.061   2.927   6.233
  947SOL     OW 3739   3.696   2.882   3.677
  947SOL    HW1 3740   3.747   2.856   3.759
  947SOL    HW2 3741   3.647   2.967   3.694
  948SOL     OW 3742   3.862   0.017   1.955
  948SOL    HW1 3743   3.931   0.090   1.957
  948SOL    HW2 3744   3.907   6.951   1.952
  949SOL     OW 3745   1.014   6.194   6.009
  949SOL    HW1 3746   1.033   6.240   6.096
  949SOL    HW2 3747   0.916   6.196   5.991
  950SOL     OW 3748   4.608   5.511   2.412
  950SOL    HW1 3749   4.565   5.546   2.329
  950SOL    HW2 3750   4.553   5.538   2.491
  951SOL     OW 3751   2.307   0.924   4.248
  951SOL    HW1 3752   2.290   0.995   4.179
  951SOL    HW2 3753   2.258   0.841   4.223
  952SOL     OW 3754   4.484   1.754   2.944
  952SOL    HW1 3755   4.480   1.769   2.845
  952SOL    HW2 3756   4.397   1.717   2.976
  953SOL     OW 3757   5.596   4.432   3.897
  953SOL    HW1 3758   5.665   4.425   3.825
  953SOL    HW2 3759   5.639   4.420   3.986
  954SOL     OW 3760   3.706   4.963   1.380
  954SOL    HW1 3761   3.740   4.950   1.287
  954SOL    HW2 3762   3.620   5.013   1.377
  955SOL     OW 3763   0.085   3.731   2.670
  955SOL    HW1 3764   0.027   3.794   2.618
  955SOL    HW2 3765   0.043   3.713   2.759
  956SOL     OW 3766   6.604   1.382   2.918
  956SOL    HW1 3767   6.685   1.394   2.976
  956SOL    HW2 3768   6.626   1.408   2.824
  957SOL     OW 3769   5.929   3.915   5.065
  957SOL    HW1 3770   6.025   3.938   5.076
  957SOL    HW2 3771   5.912   3.824   5.105
  958SOL     OW 3772   4.376   1.765   1.572
  958SOL    HW1 3773   4.393   1.837   1.640
  958SOL    HW2 3774   4.455   1.756   1.512
  959SOL     OW 3775   4.522   6.138   2.544
  959SOL    HW1 3776   4.520   6.113   2.447
  959SOL    HW2 3777   4.528   6.055   2.600
  960SOL     OW 3778   1.323   6.452   1.530
  960SOL    HW1 3779   1.242   6.460   1.588
  960SOL    HW2 3780   1.375   6.372   1.558
  961SOL     OW 3781   4.413   6.985   4.004
  961SOL    HW1 3782   4.468   6.921   3.950
  961SOL    HW2 3783   4.393   0.043   3.950
  962SOL     OW 3784   0.468   1.285   5.507
  962SOL    HW1 3785   0.400   1.229   5.554
  962SOL    HW2 3786   0.558   1.266   5.545
  963SOL     OW 3787   6.391   1.669   6.604
  963SOL    HW1 3788   6.408   1.762   6.636
  963SOL    HW2 3789   6.352   1.615   6.678
  964SOL     OW 3790   5.504   4.077   0.343
  964SOL    HW1 3791   5.559   4.066   0.426
  964SOL    HW2 3792   5.486   3.988   0.302
  965SOL     OW 3793   5.138   2.118   1.346
  965SOL    HW1 3794   5.135   2.079   1.254
  965SOL    HW2 3795   5.089   2.204   1.348
  966SOL     OW 3796   5.187   2.341   2.050
  966SOL    HW1 3797   5.118   2.408   2.077
  966SOL    HW2 3798   5.234   2.306   2.131
  967SOL     OW 3799   2.466   4.117   1.166
  967SOL    HW1 3800   2.441   4.145   1.073
  967SOL    HW2 3801   2.452   4.194   1.228
  968SOL     OW 3802   3.607   0.575   1.286
  968SOL    HW1 3803   3.515   0.544   1.308
  968SOL    HW2 3804   3.639   0.530   1.203
  969SOL     OW 3805   3.176   6.323   6.518
  969SOL    HW1 3806   3.272   6.294   6.523
  969SOL    HW2 3807   3.136   6.291   6.432
  970SOL     OW 3808   5.455   0.964   6.177
  970SOL    HW1 3809   5.381   0.913   6.221
  970SOL    HW2 3810   5.516   0.900   6.130
  971SOL     OW 3811   6.748   2.041   3.093
  971SOL    HW1 3812   6.742   2.044   3.193
  971SOL    HW2 3813   6.834   2.082   3.064
  972SOL     OW 3814   5.306   3.411   2.620
  972SOL    HW1 3815   5.259   3.497   2.639
  972SOL    HW2 3816   5.262   3.337   2.671
  973SOL     OW 3817   0.158   4.741   6.511
  973SOL    HW1 3818   0.070   4.782   6.487
  973SOL    HW2 3819   0.231   4.808   6.498
  974SOL     OW 3820   5.348   6.375   2.228
  974SOL    HW1 3821   5.388   6.284   2.224
  974SOL    HW2 3822   5.259   6.371   2.272
  975SOL     OW 3823   1.558   0.003   6.448
  975SOL    HW1 3824   1.578   0.094   6.411
  975SOL    HW2 3825   1.484   6.984   6.395
  976SOL     OW 3826   6.495   3.461   2.860
  976SOL    HW1 3827   6.495   3.517   2.778
  976SOL    HW2 3828   6.581   3.474   2.910
  977SOL     OW 3829   0.969   0.496   2.416
  977SOL    HW1 3830   0.900   0.555   2.375
  977SOL    HW2 3831   1.055   0.547   2.424
  978SOL     OW 3832   4.712   3.396   6.013
  978SOL    HW1 3833   4.706   3.366   6.108
  978SOL    HW2 3834   4.732   3.317   5.954
  979SOL     OW 3835   0.158   2.002   1.237
  979SOL    HW1 3836   0.120   2.001   1.330
  979SOL    HW2 3837   0.125   1.923   1.186
  980SOL     OW 3838   4.232   2.388   3.834
  980SOL    HW1 3839   4.249   2.373   3.737
  980SOL    HW2 3840   4.305   2.446   3.871
  981SOL     OW 3841   0.202   1.468   4.490
  981SOL    HW1 3842   0.167   1.500   4.578
  981SOL    HW2 3843   0.281   1.408   4.505
  982SOL     OW 3844   2.109   1.912   4.900
  982SOL    HW1 3845   2.140   2.007   4.903
  982SOL    HW2 3846   2.145   1.862   4.979
  983SOL     OW 3847   6.183   2.839   4.627
  983SOL    HW1 3848   6.198   2.745   4.596
  983SOL    HW2 3849   6.270   2.878   4.659
  984SOL     OW 3850   2.484   1.991   4.953
  984SOL    HW1 3851   2.437   1.921   5.007
  984SOL    HW2 3852   2.439   2.001   4.864
  985SOL     OW 3853   5.468   4.413   5.070
  985SOL    HW1 3854   5.566   4.424   5.058
  985SOL    HW2 3855   5.428   4.379   4.985
  986SOL     OW 3856   5.889   4.876   1.438
  986SOL    HW1 3857   5.902   4.929   1.354
  986SOL    HW2 3858   5.805   4.904   1.484
  987SOL     OW 3859   4.539   6.859   2.235
  987SOL    HW1 3860   4.571   6.940   2.185
  987SOL    HW2 3861   4.448   6.834   2.203
  988SOL     OW 3862   3.505   3.146   2.224
  988SOL    HW1 3863   3.499   3.190   2.313
  988SOL    HW2 3864   3.550   3.207   2.159
  989SOL     OW 3865   6.033   1.084   6.146
  989SOL    HW1 3866   6.016   1.181   6.130
  989SOL    HW2 3867   5.987   1.055   6.230
  990SOL     OW 3868   4.431   1.785   2.098
  990SOL    HW1 3869   4.393   1.863   2.047
  990SOL    HW2 3870   4.530   1.793   2.103
  991SOL     OW 3871   0.564   3.401   5.293
  991SOL    HW1 3872   0.640   3.375   5.233
  991SOL    HW2 3873   0.561   3.340   5.372
  992SOL     OW 3874   6.989   2.880   2.223
  992SOL    HW1 3875   7.008   2.782   2.233
  992SOL    HW2 3876   0.051   2.928   2.200
  993SOL     OW 3877   0.407   4.414   1.220
  993SOL    HW1 3878   0.387   4.437   1.315
  993SOL    HW2 3879   0.328   4.372   1.177
  994SOL     OW 3880   4.479   4.850   1.052
  994SOL    HW1 3881   4.398   4.904   1.025
  994SOL    HW2 3882   4.483   4.767   0.997
  995SOL     OW 3883   3.720   2.964   5.295
  995SOL    HW1 3884   3.686   3.056   5.274
  995SOL    HW2 3885   3.773   2.930   5.217
  996SOL     OW 3886   3.289   5.161   4.776
  996SOL    HW1 3887   3.387   5.170   4.791
  996SOL    HW2 3888   3.267   5.180   4.681
  997SOL     OW 3889   1.280   6.963   3.517
  997SOL    HW1 3890   1.289   6.962   3.417
  997SOL    HW2 3891   1.243   0.028   3.546
  998SOL     OW 3892   4.816   0.555   4.880
  998SOL    HW1 3893   4.904   0.548   4.833
  998SOL    HW2 3894   4.742   0.541   4.814
  999SOL     OW 3895   4.704   4.623   2.336
  999SOL    HW1 3896   4.797   4.590   2.351
  999SOL    HW2 3897   4.646   4.598   2.414
 1000SOL     OW 3898   2.509   1.472   1.498
 1000SOL    HW1 3899   2.517   1.416   1.580
 1000SOL    HW2 3900   2.503   1.568   1.523
 1001SOL     OW 3901   4.774   5.792   0.524
 1001SOL    HW1 3902   4.767   5.729   0.601
 1001SOL    HW2 3903   4.813   5.879   0.554
 1002SOL     OW 3904   6.232   1.457   1.316
 1002SOL    HW1 3905   6.170   1.486   1.242
 1002SOL    HW2 3906   6.267   1.366   1.295
 1003SOL     OW 3907   2.186   6.558   2.633
 1003SOL    HW1 3908   2.195   6.592   2.540
 1003SOL    HW2 3909   2.159   6.462   2.631
 1004SOL     OW 3910   0.397   6.956   2.441
 1004SOL    HW1 3911   0.311   6.906   2.441
 1004SOL    HW2 3912   0.471   6.894   2.413
 1005SOL     OW 3913   2.193   3.136   4.083
 1005SOL    HW1 3914   2.206   3.047   4.127
 1005SOL    HW2 3915   2.193   3.125   3.984
 1006SOL     OW 3916   0.809   4.594   1.261
 1006SOL    HW1 3917   0.772   4.525   1.199
 1006SOL    HW2 3918   0.891   4.559   1.305
 1007SOL     OW 3919   4.574   0.274   5.425
 1007SOL    HW1 3920   4.570   0.290   5.327
 1007SOL    HW2 3921   4.482   0.281   5.464
 1008SOL     OW 3922   1.037   3.279   5.927
 1008SOL    HW1 3923   1.130   3.276   5.964
 1008SOL    HW2 3924   0.983   3.205   5.966
 1009SOL     OW 3925   0.487   5.394   4.688
 1009SOL    HW1 3926   0.479   5.411   4.786
 1009SOL    HW2 3927   0.570   5.439   4.654
 1010SOL     OW 3928   3.721   2.289   6.283
 1010SOL    HW1 3929   3.789   2.232   6.329
 1010SOL    HW2 3930   3.638   2.236   6.266
 1011SOL     OW 3931   2.060   4.489   2.535
 1011SOL    HW1 3932   2.092   4.551   2.607
 1011SOL    HW2 3933   1.968   4.456   2.558
 1012SOL     OW 3934   6.413   6.723   2.500
 1012SOL    HW1 3935   6.508   6.703   2.475
 1012SOL    HW2 3936   6.360   6.740   2.416
 1013SOL     OW 3937   0.981   1.232   5.912
 1013SOL    HW1 3938   1.031   1.267   5.833
 1013SOL    HW2 3939   0.892   1.199   5.883
 1014SOL     OW 3940   6.134   5.464   5.942
 1014SOL    HW1 3941   6.145   5.374   5.983
 1014SOL    HW2 3942   6.224   5.503   5.921
 1015SOL     OW 3943   2.626   6.956   5.882
 1015SOL    HW1 3944   2.600   6.862   5.905
 1015SOL    HW2 3945   2.579   6.984   5.798
 1016SOL     OW 3946   4.212   3.207   0.110
 1016SOL    HW1 3947   4.112   3.207   0.120
 1016SOL    HW2 3948   4.242   3.115   0.085
 1017SOL     OW 3949   4.070   3.193   1.165
 1017SOL    HW1 3950   4.061   3.161   1.260
 1017SOL    HW2 3951   4.095   3.117   1.106
 1018SOL     OW 3952   0.203   4.290   4.167
 1018SOL    HW1 3953   0.237   4.276   4.074
 1018SOL    HW2 3954   0.117   4.341   4.164
 1019SOL     OW 3955   6.924   6.711   0.716
 1019SOL    HW1 3956   6.979   6.631   0.741
 1019SOL    HW2 3957   6.873   6.744   0.795
 1020SOL     OW 3958   6.902   1.193   1.242
 1020SOL    HW1 3959   6.858   1.191   1.152
 1020SOL    HW2 3960   6.843   1.148   1.309
 1021SOL     OW 3961   5.563   6.813   1.794
 1021SOL    HW1 3962   5.469   6.790   1.767
 1021SOL    HW2 3963   5.597   6.744   1.858
 1022SOL     OW 3964   3.409   4.440   5.290
 1022SOL    HW1 3965   3.310   4.432   5.277
 1022SOL    HW2 3966   3.441   4.365   5.347
 1023SOL     OW 3967   0.859   0.256   2.858
 1023SOL    HW1 3968   0.763   0.265   2.885
 1023SOL    HW2 3969   0.886   0.333   2.801
 1024SOL     OW 3970   0.830   2.657   4.305
 1024SOL    HW1 3971   0.827   2.703   4.217
 1024SOL    HW2 3972   0.778   2.572   4.301
 1025SOL     OW 3973   3.596   3.761   1.586
 1025SOL    HW1 3974   3.499   3.781   1.568
 1025SOL    HW2 3975   3.602   3.699   1.665
 1026SOL     OW 3976   2.105   2.680   1.040
 1026SOL    HW1 3977   2.068   2.740   1.111
 1026SOL    HW2 3978   2.199   2.656   1.064
 1027SOL     OW 3979   3.494   6.298   1.815
 1027SOL    HW1 3980   3.565   6.228   1.804
 1027SOL    HW2 3981   3.518   6.378   1.759
 1028SOL     OW 3982   2.771   5.990   1.433
 1028SOL    HW1 3983   2.781   5.987   1.532
 1028SOL    HW2 3984   2.854   5.955   1.390
 1029SOL     OW 3985   1.497   6.918   6.703
 1029SOL    HW1 3986   1.500   6.983   6.627
 1029SOL    HW2 3987   1.427   6.849   6.686
 1030SOL     OW 3988   3.250   2.829   2.071
 1030SOL    HW1 3989   3.282   2.841   2.165
 1030SOL    HW2 3990   3.223   2.734   2.056
 1031SOL     OW 3991   5.018   4.044   1.119
 1031SOL    HW1 3992   5.115   4.061   1.135
 1031SOL    HW2 3993   4.995   4.066   1.024
 1032SOL     OW 3994   2.087   2.480   5.319
 1032SOL    HW1 3995   2.014   2.449   5.380
 1032SOL    HW2 3996   2.090   2.580   5.319
 1033SOL     OW 3997   1.522   6.627   1.759
 1033SOL    HW1 3998   1.441   6.675   1.725
 1033SOL    HW2 3999   1.554   6.563   1.690
 1034SOL     OW 4000   0.529   4.682   4.470
 1034SOL    HW1 4001   0.512   4.587   4.442
 1034SOL    HW2 4002   0.625   4.694   4.492
 1035SOL     OW 4003   0.055   1.277   4.971
 1035SOL    HW1 4004   7.011   1.213   4.932
 1035SOL    HW2 4005   0.060   1.263   5.069
 1036SOL     OW 4006   3.875   0.641   1.407
 1036SOL    HW1 4007   3.793   0.625   1.463
 1036SOL    HW2 4008   3.908   0.553   1.372
 1037SOL     OW 4009   1.696   1.213   2.098
 1037SOL    HW1 4010   1.737   1.123   2.103
 1037SOL    HW2 4011   1.602   1.205   2.064
 1038SOL     OW 4012   1.464   0.802   5.292
 1038SOL    HW1 4013   1.388   0.796   5.228
 1038SOL    HW2 4014   1.550   0.781   5.245
 1039SOL     OW 4015   3.709   3.767   4.627
 1039SOL    HW1 4016   3.661   3.800   4.709
 1039SOL    HW2 4017   3.644   3.755   4.553
 1040SOL     OW 4018   4.717   1.298   2.736
 1040SOL    HW1 4019   4.750   1.379   2.689
 1040SOL    HW2 4020   4.657   1.245   2.675
 1041SOL     OW 4021   7.001   6.389   3.918
 1041SOL    HW1 4022   6.985   6.488   3.918
 1041SOL    HW2 4023   0.023   6.362   3.833
 1042SOL     OW 4024   4.180   5.195   2.097
 1042SOL    HW1 4025   4.250   5.266   2.109
 1042SOL    HW2 4026   4.141   5.201   2.006
 1043SOL     OW 4027   3.112   2.028   4.576
 1043SOL    HW1 4028   3.060   2.094   4.631
 1043SOL    HW2 4029   3.087   1.935   4.602
 1044SOL     OW 4030   5.880   5.221   2.703
 1044SOL    HW1 4031   5.874   5.122   2.705
 1044SOL    HW2 4032   5.941   5.253   2.776
 1045SOL     OW 4033   4.114   0.173   2.307
 1045SOL    HW1 4034   4.139   0.121   2.225
 1045SOL    HW2 4035   4.049   0.245   2.283
 1046SOL     OW 4036   1.746   0.293   0.552
 1046SOL    HW1 4037   1.706   0.224   0.613
 1046SOL    HW2 4038   1.704   0.381   0.570
 1047SOL     OW 4039   1.797   0.893   3.632
 1047SOL    HW1 4040   1.867   0.851   3.689
 1047SOL    HW2 4041   1.709   0.848   3.648
 1048SOL     OW 4042   3.813   6.503   3.618
 1048SOL    HW1 4043   3.765   6.415   3.614
 1048SOL    HW2 4044   3.844   6.519   3.711
 1049SOL     OW 4045   6.732   6.334   3.770
 1049SOL    HW1 4046   6.799   6.347   3.843
 1049SOL    HW2 4047   6.721   6.419   3.719
 1050SOL     OW 4048   4.186   4.629   1.510
 1050SOL    HW1 4049   4.122   4.654   1.437
 1050SOL    HW2 4050   4.268   4.686   1.502
 1051SOL     OW 4051   1.551   6.008   0.465
 1051SOL    HW1 4052   1.597   6.058   0.392
 1051SOL    HW2 4053   1.586   6.039   0.554
 1052SOL     OW 4054   3.855   0.895   4.768
 1052SOL    HW1 4055   3.950   0.894   4.736
 1052SOL    HW2 4056   3.823   0.802   4.782
 1053SOL     OW 4057   6.253   5.281   2.673
 1053SOL    HW1 4058   6.205   5.194   2.687
 1053SOL    HW2 4059   6.351   5.265   2.673
 1054SOL     OW 4060   3.130   3.836   6.361
 1054SOL    HW1 4061   3.103   3.922   6.405
 1054SOL    HW2 4062   3.085   3.828   6.272
 1055SOL     OW 4063   3.639   6.371   4.328
 1055SOL    HW1 4064   3.557   6.316   4.338
 1055SOL    HW2 4065   3.632   6.452   4.387
 1056SOL     OW 4066   2.476   4.694   6.360
 1056SOL    HW1 4067   2.406   4.706   6.290
 1056SOL    HW2 4068   2.563   4.671   6.316
 1057SOL     OW 4069   2.841   2.961   1.766
 1057SOL    HW1 4070   2.842   3.040   1.706
 1057SOL    HW2 4071   2.887   2.984   1.852
 1058SOL     OW 4072   4.924   1.635   2.944
 1058SOL    HW1 4073   4.975   1.555   2.913
 1058SOL    HW2 4074   4.929   1.707   2.875
 1059SOL     OW 4075   2.959   0.580   1.698
 1059SOL    HW1 4076   2.941   0.678   1.691
 1059SOL    HW2 4077   3.052   0.561   1.668
 1060SOL     OW 4078   0.033   4.322   4.598
 1060SOL    HW1 4079   6.961   4.346   4.616
 1060SOL    HW2 4080   0.037   4.248   4.530
 1061SOL     OW 4081   6.209   3.032   0.305
 1061SOL    HW1 4082   6.242   3.011   0.397
 1061SOL    HW2 4083   6.257   2.975   0.238
 1062SOL     OW 4084   5.330   4.925   6.336
 1062SOL    HW1 4085   5.316   4.980   6.254
 1062SOL    HW2 4086   5.424   4.937   6.369
 1063SOL     OW 4087   1.230   4.808   1.419
 1063SOL    HW1 4088   1.247   4.813   1.321
 1063SOL    HW2 4089   1.302   4.755   1.463
 1064SOL     OW 4090   1.377   4.177   2.349
 1064SOL    HW1 4091   1.454   4.146   2.405
 1064SOL    HW2 4092   1.295   4.128   2.376
 1065SOL     OW 4093   4.257   0.337   3.475
 1065SOL    HW1 4094   4.239   0.359   3.571
 1065SOL    HW2 4095   4.193   0.266   3.445
 1066SOL     OW 4096   4.888   6.455   3.327
 1066SOL    HW1 4097   4.948   6.452   3.407
 1066SOL    HW2 4098   4.844   6.366   3.315
 1067SOL     OW 4099   0.412   3.556   0.954
 1067SOL    HW1 4100   0.511   3.545   0.952
 1067SOL    HW2 4101   0.383   3.574   1.048
 1068SOL     OW 4102   6.001   5.293   2.937
 1068SOL    HW1 4103   6.075   5.357   2.920
 1068SOL    HW2 4104   5.984   5.286   3.035
 1069SOL     OW 4105   4.340   5.336   0.988
 1069SOL    HW1 4106   4.305   5.373   1.074
 1069SOL    HW2 4107   4.293   5.378   0.911
 1070SOL     OW 4108   0.019   6.944   2.371
 1070SOL    HW1 4109   0.060   7.015   2.428
 1070SOL    HW2 4110   0.091   6.891   2.327
 1071SOL     OW 4111   1.223   0.171   4.075
 1071SOL    HW1 4112   1.273   0.121   4.004
 1071SOL    HW2 4113   1.127   0.180   4.047
 1072SOL     OW 4114   1.567   0.917   0.869
 1072SOL    HW1 4115   1.497   0.959   0.927
 1072SOL    HW2 4116   1.550   0.941   0.773
 1073SOL     OW 4117   5.349   0.108   2.390
 1073SOL    HW1 4118   5.332   0.075   2.298
 1073SOL    HW2 4119   5.287   0.061   2.454
 1074SOL     OW 4120   2.123   5.118   1.306
 1074SOL    HW1 4121   2.107   5.046   1.373
 1074SOL    HW2 4122   2.221   5.126   1.288
 1075SOL     OW 4123   4.853   0.374   4.012
 1075SOL    HW1 4124   4.762   0.408   4.036
 1075SOL    HW2 4125   4.855   0.348   3.915
 1076SOL     OW 4126   6.858   2.241   5.488
 1076SOL    HW1 4127   6.905   2.155   5.503
 1076SOL    HW2 4128   6.769   2.224   5.446
 1077SOL     OW 4129   5.452   0.615   1.481
 1077SOL    HW1 4130   5.496   0.704   1.494
 1077SOL    HW2 4131   5.458   0.562   1.566
 1078SOL     OW 4132   1.313   0.957   2.566
 1078SOL    HW1 4133   1.306   0.988   2.660
 1078SOL    HW2 4134   1.258   1.017   2.507
 1079SOL     OW 4135   1.896   6.545   2.013
 1079SOL    HW1 4136   1.979   6.529   1.958
 1079SOL    HW2 4137   1.895   6.639   2.045
 1080SOL     OW 4138   2.100   4.307   3.291
 1080SOL    HW1 4139   2.028   4.243   3.317
 1080SOL    HW2 4140   2.074   4.353   3.206
 1081SOL     OW 4141   0.592   5.599   5.541
 1081SOL    HW1 4142   0.654   5.560   5.473
 1081SOL    HW2 4143   0.497   5.581   5.514
 1082SOL     OW 4144   4.398   2.034   4.876
 1082SOL    HW1 4145   4.320   2.095   4.858
 1082SOL    HW2 4146   4.383   1.985   4.962
 1083SOL     OW 4147   4.015   3.726   0.677
 1083SOL    HW1 4148   3.936   3.769   0.634
 1083SOL    HW2 4149   4.089   3.794   0.686
 1084SOL     OW 4150   5.883   6.536   7.022
 1084SOL    HW1 4151   5.944   6.574   0.068
 1084SOL    HW2 4152   5.887   6.436   0.002
 1085SOL     OW 4153   1.601   3.557   4.186
 1085SOL    HW1 4154   1.545   3.631   4.222
 1085SOL    HW2 4155   1.542   3.481   4.157
 1086SOL     OW 4156   0.021   6.051   0.311
 1086SOL    HW1 4157   0.027   5.977   0.243
 1086SOL    HW2 4158   0.110   6.093   0.323
 1087SOL     OW 4159   5.945   1.742   4.713
 1087SOL    HW1 4160   5.889   1.820   4.740
 1087SOL    HW2 4161   6.036   1.774   4.687
 1088SOL     OW 4162   0.478   4.262   3.322
 1088SOL    HW1 4163   0.537   4.322   3.375
 1088SOL    HW2 4164   0.412   4.217   3.382
 1089SOL     OW 4165   1.041   6.516   4.518
 1089SOL    HW1 4166   1.018   6.503   4.422
 1089SOL    HW2 4167   1.060   6.428   4.561
 1090SOL     OW 4168   2.655   2.435   3.748
 1090SOL    HW1 4169   2.720   2.360   3.761
 1090SOL    HW2 4170   2.635   2.445   3.650
 1091SOL     OW 4171   3.359   2.122   4.864
 1091SOL    HW1 4172   3.383   2.145   4.770
 1091SOL    HW2 4173   3.299   2.192   4.902
 1092SOL     OW 4174   1.451   3.763   1.210
 1092SOL    HW1 4175   1.466   3.694   1.139
 1092SOL    HW2 4176   1.483   3.852   1.177
 1093SOL     OW 4177   2.229   1.010   2.252
 1093SOL    HW1 4178   2.160   1.047   2.190
 1093SOL    HW2 4179   2.289   1.083   2.283
 1094SOL     OW 4180   6.958   6.932   3.346
 1094SOL    HW1 4181   0.014   6.936   3.408
 1094SOL    HW2 4182   6.904   6.851   3.367
 1095SOL     OW 4183   1.256   2.870   6.266
 1095SOL    HW1 4184   1.340   2.821   6.243
 1095SOL    HW2 4185   1.227   2.925   6.187
 1096SOL     OW 4186   3.514   4.353   1.748
 1096SOL    HW1 4187   3.537   4.439   1.793
 1096SOL    HW2 4188   3.464   4.294   1.811
 1097SOL     OW 4189   2.236   4.611   4.226
 1097SOL    HW1 4190   2.238   4.523   4.275
 1097SOL    HW2 4191   2.204   4.683   4.287
 1098SOL     OW 4192   4.238   3.418   0.270
 1098SOL    HW1 4193   4.176   3.493   0.246
 1098SOL    HW2 4194   4.225   3.342   0.206
 1099SOL     OW 4195   3.953   1.198   5.451
 1099SOL    HW1 4196   3.962   1.264   5.377
 1099SOL    HW2 4197   3.967   1.243   5.539
 1100SOL     OW 4198   3.119   1.827   4.867
 1100SOL    HW1 4199   3.204   1.877   4.880
 1100SOL    HW2 4200   3.139   1.733   4.838
 1101SOL     OW 4201   6.040   2.634   6.472
 1101SOL    HW1 4202   6.079   2.553   6.428
 1101SOL    HW2 4203   6.114   2.698   6.496
 1102SOL     OW 4204   0.540   6.504   4.791
 1102SOL    HW1 4205   0.589   6.563   4.855
 1102SOL    HW2 4206   0.494   6.560   4.722
 1103SOL     OW 4207   4.037   1.715   0.230
 1103SOL    HW1 4208   4.024   1.703   0.329
 1103SOL    HW2 4209   3.965   1.666   0.181
 1104SOL     OW 4210   1.706   2.868   6.042
 1104SOL    HW1 4211   1.760   2.789   6.012
 1104SOL    HW2 4212   1.765   2.949   6.044
 1105SOL     OW 4213   6.606   3.633   5.086
 1105SOL    HW1 4214   6.614   3.555   5.023
 1105SOL    HW2 4215   6.510   3.661   5.091
 1106SOL     OW 4216   0.102   2.470   1.975
 1106SOL    HW1 4217   0.027   2.481   1.910
 1106SOL    HW2 4218   0.184   2.515   1.938
 1107SOL     OW 4219   0.416   0.765   6.882
 1107SOL    HW1 4220   0.395   0.667   6.871
 1107SOL    HW2 4221   0.455   0.780   6.973
 1108SOL     OW 4222   3.600   6.941   5.604
 1108SOL    HW1 4223   3.681   6.995   5.627
 1108SOL    HW2 4224   3.629   6.854   5.564
 1109SOL     OW 4225   4.904   1.448   4.428
 1109SOL    HW1 4226   4.954   1.510   4.368
 1109SOL    HW2 4227   4.964   1.374   4.457
 1110SOL     OW 4228   3.479   1.738   3.090
 1110SOL    HW1 4229   3.484   1.795   3.172
 1110SOL    HW2 4230   3.425   1.784   3.020
 1111SOL     OW 4231   4.646   5.337   6.283
 1111SOL    HW1 4232   4.687   5.425   6.259
 1111SOL    HW2 4233   4.549   5.337   6.256
 1112SOL     OW 4234   4.860   1.626   2.093
 1112SOL    HW1 4235   4.841   1.639   1.996
 1112SOL    HW2 4236   4.955   1.650   2.113
 1113SOL     OW 4237   5.981   4.429   2.246
 1113SOL    HW1 4238   5.947   4.430   2.340
 1113SOL    HW2 4239   6.060   4.368   2.240
 1114SOL     OW 4240   3.784   1.717   6.184
 1114SOL    HW1 4241   3.822   1.745   6.095
 1114SOL    HW2 4242   3.686   1.735   6.186
 1115SOL     OW 4243   4.560   2.947   6.276
 1115SOL    HW1 4244   4.500   3.025   6.293
 1115SOL    HW2 4245   4.591   2.950   6.181
 1116SOL     OW 4246   5.047   0.032   5.912
 1116SOL    HW1 4247   5.052   0.104   5.842
 1116SOL    HW2 4248   5.055   0.073   6.003
 1117SOL     OW 4249   2.533   2.319   2.656
 1117SOL    HW1 4250   2.522   2.407   2.702
 1117SOL    HW2 4251   2.483   2.320   2.569
 1118SOL     OW 4252   2.661   4.470   0.431
 1118SOL    HW1 4253   2.675   4.390   0.372
 1118SOL    HW2 4254   2.568   4.469   0.467
 1119SOL     OW 4255   4.052   4.725   1.297
 1119SOL    HW1 4256   3.971   4.759   1.249
 1119SOL    HW2 4257   4.113   4.680   1.232
 1120SOL     OW 4258   6.181   6.780   6.731
 1120SOL    HW1 4259   6.264   6.768   6.676
 1120SOL    HW2 4260   6.193   6.859   6.792
 1121SOL     OW 4261   5.657   4.785   4.338
 1121SOL    HW1 4262   5.586   4.847   4.303
 1121SOL    HW2 4263   5.746   4.831   4.336
 1122SOL     OW 4264   5.803   2.669   0.530
 1122SOL    HW1 4265   5.828   2.634   0.440
 1122SOL    HW2 4266   5.838   2.762   0.540
 1123SOL     OW 4267   5.094   1.426   2.974
 1123SOL    HW1 4268   5.072   1.370   2.895
 1123SOL    HW2 4269   5.144   1.372   3.042
 1124SOL     OW 4270   0.859   3.431   4.710
 1124SOL    HW1 4271   0.895   3.339   4.699
 1124SOL    HW2 4272   0.893   3.471   4.795
 1125SOL     OW 4273   2.786   2.218   4.058
 1125SOL    HW1 4274   2.766   2.150   4.128
 1125SOL    HW2 4275   2.720   2.293   4.064
 1126SOL     OW 4276   5.700   4.968   6.866
 1126SOL    HW1 4277   5.751   4.976   6.951
 1126SOL    HW2 4278   5.613   4.921   6.883
 1127SOL     OW 4279   5.399   5.430   4.885
 1127SOL    HW1 4280   5.308   5.452   4.849
 1127SOL    HW2 4281   5.404   5.459   4.981
 1128SOL     OW 4282   5.806   1.832   5.039
 1128SOL    HW1 4283   5.810   1.882   4.952
 1128SOL    HW2 4284   5.768   1.741   5.023
 1129SOL     OW 4285   1.481   0.157   0.309
 1129SOL    HW1 4286   1.578   0.139   0.326
 1129SOL    HW2 4287   1.427   0.123   0.386
 1130SOL     OW 4288   2.972   4.753   0.809
 1130SOL    HW1 4289   2.875   4.776   0.795
 1130SOL    HW2 4290   3.015   4.822   0.868
 1131SOL     OW 4291   1.001   5.458   5.257
 1131SOL    HW1 4292   0.926   5.443   5.320
 1131SOL    HW2 4293   1.088   5.446   5.305
 1132SOL     OW 4294   5.159   7.011   2.589
 1132SOL    HW1 4295   5.143   6.977   2.682
 1132SOL    HW2 4296   5.088   0.054   2.565
 1133SOL     OW 4297   1.207   0.637   1.198
 1133SOL    HW1 4298   1.301   0.645   1.231
 1133SOL    HW2 4299   1.203   0.667   1.103
 1134SOL     OW 4300   5.417   0.462   1.727
 1134SOL    HW1 4301   5.450   0.427   1.814
 1134SOL    HW2 4302   5.329   0.507   1.740
 1135SOL     OW 4303   2.938   0.357   2.438
 1135SOL    HW1 4304   2.849   0.398   2.459
 1135SOL    HW2 4305   2.941   0.334   2.341
 1136SOL     OW 4306   4.260   4.756   2.800
 1136SOL    HW1 4307   4.330   4.797   2.742
 1136SOL    HW2 4308   4.304   4.697   2.868
 1137SOL     OW 4309   0.993   0.542   6.729
 1137SOL    HW1 4310   0.893   0.540   6.723
 1137SOL    HW2 4311   1.020   0.560   6.823
 1138SOL     OW 4312   0.098   0.484   6.074
 1138SOL    HW1 4313   0.157   0.564   6.081
 1138SOL    HW2 4314   0.036   0.494   5.996
 1139SOL     OW 4315   3.214   4.813   2.089
 1139SOL    HW1 4316   3.275   4.801   2.167
 1139SOL    HW2 4317   3.267   4.808   2.004
 1140SOL     OW 4318   3.527   1.293   1.264
 1140SOL    HW1 4319   3.485   1.254   1.346
 1140SOL    HW2 4320   3.463   1.288   1.188
 1141SOL     OW 4321   0.108   6.422   6.423
 1141SOL    HW1 4322   0.030   6.360   6.432
 1141SOL    HW2 4323   0.112   6.482   6.504
 1142SOL     OW 4324   3.062   6.702   4.658
 1142SOL    HW1 4325   3.161   6.700   4.643
 1142SOL    HW2 4326   3.027   6.609   4.662
 1143SOL     OW 4327   1.918   3.395   3.358
 1143SOL    HW1 4328   1.914   3.469   3.290
 1143SOL    HW2 4329   1.843   3.331   3.342
 1144SOL     OW 4330   6.326   4.727   4.248
 1144SOL    HW1 4331   6.394   4.759   4.313
 1144SOL    HW2 4332   6.319   4.793   4.172
 1145SOL     OW 4333   6.451   3.532   2.331
 1145SOL    HW1 4334   6.516   3.607   2.338
 1145SOL    HW2 4335   6.374   3.559   2.273
 1146SOL     OW 4336   0.069   0.144   2.492
 1146SOL    HW1 4337   0.094   0.217   2.429
 1146SOL    HW2 4338   0.151   0.114   2.542
 1147SOL     OW 4339   2.570   5.140   1.583
 1147SOL    HW1 4340   2.514   5.219   1.610
 1147SOL    HW2 4341   2.616   5.103   1.663
 1148SOL     OW 4342   5.042   6.028   0.510
 1148SOL    HW1 4343   5.049   5.947   0.569
 1148SOL    HW2 4344   5.121   6.033   0.450
 1149SOL     OW 4345   6.707   3.890   2.905
 1149SOL    HW1 4346   6.799   3.926   2.917
 1149SOL    HW2 4347   6.642   3.945   2.958
 1150SOL     OW 4348   1.984   3.748   0.182
 1150SOL    HW1 4349   2.018   3.713   0.270
 1150SOL    HW2 4350   2.034   3.704   0.108
 1151SOL     OW 4351   5.121   4.448   0.185
 1151SOL    HW1 4352   5.074   4.414   0.266
 1151SOL    HW2 4353   5.177   4.375   0.146
 1152SOL     OW 4354   5.692   4.716   6.385
 1152SOL    HW1 4355   5.652   4.625   6.378
 1152SOL    HW2 4356   5.722   4.732   6.479
 1153SOL     OW 4357   1.489   0.444   1.717
 1153SOL    HW1 4358   1.484   0.528   1.663
 1153SOL    HW2 4359   1.401   0.426   1.759
 1154SOL     OW 4360   6.958   4.691   0.990
 1154SOL    HW1 4361   6.904   4.766   1.028
 1154SOL    HW2 4362   6.981   4.627   1.063
 1155SOL     OW 4363   2.849   5.227   6.075
 1155SOL    HW1 4364   2.831   5.312   6.025
 1155SOL    HW2 4365   2.926   5.180   6.032
 1156SOL     OW 4366   4.182   1.839   4.718
 1156SOL    HW1 4367   4.206   1.936   4.725
 1156SOL    HW2 4368   4.162   1.803   4.809
 1157SOL     OW 4369   5.987   1.912   5.918
 1157SOL    HW1 4370   6.003   1.976   5.993
 1157SOL    HW2 4371   5.900   1.934   5.874
 1158SOL     OW 4372   0.478   5.132   5.116
 1158SOL    HW1 4373   0.387   5.155   5.081
 1158SOL    HW2 4374   0.468   5.069   5.194
 1159SOL     OW 4375   6.704   6.800   3.902
 1159SOL    HW1 4376   6.769   6.821   3.829
 1159SOL    HW2 4377   6.730   6.715   3.947
 1160SOL     OW 4378   5.243   4.670   0.829
 1160SOL    HW1 4379   5.289   4.585   0.857
 1160SOL    HW2 4380   5.286   4.706   0.746
 1161SOL     OW 4381   5.982   0.035   5.869
 1161SOL    HW1 4382   5.938   6.971   5.892
 1161SOL    HW2 4383   5.976   0.097   5.948
 1162SOL     OW 4384   3.343   2.173   6.958
 1162SOL    HW1 4385   3.336   2.075   6.941
 1162SOL    HW2 4386   3.251   2.214   6.958
 1163SOL     OW 4387   6.825   3.787   1.899
 1163SOL    HW1 4388   6.874   3.784   1.986
 1163SOL    HW2 4389   6.878   3.839   1.832
 1164SOL     OW 4390   6.543   3.232   4.639
 1164SOL    HW1 4391   6.513   3.256   4.731
 1164SOL    HW2 4392   6.497   3.290   4.572
 1165SOL     OW 4393   3.226   4.907   3.719
 1165SOL    HW1 4394   3.199   4.878   3.811
 1165SOL    HW2 4395   3.210   5.005   3.709
 1166SOL     OW 4396   3.902   6.899   0.090
 1166SOL    HW1 4397   3.851   6.946   0.162
 1166SOL    HW2 4398   3.846   6.894   0.007
 1167SOL     OW 4399   4.550   6.512   6.930
 1167SOL    HW1 4400   4.631   6.462   6.961
 1167SOL    HW2 4401   4.475   6.448   6.917
 1168SOL     OW 4402   4.883   2.448   3.108
 1168SOL    HW1 4403   4.825   2.485   3.035
 1168SOL    HW2 4404   4.974   2.429   3.071
 1169SOL     OW 4405   5.053   2.265   6.276
 1169SOL    HW1 4406   4.962   2.248   6.239
 1169SOL    HW2 4407   5.121   2.259   6.203
 1170SOL     OW 4408   5.209   0.609   3.405
 1170SOL    HW1 4409   5.137   0.540   3.392
 1170SOL    HW2 4410   5.185   0.692   3.354
 1171SOL     OW 4411   2.317   5.862   7.002
 1171SOL    HW1 4412   2.260   5.920   6.943
 1171SOL    HW2 4413   2.295   5.766   6.986
 1172SOL     OW 4414   2.948   4.111   1.592
 1172SOL    HW1 4415   2.914   4.088   1.501
 1172SOL    HW2 4416   2.930   4.207   1.611
 1173SOL     OW 4417   2.827   0.654   6.844
 1173SOL    HW1 4418   2.757   0.722   6.820
 1173SOL    HW2 4419   2.918   0.695   6.831
 1174SOL     OW 4420   3.023   4.612   1.377
 1174SOL    HW1 4421   2.949   4.665   1.418
 1174SOL    HW2 4422   2.987   4.524   1.344
 1175SOL     OW 4423   4.044   3.963   6.743
 1175SOL    HW1 4424   4.101   3.885   6.721
 1175SOL    HW2 4425   4.092   4.048   6.720
 1176SOL     OW 4426   6.017   4.256   6.904
 1176SOL    HW1 4427   6.081   4.302   6.843
 1176SOL    HW2 4428   5.924   4.266   6.868
 1177SOL     OW 4429   0.525   2.982   4.757
 1177SOL    HW1 4430   0.577   3.060   4.791
 1177SOL    HW2 4431   0.527   2.983   4.657
 1178SOL     OW 4432   3.052   4.075   0.747
 1178SOL    HW1 4433   3.008   3.986   0.735
 1178SOL    HW2 4434   3.023   4.116   0.834
 1179SOL     OW 4435   2.870   5.949   0.841
 1179SOL    HW1 4436   2.776   5.916   0.831
 1179SOL    HW2 4437   2.932   5.871   0.848
 1180SOL     OW 4438   2.465   6.236   4.644
 1180SOL    HW1 4439   2.524   6.217   4.566
 1180SOL    HW2 4440   2.514   6.292   4.710
 1181SOL     OW 4441   6.915   3.866   6.039
 1181SOL    HW1 4442   6.931   3.809   6.120
 1181SOL    HW2 4443   6.839   3.929   6.057
 1182SOL     OW 4444   3.440   4.884   2.852
 1182SOL    HW1 4445   3.528   4.843   2.879
 1182SOL    HW2 4446   3.443   4.907   2.755
 1183SOL     OW 4447   3.061   5.143   1.438
 1183SOL    HW1 4448   2.961   5.152   1.439
 1183SOL    HW2 4449   3.093   5.123   1.531
 1184SOL     OW 4450   6.314   0.422   5.658
 1184SOL    HW1 4451   6.365   0.505   5.634
 1184SOL    HW2 4452   6.220   0.429   5.625
 1185SOL     OW 4453   0.809   0.717   0.671
 1185SOL    HW1 4454   0.856   0.804   0.685
 1185SOL    HW2 4455   0.796   0.671   0.759
 1186SOL     OW 4456   5.472   6.396   5.041
 1186SOL    HW1 4457   5.508   6.324   5.100
 1186SOL    HW2 4458   5.460   6.360   4.949
 1187SOL     OW 4459   5.607   6.602   5.134
 1187SOL    HW1 4460   5.551   6.524   5.106
 1187SOL    HW2 4461   5.646   6.584   5.224
 1188SOL     OW 4462   2.884   5.609   6.131
 1188SOL    HW1 4463   2.807   5.583   6.072
 1188SOL    HW2 4464   2.856   5.606   6.226
 1189SOL     OW 4465   6.113   0.935   1.310
 1189SOL    HW1 4466   6.026   0.982   1.324
 1189SOL    HW2 4467   6.102   0.861   1.244
 1190SOL     OW 4468   2.704   5.627   2.988
 1190SOL    HW1 4469   2.751   5.551   2.942
 1190SOL    HW2 4470   2.704   5.611   3.087
 1191SOL     OW 4471   3.029   6.216   4.039
 1191SOL    HW1 4472   2.942   6.211   4.087
 1191SOL    HW2 4473   3.033   6.144   3.970
 1192SOL     OW 4474   5.694   5.701   3.478
 1192SOL    HW1 4475   5.767   5.770   3.491
 1192SOL    HW2 4476   5.719   5.618   3.527
 1193SOL     OW 4477   6.913   1.085   5.186
 1193SOL    HW1 4478   6.839   1.100   5.251
 1193SOL    HW2 4479   6.987   1.151   5.203
 1194SOL     OW 4480   6.459   1.314   1.798
 1194SOL    HW1 4481   6.480   1.402   1.840
 1194SOL    HW2 4482   6.474   1.241   1.866
 1195SOL     OW 4483   0.430   3.257   0.288
 1195SOL    HW1 4484   0.419   3.158   0.294
 1195SOL    HW2 4485   0.399   3.300   0.373
 1196SOL     OW 4486   6.810   4.169   3.177
 1196SOL    HW1 4487   6.751   4.094   3.207
 1196SOL    HW2 4488   6.853   4.212   3.256
 1197SOL     OW 4489   4.408   5.919   4.325
 1197SOL    HW1 4490   4.310   5.912   4.340
 1197SOL    HW2 4491   4.437   5.851   4.258
 1198SOL     OW 4492   1.429   3.626   2.056
 1198SOL    HW1 4493   1.496   3.611   2.128
 1198SOL    HW2 4494   1.397   3.721   2.059
 1199SOL     OW 4495   3.026   3.890   3.204
 1199SOL    HW1 4496   3.058   3.823   3.271
 1199SOL    HW2 4497   3.101   3.912   3.141
 1200SOL     OW 4498   3.803   4.094   4.075
 1200SOL    HW1 4499   3.785   4.187   4.107
 1200SOL    HW2 4500   3.734   4.068   4.007
 1201SOL     OW 4501   6.919   1.101   4.835
 1201SOL    HW1 4502   6.907   1.022   4.896
 1201SOL    HW2 4503   6.836   1.114   4.781
 1202SOL     OW 4504   0.767   5.719   5.299
 1202SOL    HW1 4505   0.774   5.765   5.210
 1202SOL    HW2 4506   0.819   5.770   5.367
 1203SOL     OW 4507   0.661   5.779   0.377
 1203SOL    HW1 4508   0.586   5.842   0.355
 1203SOL    HW2 4509   0.652   5.696   0.321
 1204SOL     OW 4510   4.698   1.458   1.151
 1204SOL    HW1 4511   4.714   1.510   1.235
 1204SOL    HW2 4512   4.769   1.388   1.141
 1205SOL     OW 4513   3.441   3.496   0.310
 1205SOL    HW1 4514   3.367   3.522   0.247
 1205SOL    HW2 4515   3.526   3.485   0.259
 1206SOL     OW 4516   1.283   3.328   5.225
 1206SOL    HW1 4517   1.243   3.367   5.142
 1206SOL    HW2 4518   1.377   3.359   5.234
 1207SOL     OW 4519   0.554   0.134   0.956
 1207SOL    HW1 4520   0.559   0.071   1.033
 1207SOL    HW2 4521   0.477   0.197   0.969
 1208SOL     OW 4522   2.989   3.432   1.622
 1208SOL    HW1 4523   2.923   3.505   1.602
 1208SOL    HW2 4524   2.995   3.370   1.545
 1209SOL     OW 4525   5.226   0.673   4.192
 1209SOL    HW1 4526   5.280   0.644   4.113
 1209SOL    HW2 4527   5.150   0.610   4.206
 1210SOL     OW 4528   3.837   6.711   3.446
 1210SOL    HW1 4529   3.843   6.639   3.516
 1210SOL    HW2 4530   3.771   6.683   3.377
 1211SOL     OW 4531   0.974   2.944   3.144
 1211SOL    HW1 4532   0.962   2.985   3.234
 1211SOL    HW2 4533   1.058   2.890   3.142
 1212SOL     OW 4534   6.499   6.922   5.833
 1212SOL    HW1 4535   6.403   6.903   5.811
 1212SOL    HW2 4536   6.525   6.868   5.913
 1213SOL     OW 4537   6.215   2.739   1.818
 1213SOL    HW1 4538   6.133   2.761   1.871
 1213SOL    HW2 4539   6.202   2.764   1.723
 1214SOL     OW 4540   0.785   2.285   0.012
 1214SOL    HW1 4541   0.784   2.250   0.106
 1214SOL    HW2 4542   0.728   2.226   6.977
 1215SOL     OW 4543   1.229   4.686   3.540
 1215SOL    HW1 4544   1.311   4.694   3.483
 1215SOL    HW2 4545   1.174   4.609   3.508
 1216SOL     OW 4546   5.408   1.518   0.382
 1216SOL    HW1 4547   5.497   1.556   0.408
 1216SOL    HW2 4548   5.342   1.592   0.370
 1217SOL     OW 4549   2.836   4.708   0.509
 1217SOL    HW1 4550   2.835   4.653   0.593
 1217SOL    HW2 4551   2.764   4.677   0.448
 1218SOL     OW 4552   1.918   3.092   5.381
 1218SOL    HW1 4553   2.009   3.070   5.348
 1218SOL    HW2 4554   1.857   3.013   5.369
 1219SOL     OW 4555   5.925   5.732   1.976
 1219SOL    HW1 4556   5.985   5.795   1.926
 1219SOL    HW2 4557   5.898   5.773   2.063
 1220SOL     OW 4558   0.546   4.532   2.541
 1220SOL    HW1 4559   0.514   4.598   2.609
 1220SOL    HW2 4560   0.513   4.441   2.566
 1221SOL     OW 4561   4.921   3.294   6.621
 1221SOL    HW1 4562   4.824   3.320   6.625
 1221SOL    HW2 4563   4.937   3.236   6.541
 1222SOL     OW 4564   6.657   0.919   6.288
 1222SOL    HW1 4565   6.590   0.983   6.327
 1222SOL    HW2 4566   6.609   0.850   6.233
 1223SOL     OW 4567   3.942   1.406   0.500
 1223SOL    HW1 4568   3.861   1.384   0.553
 1223SOL    HW2 4569   3.940   1.503   0.475
 1224SOL     OW 4570   3.024   6.332   6.884
 1224SOL    HW1 4571   3.119   6.365   6.888
 1224SOL    HW2 4572   2.977   6.375   6.807
 1225SOL     OW 4573   3.302   2.714   6.534
 1225SOL    HW1 4574   3.306   2.715   6.434
 1225SOL    HW2 4575   3.268   2.802   6.566
 1226SOL     OW 4576   3.383   6.495   1.262
 1226SOL    HW1 4577   3.369   6.574   1.202
 1226SOL    HW2 4578   3.299   6.440   1.263
 1227SOL     OW 4579   5.056   4.716   5.962
 1227SOL    HW1 4580   5.019   4.808   5.951
 1227SOL    HW2 4581   4.982   4.649   5.964
 1228SOL     OW 4582   2.821   1.929   6.195
 1228SOL    HW1 4583   2.761   1.960   6.269
 1228SOL    HW2 4584   2.807   1.986   6.114
 1229SOL     OW 4585   3.149   5.007   0.040
 1229SOL    HW1 4586   3.188   4.931   7.010
 1229SOL    HW2 4587   3.125   5.082   7.001
 1230SOL     OW 4588   5.417   6.581   2.068
 1230SOL    HW1 4589   5.389   6.512   2.135
 1230SOL    HW2 4590   5.435   6.668   2.115
 1231SOL     OW 4591   1.998   2.173   5.660
 1231SOL    HW1 4592   2.063   2.202   5.730
 1231SOL    HW2 4593   1.923   2.123   5.703
 1232SOL     OW 4594   6.772   1.863   5.213
 1232SOL    HW1 4595   6.744   1.769   5.193
 1232SOL    HW2 4596   6.807   1.869   5.306
 1233SOL     OW 4597   0.926   5.533   4.773
 1233SOL    HW1 4598   0.935   5.613   4.833
 1233SOL    HW2 4599   0.935   5.450   4.827
 1234SOL     OW 4600   5.681   2.912   5.412
 1234SOL    HW1 4601   5.593   2.877   5.441
 1234SOL    HW2 4602   5.754   2.856   5.452
 1235SOL     OW 4603   5.766   5.908   2.538
 1235SOL    HW1 4604   5.765   5.970   2.617
 1235SOL    HW2 4605   5.792   5.816   2.568
 1236SOL     OW 4606   4.450   0.196   0.764
 1236SOL    HW1 4607   4.476   0.205   0.668
 1236SOL    HW2 4608   4.486   0.111   0.801
 1237SOL     OW 4609   1.864   4.491   6.222
 1237SOL    HW1 4610   1.891   4.540   6.304
 1237SOL    HW2 4611   1.775   4.448   6.237
 1238SOL     OW 4612   1.084   0.718   6.349
 1238SOL    HW1 4613   1.149   0.788   6.380
 1238SOL    HW2 4614   1.117   0.627   6.376
 1239SOL     OW 4615   6.399   6.821   6.567
 1239SOL    HW1 4616   6.473   6.852   6.627
 1239SOL    HW2 4617   6.426   6.737   6.520
 1240SOL     OW 4618   5.473   6.404   0.748
 1240SOL    HW1 4619   5.448   6.312   0.719
 1240SOL    HW2 4620   5.455   6.414   0.846
 1241SOL     OW 4621   5.283   4.578   4.889
 1241SOL    HW1 4622   5.381   4.598   4.890
 1241SOL    HW2 4623   5.247   4.584   4.982
 1242SOL     OW 4624   1.119   3.664   1.323
 1242SOL    HW1 4625   1.212   3.657   1.288
 1242SOL    HW2 4626   1.074   3.744   1.283
 1243SOL     OW 4627   0.713   0.572   5.165
 1243SOL    HW1 4628   0.786   0.621   5.118
 1243SOL    HW2 4629   0.634   0.564   5.104
 1244SOL     OW 4630   5.665   6.588   4.062
 1244SOL    HW1 4631   5.667   6.652   3.985
 1244SOL    HW2 4632   5.588   6.525   4.050
 1245SOL     OW 4633   6.477   4.192   0.598
 1245SOL    HW1 4634   6.457   4.112   0.654
 1245SOL    HW2 4635   6.493   4.163   0.503
 1246SOL     OW 4636   2.492   0.786   1.117
 1246SOL    HW1 4637   2.575   0.759   1.165
 1246SOL    HW2 4638   2.499   0.760   1.021
 1247SOL     OW 4639   0.129   6.591   6.020
 1247SOL    HW1 4640   0.142   6.690   6.028
 1247SOL    HW2 4641   0.156   6.561   5.929
 1248SOL     OW 4642   2.270   0.002   4.890
 1248SOL    HW1 4643   2.331   0.011   4.812
 1248SOL    HW2 4644   2.270   6.930   4.922
 1249SOL     OW 4645   6.737   2.102   2.452
 1249SOL    HW1 4646   6.802   2.171   2.485
 1249SOL    HW2 4647   6.644   2.136   2.463
 1250SOL     OW 4648   5.768   5.466   3.565
 1250SOL    HW1 4649   5.764   5.394   3.496
 1250SOL    HW2 4650   5.860   5.505   3.568
 1251SOL     OW 4651   3.046   0.912   3.375
 1251SOL    HW1 4652   2.988   0.832   3.386
 1251SOL    HW2 4653   3.142   0.884   3.380
 1252SOL     OW 4654   5.113   3.863   6.232
 1252SOL    HW1 4655   5.125   3.837   6.136
 1252SOL    HW2 4656   5.122   3.963   6.240
 1253SOL     OW 4657   3.075   6.412   2.156
 1253SOL    HW1 4658   3.119   6.355   2.226
 1253SOL    HW2 4659   3.111   6.389   2.066
 1254SOL     OW 4660   1.239   3.244   2.884
 1254SOL    HW1 4661   1.153   3.281   2.849
 1254SOL    HW2 4662   1.314   3.308   2.865
 1255SOL     OW 4663   6.097   1.348   6.651
 1255SOL    HW1 4664   6.009   1.375   6.691
 1255SOL    HW2 4665   6.170   1.368   6.716
 1256SOL     OW 4666   6.657   6.381   3.010
 1256SOL    HW1 4667   6.703   6.450   2.953
 1256SOL    HW2 4668   6.567   6.362   2.973
 1257SOL     OW 4669   6.569   5.782   5.048
 1257SOL    HW1 4670   6.547   5.685   5.041
 1257SOL    HW2 4671   6.632   5.796   5.125
 1258SOL     OW 4672   1.602   4.937   3.259
 1258SOL    HW1 4673   1.638   5.029   3.273
 1258SOL    HW2 4674   1.533   4.939   3.187
 1259SOL     OW 4675   3.311   0.562   4.237
 1259SOL    HW1 4676   3.356   0.615   4.164
 1259SOL    HW2 4677   3.217   0.594   4.248
 1260SOL     OW 4678   2.684   2.699   7.023
 1260SOL    HW1 4679   2.722   2.611   0.027
 1260SOL    HW2 4680   2.599   2.684   6.972
 1261SOL     OW 4681   0.245   5.729   6.689
 1261SOL    HW1 4682   0.319   5.733   6.621
 1261SOL    HW2 4683   0.277   5.768   6.775
 1262SOL     OW 4684   6.027   4.337   1.568
 1262SOL    HW1 4685   6.064   4.396   1.496
 1262SOL    HW2 4686   5.931   4.318   1.550
 1263SOL     OW 4687   0.035   2.267   1.579
 1263SOL    HW1 4688   0.040   2.365   1.563
 1263SOL    HW2 4689   0.117   2.237   1.629
 1264SOL     OW 4690   6.914   4.144   1.649
 1264SOL    HW1 4691   6.961   4.058   1.625
 1264SOL    HW2 4692   6.827   4.148   1.601
 1265SOL     OW 4693   4.915   5.420   3.788
 1265SOL    HW1 4694   4.852   5.413   3.712
 1265SOL    HW2 4695   4.935   5.328   3.823
 1266SOL     OW 4696   0.112   1.495   4.232
 1266SOL    HW1 4697   0.161   1.544   4.159
 1266SOL    HW2 4698   0.139   1.533   4.321
 1267SOL     OW 4699   4.849   6.605   1.355
 1267SOL    HW1 4700   4.784   6.532   1.336
 1267SOL    HW2 4701   4.942   6.572   1.340
 1268SOL     OW 4702   2.806   2.918   0.508
 1268SOL    HW1 4703   2.760   2.974   0.439
 1268SOL    HW2 4704   2.743   2.900   0.584
 1269SOL     OW 4705   6.123   5.638   5.113
 1269SOL    HW1 4706   6.037   5.687   5.125
 1269SOL    HW2 4707   6.138   5.622   5.015
 1270SOL     OW 4708   1.325   3.014   3.533
 1270SOL    HW1 4709   1.400   3.031   3.598
 1270SOL    HW2 4710   1.265   2.943   3.570
 1271SOL     OW 4711   2.614   2.109   3.854
 1271SOL    HW1 4712   2.703   2.111   3.808
 1271SOL    HW2 4713   2.628   2.091   3.952
 1272SOL     OW 4714   5.531   4.919   0.215
 1272SOL    HW1 4715   5.577   4.984   0.155
 1272SOL    HW2 4716   5.480   4.852   0.161
 1273SOL     OW 4717   0.696   2.984   0.148
 1273SOL    HW1 4718   0.759   3.046   0.101
 1273SOL    HW2 4719   0.749   2.919   0.203
 1274SOL     OW 4720   6.296   4.698   1.389
 1274SOL    HW1 4721   6.307   4.600   1.406
 1274SOL    HW2 4722   6.354   4.750   1.451
 1275SOL     OW 4723   3.969   1.896   4.395
 1275SOL    HW1 4724   4.059   1.879   4.434
 1275SOL    HW2 4725   3.978   1.914   4.297
 1276SOL     OW 4726   6.849   6.073   5.138
 1276SOL    HW1 4727   6.870   6.055   5.041
 1276SOL    HW2 4728   6.751   6.088   5.148
 1277SOL     OW 4729   0.881   5.702   6.133
 1277SOL    HW1 4730   0.947   5.648   6.081
 1277SOL    HW2 4731   0.919   5.725   6.222
 1278SOL     OW 4732   0.878   0.302   4.392
 1278SOL    HW1 4733   0.952   0.321   4.327
 1278SOL    HW2 4734   0.790   0.312   4.346
 1279SOL     OW 4735   2.284   5.271   0.774
 1279SOL    HW1 4736   2.267   5.238   0.866
 1279SOL    HW2 4737   2.380   5.297   0.765
 1280SOL     OW 4738   3.627   6.660   4.525
 1280SOL    HW1 4739   3.628   6.719   4.444
 1280SOL    HW2 4740   3.701   6.688   4.586
 1281SOL     OW 4741   2.043   6.123   3.271
 1281SOL    HW1 4742   2.040   6.219   3.244
 1281SOL    HW2 4743   2.101   6.113   3.352
 1282SOL     OW 4744   0.409   2.099   6.695
 1282SOL    HW1 4745   0.330   2.145   6.656
 1282SOL    HW2 4746   0.428   2.135   6.787
 1283SOL     OW 4747   0.398   3.501   5.923
 1283SOL    HW1 4748   0.433   3.408   5.910
 1283SOL    HW2 4749   0.458   3.566   5.877
 1284SOL     OW 4750   4.920   2.297   1.330
 1284SOL    HW1 4751   4.860   2.225   1.295
 1284SOL    HW2 4752   4.872   2.349   1.401
 1285SOL     OW 4753   4.330   2.347   6.467
 1285SOL    HW1 4754   4.305   2.318   6.375
 1285SOL    HW2 4755   4.428   2.335   6.480
 1286SOL     OW 4756   4.729   3.787   1.417
 1286SOL    HW1 4757   4.790   3.766   1.493
 1286SOL    HW2 4758   4.723   3.886   1.407
 1287SOL     OW 4759   5.782   5.648   5.432
 1287SOL    HW1 4760   5.714   5.643   5.506
 1287SOL    HW2 4761   5.781   5.740   5.392
 1288SOL     OW 4762   4.117   2.795   6.188
 1288SOL    HW1 4763   4.044   2.728   6.205
 1288SOL    HW2 4764   4.155   2.780   6.097
 1289SOL     OW 4765   7.010   6.984   1.042
 1289SOL    HW1 4766   6.957   7.023   1.117
 1289SOL    HW2 4767   6.960   6.907   1.002
 1290SOL     OW 4768   0.937   6.409   6.544
 1290SOL    HW1 4769   0.837   6.418   6.543
 1290SOL    HW2 4770   0.962   6.331   6.602
 1291SOL     OW 4771   6.836   4.022   4.520
 1291SOL    HW1 4772   6.761   4.031   4.454
 1291SOL    HW2 4773   6.915   3.982   4.475
 1292SOL     OW 4774   0.758   5.759   2.219
 1292SOL    HW1 4775   0.764   5.763   2.119
 1292SOL    HW2 4776   0.829   5.815   2.260
 1293SOL     OW 4777   0.617   1.515   6.700
 1293SOL    HW1 4778   0.672   1.442   6.740
 1293SOL    HW2 4779   0.624   1.512   6.600
 1294SOL     OW 4780   0.881   3.529   5.959
 1294SOL    HW1 4781   0.919   3.594   6.025
 1294SOL    HW2 4782   0.952   3.464   5.932
 1295SOL     OW 4783   0.538   3.779   1.645
 1295SOL    HW1 4784   0.630   3.740   1.659
 1295SOL    HW2 4785   0.497   3.738   1.564
 1296SOL     OW 4786   4.081   6.389   5.626
 1296SOL    HW1 4787   4.081   6.377   5.725
 1296SOL    HW2 4788   4.007   6.451   5.600
 1297SOL     OW 4789   0.192   0.676   1.398
 1297SOL    HW1 4790   0.217   0.700   1.304
 1297SOL    HW2 4791   0.265   0.622   1.440
 1298SOL     OW 4792   5.643   5.363   2.753
 1298SOL    HW1 4793   5.730   5.323   2.724
 1298SOL    HW2 4794   5.599   5.408   2.676
 1299SOL     OW 4795   1.779   3.637   3.223
 1299SOL    HW1 4796   1.776   3.701   3.146
 1299SOL    HW2 4797   1.710   3.566   3.210
 1300SOL     OW 4798   2.289   2.895   1.597
 1300SOL    HW1 4799   2.294   2.937   1.688
 1300SOL    HW2 4800   2.244   2.958   1.534
 1301SOL     OW 4801   0.272   0.058   1.232
 1301SOL    HW1 4802   0.273   0.086   1.136
 1301SOL    HW2 4803   0.212   0.118   1.284
 1302SOL     OW 4804   4.244   0.965   5.891
 1302SOL    HW1 4805   4.178   0.914   5.836
 1302SOL    HW2 4806   4.322   0.992   5.834
 1303SOL     OW 4807   3.768   1.976   1.140
 1303SOL    HW1 4808   3.777   1.898   1.201
 1303SOL    HW2 4809   3.858   2.004   1.108
 1304SOL     OW 4810   2.374   0.739   6.942
 1304SOL    HW1 4811   2.363   0.644   6.915
 1304SOL    HW2 4812   2.284   0.782   6.951
 1305SOL     OW 4813   5.623   3.606   0.991
 1305SOL    HW1 4814   5.561   3.658   0.933
 1305SOL    HW2 4815   5.662   3.530   0.939
 1306SOL     OW 4816   1.039   5.175   3.942
 1306SOL    HW1 4817   0.954   5.147   3.987
 1306SOL    HW2 4818   1.018   5.216   3.853
 1307SOL     OW 4819   1.452   4.221   3.773
 1307SOL    HW1 4820   1.362   4.254   3.747
 1307SOL    HW2 4821   1.509   4.297   3.804
 1308SOL     OW 4822   6.594   0.155   5.229
 1308SOL    HW1 4823   6.526   0.218   5.264
 1308SOL    HW2 4824   6.619   0.089   5.300
 1309SOL     OW 4825   5.357   4.702   5.508
 1309SOL    HW1 4826   5.403   4.727   5.593
 1309SOL    HW2 4827   5.377   4.607   5.486
 1310SOL     OW 4828   6.307   4.026   3.866
 1310SOL    HW1 4829   6.398   3.985   3.856
 1310SOL    HW2 4830   6.315   4.125   3.853
 1311SOL     OW 4831   0.668   6.329   5.044
 1311SOL    HW1 4832   0.683   6.230   5.044
 1311SOL    HW2 4833   0.575   6.349   5.012
 1312SOL     OW 4834   0.639   6.350   6.801
 1312SOL    HW1 4835   0.582   6.272   6.828
 1312SOL    HW2 4836   0.677   6.393   6.883
 1313SOL     OW 4837   0.690   4.832   2.920
 1313SOL    HW1 4838   0.721   4.859   2.829
 1313SOL    HW2 4839   0.735   4.889   2.989
 1314SOL     OW 4840   4.368   1.280   5.598
 1314SOL    HW1 4841   4.272   1.266   5.621
 1314SOL    HW2 4842   4.397   1.370   5.631
 1315SOL     OW 4843   0.640   1.100   2.346
 1315SOL    HW1 4844   0.718   1.083   2.405
 1315SOL    HW2 4845   0.664   1.171   2.279
 1316SOL     OW 4846   2.569   5.962   5.325
 1316SOL    HW1 4847   2.621   5.919   5.251
 1316SOL    HW2 4848   2.472   5.961   5.303
 1317SOL     OW 4849   2.192   4.314   6.227
 1317SOL    HW1 4850   2.139   4.232   6.248
 1317SOL    HW2 4851   2.183   4.336   6.130
 1318SOL     OW 4852   0.750   1.948   0.973
 1318SOL    HW1 4853   0.780   1.853   0.984
 1318SOL    HW2 4854   0.666   1.951   0.919
 1319SOL     OW 4855   6.505   6.776   6.965
 1319SOL    HW1 4856   6.506   6.716   6.885
 1319SOL    HW2 4857   6.586   6.759   7.021
 1320SOL     OW 4858   4.117   4.578   0.078
 1320SOL    HW1 4859   4.056   4.513   0.032
 1320SOL    HW2 4860   4.145   4.650   0.014
 1321SOL     OW 4861   5.725   1.679   6.773
 1321SOL    HW1 4862   5.721   1.738   6.693
 1321SOL    HW2 4863   5.643   1.622   6.777
 1322SOL     OW 4864   4.175   0.814   2.944
 1322SOL    HW1 4865   4.112   0.871   2.891
 1322SOL    HW2 4866   4.147   0.813   3.040
 1323SOL     OW 4867   4.135   0.271   5.823
 1323SOL    HW1 4868   4.161   0.191   5.769
 1323SOL    HW2 4869   4.064   0.322   5.774
 1324SOL     OW 4870   0.625   4.194   6.683
 1324SOL    HW1 4871   0.714   4.156   6.710
 1324SOL    HW2 4872   0.553   4.127   6.704
 1325SOL     OW 4873   2.304   0.337   3.469
 1325SOL    HW1 4874   2.383   0.368   3.521
 1325SOL    HW2 4875   2.234   0.303   3.531
 1326SOL     OW 4876   4.845   3.846   5.427
 1326SOL    HW1 4877   4.857   3.860   5.329
 1326SOL    HW2 4878   4.932   3.864   5.474
 1327SOL     OW 4879   0.787   6.055   1.533
 1327SOL    HW1 4880   0.722   5.979   1.541
 1327SOL    HW2 4881   0.830   6.053   1.443
 1328SOL     OW 4882   2.088   3.048   1.193
 1328SOL    HW1 4883   2.185   3.071   1.203
 1328SOL    HW2 4884   2.070   2.960   1.239
 1329SOL     OW 4885   0.489   2.281   2.003
 1329SOL    HW1 4886   0.535   2.370   1.992
 1329SOL    HW2 4887   0.391   2.293   1.988
 1330SOL     OW 4888   0.674   1.236   1.881
 1330SOL    HW1 4889   0.654   1.148   1.924
 1330SOL    HW2 4890   0.624   1.309   1.928
 1331SOL     OW 4891   4.906   3.283   2.593
 1331SOL    HW1 4892   4.889   3.207   2.530
 1331SOL    HW2 4893   4.906   3.369   2.542
 1332SOL     OW 4894   2.929   0.113   0.089
 1332SOL    HW1 4895   2.944   0.200   0.135
 1332SOL    HW2 4896   2.890   0.129   7.021
 1333SOL     OW 4897   2.943   3.722   4.475
 1333SOL    HW1 4898   2.995   3.762   4.398
 1333SOL    HW2 4899   2.879   3.790   4.510
 1334SOL     OW 4900   6.309   1.980   4.268
 1334SOL    HW1 4901   6.306   1.922   4.349
 1334SOL    HW2 4902   6.399   1.970   4.224
 1335SOL     OW 4903   2.145   1.572   2.715
 1335SOL    HW1 4904   2.177   1.613   2.630
 1335SOL    HW2 4905   2.193   1.486   2.731
 1336SOL     OW 4906   1.994   2.748   5.292
 1336SOL    HW1 4907   1.895   2.755   5.279
 1336SOL    HW2 4908   2.040   2.794   5.216
 1337SOL     OW 4909   1.269   2.303   4.457
 1337SOL    HW1 4910   1.329   2.225   4.439
 1337SOL    HW2 4911   1.306   2.357   4.533
 1338SOL     OW 4912   5.480   2.263   4.832
 1338SOL    HW1 4913   5.505   2.359   4.822
 1338SOL    HW2 4914   5.382   2.252   4.814
 1339SOL     OW 4915   6.807   1.857   6.567
 1339SOL    HW1 4916   6.715   1.878   6.599
 1339SOL    HW2 4917   6.836   1.768   6.604
 1340SOL     OW 4918   6.331   1.711   2.077
 1340SOL    HW1 4919   6.260   1.732   2.010
 1340SOL    HW2 4920   6.289   1.672   2.160
 1341SOL     OW 4921   5.059   6.704   6.390
 1341SOL    HW1 4922   5.051   6.763   6.470
 1341SOL    HW2 4923   4.988   6.726   6.323
 1342SOL     OW 4924   2.894   5.815   5.814
 1342SOL    HW1 4925   2.868   5.797   5.909
 1342SOL    HW2 4926   2.902   5.914   5.800
 1343SOL     OW 4927   5.136   5.588   2.603
 1343SOL    HW1 4928   5.156   5.665   2.541
 1343SOL    HW2 4929   5.201   5.590   2.679
 1344SOL     OW 4930   6.508   5.670   4.596
 1344SOL    HW1 4931   6.593   5.626   4.626
 1344SOL    HW2 4932   6.458   5.610   4.534
 1345SOL     OW 4933   1.506   0.014   2.771
 1345SOL    HW1 4934   1.567   7.022   2.693
 1345SOL    HW2 4935   1.532   6.975   2.845
 1346SOL     OW 4936   1.005   5.528   4.517
 1346SOL    HW1 4937   0.987   5.531   4.615
 1346SOL    HW2 4938   0.980   5.438   4.481
 1347SOL     OW 4939   6.973   6.659   5.274
 1347SOL    HW1 4940   6.995   6.648   5.177
 1347SOL    HW2 4941   7.004   6.579   5.325
 1348SOL     OW 4942   5.305   5.616   3.072
 1348SOL    HW1 4943   5.350   5.696   3.111
 1348SOL    HW2 4944   5.308   5.541   3.137
 1349SOL     OW 4945   4.615   2.549   5.632
 1349SOL    HW1 4946   4.651   2.595   5.550
 1349SOL    HW2 4947   4.691   2.510   5.684
 1350SOL     OW 4948   5.420   5.222   5.141
 1350SOL    HW1 4949   5.328   5.261   5.133
 1350SOL    HW2 4950   5.456   5.241   5.232
 1351SOL     OW 4951   5.929   1.640   3.303
 1351SOL    HW1 4952   5.999   1.653   3.373
 1351SOL    HW2 4953   5.969   1.596   3.223
 1352SOL     OW 4954   6.973   5.966   2.428
 1352SOL    HW1 4955   6.935   6.043   2.378
 1352SOL    HW2 4956   6.987   5.889   2.366
 1353SOL     OW 4957   0.469   2.298   0.435
 1353SOL    HW1 4958   0.374   2.283   0.463
 1353SOL    HW2 4959   0.471   2.339   0.343
 1354SOL     OW 4960   0.808   4.208   1.879
 1354SOL    HW1 4961   0.844   4.118   1.856
 1354SOL    HW2 4962   0.865   4.279   1.838
 1355SOL     OW 4963   6.338   2.634   4.561
 1355SOL    HW1 4964   6.321   2.567   4.489
 1355SOL    HW2 4965   6.410   2.697   4.532
 1356SOL     OW 4966   3.006   3.102   2.642
 1356SOL    HW1 4967   3.011   3.060   2.552
 1356SOL    HW2 4968   3.037   3.037   2.711
 1357SOL     OW 4969   0.662   3.390   6.056
 1357SOL    HW1 4970   0.679   3.327   5.980
 1357SOL    HW2 4971   0.719   3.472   6.045
 1358SOL     OW 4972   4.461   6.895   5.851
 1358SOL    HW1 4973   4.400   6.825   5.814
 1358SOL    HW2 4974   4.528   6.921   5.781
 1359SOL     OW 4975   5.729   5.023   2.133
 1359SOL    HW1 4976   5.776   5.015   2.221
 1359SOL    HW2 4977   5.724   4.933   2.090
 1360SOL     OW 4978   3.269   2.804   6.968
 1360SOL    HW1 4979   3.187   2.858   6.947
 1360SOL    HW2 4980   3.275   2.792   0.045
 1361SOL     OW 4981   0.136   5.551   5.253
 1361SOL    HW1 4982   0.181   5.518   5.170
 1361SOL    HW2 4983   0.081   5.478   5.293
 1362SOL     OW 4984   3.281   4.002   3.735
 1362SOL    HW1 4985   3.310   3.911   3.762
 1362SOL    HW2 4986   3.266   4.058   3.817
 1363SOL     OW 4987   0.240   5.668   2.740
 1363SOL    HW1 4988   0.282   5.598   2.798
 1363SOL    HW2 4989   0.221   5.629   2.650
 1364SOL     OW 4990   6.693   3.101   1.177
 1364SOL    HW1 4991   6.603   3.098   1.221
 1364SOL    HW2 4992   6.732   3.192   1.187
 1365SOL     OW 4993   0.474   3.288   6.679
 1365SOL    HW1 4994   0.433   3.311   6.767
 1365SOL    HW2 4995   0.410   3.232   6.626
 1366SOL     OW 4996   0.826   4.674   0.171
 1366SOL    HW1 4997   0.795   4.678   0.077
 1366SOL    HW2 4998   0.871   4.759   0.196
 1367SOL     OW 4999   2.214   6.980   3.274
 1367SOL    HW1 5000   2.271   0.038   3.261
 1367SOL    HW2 5001   2.140   6.980   3.208
 1368SOL     OW 5002   6.050   0.514   3.420
 1368SOL    HW1 5003   6.035   0.561   3.507
 1368SOL    HW2 5004   5.971   0.456   3.400
 1369SOL     OW 5005   2.769   6.748   1.575
 1369SOL    HW1 5006   2.673   6.771   1.589
 1369SOL    HW2 5007   2.780   6.699   1.488
 1370SOL     OW 5008   4.207   1.166   0.854
 1370SOL    HW1 5009   4.279   1.233   0.870
 1370SOL    HW2 5010   4.120   1.200   0.890
 1371SOL     OW 5011   6.228   1.782   4.628
 1371SOL    HW1 5012   6.282   1.858   4.665
 1371SOL    HW2 5013   6.241   1.701   4.685
 1372SOL     OW 5014   1.350   2.941   0.424
 1372SOL    HW1 5015   1.293   2.871   0.382
 1372SOL    HW2 5016   1.294   3.021   0.446
 1373SOL     OW 5017   5.239   2.831   0.307
 1373SOL    HW1 5018   5.160   2.788   0.350
 1373SOL    HW2 5019   5.210   2.880   0.225
 1374SOL     OW 5020   5.228   1.864   0.110
 1374SOL    HW1 5021   5.192   1.773   0.128
 1374SOL    HW2 5022   5.185   1.902   0.028
 1375SOL     OW 5023   0.375   4.105   6.314
 1375SOL    HW1 5024   0.411   4.035   6.376
 1375SOL    HW2 5025   0.309   4.063   6.251
 1376SOL     OW 5026   4.220   4.812   4.782
 1376SOL    HW1 5027   4.235   4.726   4.830
 1376SOL    HW2 5028   4.280   4.817   4.702
 1377SOL     OW 5029   0.009   3.967   5.572
 1377SOL    HW1 5030   0.107   3.986   5.577
 1377SOL    HW2 5031   6.981   4.044   5.611
 1378SOL     OW 5032   5.795   1.003   4.863
 1378SOL    HW1 5033   5.776   1.101   4.865
 1378SOL    HW2 5034   5.848   0.978   4.943
 1379SOL     OW 5035   3.504   6.867   2.542
 1379SOL    HW1 5036   3.519   6.933   2.616
 1379SOL    HW2 5037   3.534   6.776   2.572
 1380SOL     OW 5038   0.014   6.720   2.592
 1380SOL    HW1 5039   0.043   6.786   2.522
 1380SOL    HW2 5040   0.009   6.766   2.680
 1381SOL     OW 5041   6.400   2.689   0.111
 1381SOL    HW1 5042   6.374   2.774   0.064
 1381SOL    HW2 5043   6.365   2.690   0.204
 1382SOL     OW 5044   4.686   4.370   0.692
 1382SOL    HW1 5045   4.615   4.299   0.687
 1382SOL    HW2 5046   4.648   4.458   0.665
 1383SOL     OW 5047   1.138   0.409   1.603
 1383SOL    HW1 5048   1.172   0.379   1.514
 1383SOL    HW2 5049   1.067   0.347   1.635
 1384SOL     OW 5050   4.315   7.012   1.777
 1384SOL    HW1 5051   4.349   6.931   1.825
 1384SOL    HW2 5052   4.384   0.021   1.713
 1385SOL     OW 5053   1.148   3.758   3.732
 1385SOL    HW1 5054   1.227   3.809   3.698
 1385SOL    HW2 5055   1.096   3.721   3.655
 1386SOL     OW 5056   2.980   0.748   4.823
 1386SOL    HW1 5057   2.951   0.765   4.729
 1386SOL    HW2 5058   3.061   0.802   4.843
 1387SOL     OW 5059   4.058   5.758   2.561
 1387SOL    HW1 5060   3.985   5.697   2.594
 1387SOL    HW2 5061   4.018   5.841   2.523
 1388SOL     OW 5062   0.418   6.658   3.274
 1388SOL    HW1 5063   0.370   6.701   3.350
 1388SOL    HW2 5064   0.504   6.618   3.307
 1389SOL     OW 5065   0.355   1.018   3.494
 1389SOL    HW1 5066   0.358   0.996   3.591
 1389SOL    HW2 5067   0.297   1.098   3.480
 1390SOL     OW 5068   5.561   2.621   5.951
 1390SOL    HW1 5069   5.591   2.705   5.996
 1390SOL    HW2 5070   5.503   2.568   6.014
 1391SOL     OW 5071   6.167   0.478   5.210
 1391SOL    HW1 5072   6.072   0.510   5.206
 1391SOL    HW2 5073   6.187   0.425   5.127
 1392SOL     OW 5074   5.239   6.128   6.882
 1392SOL    HW1 5075   5.324   6.087   6.917
 1392SOL    HW2 5076   5.260   6.187   6.805
 1393SOL     OW 5077   5.937   3.754   5.794
 1393SOL    HW1 5078   6.004   3.690   5.757
 1393SOL    HW2 5079   5.965   3.848   5.772
 1394SOL     OW 5080   3.679   6.338   4.038
 1394SOL    HW1 5081   3.738   6.258   4.047
 1394SOL    HW2 5082   3.672   6.384   4.126
 1395SOL     OW 5083   1.380   4.431   4.070
 1395SOL    HW1 5084   1.449   4.450   4.139
 1395SOL    HW2 5085   1.400   4.481   3.987
 1396SOL     OW 5086   1.541   0.513   3.646
 1396SOL    HW1 5087   1.611   0.532   3.577
 1396SOL    HW2 5088   1.487   0.434   3.619
 1397SOL     OW 5089   0.616   6.004   4.340
 1397SOL    HW1 5090   0.555   6.076   4.307
 1397SOL    HW2 5091   0.632   6.017   4.438
 1398SOL     OW 5092   1.783   1.890   6.380
 1398SOL    HW1 5093   1.693   1.861   6.348
 1398SOL    HW2 5094   1.776   1.982   6.418
 1399SOL     OW 5095   3.943   0.360   6.728
 1399SOL    HW1 5096   3.931   0.307   6.644
 1399SOL    HW2 5097   3.946   0.298   6.807
 1400SOL     OW 5098   0.123   2.051   4.520
 1400SOL    HW1 5099   0.034   2.006   4.525
 1400SOL    HW2 5100   0.132   2.115   4.596
 1401SOL     OW 5101   6.128   6.475   4.334
 1401SOL    HW1 5102   6.045   6.502   4.383
 1401SOL    HW2 5103   6.103   6.434   4.247
 1402SOL     OW 5104   5.924   4.389   0.126
 1402SOL    HW1 5105   5.840   4.336   0.119
 1402SOL    HW2 5106   5.978   4.377   0.043
 1403SOL     OW 5107   1.477   2.305   1.515
 1403SOL    HW1 5108   1.402   2.362   1.547
 1403SOL    HW2 5109   1.493   2.322   1.417
 1404SOL     OW 5110   5.985   0.020   0.084
 1404SOL    HW1 5111   5.991   6.951   0.124
 1404SOL    HW2 5112   6.017   0.088   0.151
 1405SOL     OW 5113   2.629   3.523   0.677
 1405SOL    HW1 5114   2.608   3.466   0.597
 1405SOL    HW2 5115   2.623   3.620   0.651
 1406SOL     OW 5116   2.472   4.690   1.247
 1406SOL    HW1 5117   2.519   4.672   1.161
 1406SOL    HW2 5118   2.528   4.749   1.304
 1407SOL     OW 5119   1.724   4.052   3.436
 1407SOL    HW1 5120   1.642   4.006   3.402
 1407SOL    HW2 5121   1.697   4.130   3.492
 1408SOL     OW 5122   5.225   6.562   6.767
 1408SOL    HW1 5123   5.239   6.549   6.865
 1408SOL    HW2 5124   5.313   6.552   6.719
 1409SOL     OW 5125   6.900   0.585   5.070
 1409SOL    HW1 5126   6.911   0.666   5.014
 1409SOL    HW2 5127   6.922   0.503   5.016
 1410SOL     OW 5128   2.950   3.804   0.135
 1410SOL    HW1 5129   2.970   3.780   0.040
 1410SOL    HW2 5130   2.854   3.783   0.155
 1411SOL     OW 5131   3.564   5.459   6.346
 1411SOL    HW1 5132   3.588   5.373   6.389
 1411SOL    HW2 5133   3.647   5.502   6.309
 1412SOL     OW 5134   0.673   4.116   1.579
 1412SOL    HW1 5135   0.643   4.126   1.674
 1412SOL    HW2 5136   0.593   4.118   1.519
 1413SOL     OW 5137   1.656   1.637   4.548
 1413SOL    HW1 5138   1.667   1.570   4.475
 1413SOL    HW2 5139   1.746   1.673   4.573
 1414SOL     OW 5140   1.894   2.133   1.912
 1414SOL    HW1 5141   1.983   2.113   1.954
 1414SOL    HW2 5142   1.859   2.219   1.949
 1415SOL     OW 5143   3.161   1.599   4.678
 1415SOL    HW1 5144   3.222   1.522   4.657
 1415SOL    HW2 5145   3.104   1.619   4.598
 1416SOL     OW 5146   3.577   0.618   4.398
 1416SOL    HW1 5147   3.568   0.673   4.482
 1416SOL    HW2 5148   3.486   0.600   4.361
 1417SOL     OW 5149   3.015   2.718   6.089
 1417SOL    HW1 5150   2.993   2.736   6.185
 1417SOL    HW2 5151   3.050   2.801   6.046
 1418SOL     OW 5152   2.805   3.555   0.302
 1418SOL    HW1 5153   2.782   3.536   0.206
 1418SOL    HW2 5154   2.857   3.640   0.308
 1419SOL     OW 5155   2.728   5.518   4.032
 1419SOL    HW1 5156   2.754   5.535   4.127
 1419SOL    HW2 5157   2.762   5.592   3.974
 1420SOL     OW 5158   3.655   5.689   2.992
 1420SOL    HW1 5159   3.651   5.752   2.915
 1420SOL    HW2 5160   3.563   5.664   3.020
 1421SOL     OW 5161   1.176   4.167   4.123
 1421SOL    HW1 5162   1.269   4.203   4.130
 1421SOL    HW2 5163   1.121   4.225   4.063
 1422SOL     OW 5164   3.455   4.466   6.055
 1422SOL    HW1 5165   3.521   4.409   6.005
 1422SOL    HW2 5166   3.502   4.541   6.099
 1423SOL     OW 5167   3.242   0.866   4.911
 1423SOL    HW1 5168   3.295   0.941   4.872
 1423SOL    HW2 5169   3.255   0.784   4.855
 1424SOL     OW 5170   6.577   3.504   6.772
 1424SOL    HW1 5171   6.622   3.545   6.693
 1424SOL    HW2 5172   6.629   3.425   6.803
 1425SOL     OW 5173   2.173   5.208   5.608
 1425SOL    HW1 5174   2.227   5.124   5.602
 1425SOL    HW2 5175   2.186   5.262   5.524
 1426SOL     OW 5176   2.257   1.873   5.975
 1426SOL    HW1 5177   2.296   1.915   6.057
 1426SOL    HW2 5178   2.180   1.929   5.943
 1427SOL     OW 5179   0.278   0.120   4.001
 1427SOL    HW1 5180   0.237   0.209   3.980
 1427SOL    HW2 5181   0.210   0.060   4.042
 1428SOL     OW 5182   0.197   2.102   1.949
 1428SOL    HW1 5183   0.235   2.040   2.018
 1428SOL    HW2 5184   0.114   2.145   1.985
 1429SOL     OW 5185   6.487   1.706   6.937
 1429SOL    HW1 5186   6.538   1.627   6.972
 1429SOL    HW2 5187   6.406   1.721   6.993
 1430SOL     OW 5188   2.037   4.690   4.056
 1430SOL    HW1 5189   2.052   4.757   3.982
 1430SOL    HW2 5190   2.116   4.689   4.116
 1431SOL     OW 5191   2.512   2.206   6.131
 1431SOL    HW1 5192   2.569   2.170   6.057
 1431SOL    HW2 5193   2.427   2.242   6.094
 1432SOL     OW 5194   2.141   1.155   1.478
 1432SOL    HW1 5195   2.202   1.219   1.432
 1432SOL    HW2 5196   2.180   1.128   1.566
 1433SOL     OW 5197   4.225   0.086   4.479
 1433SOL    HW1 5198   4.176   0.093   4.566
 1433SOL    HW2 5199   4.322   0.068   4.496
 1434SOL     OW 5200   0.105   0.750   6.326
 1434SOL    HW1 5201   0.095   0.711   6.235
 1434SOL    HW2 5202   0.057   0.838   6.329
 1435SOL     OW 5203   0.066   0.220   3.345
 1435SOL    HW1 5204   0.007   0.159   3.292
 1435SOL    HW2 5205   0.010   0.275   3.407
 1436SOL     OW 5206   6.166   3.819   0.210
 1436SOL    HW1 5207   6.263   3.806   0.189
 1436SOL    HW2 5208   6.112   3.760   0.149
 1437SOL     OW 5209   3.350   0.451   5.639
 1437SOL    HW1 5210   3.333   0.395   5.558
 1437SOL    HW2 5211   3.389   0.538   5.611
 1438SOL     OW 5212   2.476   0.295   1.714
 1438SOL    HW1 5213   2.449   0.391   1.712
 1438SOL    HW2 5214   2.570   0.287   1.746
 1439SOL     OW 5215   0.437   5.070   0.905
 1439SOL    HW1 5216   0.528   5.102   0.932
 1439SOL    HW2 5217   0.376   5.071   0.984
 1440SOL     OW 5218   3.482   3.391   5.134
 1440SOL    HW1 5219   3.553   3.453   5.102
 1440SOL    HW2 5220   3.410   3.443   5.179
 1441SOL     OW 5221   6.384   3.402   4.489
 1441SOL    HW1 5222   6.310   3.454   4.532
 1441SOL    HW2 5223   6.359   3.379   4.395
 1442SOL     OW 5224   6.922   4.768   0.026
 1442SOL    HW1 5225   6.837   4.717   0.037
 1442SOL    HW2 5226   6.998   4.717   0.066
 1443SOL     OW 5227   0.965   2.551   4.843
 1443SOL    HW1 5228   1.034   2.479   4.833
 1443SOL    HW2 5229   0.950   2.569   4.940
 1444SOL     OW 5230   4.493   5.928   1.543
 1444SOL    HW1 5231   4.395   5.909   1.532
 1444SOL    HW2 5232   4.544   5.842   1.538
 1445SOL     OW 5233   0.190   2.647   2.622
 1445SOL    HW1 5234   0.104   2.622   2.579
 1445SOL    HW2 5235   0.207   2.588   2.701
 1446SOL     OW 5236   5.275   2.146   6.680
 1446SOL    HW1 5237   5.226   2.219   6.632
 1446SOL    HW2 5238   5.323   2.183   6.759
 1447SOL     OW 5239   6.617   6.479   5.291
 1447SOL    HW1 5240   6.603   6.447   5.197
 1447SOL    HW2 5241   6.622   6.579   5.291
 1448SOL     OW 5242   6.911   2.256   0.138
 1448SOL    HW1 5243   6.968   2.317   0.084
 1448SOL    HW2 5244   6.845   2.210   0.079
 1449SOL     OW 5245   5.765   0.712   6.947
 1449SOL    HW1 5246   5.721   0.646   6.886
 1449SOL    HW2 5247   5.738   0.693   0.019
 1450SOL     OW 5248   0.454   2.257   2.605
 1450SOL    HW1 5249   0.539   2.273   2.655
 1450SOL    HW2 5250   0.426   2.340   2.557
 1451SOL     OW 5251   3.465   0.969   1.877
 1451SOL    HW1 5252   3.418   0.885   1.903
 1451SOL    HW2 5253   3.492   0.965   1.781
 1452SOL     OW 5254   4.086   1.637   4.537
 1452SOL    HW1 5255   3.987   1.647   4.542
 1452SOL    HW2 5256   4.130   1.718   4.578
 1453SOL     OW 5257   0.226   3.775   5.091
 1453SOL    HW1 5258   0.244   3.681   5.120
 1453SOL    HW2 5259   0.219   3.777   4.991
 1454SOL     OW 5260   6.336   2.410   2.898
 1454SOL    HW1 5261   6.248   2.406   2.945
 1454SOL    HW2 5262   6.325   2.456   2.810
 1455SOL     OW 5263   1.924   6.914   1.902
 1455SOL    HW1 5264   1.894   6.902   1.807
 1455SOL    HW2 5265   1.898   7.005   1.933
 1456SOL     OW 5266   6.319   0.056   5.362
 1456SOL    HW1 5267   6.271   0.133   5.321
 1456SOL    HW2 5268   6.372   0.087   5.441
 1457SOL     OW 5269   1.611   0.062   1.066
 1457SOL    HW1 5270   1.686   0.006   1.099
 1457SOL    HW2 5271   1.636   0.159   1.074
 1458SOL     OW 5272   5.326   6.307   3.847
 1458SOL    HW1 5273   5.329   6.362   3.764
 1458SOL    HW2 5274   5.241   6.327   3.897
 1459SOL     OW 5275   3.196   4.751   5.831
 1459SOL    HW1 5276   3.176   4.849   5.828
 1459SOL    HW2 5277   3.282   4.733   5.783
 1460SOL     OW 5278   0.435   5.390   5.795
 1460SOL    HW1 5279   0.456   5.326   5.721
 1460SOL    HW2 5280   0.434   5.484   5.759
 1461SOL     OW 5281   0.565   5.339   3.123
 1461SOL    HW1 5282   0.621   5.376   3.048
 1461SOL    HW2 5283   0.598   5.376   3.210
 1462SOL     OW 5284   0.753   0.986   6.198
 1462SOL    HW1 5285   0.718   1.048   6.268
 1462SOL    HW2 5286   0.852   0.999   6.188
 1463SOL     OW 5287   0.428   5.947   6.250
 1463SOL    HW1 5288   0.440   5.915   6.345
 1463SOL    HW2 5289   0.337   5.921   6.218
 1464SOL     OW 5290   6.537   0.052   0.932
 1464SOL    HW1 5291   6.576   0.061   0.840
 1464SOL    HW2 5292   6.606   0.080   0.999
 1465SOL     OW 5293   1.887   1.713   3.497
 1465SOL    HW1 5294   1.932   1.683   3.581
 1465SOL    HW2 5295   1.802   1.760   3.519
 1466SOL     OW 5296   1.599   0.689   2.853
 1466SOL    HW1 5297   1.505   0.722   2.845
 1466SOL    HW2 5298   1.656   0.731   2.782
 1467SOL     OW 5299   2.617   1.104   2.166
 1467SOL    HW1 5300   2.581   1.035   2.229
 1467SOL    HW2 5301   2.701   1.144   2.204
 1468SOL     OW 5302   5.124   5.214   3.127
 1468SOL    HW1 5303   5.160   5.185   3.039
 1468SOL    HW2 5304   5.110   5.313   3.127
 1469SOL     OW 5305   1.047   0.811   2.207
 1469SOL    HW1 5306   1.142   0.842   2.205
 1469SOL    HW2 5307   0.997   0.850   2.129
 1470SOL     OW 5308   1.936   0.719   3.003
 1470SOL    HW1 5309   1.870   0.662   3.052
 1470SOL    HW2 5310   1.921   0.815   3.027
 1471SOL     OW 5311   0.743   0.326   0.851
 1471SOL    HW1 5312   0.686   0.347   0.772
 1471SOL    HW2 5313   0.688   0.283   0.922
 1472SOL     OW 5314   4.318   5.656   5.114
 1472SOL    HW1 5315   4.290   5.561   5.125
 1472SOL    HW2 5316   4.239   5.711   5.085
 1473SOL     OW 5317   5.911   5.707   3.775
 1473SOL    HW1 5318   5.967   5.652   3.713
 1473SOL    HW2 5319   5.911   5.665   3.866
 1474SOL     OW 5320   6.228   6.065   3.418
 1474SOL    HW1 5321   6.142   6.112   3.437
 1474SOL    HW2 5322   6.264   6.096   3.330
 1475SOL     OW 5323   6.949   0.477   1.517
 1475SOL    HW1 5324   6.941   0.412   1.592
 1475SOL    HW2 5325   6.944   0.570   1.553
 1476SOL     OW 5326   1.799   1.713   1.776
 1476SOL    HW1 5327   1.777   1.666   1.861
 1476SOL    HW2 5328   1.776   1.810   1.785
 1477SOL     OW 5329   2.517   0.346   0.123
 1477SOL    HW1 5330   2.573   0.403   0.062
 1477SOL    HW2 5331   2.550   0.252   0.118
 1478SOL     OW 5332   5.401   4.297   0.455
 1478SOL    HW1 5333   5.429   4.213   0.408
 1478SOL    HW2 5334   5.481   4.357   0.464
 1479SOL     OW 5335   1.761   3.537   6.974
 1479SOL    HW1 5336   1.662   3.553   6.975
 1479SOL    HW2 5337   1.787   3.485   0.033
 1480SOL     OW 5338   2.689   0.169   6.229
 1480SOL    HW1 5339   2.662   0.113   6.308
 1480SOL    HW2 5340   2.678   0.266   6.253
 1481SOL     OW 5341   7.005   2.020   5.477
 1481SOL    HW1 5342   0.078   2.003   5.452
 1481SOL    HW2 5343   6.953   1.936   5.471
 1482SOL     OW 5344   4.948   2.430   1.029
 1482SOL    HW1 5345   5.009   2.509   1.022
 1482SOL    HW2 5346   4.936   2.406   1.126
 1483SOL     OW 5347   6.170   2.387   6.359
 1483SOL    HW1 5348   6.190   2.454   6.287
 1483SOL    HW2 5349   6.248   2.326   6.370
 1484SOL     OW 5350   6.258   4.487   4.370
 1484SOL    HW1 5351   6.305   4.429   4.302
 1484SOL    HW2 5352   6.267   4.583   4.344
 1485SOL     OW 5353   4.151   2.099   2.501
 1485SOL    HW1 5354   4.104   2.011   2.509
 1485SOL    HW2 5355   4.153   2.144   2.590
 1486SOL     OW 5356   5.131   2.192   2.549
 1486SOL    HW1 5357   5.224   2.230   2.546
 1486SOL    HW2 5358   5.067   2.259   2.513
 1487SOL     OW 5359   6.855   2.231   6.726
 1487SOL    HW1 5360   6.884   2.303   6.663
 1487SOL    HW2 5361   6.756   2.223   6.724
 1488SOL     OW 5362   5.539   2.395   3.102
 1488SOL    HW1 5363   5.555   2.488   3.134
 1488SOL    HW2 5364   5.481   2.397   3.021
 1489SOL     OW 5365   3.922   5.190   4.061
 1489SOL    HW1 5366   3.920   5.091   4.077
 1489SOL    HW2 5367   3.878   5.210   3.974
 1490SOL     OW 5368   1.492   3.205   1.586
 1490SOL    HW1 5369   1.478   3.171   1.679
 1490SOL    HW2 5370   1.417   3.268   1.562
 1491SOL     OW 5371   5.955   3.585   4.247
 1491SOL    HW1 5372   5.885   3.637   4.199
 1491SOL    HW2 5373   5.912   3.526   4.316
 1492SOL     OW 5374   5.725   2.082   2.765
 1492SOL    HW1 5375   5.818   2.067   2.799
 1492SOL    HW2 5376   5.671   1.998   2.777
 1493SOL     OW 5377   4.887   6.971   3.839
 1493SOL    HW1 5378   4.938   6.913   3.903
 1493SOL    HW2 5379   4.922   0.042   3.843
 1494SOL     OW 5380   5.282   2.048   5.851
 1494SOL    HW1 5381   5.197   2.068   5.802
 1494SOL    HW2 5382   5.360   2.070   5.792
 1495SOL     OW 5383   6.768   2.621   4.418
 1495SOL    HW1 5384   6.756   2.542   4.478
 1495SOL    HW2 5385   6.830   2.597   4.343
 1496SOL     OW 5386   1.064   1.378   2.371
 1496SOL    HW1 5387   1.075   1.359   2.468
 1496SOL    HW2 5388   0.999   1.453   2.359
 1497SOL     OW 5389   6.948   3.241   3.404
 1497SOL    HW1 5390   6.906   3.240   3.495
 1497SOL    HW2 5391   0.024   3.234   3.413
 1498SOL     OW 5392   2.237   4.399   6.589
 1498SOL    HW1 5393   2.309   4.440   6.644
 1498SOL    HW2 5394   2.220   4.456   6.509
 1499SOL     OW 5395   1.092   3.967   5.788
 1499SOL    HW1 5396   1.088   3.874   5.752
 1499SOL    HW2 5397   1.067   3.967   5.885
 1500SOL     OW 5398   6.298   6.780   0.109
 1500SOL    HW1 5399   6.386   6.777   0.061
 1500SOL    HW2 5400   6.229   6.818   0.049
 1501SOL     OW 5401   5.274   1.222   6.348
 1501SOL    HW1 5402   5.338   1.254   6.279
 1501SOL    HW2 5403   5.183   1.261   6.331
 1502SOL     OW 5404   5.741   6.637   1.465
 1502SOL    HW1 5405   5.738   6.734   1.440
 1502SOL    HW2 5406   5.648   6.603   1.477
 1503SOL     OW 5407   2.874   1.171   2.313
 1503SOL    HW1 5408   2.898   1.266   2.294
 1503SOL    HW2 5409   2.942   1.110   2.272
 1504SOL     OW 5410   0.782   1.214   4.638
 1504SOL    HW1 5411   0.711   1.166   4.688
 1504SOL    HW2 5412   0.870   1.169   4.654
 1505SOL     OW 5413   5.801   0.721   6.308
 1505SOL    HW1 5414   5.709   0.682   6.308
 1505SOL    HW2 5415   5.848   0.695   6.224
 1506SOL     OW 5416   1.566   5.034   1.800
 1506SOL    HW1 5417   1.635   4.964   1.780
 1506SOL    HW2 5418   1.601   5.123   1.772
 1507SOL     OW 5419   0.831   2.205   5.473
 1507SOL    HW1 5420   0.846   2.122   5.419
 1507SOL    HW2 5421   0.838   2.182   5.570
 1508SOL     OW 5422   6.536   0.531   1.818
 1508SOL    HW1 5423   6.575   0.607   1.765
 1508SOL    HW2 5424   6.488   0.567   1.898
 1509SOL     OW 5425   4.709   2.373   6.299
 1509SOL    HW1 5426   4.671   2.463   6.281
 1509SOL    HW2 5427   4.772   2.377   6.376
 1510SOL     OW 5428   6.207   2.467   4.402
 1510SOL    HW1 5429   6.126   2.521   4.382
 1510SOL    HW2 5430   6.182   2.371   4.410
 1511SOL     OW 5431   3.251   2.429   1.405
 1511SOL    HW1 5432   3.252   2.400   1.501
 1511SOL    HW2 5433   3.252   2.529   1.401
 1512SOL     OW 5434   0.019   6.616   1.647
 1512SOL    HW1 5435   7.002   6.537   1.695
 1512SOL    HW2 5436   0.006   6.698   1.703
 1513SOL     OW 5437   4.075   0.576   3.946
 1513SOL    HW1 5438   4.105   0.665   3.979
 1513SOL    HW2 5439   4.025   0.529   4.019
 1514SOL     OW 5440   4.922   2.684   5.809
 1514SOL    HW1 5441   4.890   2.590   5.815
 1514SOL    HW2 5442   4.913   2.728   5.899
 1515SOL     OW 5443   6.578   3.359   5.201
 1515SOL    HW1 5444   6.610   3.453   5.204
 1515SOL    HW2 5445   6.655   3.297   5.219
 1516SOL     OW 5446   0.323   0.310   0.934
 1516SOL    HW1 5447   0.310   0.300   0.836
 1516SOL    HW2 5448   0.235   0.307   0.980
 1517SOL     OW 5449   3.646   5.902   3.407
 1517SOL    HW1 5450   3.732   5.909   3.355
 1517SOL    HW2 5451   3.576   5.957   3.362
 1518SOL     OW 5452   0.900   2.839   0.279
 1518SOL    HW1 5453   0.915   2.837   0.378
 1518SOL    HW2 5454   0.868   2.749   0.248
 1519SOL     OW 5455   0.084   4.679   2.044
 1519SOL    HW1 5456   0.147   4.688   1.967
 1519SOL    HW2 5457   0.046   4.768   2.067
 1520SOL     OW 5458   0.913   3.650   2.806
 1520SOL    HW1 5459   0.832   3.608   2.847
 1520SOL    HW2 5460   0.911   3.749   2.823
 1521SOL     OW 5461   2.988   3.799   6.847
 1521SOL    HW1 5462   2.895   3.828   6.827
 1521SOL    HW2 5463   3.053   3.862   6.803
 1522SOL     OW 5464   6.356   0.625   4.960
 1522SOL    HW1 5465   6.410   0.561   5.016
 1522SOL    HW2 5466   6.401   0.636   4.871
 1523SOL     OW 5467   5.044   3.692   0.364
 1523SOL    HW1 5468   5.004   3.616   0.415
 1523SOL    HW2 5469   5.049   3.668   0.267
 1524SOL     OW 5470   1.269   1.815   2.231
 1524SOL    HW1 5471   1.356   1.861   2.250
 1524SOL    HW2 5472   1.281   1.716   2.243
 1525SOL     OW 5473   6.290   2.399   6.994
 1525SOL    HW1 5474   6.280   2.374   0.067
 1525SOL    HW2 5475   6.382   2.433   6.978
 1526SOL     OW 5476   1.485   0.555   6.480
 1526SOL    HW1 5477   1.541   0.531   6.401
 1526SOL    HW2 5478   1.404   0.604   6.449
 1527SOL     OW 5479   3.804   0.958   5.807
 1527SOL    HW1 5480   3.807   0.966   5.906
 1527SOL    HW2 5481   3.897   0.968   5.770
 1528SOL     OW 5482   5.327   5.648   1.728
 1528SOL    HW1 5483   5.361   5.616   1.639
 1528SOL    HW2 5484   5.237   5.690   1.715
 1529SOL     OW 5485   3.273   0.694   0.029
 1529SOL    HW1 5486   3.330   0.706   0.110
 1529SOL    HW2 5487   3.177   0.692   0.056
 1530SOL     OW 5488   2.823   0.859   2.098
 1530SOL    HW1 5489   2.866   0.927   2.157
 1530SOL    HW2 5490   2.876   0.775   2.099
 1531SOL     OW 5491   5.860   0.786   4.695
 1531SOL    HW1 5492   5.806   0.840   4.761
 1531SOL    HW2 5493   5.932   0.844   4.656
 1532SOL     OW 5494   2.683   3.368   5.876
 1532SOL    HW1 5495   2.756   3.325   5.930
 1532SOL    HW2 5496   2.681   3.328   5.784
 1533SOL     OW 5497   0.538   2.852   6.983
 1533SOL    HW1 5498   0.572   2.877   6.893
 1533SOL    HW2 5499   0.584   2.908   0.030
 1534SOL     OW 5500   1.138   5.036   6.757
 1534SOL    HW1 5501   1.101   5.008   6.845
 1534SOL    HW2 5502   1.161   4.955   6.703
 1535SOL     OW 5503   4.792   5.841   4.530
 1535SOL    HW1 5504   4.692   5.840   4.527
 1535SOL    HW2 5505   4.828   5.788   4.453
 1536SOL     OW 5506   4.022   4.473   5.478
 1536SOL    HW1 5507   3.991   4.448   5.570
 1536SOL    HW2 5508   4.064   4.564   5.480
 1537SOL     OW 5509   3.663   6.379   2.980
 1537SOL    HW1 5510   3.647   6.471   2.946
 1537SOL    HW2 5511   3.691   6.320   2.903
 1538SOL     OW 5512   3.788   5.553   6.252
 1538SOL    HW1 5513   3.885   5.531   6.252
 1538SOL    HW2 5514   3.770   5.626   6.186
 1539SOL     OW 5515   4.290   4.296   1.603
 1539SOL    HW1 5516   4.337   4.250   1.679
 1539SOL    HW2 5517   4.330   4.387   1.590
 1540SOL     OW 5518   1.137   0.222   5.276
 1540SOL    HW1 5519   1.060   0.190   5.221
 1540SOL    HW2 5520   1.193   0.144   5.304
 1541SOL     OW 5521   3.484   2.841   1.808
 1541SOL    HW1 5522   3.486   2.938   1.786
 1541SOL    HW2 5523   3.524   2.826   1.898
 1542SOL     OW 5524   0.088   6.043   1.069
 1542SOL    HW1 5525   0.076   6.037   1.168
 1542SOL    HW2 5526   0.044   6.126   1.035
 1543SOL     OW 5527   3.046   3.808   4.249
 1543SOL    HW1 5528   3.081   3.725   4.206
 1543SOL    HW2 5529   3.122   3.868   4.275
 1544SOL     OW 5530   3.100   3.864   1.891
 1544SOL    HW1 5531   3.055   3.808   1.960
 1544SOL    HW2 5532   3.199   3.848   1.894
 1545SOL     OW 5533   5.236   0.914   4.702
 1545SOL    HW1 5534   5.257   0.864   4.618
 1545SOL    HW2 5535   5.321   0.927   4.754
 1546SOL     OW 5536   5.519   0.409   6.064
 1546SOL    HW1 5537   5.602   0.354   6.061
 1546SOL    HW2 5538   5.515   0.469   5.984
 1547SOL     OW 5539   2.550   4.587   2.664
 1547SOL    HW1 5540   2.624   4.619   2.605
 1547SOL    HW2 5541   2.577   4.595   2.760
 1548SOL     OW 5542   4.913   3.570   5.958
 1548SOL    HW1 5543   4.837   3.508   5.979
 1548SOL    HW2 5544   4.886   3.632   5.885
 1549SOL     OW 5545   4.909   1.763   2.584
 1549SOL    HW1 5546   4.876   1.739   2.493
 1549SOL    HW2 5547   4.923   1.862   2.589
 1550SOL     OW 5548   3.187   5.634   5.870
 1550SOL    HW1 5549   3.102   5.608   5.824
 1550SOL    HW2 5550   3.185   5.602   5.964
 1551SOL     OW 5551   2.555   3.552   0.146
 1551SOL    HW1 5552   2.515   3.492   0.076
 1551SOL    HW2 5553   2.575   3.499   0.228
 1552SOL     OW 5554   0.392   0.363   1.767
 1552SOL    HW1 5555   0.408   0.270   1.736
 1552SOL    HW2 5556   0.443   0.427   1.709
 1553SOL     OW 5557   6.093   1.095   5.435
 1553SOL    HW1 5558   6.034   1.038   5.379
 1553SOL    HW2 5559   6.066   1.086   5.531
 1554SOL     OW 5560   3.701   2.077   3.201
 1554SOL    HW1 5561   3.602   2.083   3.208
 1554SOL    HW2 5562   3.742   2.096   3.290
 1555SOL     OW 5563   4.976   1.767   5.784
 1555SOL    HW1 5564   4.981   1.727   5.875
 1555SOL    HW2 5565   5.037   1.718   5.722
 1556SOL     OW 5566   3.860   0.948   0.383
 1556SOL    HW1 5567   3.956   0.965   0.357
 1556SOL    HW2 5568   3.857   0.877   0.454
 1557SOL     OW 5569   2.118   1.461   6.907
 1557SOL    HW1 5570   2.050   1.393   6.878
 1557SOL    HW2 5571   2.113   1.472   7.006
 1558SOL     OW 5572   5.665   1.582   4.034
 1558SOL    HW1 5573   5.606   1.657   4.063
 1558SOL    HW2 5574   5.675   1.516   4.109
 1559SOL     OW 5575   0.255   2.623   0.618
 1559SOL    HW1 5576   0.301   2.684   0.682
 1559SOL    HW2 5577   0.275   2.651   0.524
 1560SOL     OW 5578   2.506   1.191   6.853
 1560SOL    HW1 5579   2.439   1.151   6.790
 1560SOL    HW2 5580   2.469   1.276   6.891
 1561SOL     OW 5581   5.733   6.147   3.072
 1561SOL    HW1 5582   5.801   6.083   3.106
 1561SOL    HW2 5583   5.756   6.175   2.979
 1562SOL     OW 5584   3.690   6.326   0.895
 1562SOL    HW1 5585   3.709   6.228   0.901
 1562SOL    HW2 5586   3.757   6.376   0.949
 1563SOL     OW 5587   2.067   1.647   5.919
 1563SOL    HW1 5588   2.131   1.711   5.962
 1563SOL    HW2 5589   2.115   1.596   5.847
 1564SOL     OW 5590   1.629   2.514   2.653
 1564SOL    HW1 5591   1.538   2.543   2.682
 1564SOL    HW2 5592   1.622   2.435   2.593
 1565SOL     OW 5593   3.747   5.715   4.197
 1565SOL    HW1 5594   3.838   5.675   4.197
 1565SOL    HW2 5595   3.691   5.671   4.127
 1566SOL     OW 5596   6.497   5.408   4.730
 1566SOL    HW1 5597   6.595   5.393   4.733
 1566SOL    HW2 5598   6.468   5.423   4.636
 1567SOL     OW 5599   6.057   6.113   0.121
 1567SOL    HW1 5600   6.127   6.182   0.136
 1567SOL    HW2 5601   5.979   6.154   0.074
 1568SOL     OW 5602   1.913   6.515   2.565
 1568SOL    HW1 5603   1.997   6.568   2.557
 1568SOL    HW2 5604   1.870   6.507   2.476
 1569SOL     OW 5605   3.618   6.922   3.398
 1569SOL    HW1 5606   3.684   6.858   3.437
 1569SOL    HW2 5607   3.526   6.883   3.403
 1570SOL     OW 5608   1.840   6.149   0.600
 1570SOL    HW1 5609   1.847   6.083   0.675
 1570SOL    HW2 5610   1.884   6.234   0.627
 1571SOL     OW 5611   6.278   1.541   3.006
 1571SOL    HW1 5612   6.198   1.549   3.065
 1571SOL    HW2 5613   6.305   1.632   2.974
 1572SOL     OW 5614   2.140   5.850   0.883
 1572SOL    HW1 5615   2.236   5.831   0.903
 1572SOL    HW2 5616   2.082   5.780   0.925
 1573SOL     OW 5617   6.410   4.982   1.795
 1573SOL    HW1 5618   6.403   5.078   1.821
 1573SOL    HW2 5619   6.363   4.926   1.864
 1574SOL     OW 5620   6.130   2.392   3.899
 1574SOL    HW1 5621   6.089   2.479   3.870
 1574SOL    HW2 5622   6.061   2.338   3.947
 1575SOL     OW 5623   2.341   1.936   1.680
 1575SOL    HW1 5624   2.254   1.949   1.634
 1575SOL    HW2 5625   2.384   2.025   1.697
 1576SOL     OW 5626   0.819   0.011   3.541
 1576SOL    HW1 5627   0.876   0.048   3.468
 1576SOL    HW2 5628   0.771   0.085   3.587
 1577SOL     OW 5629   2.910   0.578   6.105
 1577SOL    HW1 5630   2.934   0.606   6.012
 1577SOL    HW2 5631   2.816   0.546   6.107
 1578SOL     OW 5632   4.990   1.837   5.174
 1578SOL    HW1 5633   5.002   1.770   5.102
 1578SOL    HW2 5634   4.895   1.870   5.174
 1579SOL     OW 5635   0.111   1.895   2.190
 1579SOL    HW1 5636   0.089   1.797   2.184
 1579SOL    HW2 5637   0.041   1.941   2.245
 1580SOL     OW 5638   3.428   4.174   3.491
 1580SOL    HW1 5639   3.371   4.192   3.571
 1580SOL    HW2 5640   3.377   4.196   3.408
 1581SOL     OW 5641   6.136   5.008   5.286
 1581SOL    HW1 5642   6.168   5.005   5.191
 1581SOL    HW2 5643   6.211   5.039   5.345
 1582SOL     OW 5644   2.391   6.618   4.709
 1582SOL    HW1 5645   2.331   6.538   4.705
 1582SOL    HW2 5646   2.437   6.629   4.621
 1583SOL     OW 5647   0.899   5.852   3.492
 1583SOL    HW1 5648   0.926   5.855   3.589
 1583SOL    HW2 5649   0.848   5.768   3.474
 1584SOL     OW 5650   0.723   5.441   5.328
 1584SOL    HW1 5651   0.708   5.389   5.245
 1584SOL    HW2 5652   0.739   5.537   5.305
 1585SOL     OW 5653   4.709   2.298   3.226
 1585SOL    HW1 5654   4.791   2.352   3.206
 1585SOL    HW2 5655   4.675   2.257   3.142
 1586SOL     OW 5656   3.007   4.956   2.237
 1586SOL    HW1 5657   2.947   4.875   2.237
 1586SOL    HW2 5658   3.090   4.937   2.185
 1587SOL     OW 5659   2.542   5.516   5.779
 1587SOL    HW1 5660   2.499   5.602   5.806
 1587SOL    HW2 5661   2.499   5.481   5.696
 1588SOL     OW 5662   4.736   1.253   1.918
 1588SOL    HW1 5663   4.705   1.313   1.992
 1588SOL    HW2 5664   4.666   1.184   1.899
 1589SOL     OW 5665   6.985   3.458   2.477
 1589SOL    HW1 5666   0.044   3.426   2.525
 1589SOL    HW2 5667   6.908   3.398   2.498
 1590SOL     OW 5668   4.690   0.151   4.132
 1590SOL    HW1 5669   4.599   0.162   4.173
 1590SOL    HW2 5670   4.735   0.241   4.128
 1591SOL     OW 5671   0.011   5.399   1.106
 1591SOL    HW1 5672   6.964   5.471   1.108
 1591SOL    HW2 5673   0.098   5.439   1.078
 1592SOL     OW 5674   2.355   3.547   6.259
 1592SOL    HW1 5675   2.402   3.460   6.264
 1592SOL    HW2 5676   2.415   3.616   6.218
 1593SOL     OW 5677   1.093   7.010   4.678
 1593SOL    HW1 5678   1.091   6.943   4.604
 1593SOL    HW2 5679   1.184   0.027   4.685
 1594SOL     OW 5680   0.702   6.280   1.939
 1594SOL    HW1 5681   0.753   6.332   2.008
 1594SOL    HW2 5682   0.622   6.238   1.982
 1595SOL     OW 5683   0.853   4.968   0.676
 1595SOL    HW1 5684   0.877   5.043   0.738
 1595SOL    HW2 5685   0.789   5.002   0.607
 1596SOL     OW 5686   6.837   3.672   3.811
 1596SOL    HW1 5687   6.839   3.768   3.838
 1596SOL    HW2 5688   6.750   3.631   3.838
 1597SOL     OW 5689   1.232   5.567   1.158
 1597SOL    HW1 5690   1.269   5.481   1.122
 1597SOL    HW2 5691   1.145   5.587   1.114
 1598SOL     OW 5692   6.899   4.465   5.974
 1598SOL    HW1 5693   6.869   4.555   5.941
 1598SOL    HW2 5694   6.958   4.422   5.905
 1599SOL     OW 5695   5.748   5.359   4.787
 1599SOL    HW1 5696   5.660   5.342   4.741
 1599SOL    HW2 5697   5.746   5.318   4.878
 1600SOL     OW 5698   3.136   1.305   3.696
 1600SOL    HW1 5699   3.209   1.242   3.669
 1600SOL    HW2 5700   3.174   1.396   3.711
 1601SOL     OW 5701   6.375   6.314   4.366
 1601SOL    HW1 5702   6.339   6.275   4.281
 1601SOL    HW2 5703   6.317   6.390   4.395
 1602SOL     OW 5704   4.173   5.082   4.141
 1602SOL    HW1 5705   4.214   5.055   4.054
 1602SOL    HW2 5706   4.085   5.125   4.125
 1603SOL     OW 5707   1.827   5.842   3.365
 1603SOL    HW1 5708   1.731   5.815   3.356
 1603SOL    HW2 5709   1.833   5.941   3.376
 1604SOL     OW 5710   5.273   4.422   1.421
 1604SOL    HW1 5711   5.241   4.469   1.338
 1604SOL    HW2 5712   5.194   4.399   1.478
 1605SOL     OW 5713   6.176   5.491   1.958
 1605SOL    HW1 5714   6.195   5.544   1.876
 1605SOL    HW2 5715   6.160   5.553   2.035
 1606SOL     OW 5716   4.303   6.070   5.948
 1606SOL    HW1 5717   4.244   5.993   5.973
 1606SOL    HW2 5718   4.364   6.042   5.874
 1607SOL     OW 5719   3.814   6.888   0.635
 1607SOL    HW1 5720   3.858   6.799   0.648
 1607SOL    HW2 5721   3.863   6.958   0.687
 1608SOL     OW 5722   0.853   1.135   3.431
 1608SOL    HW1 5723   0.858   1.087   3.344
 1608SOL    HW2 5724   0.851   1.234   3.415
 1609SOL     OW 5725   4.411   0.208   0.425
 1609SOL    HW1 5726   4.462   0.292   0.446
 1609SOL    HW2 5727   4.325   0.207   0.476
 1610SOL     OW 5728   6.166   5.465   0.461
 1610SOL    HW1 5729   6.133   5.559   0.447
 1610SOL    HW2 5730   6.210   5.459   0.550
 1611SOL     OW 5731   2.530   3.156   0.326
 1611SOL    HW1 5732   2.518   3.069   0.374
 1611SOL    HW2 5733   2.443   3.182   0.283
 1612SOL     OW 5734   2.845   0.239   0.501
 1612SOL    HW1 5735   2.771   0.220   0.438
 1612SOL    HW2 5736   2.876   0.154   0.543
 1613SOL     OW 5737   1.537   5.236   2.073
 1613SOL    HW1 5738   1.547   5.310   2.139
 1613SOL    HW2 5739   1.465   5.258   2.008
 1614SOL     OW 5740   5.263   1.921   6.308
 1614SOL    HW1 5741   5.164   1.931   6.297
 1614SOL    HW2 5742   5.301   1.876   6.227
 1615SOL     OW 5743   6.588   5.662   0.552
 1615SOL    HW1 5744   6.662   5.611   0.597
 1615SOL    HW2 5745   6.521   5.598   0.516
 1616SOL     OW 5746   3.614   1.027   4.670
 1616SOL    HW1 5747   3.607   1.063   4.577
 1616SOL    HW2 5748   3.699   0.975   4.679
 1617SOL     OW 5749   5.601   6.367   3.224
 1617SOL    HW1 5750   5.656   6.321   3.155
 1617SOL    HW2 5751   5.508   6.380   3.190
 1618SOL     OW 5752   1.805   6.533   3.189
 1618SOL    HW1 5753   1.736   6.462   3.197
 1618SOL    HW2 5754   1.895   6.494   3.207
 1619SOL     OW 5755   0.334   4.400   1.488
 1619SOL    HW1 5756   0.264   4.381   1.557
 1619SOL    HW2 5757   0.379   4.315   1.461
 1620SOL     OW 5758   3.308   4.714   1.366
 1620SOL    HW1 5759   3.214   4.683   1.375
 1620SOL    HW2 5760   3.359   4.650   1.309
 1621SOL     OW 5761   6.274   0.942   0.524
 1621SOL    HW1 5762   6.368   0.940   0.557
 1621SOL    HW2 5763   6.241   1.036   0.521
 1622SOL     OW 5764   0.562   3.276   5.556
 1622SOL    HW1 5765   0.496   3.238   5.621
 1622SOL    HW2 5766   0.649   3.291   5.602
 1623SOL     OW 5767   1.383   2.956   5.248
 1623SOL    HW1 5768   1.317   2.911   5.188
 1623SOL    HW2 5769   1.355   3.050   5.264
 1624SOL     OW 5770   3.636   1.457   5.042
 1624SOL    HW1 5771   3.616   1.509   4.959
 1624SOL    HW2 5772   3.593   1.502   5.121
 1625SOL     OW 5773   1.444   4.827   0.266
 1625SOL    HW1 5774   1.375   4.808   0.336
 1625SOL    HW2 5775   1.409   4.896   0.203
 1626SOL     OW 5776   3.502   0.993   0.780
 1626SOL    HW1 5777   3.558   0.911   0.768
 1626SOL    HW2 5778   3.505   1.048   0.696
 1627SOL     OW 5779   5.999   3.269   4.099
 1627SOL    HW1 5780   5.987   3.245   4.196
 1627SOL    HW2 5781   6.028   3.364   4.092
 1628SOL     OW 5782   4.668   5.076   0.185
 1628SOL    HW1 5783   4.746   5.107   0.239
 1628SOL    HW2 5784   4.699   5.058   0.091
 1629SOL     OW 5785   2.954   1.266   3.918
 1629SOL    HW1 5786   2.984   1.350   3.963
 1629SOL    HW2 5787   2.988   1.265   3.823
 1630SOL     OW 5788   0.242   5.235   6.163
 1630SOL    HW1 5789   0.188   5.179   6.225
 1630SOL    HW2 5790   0.205   5.327   6.160
 1631SOL     OW 5791   1.029   2.621   0.975
 1631SOL    HW1 5792   1.051   2.545   0.914
 1631SOL    HW2 5793   1.081   2.612   1.059
 1632SOL     OW 5794   5.635   2.860   1.634
 1632SOL    HW1 5795   5.726   2.901   1.647
 1632SOL    HW2 5796   5.610   2.808   1.716
 1633SOL     OW 5797   4.775   4.012   4.529
 1633SOL    HW1 5798   4.763   4.026   4.431
 1633SOL    HW2 5799   4.816   3.922   4.545
 1634SOL     OW 5800   5.159   5.768   4.949
 1634SOL    HW1 5801   5.090   5.696   4.962
 1634SOL    HW2 5802   5.114   5.854   4.929
 1635SOL     OW 5803   0.655   5.237   6.711
 1635SOL    HW1 5804   0.747   5.273   6.692
 1635SOL    HW2 5805   0.592   5.313   6.725
 1636SOL     OW 5806   3.084   4.513   0.900
 1636SOL    HW1 5807   3.115   4.432   0.850
 1636SOL    HW2 5808   3.024   4.568   0.842
 1637SOL     OW 5809   6.743   0.285   3.427
 1637SOL    HW1 5810   6.723   0.242   3.339
 1637SOL    HW2 5811   6.666   0.270   3.489
 1638SOL     OW 5812   6.874   3.848   2.647
 1638SOL    HW1 5813   6.844   3.813   2.736
 1638SOL    HW2 5814   6.871   3.947   2.647
 1639SOL     OW 5815   5.752   5.590   1.235
 1639SOL    HW1 5816   5.797   5.676   1.260
 1639SOL    HW2 5817   5.699   5.604   1.151
 1640SOL     OW 5818   5.713   0.114   7.004
 1640SOL    HW1 5819   5.632   0.106   0.040
 1640SOL    HW2 5820   5.795   0.094   0.035
 1641SOL     OW 5821   4.903   2.045   2.633
 1641SOL    HW1 5822   4.991   2.086   2.609
 1641SOL    HW2 5823   4.829   2.100   2.595
 1642SOL     OW 5824   0.195   3.500   0.172
 1642SOL    HW1 5825   0.275   3.552   0.203
 1642SOL    HW2 5826   0.181   3.516   0.075
 1643SOL     OW 5827   2.708   4.823   4.530
 1643SOL    HW1 5828   2.806   4.824   4.512
 1643SOL    HW2 5829   2.688   4.760   4.606
 1644SOL     OW 5830   5.771   4.009   6.852
 1644SOL    HW1 5831   5.786   3.963   6.940
 1644SOL    HW2 5832   5.687   4.062   6.857
 1645SOL     OW 5833   3.140   5.544   6.111
 1645SOL    HW1 5834   3.153   5.445   6.120
 1645SOL    HW2 5835   3.043   5.566   6.123
 1646SOL     OW 5836   2.078   6.771   0.803
 1646SOL    HW1 5837   2.115   6.779   0.710
 1646SOL    HW2 5838   2.149   6.734   0.864
 1647SOL     OW 5839   5.974   3.075   4.845
 1647SOL    HW1 5840   5.914   3.155   4.848
 1647SOL    HW2 5841   5.978   3.039   4.751
 1648SOL     OW 5842   5.260   5.623   0.405
 1648SOL    HW1 5843   5.300   5.623   0.313
 1648SOL    HW2 5844   5.163   5.597   0.399
 1649SOL     OW 5845   3.618   1.313   4.366
 1649SOL    HW1 5846   3.701   1.268   4.332
 1649SOL    HW2 5847   3.597   1.392   4.308
 1650SOL     OW 5848   0.610   5.808   4.799
 1650SOL    HW1 5849   0.618   5.891   4.744
 1650SOL    HW2 5850   0.655   5.822   4.888
 1651SOL     OW 5851   0.251   2.222   1.719
 1651SOL    HW1 5852   0.234   2.181   1.809
 1651SOL    HW2 5853   0.318   2.167   1.669
 1652SOL     OW 5854   1.398   3.449   2.817
 1652SOL    HW1 5855   1.429   3.518   2.882
 1652SOL    HW2 5856   1.394   3.488   2.725
 1653SOL     OW 5857   0.859   6.217   0.117
 1653SOL    HW1 5858   0.957   6.239   0.117
 1653SOL    HW2 5859   0.834   6.177   0.204
 1654SOL     OW 5860   6.970   3.834   1.674
 1654SOL    HW1 5861   6.972   3.802   1.579
 1654SOL    HW2 5862   0.037   3.822   1.715
 1655SOL     OW 5863   0.421   2.107   4.746
 1655SOL    HW1 5864   0.446   2.021   4.791
 1655SOL    HW2 5865   0.501   2.167   4.744
 1656SOL     OW 5866   2.593   4.977   3.209
 1656SOL    HW1 5867   2.544   4.891   3.195
 1656SOL    HW2 5868   2.586   5.005   3.304
 1657SOL     OW 5869   6.029   1.344   4.568
 1657SOL    HW1 5870   5.998   1.272   4.506
 1657SOL    HW2 5871   6.125   1.366   4.548
 1658SOL     OW 5872   5.854   0.802   1.556
 1658SOL    HW1 5873   5.815   0.726   1.607
 1658SOL    HW2 5874   5.913   0.856   1.616
 1659SOL     OW 5875   3.282   0.510   6.723
 1659SOL    HW1 5876   3.191   0.491   6.760
 1659SOL    HW2 5877   3.335   0.425   6.722
 1660SOL     OW 5878   1.897   5.915   2.912
 1660SOL    HW1 5879   1.833   5.868   2.852
 1660SOL    HW2 5880   1.907   6.010   2.883
 1661SOL     OW 5881   2.604   6.125   1.252
 1661SOL    HW1 5882   2.678   6.137   1.187
 1661SOL    HW2 5883   2.638   6.082   1.335
 1662SOL     OW 5884   0.333   1.469   3.956
 1662SOL    HW1 5885   0.266   1.527   3.909
 1662SOL    HW2 5886   0.295   1.376   3.965
 1663SOL     OW 5887   3.976   5.937   2.996
 1663SOL    HW1 5888   4.072   5.926   3.022
 1663SOL    HW2 5889   3.942   5.852   2.956
 1664SOL     OW 5890   2.346   6.488   5.155
 1664SOL    HW1 5891   2.264   6.501   5.098
 1664SOL    HW2 5892   2.370   6.391   5.157
 1665SOL     OW 5893   6.273   2.816   2.361
 1665SOL    HW1 5894   6.301   2.912   2.354
 1665SOL    HW2 5895   6.302   2.768   2.278
 1666SOL     OW 5896   5.066   1.555   6.622
 1666SOL    HW1 5897   5.020   1.466   6.618
 1666SOL    HW2 5898   5.050   1.597   6.711
 1667SOL     OW 5899   0.184   6.773   1.270
 1667SOL    HW1 5900   0.161   6.870   1.279
 1667SOL    HW2 5901   0.274   6.757   1.310
 1668SOL     OW 5902   5.150   5.686   3.833
 1668SOL    HW1 5903   5.078   5.640   3.885
 1668SOL    HW2 5904   5.111   5.763   3.783
 1669SOL     OW 5905   6.282   4.748   5.979
 1669SOL    HW1 5906   6.331   4.835   5.971
 1669SOL    HW2 5907   6.188   4.761   5.950
 1670SOL     OW 5908   0.179   4.065   5.196
 1670SOL    HW1 5909   0.086   4.062   5.162
 1670SOL    HW2 5910   0.209   3.973   5.221
 1671SOL     OW 5911   5.248   2.189   2.802
 1671SOL    HW1 5912   5.288   2.104   2.835
 1671SOL    HW2 5913   5.183   2.169   2.729
 1672SOL     OW 5914   1.460   3.488   1.441
 1672SOL    HW1 5915   1.544   3.496   1.494
 1672SOL    HW2 5916   1.482   3.476   1.345
 1673SOL     OW 5917   0.817   1.361   5.118
 1673SOL    HW1 5918   0.785   1.418   5.193
 1673SOL    HW2 5919   0.760   1.378   5.037
 1674SOL     OW 5920   0.734   3.014   2.441
 1674SOL    HW1 5921   0.648   2.964   2.456
 1674SOL    HW2 5922   0.786   2.970   2.368
 1675SOL     OW 5923   5.243   0.210   0.161
 1675SOL    HW1 5924   5.172   0.220   0.231
 1675SOL    HW2 5925   5.201   0.177   0.077
 1676SOL     OW 5926   2.336   2.387   1.588
 1676SOL    HW1 5927   2.279   2.348   1.660
 1676SOL    HW2 5928   2.376   2.313   1.534
 1677SOL     OW 5929   2.957   3.287   3.868
 1677SOL    HW1 5930   2.912   3.365   3.826
 1677SOL    HW2 5931   2.971   3.305   3.966
 1678SOL     OW 5932   6.433   4.345   3.308
 1678SOL    HW1 5933   6.339   4.310   3.318
 1678SOL    HW2 5934   6.440   4.395   3.222
 1679SOL     OW 5935   2.301   2.311   4.770
 1679SOL    HW1 5936   2.334   2.244   4.837
 1679SOL    HW2 5937   2.211   2.282   4.737
 1680SOL     OW 5938   0.459   2.817   5.755
 1680SOL    HW1 5939   0.508   2.732   5.775
 1680SOL    HW2 5940   0.448   2.827   5.657
 1681SOL     OW 5941   0.227   5.055   6.820
 1681SOL    HW1 5942   0.326   5.059   6.833
 1681SOL    HW2 5943   0.199   4.960   6.806
 1682SOL     OW 5944   1.599   0.645   5.635
 1682SOL    HW1 5945   1.571   0.619   5.727
 1682SOL    HW2 5946   1.523   0.629   5.571
 1683SOL     OW 5947   5.418   5.271   2.577
 1683SOL    HW1 5948   5.423   5.291   2.479
 1683SOL    HW2 5949   5.322   5.275   2.606
 1684SOL     OW 5950   0.832   6.495   2.148
 1684SOL    HW1 5951   0.858   6.577   2.199
 1684SOL    HW2 5952   0.875   6.415   2.190
 1685SOL     OW 5953   1.870   0.877   5.489
 1685SOL    HW1 5954   1.810   0.846   5.415
 1685SOL    HW2 5955   1.946   0.929   5.451
 1686SOL     OW 5956   2.268   6.164   4.136
 1686SOL    HW1 5957   2.262   6.230   4.061
 1686SOL    HW2 5958   2.203   6.089   4.119
 1687SOL     OW 5959   1.795   2.989   1.922
 1687SOL    HW1 5960   1.795   2.982   2.022
 1687SOL    HW2 5961   1.773   2.900   1.883
 1688SOL     OW 5962   2.284   1.713   3.621
 1688SOL    HW1 5963   2.282   1.654   3.540
 1688SOL    HW2 5964   2.379   1.724   3.652
 1689SOL     OW 5965   6.334   0.707   2.970
 1689SOL    HW1 5966   6.252   0.738   3.018
 1689SOL    HW2 5967   6.356   0.614   2.999
 1690SOL     OW 5968   1.043   2.395   4.303
 1690SOL    HW1 5969   1.118   2.383   4.368
 1690SOL    HW2 5970   0.997   2.482   4.320
 1691SOL     OW 5971   5.210   2.879   3.388
 1691SOL    HW1 5972   5.275   2.812   3.424
 1691SOL    HW2 5973   5.145   2.904   3.460
 1692SOL     OW 5974   5.171   6.397   0.842
 1692SOL    HW1 5975   5.187   6.494   0.824
 1692SOL    HW2 5976   5.183   6.378   0.939
 1693SOL     OW 5977   6.049   1.929   2.621
 1693SOL    HW1 5978   5.974   1.867   2.598
 1693SOL    HW2 5979   6.117   1.926   2.547
 1694SOL     OW 5980   5.381   1.492   3.332
 1694SOL    HW1 5981   5.349   1.573   3.381
 1694SOL    HW2 5982   5.473   1.508   3.298
 1695SOL     OW 5983   4.222   1.015   6.280
 1695SOL    HW1 5984   4.140   0.959   6.297
 1695SOL    HW2 5985   4.262   1.042   6.368
 1696SOL     OW 5986   4.272   6.260   1.069
 1696SOL    HW1 5987   4.295   6.197   1.143
 1696SOL    HW2 5988   4.353   6.274   1.012
 1697SOL     OW 5989   6.164   1.196   0.471
 1697SOL    HW1 5990   6.078   1.210   0.521
 1697SOL    HW2 5991   6.198   1.284   0.438
 1698SOL     OW 5992   3.272   0.122   0.465
 1698SOL    HW1 5993   3.294   0.169   0.380
 1698SOL    HW2 5994   3.346   0.137   0.531
 1699SOL     OW 5995   2.106   1.109   0.094
 1699SOL    HW1 5996   2.079   1.059   0.177
 1699SOL    HW2 5997   2.193   1.154   0.110
 1700SOL     OW 5998   6.607   4.356   3.527
 1700SOL    HW1 5999   6.703   4.345   3.500
 1700SOL    HW2 6000   6.549   4.349   3.446
 1701SOL     OW 6001   5.834   4.935   5.983
 1701SOL    HW1 6002   5.738   4.941   6.009
 1701SOL    HW2 6003   5.871   5.027   5.966
 1702SOL     OW 6004   6.367   1.359   0.929
 1702SOL    HW1 6005   6.436   1.372   1.000
 1702SOL    HW2 6006   6.411   1.351   0.840
 1703SOL     OW 6007   3.283   1.781   0.299
 1703SOL    HW1 6008   3.312   1.743   0.387
 1703SOL    HW2 6009   3.197   1.830   0.310
 1704SOL     OW 6010   0.812   1.689   0.971
 1704SOL    HW1 6011   0.722   1.666   0.933
 1704SOL    HW2 6012   0.874   1.612   0.958
 1705SOL     OW 6013   3.090   2.101   2.471
 1705SOL    HW1 6014   3.048   2.011   2.464
 1705SOL    HW2 6015   3.095   2.143   2.380
 1706SOL     OW 6016   4.948   1.339   1.766
 1706SOL    HW1 6017   4.864   1.314   1.815
 1706SOL    HW2 6018   4.924   1.393   1.685
 1707SOL     OW 6019   4.293   2.002   1.983
 1707SOL    HW1 6020   4.209   1.947   1.990
 1707SOL    HW2 6021   4.272   2.098   2.001
 1708SOL     OW 6022   5.240   5.765   2.028
 1708SOL    HW1 6023   5.303   5.753   1.952
 1708SOL    HW2 6024   5.212   5.676   2.063
 1709SOL     OW 6025   3.235   6.452   2.573
 1709SOL    HW1 6026   3.258   6.549   2.563
 1709SOL    HW2 6027   3.142   6.443   2.607
 1710SOL     OW 6028   4.706   4.783   3.647
 1710SOL    HW1 6029   4.790   4.774   3.700
 1710SOL    HW2 6030   4.652   4.859   3.683
 1711SOL     OW 6031   1.830   4.933   4.666
 1711SOL    HW1 6032   1.796   4.873   4.593
 1711SOL    HW2 6033   1.771   5.014   4.673
 1712SOL     OW 6034   6.557   2.770   4.445
 1712SOL    HW1 6035   6.637   2.711   4.439
 1712SOL    HW2 6036   6.567   2.848   4.383
 1713SOL     OW 6037   4.736   2.557   1.776
 1713SOL    HW1 6038   4.806   2.581   1.709
 1713SOL    HW2 6039   4.695   2.469   1.750
 1714SOL     OW 6040   3.371   1.383   6.295
 1714SOL    HW1 6041   3.341   1.419   6.206
 1714SOL    HW2 6042   3.313   1.421   6.367
 1715SOL     OW 6043   2.035   5.278   3.105
 1715SOL    HW1 6044   2.006   5.364   3.062
 1715SOL    HW2 6045   1.957   5.232   3.146
 1716SOL     OW 6046   4.549   7.017   2.686
 1716SOL    HW1 6047   4.634   0.043   2.665
 1716SOL    HW2 6048   4.472   0.057   2.683
 1717SOL     OW 6049   2.992   6.091   5.101
 1717SOL    HW1 6050   2.973   6.127   5.192
 1717SOL    HW2 6051   2.909   6.099   5.044
 1718SOL     OW 6052   3.135   1.176   1.926
 1718SOL    HW1 6053   3.210   1.228   1.968
 1718SOL    HW2 6054   3.103   1.223   1.844
 1719SOL     OW 6055   2.079   2.797   1.305
 1719SOL    HW1 6056   2.128   2.726   1.355
 1719SOL    HW2 6057   1.982   2.771   1.298
 1720SOL     OW 6058   0.016   3.247   0.655
 1720SOL    HW1 6059   0.107   3.245   0.697
 1720SOL    HW2 6060   6.975   3.196   0.712
 1721SOL     OW 6061   2.036   6.688   1.543
 1721SOL    HW1 6062   2.129   6.650   1.546
 1721SOL    HW2 6063   2.041   6.786   1.526
 1722SOL     OW 6064   3.055   1.656   4.180
 1722SOL    HW1 6065   3.074   1.580   4.117
 1722SOL    HW2 6066   2.985   1.715   4.140
 1723SOL     OW 6067   6.298   2.359   0.342
 1723SOL    HW1 6068   6.202   2.332   0.343
 1723SOL    HW2 6069   6.350   2.300   0.403
 1724SOL     OW 6070   0.157   3.205   2.402
 1724SOL    HW1 6071   0.172   3.157   2.316
 1724SOL    HW2 6072   0.245   3.235   2.440
 1725SOL     OW 6073   2.266   4.787   6.202
 1725SOL    HW1 6074   2.170   4.781   6.174
 1725SOL    HW2 6075   2.315   4.847   6.139
 1726SOL     OW 6076   5.882   4.591   5.356
 1726SOL    HW1 6077   5.884   4.497   5.322
 1726SOL    HW2 6078   5.914   4.653   5.285
 1727SOL     OW 6079   3.420   2.870   3.601
 1727SOL    HW1 6080   3.394   2.862   3.504
 1727SOL    HW2 6081   3.519   2.859   3.609
 1728SOL     OW 6082   5.683   5.966   5.394
 1728SOL    HW1 6083   5.766   5.960   5.338
 1728SOL    HW2 6084   5.610   5.914   5.350
 1729SOL     OW 6085   2.287   4.195   3.482
 1729SOL    HW1 6086   2.208   4.179   3.423
 1729SOL    HW2 6087   2.338   4.110   3.493
 1730SOL     OW 6088   2.056   0.188   4.937
 1730SOL    HW1 6089   2.128   0.132   4.898
 1730SOL    HW2 6090   1.976   0.131   4.956
 1731SOL     OW 6091   0.536   4.384   4.135
 1731SOL    HW1 6092   0.465   4.379   4.064
 1731SOL    HW2 6093   0.595   4.303   4.127
 1732SOL     OW 6094   2.140   4.934   5.952
 1732SOL    HW1 6095   2.237   4.918   5.932
 1732SOL    HW2 6096   2.085   4.861   5.911
 1733SOL     OW 6097   1.462   4.282   1.797
 1733SOL    HW1 6098   1.449   4.374   1.760
 1733SOL    HW2 6099   1.378   4.228   1.783
 1734SOL     OW 6100   4.366   2.841   1.228
 1734SOL    HW1 6101   4.362   2.891   1.315
 1734SOL    HW2 6102   4.458   2.848   1.189
 1735SOL     OW 6103   4.385   5.299   6.578
 1735SOL    HW1 6104   4.482   5.277   6.584
 1735SOL    HW2 6105   4.339   5.229   6.523
 1736SOL     OW 6106   3.882   3.812   1.060
 1736SOL    HW1 6107   3.890   3.748   0.984
 1736SOL    HW2 6108   3.789   3.811   1.095
 1737SOL     OW 6109   4.537   1.343   4.755
 1737SOL    HW1 6110   4.447   1.386   4.763
 1737SOL    HW2 6111   4.557   1.325   4.658
 1738SOL     OW 6112   1.872   2.989   4.468
 1738SOL    HW1 6113   1.910   3.078   4.490
 1738SOL    HW2 6114   1.934   2.940   4.406
 1739SOL     OW 6115   0.088   1.454   5.409
 1739SOL    HW1 6116   0.075   1.481   5.505
 1739SOL    HW2 6117   0.081   1.535   5.351
 1740SOL     OW 6118   7.009   2.231   5.236
 1740SOL    HW1 6119   0.064   2.169   5.246
 1740SOL    HW2 6120   6.957   2.232   5.322
 1741SOL     OW 6121   2.457   0.570   4.251
 1741SOL    HW1 6122   2.369   0.548   4.293
 1741SOL    HW2 6123   2.521   0.601   4.322
 1742SOL     OW 6124   5.890   0.734   5.605
 1742SOL    HW1 6125   5.962   0.666   5.591
 1742SOL    HW2 6126   5.901   0.777   5.695
 1743SOL     OW 6127   0.641   2.141   2.367
 1743SOL    HW1 6128   0.658   2.220   2.427
 1743SOL    HW2 6129   0.544   2.118   2.370
 1744SOL     OW 6130   6.228   3.279   3.278
 1744SOL    HW1 6131   6.222   3.293   3.179
 1744SOL    HW2 6132   6.231   3.368   3.324
 1745SOL     OW 6133   5.439   5.701   2.328
 1745SOL    HW1 6134   5.392   5.758   2.262
 1745SOL    HW2 6135   5.498   5.636   2.281
 1746SOL     OW 6136   1.535   4.397   4.477
 1746SOL    HW1 6137   1.500   4.311   4.439
 1746SOL    HW2 6138   1.594   4.441   4.409
 1747SOL     OW 6139   4.108   1.600   2.776
 1747SOL    HW1 6140   4.027   1.571   2.727
 1747SOL    HW2 6141   4.084   1.620   2.871
 1748SOL     OW 6142   0.286   2.139   5.158
 1748SOL    HW1 6143   0.382   2.116   5.175
 1748SOL    HW2 6144   0.249   2.077   5.089
 1749SOL     OW 6145   2.361   6.969   5.577
 1749SOL    HW1 6146   2.326   6.981   5.484
 1749SOL    HW2 6147   2.316   6.890   5.619
 1750SOL     OW 6148   5.059   6.113   4.011
 1750SOL    HW1 6149   5.041   6.187   3.946
 1750SOL    HW2 6150   4.993   6.039   3.996
 1751SOL     OW 6151   3.958   0.806   3.764
 1751SOL    HW1 6152   3.944   0.721   3.815
 1751SOL    HW2 6153   4.022   0.790   3.688
 1752SOL     OW 6154   6.212   1.093   2.440
 1752SOL    HW1 6155   6.299   1.063   2.401
 1752SOL    HW2 6156   6.222   1.186   2.476
 1753SOL     OW 6157   0.254   0.958   1.393
 1753SOL    HW1 6158   0.249   0.859   1.402
 1753SOL    HW2 6159   0.289   0.997   1.478
 1754SOL     OW 6160   1.616   4.509   6.999
 1754SOL    HW1 6161   1.617   4.583   6.931
 1754SOL    HW2 6162   1.671   4.432   6.965
 1755SOL     OW 6163   6.993   6.052   0.702
 1755SOL    HW1 6164   0.067   6.079   0.701
 1755SOL    HW2 6165   6.940   6.125   0.746
 1756SOL     OW 6166   4.639   5.165   5.562
 1756SOL    HW1 6167   4.644   5.170   5.662
 1756SOL    HW2 6168   4.729   5.140   5.526
 1757SOL     OW 6169   2.756   5.580   4.815
 1757SOL    HW1 6170   2.721   5.497   4.858
 1757SOL    HW2 6171   2.856   5.576   4.813
 1758SOL     OW 6172   2.099   1.065   4.596
 1758SOL    HW1 6173   2.122   1.131   4.668
 1758SOL    HW2 6174   2.163   0.989   4.598
 1759SOL     OW 6175   2.326   5.859   5.547
 1759SOL    HW1 6176   2.258   5.786   5.549
 1759SOL    HW2 6177   2.321   5.906   5.460
 1760SOL     OW 6178   5.803   0.862   3.576
 1760SOL    HW1 6179   5.842   0.940   3.526
 1760SOL    HW2 6180   5.729   0.822   3.523
 1761SOL     OW 6181   0.167   0.700   1.734
 1761SOL    HW1 6182   0.090   0.737   1.683
 1761SOL    HW2 6183   0.221   0.775   1.773
 1762SOL     OW 6184   0.444   0.960   4.180
 1762SOL    HW1 6185   0.509   0.889   4.152
 1762SOL    HW2 6186   0.353   0.921   4.187
 1763SOL     OW 6187   0.474   4.373   4.398
 1763SOL    HW1 6188   0.474   4.342   4.303
 1763SOL    HW2 6189   0.500   4.297   4.458
 1764SOL     OW 6190   2.153   3.176   2.343
 1764SOL    HW1 6191   2.130   3.253   2.285
 1764SOL    HW2 6192   2.165   3.207   2.437
 1765SOL     OW 6193   4.132   0.822   1.663
 1765SOL    HW1 6194   4.085   0.738   1.691
 1765SOL    HW2 6195   4.083   0.864   1.586
 1766SOL     OW 6196   5.273   5.030   3.608
 1766SOL    HW1 6197   5.308   5.112   3.654
 1766SOL    HW2 6198   5.239   4.965   3.675
 1767SOL     OW 6199   0.970   4.238   3.170
 1767SOL    HW1 6200   0.925   4.277   3.090
 1767SOL    HW2 6201   0.910   4.247   3.250
 1768SOL     OW 6202   3.357   0.757   6.810
 1768SOL    HW1 6203   3.321   0.747   6.903
 1768SOL    HW2 6204   3.343   0.671   6.760
 1769SOL     OW 6205   5.166   1.345   6.812
 1769SOL    HW1 6206   5.101   1.335   6.737
 1769SOL    HW2 6207   5.226   1.265   6.815
 1770SOL     OW 6208   6.328   4.652   4.810
 1770SOL    HW1 6209   6.254   4.586   4.797
 1770SOL    HW2 6210   6.409   4.604   4.845
 1771SOL     OW 6211   1.495   5.508   0.720
 1771SOL    HW1 6212   1.405   5.510   0.764
 1771SOL    HW2 6213   1.506   5.589   0.663
 1772SOL     OW 6214   3.490   5.800   3.672
 1772SOL    HW1 6215   3.461   5.848   3.589
 1772SOL    HW2 6216   3.578   5.756   3.656
 1773SOL     OW 6217   2.939   2.676   5.837
 1773SOL    HW1 6218   2.968   2.678   5.932
 1773SOL    HW2 6219   2.858   2.618   5.827
 1774SOL     OW 6220   5.249   6.005   1.619
 1774SOL    HW1 6221   5.156   6.041   1.624
 1774SOL    HW2 6222   5.292   6.011   1.709
 1775SOL     OW 6223   1.749   4.925   5.705
 1775SOL    HW1 6224   1.712   4.974   5.626
 1775SOL    HW2 6225   1.846   4.909   5.691
 1776SOL     OW 6226   4.796   0.764   6.511
 1776SOL    HW1 6227   4.853   0.684   6.497
 1776SOL    HW2 6228   4.833   0.818   6.587
 1777SOL     OW 6229   2.912   6.501   6.227
 1777SOL    HW1 6230   2.985   6.534   6.287
 1777SOL    HW2 6231   2.880   6.577   6.170
 1778SOL     OW 6232   5.034   2.173   4.091
 1778SOL    HW1 6233   5.128   2.200   4.113
 1778SOL    HW2 6234   5.034   2.127   4.002
 1779SOL     OW 6235   5.110   1.188   5.105
 1779SOL    HW1 6236   5.160   1.108   5.070
 1779SOL    HW2 6237   5.066   1.166   5.191
 1780SOL     OW 6238   1.832   3.879   5.723
 1780SOL    HW1 6239   1.875   3.967   5.745
 1780SOL    HW2 6240   1.901   3.816   5.688
 1781SOL     OW 6241   5.992   5.973   4.099
 1781SOL    HW1 6242   5.894   5.955   4.111
 1781SOL    HW2 6243   6.011   6.069   4.117
 1782SOL     OW 6244   3.124   1.172   2.609
 1782SOL    HW1 6245   3.196   1.156   2.677
 1782SOL    HW2 6246   3.141   1.259   2.563
 1783SOL     OW 6247   2.591   2.876   6.247
 1783SOL    HW1 6248   2.515   2.935   6.275
 1783SOL    HW2 6249   2.670   2.893   6.306
 1784SOL     OW 6250   2.067   1.241   1.840
 1784SOL    HW1 6251   2.047   1.283   1.752
 1784SOL    HW2 6252   2.159   1.268   1.870
 1785SOL     OW 6253   5.900   6.298   3.693
 1785SOL    HW1 6254   5.846   6.267   3.772
 1785SOL    HW2 6255   5.856   6.268   3.609
 1786SOL     OW 6256   1.699   4.022   0.528
 1786SOL    HW1 6257   1.718   4.120   0.533
 1786SOL    HW2 6258   1.710   3.992   0.433
 1787SOL     OW 6259   2.518   2.004   5.683
 1787SOL    HW1 6260   2.479   1.927   5.734
 1787SOL    HW2 6261   2.616   2.012   5.704
 1788SOL     OW 6262   4.141   4.087   0.371
 1788SOL    HW1 6263   4.056   4.081   0.423
 1788SOL    HW2 6264   4.190   4.000   0.376
 1789SOL     OW 6265   5.810   2.916   2.280
 1789SOL    HW1 6266   5.883   2.888   2.342
 1789SOL    HW2 6267   5.783   2.838   2.223
 1790SOL     OW 6268   2.849   0.806   4.563
 1790SOL    HW1 6269   2.799   0.790   4.478
 1790SOL    HW2 6270   2.855   0.904   4.580
 1791SOL     OW 6271   6.483   1.927   4.053
 1791SOL    HW1 6272   6.523   1.837   4.069
 1791SOL    HW2 6273   6.521   1.965   3.968
 1792SOL     OW 6274   0.048   1.218   4.356
 1792SOL    HW1 6275   0.030   1.234   4.453
 1792SOL    HW2 6276   0.051   1.306   4.308
 1793SOL     OW 6277   6.473   1.499   4.306
 1793SOL    HW1 6278   6.405   1.572   4.315
 1793SOL    HW2 6279   6.429   1.417   4.271
 1794SOL     OW 6280   4.891   6.747   5.447
 1794SOL    HW1 6281   4.831   6.824   5.466
 1794SOL    HW2 6282   4.944   6.725   5.529
 1795SOL     OW 6283   6.710   5.522   2.045
 1795SOL    HW1 6284   6.755   5.515   1.956
 1795SOL    HW2 6285   6.637   5.590   2.040
 1796SOL     OW 6286   2.344   1.484   5.023
 1796SOL    HW1 6287   2.422   1.539   5.053
 1796SOL    HW2 6288   2.262   1.542   5.020
 1797SOL     OW 6289   1.406   7.018   5.680
 1797SOL    HW1 6290   1.499   7.007   5.713
 1797SOL    HW2 6291   1.379   0.091   5.685
 1798SOL     OW 6292   3.870   2.893   5.082
 1798SOL    HW1 6293   3.814   2.937   5.012
 1798SOL    HW2 6294   3.947   2.846   5.038
 1799SOL     OW 6295   6.145   2.948   6.371
 1799SOL    HW1 6296   6.230   2.999   6.380
 1799SOL    HW2 6297   6.133   2.920   6.276
 1800SOL     OW 6298   5.097   4.834   3.405
 1800SOL    HW1 6299   5.154   4.852   3.486
 1800SOL    HW2 6300   5.085   4.920   3.354
 1801SOL     OW 6301   1.353   1.188   3.042
 1801SOL    HW1 6302   1.376   1.248   3.118
 1801SOL    HW2 6303   1.436   1.147   3.005
 1802SOL     OW 6304   6.671   6.161   3.316
 1802SOL    HW1 6305   6.703   6.099   3.243
 1802SOL    HW2 6306   6.648   6.107   3.397
 1803SOL     OW 6307   6.928   6.919   2.060
 1803SOL    HW1 6308   6.957   6.975   2.137
 1803SOL    HW2 6309   6.923   6.824   2.087
 1804SOL     OW 6310   4.257   3.467   5.453
 1804SOL    HW1 6311   4.157   3.479   5.448
 1804SOL    HW2 6312   4.300   3.517   5.378
 1805SOL     OW 6313   0.833   5.373   6.000
 1805SOL    HW1 6314   0.792   5.444   5.943
 1805SOL    HW2 6315   0.924   5.404   6.030
 1806SOL     OW 6316   0.569   2.595   2.046
 1806SOL    HW1 6317   0.652   2.543   2.067
 1806SOL    HW2 6318   0.569   2.680   2.099
 1807SOL     OW 6319   6.703   2.454   6.319
 1807SOL    HW1 6320   6.724   2.358   6.305
 1807SOL    HW2 6321   6.631   2.483   6.255
 1808SOL     OW 6322   5.869   4.499   4.541
 1808SOL    HW1 6323   5.801   4.450   4.596
 1808SOL    HW2 6324   5.878   4.592   4.576
 1809SOL     OW 6325   2.740   2.304   5.079
 1809SOL    HW1 6326   2.721   2.297   4.982
 1809SOL    HW2 6327   2.822   2.250   5.102
 1810SOL     OW 6328   0.839   0.836   4.925
 1810SOL    HW1 6329   0.891   0.751   4.918
 1810SOL    HW2 6330   0.896   0.907   4.966
 1811SOL     OW 6331   4.868   4.793   2.711
 1811SOL    HW1 6332   4.817   4.840   2.784
 1811SOL    HW2 6333   4.947   4.849   2.685
 1812SOL     OW 6334   4.736   7.014   6.688
 1812SOL    HW1 6335   4.670   6.982   6.755
 1812SOL    HW2 6336   4.763   0.085   6.709
 1813SOL     OW 6337   4.894   5.374   2.155
 1813SOL    HW1 6338   4.991   5.357   2.134
 1813SOL    HW2 6339   4.886   5.410   2.248
 1814SOL     OW 6340   6.174   0.738   0.804
 1814SOL    HW1 6341   6.113   0.753   0.726
 1814SOL    HW2 6342   6.124   0.691   0.877
 1815SOL     OW 6343   6.423   0.460   2.956
 1815SOL    HW1 6344   6.506   0.438   2.903
 1815SOL    HW2 6345   6.344   0.419   2.912
 1816SOL     OW 6346   3.400   4.655   0.194
 1816SOL    HW1 6347   3.368   4.563   0.218
 1816SOL    HW2 6348   3.390   4.715   0.273
 1817SOL     OW 6349   4.043   0.455   2.460
 1817SOL    HW1 6350   3.960   0.413   2.423
 1817SOL    HW2 6351   4.018   0.528   2.524
 1818SOL     OW 6352   1.711   6.634   0.779
 1818SOL    HW1 6353   1.723   6.733   0.775
 1818SOL    HW2 6354   1.728   6.595   0.688
 1819SOL     OW 6355   1.349   5.991   1.775
 1819SOL    HW1 6356   1.359   5.910   1.718
 1819SOL    HW2 6357   1.263   5.985   1.827
 1820SOL     OW 6358   3.409   0.056   2.093
 1820SOL    HW1 6359   3.352   0.120   2.041
 1820SOL    HW2 6360   3.435   0.098   2.180
 1821SOL     OW 6361   2.947   0.966   1.880
 1821SOL    HW1 6362   3.016   1.038   1.874
 1821SOL    HW2 6363   2.941   0.934   1.975
 1822SOL     OW 6364   0.772   2.801   1.817
 1822SOL    HW1 6365   0.807   2.825   1.727
 1822SOL    HW2 6366   0.673   2.794   1.814
 1823SOL     OW 6367   2.960   6.214   3.024
 1823SOL    HW1 6368   3.055   6.246   3.022
 1823SOL    HW2 6369   2.943   6.167   3.111
 1824SOL     OW 6370   3.677   4.064   0.832
 1824SOL    HW1 6371   3.764   4.111   0.827
 1824SOL    HW2 6372   3.635   4.081   0.922
 1825SOL     OW 6373   0.734   2.385   4.409
 1825SOL    HW1 6374   0.661   2.323   4.439
 1825SOL    HW2 6375   0.726   2.400   4.310
 1826SOL     OW 6376   2.787   1.022   1.223
 1826SOL    HW1 6377   2.851   0.975   1.161
 1826SOL    HW2 6378   2.740   1.094   1.172
 1827SOL     OW 6379   6.067   5.393   0.992
 1827SOL    HW1 6380   6.102   5.374   1.084
 1827SOL    HW2 6381   5.997   5.326   0.968
 1828SOL     OW 6382   1.647   3.101   6.410
 1828SOL    HW1 6383   1.577   3.130   6.475
 1828SOL    HW2 6384   1.605   3.080   6.322
 1829SOL     OW 6385   3.778   0.169   2.705
 1829SOL    HW1 6386   3.822   0.147   2.618
 1829SOL    HW2 6387   3.843   0.155   2.779
 1830SOL     OW 6388   5.600   6.357   4.395
 1830SOL    HW1 6389   5.573   6.415   4.471
 1830SOL    HW2 6390   5.694   6.379   4.367
 1831SOL     OW 6391   5.585   6.524   2.819
 1831SOL    HW1 6392   5.582   6.618   2.785
 1831SOL    HW2 6393   5.492   6.494   2.844
 1832SOL     OW 6394   3.672   1.541   0.741
 1832SOL    HW1 6395   3.724   1.611   0.790
 1832SOL    HW2 6396   3.589   1.519   0.792
 1833SOL     OW 6397   5.896   0.651   2.280
 1833SOL    HW1 6398   5.922   0.556   2.263
 1833SOL    HW2 6399   5.977   0.704   2.305
 1834SOL     OW 6400   1.908   4.250   1.216
 1834SOL    HW1 6401   1.982   4.316   1.201
 1834SOL    HW2 6402   1.929   4.193   1.294
 1835SOL     OW 6403   0.657   4.867   1.854
 1835SOL    HW1 6404   0.674   4.842   1.758
 1835SOL    HW2 6405   0.606   4.794   1.899
 1836SOL     OW 6406   5.620   2.410   2.136
 1836SOL    HW1 6407   5.590   2.472   2.063
 1836SOL    HW2 6408   5.654   2.325   2.096
 1837SOL     OW 6409   1.088   6.814   5.812
 1837SOL    HW1 6410   1.138   6.855   5.887
 1837SOL    HW2 6411   1.079   6.715   5.828
 1838SOL     OW 6412   5.733   0.862   5.818
 1838SOL    HW1 6413   5.665   0.831   5.884
 1838SOL    HW2 6414   5.702   0.948   5.777
 1839SOL     OW 6415   6.862   1.171   5.641
 1839SOL    HW1 6416   6.781   1.226   5.662
 1839SOL    HW2 6417   6.905   1.143   5.727
 1840SOL     OW 6418   4.187   0.030   2.076
 1840SOL    HW1 6419   4.148   6.994   2.005
 1840SOL    HW2 6420   4.274   0.067   2.045
 1841SOL     OW 6421   2.323   0.421   3.056
 1841SOL    HW1 6422   2.251   0.490   3.064
 1841SOL    HW2 6423   2.402   0.461   3.008
 1842SOL     OW 6424   1.086   5.925   1.361
 1842SOL    HW1 6425   1.134   5.999   1.407
 1842SOL    HW2 6426   1.138   5.840   1.373
 1843SOL     OW 6427   5.356   0.552   4.653
 1843SOL    HW1 6428   5.417   0.542   4.575
 1843SOL    HW2 6429   5.393   0.503   4.732
 1844SOL     OW 6430   4.315   0.089   5.078
 1844SOL    HW1 6431   4.390   0.063   5.018
 1844SOL    HW2 6432   4.270   0.170   5.041
 1845SOL     OW 6433   2.875   6.617   4.272
 1845SOL    HW1 6434   2.858   6.712   4.245
 1845SOL    HW2 6435   2.901   6.563   4.191
 1846SOL     OW 6436   4.524   1.153   2.623
 1846SOL    HW1 6437   4.523   1.061   2.663
 1846SOL    HW2 6438   4.431   1.189   2.619
 1847SOL     OW 6439   1.605   0.166   5.941
 1847SOL    HW1 6440   1.623   0.087   5.882
 1847SOL    HW2 6441   1.620   0.250   5.890
 1848SOL     OW 6442   1.987   6.412   3.771
 1848SOL    HW1 6443   2.022   6.320   3.752
 1848SOL    HW2 6444   1.928   6.441   3.696
 1849SOL     OW 6445   4.240   2.576   1.228
 1849SOL    HW1 6446   4.260   2.669   1.255
 1849SOL    HW2 6447   4.319   2.538   1.179
 1850SOL     OW 6448   6.492   2.273   2.219
 1850SOL    HW1 6449   6.430   2.243   2.146
 1850SOL    HW2 6450   6.481   2.212   2.297
 1851SOL     OW 6451   1.146   3.312   0.059
 1851SOL    HW1 6452   1.186   3.295   6.992
 1851SOL    HW2 6453   1.135   3.225   0.108
 1852SOL     OW 6454   0.333   4.982   2.801
 1852SOL    HW1 6455   0.339   5.046   2.725
 1852SOL    HW2 6456   0.274   5.019   2.872
 1853SOL     OW 6457   6.847   2.406   3.149
 1853SOL    HW1 6458   6.844   2.431   3.052
 1853SOL    HW2 6459   6.754   2.403   3.185
 1854SOL     OW 6460   2.010   5.189   2.756
 1854SOL    HW1 6461   2.070   5.134   2.815
 1854SOL    HW2 6462   2.053   5.277   2.737
 1855SOL     OW 6463   5.397   3.590   5.413
 1855SOL    HW1 6464   5.308   3.601   5.459
 1855SOL    HW2 6465   5.409   3.494   5.387
 1856SOL     OW 6466   4.941   3.163   6.397
 1856SOL    HW1 6467   4.891   3.231   6.345
 1856SOL    HW2 6468   5.025   3.138   6.347
 1857SOL     OW 6469   4.293   1.322   0.229
 1857SOL    HW1 6470   4.198   1.313   0.260
 1857SOL    HW2 6471   4.309   1.263   0.150
 1858SOL     OW 6472   5.186   2.672   3.104
 1858SOL    HW1 6473   5.173   2.769   3.128
 1858SOL    HW2 6474   5.148   2.615   3.177
 1859SOL     OW 6475   4.334   1.547   3.690
 1859SOL    HW1 6476   4.260   1.479   3.690
 1859SOL    HW2 6477   4.296   1.638   3.706
 1860SOL     OW 6478   6.985   1.535   5.691
 1860SOL    HW1 6479   6.892   1.526   5.654
 1860SOL    HW2 6480   6.993   1.620   5.742
 1861SOL     OW 6481   4.685   0.836   2.466
 1861SOL    HW1 6482   4.585   0.832   2.467
 1861SOL    HW2 6483   4.715   0.893   2.389
 1862SOL     OW 6484   2.143   6.609   0.068
 1862SOL    HW1 6485   2.225   6.570   0.025
 1862SOL    HW2 6486   2.119   6.695   0.022
 1863SOL     OW 6487   6.948   2.707   2.504
 1863SOL    HW1 6488   6.962   2.763   2.422
 1863SOL    HW2 6489   6.865   2.737   2.550
 1864SOL     OW 6490   3.360   5.912   4.323
 1864SOL    HW1 6491   3.329   5.828   4.368
 1864SOL    HW2 6492   3.460   5.912   4.318
 1865SOL     OW 6493   3.519   0.719   0.769
 1865SOL    HW1 6494   3.509   0.627   0.729
 1865SOL    HW2 6495   3.429   0.752   0.798
 1866SOL     OW 6496   0.008   4.909   3.591
 1866SOL    HW1 6497   0.045   4.966   3.665
 1866SOL    HW2 6498   0.012   4.960   3.505
 1867SOL     OW 6499   1.839   3.871   1.605
 1867SOL    HW1 6500   1.868   3.820   1.686
 1867SOL    HW2 6501   1.805   3.807   1.536
 1868SOL     OW 6502   5.582   3.695   6.888
 1868SOL    HW1 6503   5.658   3.711   6.826
 1868SOL    HW2 6504   5.617   3.672   6.979
 1869SOL     OW 6505   6.139   3.352   4.712
 1869SOL    HW1 6506   6.041   3.356   4.734
 1869SOL    HW2 6507   6.161   3.423   4.645
 1870SOL     OW 6508   1.003   3.041   5.198
 1870SOL    HW1 6509   0.973   3.103   5.126
 1870SOL    HW2 6510   1.061   2.970   5.160
 1871SOL     OW 6511   6.639   0.383   0.812
 1871SOL    HW1 6512   6.690   0.387   0.898
 1871SOL    HW2 6513   6.561   0.445   0.818
 1872SOL     OW 6514   4.335   2.136   0.124
 1872SOL    HW1 6515   4.267   2.066   0.102
 1872SOL    HW2 6516   4.419   2.091   0.157
 1873SOL     OW 6517   6.675   0.466   5.550
 1873SOL    HW1 6518   6.663   0.409   5.631
 1873SOL    HW2 6519   6.732   0.418   5.483
 1874SOL     OW 6520   1.091   1.091   6.517
 1874SOL    HW1 6521   1.057   1.099   6.423
 1874SOL    HW2 6522   1.126   1.179   6.547
 1875SOL     OW 6523   6.653   0.120   0.689
 1875SOL    HW1 6524   6.641   0.218   0.671
 1875SOL    HW2 6525   6.736   0.088   0.644
 1876SOL     OW 6526   3.933   6.118   6.200
 1876SOL    HW1 6527   3.886   6.145   6.284
 1876SOL    HW2 6528   4.032   6.132   6.212
 1877SOL     OW 6529   0.893   1.862   2.973
 1877SOL    HW1 6530   0.962   1.927   2.943
 1877SOL    HW2 6531   0.896   1.854   3.073
 1878SOL     OW 6532   6.755   3.889   3.626
 1878SOL    HW1 6533   6.694   3.960   3.593
 1878SOL    HW2 6534   6.758   3.892   3.726
 1879SOL     OW 6535   2.561   5.809   3.946
 1879SOL    HW1 6536   2.506   5.868   3.886
 1879SOL    HW2 6537   2.511   5.794   4.031
 1880SOL     OW 6538   0.378   1.856   2.963
 1880SOL    HW1 6539   0.286   1.818   2.965
 1880SOL    HW2 6540   0.374   1.951   2.932
 1881SOL     OW 6541   1.623   2.046   3.753
 1881SOL    HW1 6542   1.529   2.028   3.784
 1881SOL    HW2 6543   1.686   2.026   3.828
 1882SOL     OW 6544   0.750   5.011   6.844
 1882SOL    HW1 6545   0.791   4.928   6.806
 1882SOL    HW2 6546   0.689   5.052   6.776
 1883SOL     OW 6547   0.911   3.522   4.079
 1883SOL    HW1 6548   0.899   3.536   4.178
 1883SOL    HW2 6549   1.007   3.500   4.060
 1884SOL     OW 6550   5.995   2.678   1.135
 1884SOL    HW1 6551   6.004   2.707   1.230
 1884SOL    HW2 6552   6.076   2.624   1.109
 1885SOL     OW 6553   6.967   2.069   1.005
 1885SOL    HW1 6554   6.996   2.008   0.932
 1885SOL    HW2 6555   6.985   2.026   1.094
 1886SOL     OW 6556   2.576   2.288   6.965
 1886SOL    HW1 6557   2.522   2.206   6.948
 1886SOL    HW2 6558   2.582   2.343   6.882
 1887SOL     OW 6559   0.362   4.471   5.510
 1887SOL    HW1 6560   0.344   4.383   5.555
 1887SOL    HW2 6561   0.458   4.496   5.523
 1888SOL     OW 6562   2.420   2.239   5.629
 1888SOL    HW1 6563   2.439   2.260   5.533
 1888SOL    HW2 6564   2.446   2.144   5.648
 1889SOL     OW 6565   5.336   3.201   6.464
 1889SOL    HW1 6566   5.433   3.176   6.469
 1889SOL    HW2 6567   5.325   3.297   6.489
 1890SOL     OW 6568   1.815   5.979   5.422
 1890SOL    HW1 6569   1.738   5.971   5.358
 1890SOL    HW2 6570   1.807   6.065   5.472
 1891SOL     OW 6571   5.390   3.418   4.149
 1891SOL    HW1 6572   5.368   3.328   4.112
 1891SOL    HW2 6573   5.314   3.450   4.206
 1892SOL     OW 6574   3.549   6.834   1.108
 1892SOL    HW1 6575   3.478   6.856   1.040
 1892SOL    HW2 6576   3.574   6.738   1.100
 1893SOL     OW 6577   3.341   1.741   5.509
 1893SOL    HW1 6578   3.249   1.765   5.479
 1893SOL    HW2 6579   3.354   1.642   5.502
 1894SOL     OW 6580   4.142   3.850   1.604
 1894SOL    HW1 6581   4.209   3.883   1.670
 1894SOL    HW2 6582   4.172   3.874   1.511
 1895SOL     OW 6583   5.797   0.898   2.720
 1895SOL    HW1 6584   5.863   0.912   2.793
 1895SOL    HW2 6585   5.771   0.987   2.682
 1896SOL     OW 6586   0.600   0.667   3.236
 1896SOL    HW1 6587   0.605   0.764   3.260
 1896SOL    HW2 6588   0.619   0.611   3.318
 1897SOL     OW 6589   6.993   5.057   2.728
 1897SOL    HW1 6590   6.969   5.145   2.769
 1897SOL    HW2 6591   6.937   4.985   2.770
 1898SOL     OW 6592   3.297   5.379   1.570
 1898SOL    HW1 6593   3.247   5.457   1.530
 1898SOL    HW2 6594   3.232   5.306   1.592
 1899SOL     OW 6595   1.037   2.577   2.791
 1899SOL    HW1 6596   0.962   2.512   2.804
 1899SOL    HW2 6597   1.010   2.667   2.827
 1900SOL     OW 6598   0.831   0.567   5.625
 1900SOL    HW1 6599   0.860   0.516   5.544
 1900SOL    HW2 6600   0.843   0.510   5.706
 1901SOL     OW 6601   1.984   1.532   1.640
 1901SOL    HW1 6602   1.957   1.465   1.572
 1901SOL    HW2 6603   1.902   1.575   1.678
 1902SOL     OW 6604   2.456   2.545   5.074
 1902SOL    HW1 6605   2.545   2.553   5.117
 1902SOL    HW2 6606   2.467   2.523   4.977
 1903SOL     OW 6607   6.980   3.962   3.499
 1903SOL    HW1 6608   6.956   4.038   3.439
 1903SOL    HW2 6609   6.898   3.909   3.521
 1904SOL     OW 6610   5.842   0.084   3.817
 1904SOL    HW1 6611   5.938   0.058   3.801
 1904SOL    HW2 6612   5.835   0.184   3.815
 1905SOL     OW 6613   1.071   1.960   4.068
 1905SOL    HW1 6614   1.142   1.904   4.025
 1905SOL    HW2 6615   1.087   1.965   4.166
 1906SOL     OW 6616   3.094   0.062   5.529
 1906SOL    HW1 6617   3.021   0.071   5.461
 1906SOL    HW2 6618   3.061   0.094   5.618
 1907SOL     OW 6619   3.109   6.821   3.171
 1907SOL    HW1 6620   3.012   6.813   3.147
 1907SOL    HW2 6621   3.132   6.754   3.242
 1908SOL     OW 6622   4.524   1.035   4.895
 1908SOL    HW1 6623   4.618   1.006   4.874
 1908SOL    HW2 6624   4.505   1.121   4.848
 1909SOL     OW 6625   1.564   3.468   3.189
 1909SOL    HW1 6626   1.544   3.379   3.145
 1909SOL    HW2 6627   1.522   3.470   3.279
 1910SOL     OW 6628   6.581   2.196   6.669
 1910SOL    HW1 6629   6.583   2.116   6.610
 1910SOL    HW2 6630   6.514   2.182   6.741
 1911SOL     OW 6631   6.012   2.222   5.690
 1911SOL    HW1 6632   6.009   2.174   5.603
 1911SOL    HW2 6633   5.919   2.242   5.720
 1912SOL     OW 6634   3.901   6.539   1.329
 1912SOL    HW1 6635   3.802   6.546   1.332
 1912SOL    HW2 6636   3.935   6.510   1.418
 1913SOL     OW 6637   1.873   6.481   5.437
 1913SOL    HW1 6638   1.789   6.518   5.476
 1913SOL    HW2 6639   1.850   6.421   5.360
 1914SOL     OW 6640   3.285   2.567   6.824
 1914SOL    HW1 6641   3.250   2.645   6.876
 1914SOL    HW2 6642   3.347   2.599   6.753
 1915SOL     OW 6643   4.317   1.381   5.174
 1915SOL    HW1 6644   4.258   1.362   5.096
 1915SOL    HW2 6645   4.365   1.297   5.200
 1916SOL     OW 6646   3.486   6.025   0.881
 1916SOL    HW1 6647   3.521   6.014   0.974
 1916SOL    HW2 6648   3.535   5.963   0.819
 1917SOL     OW 6649   3.698   2.876   4.395
 1917SOL    HW1 6650   3.697   2.819   4.477
 1917SOL    HW2 6651   3.604   2.899   4.369
 1918SOL     OW 6652   0.111   0.329   6.438
 1918SOL    HW1 6653   0.029   0.380   6.466
 1918SOL    HW2 6654   0.112   0.321   6.338
 1919SOL     OW 6655   2.375   6.371   1.554
 1919SOL    HW1 6656   2.386   6.342   1.459
 1919SOL    HW2 6657   2.340   6.464   1.556
 1920SOL     OW 6658   0.639   5.149   2.774
 1920SOL    HW1 6659   0.594   5.109   2.854
 1920SOL    HW2 6660   0.570   5.193   2.716
 1921SOL     OW 6661   1.294   4.407   0.095
 1921SOL    HW1 6662   1.317   4.377   0.002
 1921SOL    HW2 6663   1.371   4.457   0.133
 1922SOL     OW 6664   3.498   4.289   0.766
 1922SOL    HW1 6665   3.518   4.351   0.690
 1922SOL    HW2 6666   3.569   4.219   0.772
 1923SOL     OW 6667   3.357   0.923   6.106
 1923SOL    HW1 6668   3.402   0.907   6.194
 1923SOL    HW2 6669   3.392   1.007   6.064
 1924SOL     OW 6670   5.808   5.545   2.293
 1924SOL    HW1 6671   5.754   5.487   2.355
 1924SOL    HW2 6672   5.790   5.518   2.199
 1925SOL     OW 6673   3.029   3.604   2.116
 1925SOL    HW1 6674   3.019   3.631   2.211
 1925SOL    HW2 6675   3.038   3.505   2.109
 1926SOL     OW 6676   1.020   6.976   3.735
 1926SOL    HW1 6677   1.097   7.022   3.691
 1926SOL    HW2 6678   0.943   6.971   3.672
 1927SOL     OW 6679   3.439   5.089   6.046
 1927SOL    HW1 6680   3.481   5.158   5.987
 1927SOL    HW2 6681   3.373   5.036   5.994
 1928SOL     OW 6682   6.679   4.015   6.174
 1928SOL    HW1 6683   6.683   4.005   6.273
 1928SOL    HW2 6684   6.623   3.941   6.136
 1929SOL     OW 6685   1.065   5.806   0.894
 1929SOL    HW1 6686   1.045   5.737   0.963
 1929SOL    HW2 6687   1.149   5.854   0.918
 1930SOL     OW 6688   3.921   3.864   0.092
 1930SOL    HW1 6689   3.993   3.932   0.106
 1930SOL    HW2 6690   3.899   3.859   7.017
 1931SOL     OW 6691   6.956   2.369   3.405
 1931SOL    HW1 6692   6.939   2.447   3.465
 1931SOL    HW2 6693   6.898   2.376   3.324
 1932SOL     OW 6694   4.873   3.570   3.064
 1932SOL    HW1 6695   4.924   3.524   2.991
 1932SOL    HW2 6696   4.859   3.508   3.140
 1933SOL     OW 6697   2.799   4.481   0.690
 1933SOL    HW1 6698   2.892   4.460   0.660
 1933SOL    HW2 6699   2.737   4.476   0.611
 1934SOL     OW 6700   0.614   0.381   4.332
 1934SOL    HW1 6701   0.549   0.305   4.330
 1934SOL    HW2 6702   0.565   0.468   4.339
 1935SOL     OW 6703   3.802   0.612   4.792
 1935SOL    HW1 6704   3.812   0.631   4.889
 1935SOL    HW2 6705   3.875   0.551   4.762
 1936SOL     OW 6706   6.411   4.384   4.137
 1936SOL    HW1 6707   6.400   4.459   4.072
 1936SOL    HW2 6708   6.359   4.305   4.105
 1937SOL     OW 6709   4.922   6.993   0.834
 1937SOL    HW1 6710   4.924   7.009   0.932
 1937SOL    HW2 6711   4.926   0.058   0.786
 1938SOL     OW 6712   3.754   0.948   1.767
 1938SOL    HW1 6713   3.711   0.950   1.858
 1938SOL    HW2 6714   3.739   0.858   1.726
 1939SOL     OW 6715   0.869   0.127   4.649
 1939SOL    HW1 6716   0.884   0.172   4.561
 1939SOL    HW2 6717   0.940   0.059   4.664
 1940SOL     OW 6718   4.226   4.713   6.458
 1940SOL    HW1 6719   4.271   4.756   6.379
 1940SOL    HW2 6720   4.135   4.683   6.432
 1941SOL     OW 6721   0.112   3.763   3.105
 1941SOL    HW1 6722   0.054   3.844   3.109
 1941SOL    HW2 6723   0.063   3.684   3.142
 1942SOL     OW 6724   5.678   0.518   2.189
 1942SOL    HW1 6725   5.629   0.508   2.276
 1942SOL    HW2 6726   5.756   0.578   2.203
 1943SOL     OW 6727   2.605   6.003   2.303
 1943SOL    HW1 6728   2.697   6.009   2.341
 1943SOL    HW2 6729   2.610   5.978   2.207
 1944SOL     OW 6730   5.559   2.203   0.745
 1944SOL    HW1 6731   5.540   2.112   0.708
 1944SOL    HW2 6732   5.596   2.261   0.673
 1945SOL     OW 6733   3.712   5.655   2.496
 1945SOL    HW1 6734   3.724   5.747   2.458
 1945SOL    HW2 6735   3.694   5.590   2.422
 1946SOL     OW 6736   6.355   0.744   1.221
 1946SOL    HW1 6737   6.421   0.735   1.296
 1946SOL    HW2 6738   6.340   0.654   1.179
 1947SOL     OW 6739   4.582   6.447   4.315
 1947SOL    HW1 6740   4.556   6.412   4.225
 1947SOL    HW2 6741   4.635   6.378   4.364
 1948SOL     OW 6742   5.744   6.268   3.961
 1948SOL    HW1 6743   5.659   6.316   3.985
 1948SOL    HW2 6744   5.822   6.316   4.002
 1949SOL     OW 6745   3.965   4.661   6.388
 1949SOL    HW1 6746   3.914   4.602   6.325
 1949SOL    HW2 6747   3.905   4.687   6.464
 1950SOL     OW 6748   3.832   4.752   1.098
 1950SOL    HW1 6749   3.807   4.655   1.094
 1950SOL    HW2 6750   3.751   4.808   1.081
 1951SOL     OW 6751   5.862   4.048   0.211
 1951SOL    HW1 6752   5.778   4.094   0.181
 1951SOL    HW2 6753   5.939   4.112   0.202
 1952SOL     OW 6754   4.202   2.231   6.789
 1952SOL    HW1 6755   4.190   2.278   6.876
 1952SOL    HW2 6756   4.270   2.280   6.734
 1953SOL     OW 6757   5.816   3.136   6.888
 1953SOL    HW1 6758   5.755   3.065   6.851
 1953SOL    HW2 6759   5.851   3.106   6.977
 1954SOL     OW 6760   5.519   1.134   3.866
 1954SOL    HW1 6761   5.512   1.233   3.852
 1954SOL    HW2 6762   5.520   1.115   3.964
 1955SOL     OW 6763   1.858   0.842   2.715
 1955SOL    HW1 6764   1.813   0.910   2.657
 1955SOL    HW2 6765   1.895   0.888   2.797
 1956SOL     OW 6766   4.967   6.574   1.907
 1956SOL    HW1 6767   4.925   6.582   1.816
 1956SOL    HW2 6768   4.979   6.665   1.946
 1957SOL     OW 6769   6.371   5.888   4.860
 1957SOL    HW1 6770   6.283   5.841   4.872
 1957SOL    HW2 6771   6.442   5.841   4.913
 1958SOL     OW 6772   5.638   2.330   2.660
 1958SOL    HW1 6773   5.569   2.316   2.589
 1958SOL    HW2 6774   5.671   2.241   2.692
 1959SOL     OW 6775   0.529   1.343   5.242
 1959SOL    HW1 6776   0.508   1.342   5.339
 1959SOL    HW2 6777   0.545   1.250   5.210
 1960SOL     OW 6778   6.773   4.760   1.706
 1960SOL    HW1 6779   6.769   4.672   1.752
 1960SOL    HW2 6780   6.758   4.833   1.772
 1961SOL     OW 6781   5.564   4.533   4.409
 1961SOL    HW1 6782   5.615   4.610   4.372
 1961SOL    HW2 6783   5.471   4.561   4.429
 1962SOL     OW 6784   2.522   0.006   3.470
 1962SOL    HW1 6785   2.531   0.022   3.372
 1962SOL    HW2 6786   2.432   0.037   3.501
 1963SOL     OW 6787   0.988   1.249   1.800
 1963SOL    HW1 6788   0.995   1.174   1.735
 1963SOL    HW2 6789   0.964   1.213   1.890
 1964SOL     OW 6790   5.025   3.770   1.172
 1964SOL    HW1 6791   5.008   3.869   1.172
 1964SOL    HW2 6792   5.107   3.750   1.119
 1965SOL     OW 6793   1.058   3.524   4.516
 1965SOL    HW1 6794   1.058   3.528   4.416
 1965SOL    HW2 6795   0.970   3.557   4.550
 1966SOL     OW 6796   6.748   6.210   6.883
 1966SOL    HW1 6797   6.737   6.306   6.908
 1966SOL    HW2 6798   6.692   6.153   6.943
 1967SOL     OW 6799   4.700   2.236   4.605
 1967SOL    HW1 6800   4.680   2.195   4.694
 1967SOL    HW2 6801   4.666   2.330   4.602
 1968SOL     OW 6802   3.399   6.945   0.300
 1968SOL    HW1 6803   3.398   0.014   0.339
 1968SOL    HW2 6804   3.308   6.904   0.310
 1969SOL     OW 6805   0.774   1.483   1.784
 1969SOL    HW1 6806   0.752   1.389   1.810
 1969SOL    HW2 6807   0.787   1.488   1.685
 1970SOL     OW 6808   2.201   0.060   6.101
 1970SOL    HW1 6809   2.209   7.010   6.033
 1970SOL    HW2 6810   2.266   0.043   6.176
 1971SOL     OW 6811   0.104   0.053   5.844
 1971SOL    HW1 6812   0.176   0.119   5.865
 1971SOL    HW2 6813   0.113   0.023   5.749
 1972SOL     OW 6814   5.879   2.508   2.630
 1972SOL    HW1 6815   5.883   2.540   2.535
 1972SOL    HW2 6816   5.797   2.452   2.642
 1973SOL     OW 6817   2.392   2.660   0.566
 1973SOL    HW1 6818   2.391   2.759   0.552
 1973SOL    HW2 6819   2.414   2.615   0.479
 1974SOL     OW 6820   5.477   6.070   4.168
 1974SOL    HW1 6821   5.404   6.046   4.104
 1974SOL    HW2 6822   5.557   6.013   4.150
 1975SOL     OW 6823   2.032   1.639   3.690
 1975SOL    HW1 6824   2.109   1.695   3.660
 1975SOL    HW2 6825   2.064   1.570   3.755
 1976SOL     OW 6826   0.710   6.078   6.930
 1976SOL    HW1 6827   0.769   6.131   6.991
 1976SOL    HW2 6828   0.615   6.103   6.945
 1977SOL     OW 6829   0.653   3.574   3.964
 1977SOL    HW1 6830   0.738   3.543   4.006
 1977SOL    HW2 6831   0.576   3.551   4.024
 1978SOL     OW 6832   1.012   0.748   3.139
 1978SOL    HW1 6833   1.005   0.766   3.237
 1978SOL    HW2 6834   0.924   0.768   3.095
 1979SOL     OW 6835   6.016   4.560   5.655
 1979SOL    HW1 6836   5.965   4.592   5.575
 1979SOL    HW2 6837   6.113   4.581   5.642
 1980SOL     OW 6838   2.541   0.402   5.324
 1980SOL    HW1 6839   2.532   0.498   5.296
 1980SOL    HW2 6840   2.612   0.358   5.268
 1981SOL     OW 6841   6.493   2.191   2.512
 1981SOL    HW1 6842   6.531   2.227   2.597
 1981SOL    HW2 6843   6.412   2.136   2.533
 1982SOL     OW 6844   0.548   4.259   5.074
 1982SOL    HW1 6845   0.508   4.168   5.061
 1982SOL    HW2 6846   0.487   4.328   5.036
 1983SOL     OW 6847   0.803   1.294   2.683
 1983SOL    HW1 6848   0.780   1.351   2.604
 1983SOL    HW2 6849   0.742   1.315   2.759
 1984SOL     OW 6850   6.584   2.083   5.053
 1984SOL    HW1 6851   6.574   2.063   5.151
 1984SOL    HW2 6852   6.656   2.150   5.040
 1985SOL     OW 6853   1.370   6.064   2.524
 1985SOL    HW1 6854   1.374   5.967   2.500
 1985SOL    HW2 6855   1.451   6.111   2.491
 1986SOL     OW 6856   1.354   0.568   0.381
 1986SOL    HW1 6857   1.313   0.596   0.468
 1986SOL    HW2 6858   1.451   0.591   0.382
 1987SOL     OW 6859   1.682   2.593   2.012
 1987SOL    HW1 6860   1.651   2.501   1.989
 1987SOL    HW2 6861   1.603   2.652   2.030
 1988SOL     OW 6862   5.745   4.187   1.123
 1988SOL    HW1 6863   5.774   4.205   1.029
 1988SOL    HW2 6864   5.823   4.155   1.176
 1989SOL     OW 6865   2.417   6.578   4.330
 1989SOL    HW1 6866   2.497   6.595   4.387
 1989SOL    HW2 6867   2.345   6.643   4.353
 1990SOL     OW 6868   3.017   6.522   0.094
 1990SOL    HW1 6869   3.078   6.468   0.152
 1990SOL    HW2 6870   3.009   6.477   0.004
 1991SOL     OW 6871   4.193   4.474   6.156
 1991SOL    HW1 6872   4.197   4.570   6.128
 1991SOL    HW2 6873   4.250   4.461   6.237
 1992SOL     OW 6874   0.629   0.379   6.808
 1992SOL    HW1 6875   0.666   0.301   6.857
 1992SOL    HW2 6876   0.616   0.355   6.712
 1993SOL     OW 6877   3.889   3.067   4.511
 1993SOL    HW1 6878   3.816   3.008   4.477
 1993SOL    HW2 6879   3.883   3.074   4.610
 1994SOL     OW 6880   0.720   1.004   0.419
 1994SOL    HW1 6881   0.719   0.904   0.429
 1994SOL    HW2 6882   0.802   1.041   0.462
 1995SOL     OW 6883   5.372   2.674   2.878
 1995SOL    HW1 6884   5.399   2.578   2.865
 1995SOL    HW2 6885   5.300   2.679   2.947
 1996SOL     OW 6886   2.107   3.483   0.618
 1996SOL    HW1 6887   2.107   3.574   0.660
 1996SOL    HW2 6888   2.041   3.425   0.665
 1997SOL     OW 6889   4.136   0.897   4.774
 1997SOL    HW1 6890   4.202   0.838   4.820
 1997SOL    HW2 6891   4.118   0.978   4.831
 1998SOL     OW 6892   2.868   3.771   6.138
 1998SOL    HW1 6893   2.857   3.782   6.039
 1998SOL    HW2 6894   2.842   3.856   6.184
 1999SOL     OW 6895   3.172   6.427   1.495
 1999SOL    HW1 6896   3.263   6.455   1.526
 1999SOL    HW2 6897   3.127   6.503   1.449
 2000SOL     OW 6898   4.540   2.302   5.112
 2000SOL    HW1 6899   4.637   2.278   5.119
 2000SOL    HW2 6900   4.497   2.245   5.042
 2001SOL     OW 6901   2.916   1.204   1.434
 2001SOL    HW1 6902   2.896   1.295   1.397
 2001SOL    HW2 6903   2.895   1.135   1.365
 2002SOL     OW 6904   0.810   4.577   6.348
 2002SOL    HW1 6905   0.801   4.515   6.271
 2002SOL    HW2 6906   0.811   4.525   6.434
 2003SOL     OW 6907   6.114   6.131   2.932
 2003SOL    HW1 6908   6.093   6.174   3.020
 2003SOL    HW2 6909   6.210   6.149   2.909
 2004SOL     OW 6910   4.973   1.448   5.444
 2004SOL    HW1 6911   5.000   1.362   5.487
 2004SOL    HW2 6912   4.876   1.465   5.460
 2005SOL     OW 6913   1.029   4.938   7.005
 2005SOL    HW1 6914   0.951   4.888   6.969
 2005SOL    HW2 6915   1.096   4.874   0.020
 2006SOL     OW 6916   5.005   5.536   4.033
 2006SOL    HW1 6917   5.008   5.470   4.107
 2006SOL    HW2 6918   4.962   5.495   3.953
 2007SOL     OW 6919   4.531   5.121   1.068
 2007SOL    HW1 6920   4.441   5.161   1.086
 2007SOL    HW2 6921   4.521   5.022   1.057
 2008SOL     OW 6922   2.291   5.190   3.283
 2008SOL    HW1 6923   2.363   5.234   3.230
 2008SOL    HW2 6924   2.204   5.238   3.269
 2009SOL     OW 6925   6.065   0.439   2.242
 2009SOL    HW1 6926   6.127   0.443   2.163
 2009SOL    HW2 6927   6.038   0.345   2.259
 2010SOL     OW 6928   1.807   1.574   1.148
 2010SOL    HW1 6929   1.907   1.574   1.152
 2010SOL    HW2 6930   1.776   1.636   1.077
 2011SOL     OW 6931   6.657   1.197   4.680
 2011SOL    HW1 6932   6.691   1.192   4.586
 2011SOL    HW2 6933   6.591   1.273   4.688
 2012SOL     OW 6934   1.894   3.040   2.183
 2012SOL    HW1 6935   1.893   3.024   2.281
 2012SOL    HW2 6936   1.989   3.041   2.150
 2013SOL     OW 6937   6.438   2.019   3.399
 2013SOL    HW1 6938   6.410   1.997   3.492
 2013SOL    HW2 6939   6.363   2.065   3.351
 2014SOL     OW 6940   1.970   4.828   3.011
 2014SOL    HW1 6941   2.019   4.915   3.016
 2014SOL    HW2 6942   2.025   4.761   2.960
 2015SOL     OW 6943   1.455   1.388   0.350
 2015SOL    HW1 6944   1.387   1.329   0.306
 2015SOL    HW2 6945   1.418   1.480   0.359
 2016SOL     OW 6946   0.650   6.059   4.661
 2016SOL    HW1 6947   0.733   6.108   4.686
 2016SOL    HW2 6948   0.570   6.114   4.684
 2017SOL     OW 6949   2.895   0.107   4.584
 2017SOL    HW1 6950   2.894   0.008   4.568
 2017SOL    HW2 6951   2.978   0.131   4.634
 2018SOL     OW 6952   5.502   6.831   5.735
 2018SOL    HW1 6953   5.437   6.844   5.810
 2018SOL    HW2 6954   5.503   6.914   5.679
 2019SOL     OW 6955   5.370   2.485   1.652
 2019SOL    HW1 6956   5.443   2.454   1.591
 2019SOL    HW2 6957   5.348   2.581   1.631
 2020SOL     OW 6958   0.847   6.195   4.781
 2020SOL    HW1 6959   0.861   6.295   4.781
 2020SOL    HW2 6960   0.880   6.158   4.868
 2021SOL     OW 6961   1.969   5.559   3.377
 2021SOL    HW1 6962   1.922   5.559   3.465
 2021SOL    HW2 6963   1.952   5.645   3.330
 2022SOL     OW 6964   1.885   3.835   3.390
 2022SOL    HW1 6965   1.822   3.761   3.367
 2022SOL    HW2 6966   1.836   3.922   3.386
 2023SOL     OW 6967   6.405   0.894   6.401
 2023SOL    HW1 6968   6.477   0.875   6.468
 2023SOL    HW2 6969   6.327   0.833   6.418
 2024SOL     OW 6970   0.208   6.756   3.445
 2024SOL    HW1 6971   0.209   6.782   3.542
 2024SOL    HW2 6972   0.228   6.836   3.389
 2025SOL     OW 6973   2.858   2.256   2.970
 2025SOL    HW1 6974   2.789   2.237   3.039
 2025SOL    HW2 6975   2.869   2.355   2.959
 2026SOL     OW 6976   0.080   3.093   6.137
 2026SOL    HW1 6977   0.082   3.172   6.198
 2026SOL    HW2 6978   0.008   3.030   6.167
 2027SOL     OW 6979   0.617   0.367   0.614
 2027SOL    HW1 6980   0.695   0.391   0.557
 2027SOL    HW2 6981   0.554   0.309   0.562
 2028SOL     OW 6982   2.736   0.366   5.104
 2028SOL    HW1 6983   2.790   0.443   5.068
 2028SOL    HW2 6984   2.682   0.326   5.030
 2029SOL     OW 6985   6.506   0.652   1.469
 2029SOL    HW1 6986   6.459   0.603   1.543
 2029SOL    HW2 6987   6.580   0.595   1.433
 2030SOL     OW 6988   2.870   0.697   2.644
 2030SOL    HW1 6989   2.774   0.678   2.621
 2030SOL    HW2 6990   2.894   0.789   2.614
 2031SOL     OW 6991   6.532   6.139   1.838
 2031SOL    HW1 6992   6.569   6.050   1.810
 2031SOL    HW2 6993   6.572   6.211   1.781
 2032SOL     OW 6994   5.023   6.159   1.643
 2032SOL    HW1 6995   5.084   6.220   1.693
 2032SOL    HW2 6996   4.943   6.210   1.611
 2033SOL     OW 6997   3.795   3.834   6.868
 2033SOL    HW1 6998   3.723   3.774   6.835
 2033SOL    HW2 6999   3.874   3.829   6.807
 2034SOL     OW 7000   3.218   6.651   5.335
 2034SOL    HW1 7001   3.244   6.715   5.263
 2034SOL    HW2 7002   3.121   6.627   5.324
 2035SOL     OW 7003   0.161   0.347   2.341
 2035SOL    HW1 7004   0.242   0.296   2.370
 2035SOL    HW2 7005   0.187   0.418   2.276
 2036SOL     OW 7006   1.418   5.073   2.583
 2036SOL    HW1 7007   1.432   5.002   2.652
 2036SOL    HW2 7008   1.403   5.030   2.494
 2037SOL     OW 7009   6.793   3.338   5.435
 2037SOL    HW1 7010   6.818   3.312   5.342
 2037SOL    HW2 7011   6.876   3.358   5.488
 2038SOL     OW 7012   0.959   1.951   6.414
 2038SOL    HW1 7013   0.908   2.037   6.416
 2038SOL    HW2 7014   0.966   1.915   6.507
 2039SOL     OW 7015   1.210   5.672   3.326
 2039SOL    HW1 7016   1.148   5.684   3.249
 2039SOL    HW2 7017   1.185   5.734   3.400
 2040SOL     OW 7018   3.461   2.913   4.302
 2040SOL    HW1 7019   3.455   2.930   4.204
 2040SOL    HW2 7020   3.382   2.861   4.332
 2041SOL     OW 7021   0.645   6.043   5.257
 2041SOL    HW1 7022   0.573   6.084   5.200
 2041SOL    HW2 7023   0.626   6.063   5.353
 2042SOL     OW 7024   4.980   4.703   6.429
 2042SOL    HW1 7025   5.054   4.766   6.452
 2042SOL    HW2 7026   4.910   4.707   6.500
 2043SOL     OW 7027   6.322   3.536   3.391
 2043SOL    HW1 7028   6.398   3.531   3.456
 2043SOL    HW2 7029   6.357   3.550   3.299
 2044SOL     OW 7030   5.329   6.874   1.403
 2044SOL    HW1 7031   5.386   6.916   1.333
 2044SOL    HW2 7032   5.281   6.945   1.454
 2045SOL     OW 7033   3.213   4.998   4.059
 2045SOL    HW1 7034   3.278   4.961   4.125
 2045SOL    HW2 7035   3.236   5.093   4.038
 2046SOL     OW 7036   6.633   1.955   3.838
 2046SOL    HW1 7037   6.713   1.904   3.804
 2046SOL    HW2 7038   6.636   2.049   3.803
 2047SOL     OW 7039   6.122   2.600   6.899
 2047SOL    HW1 7040   6.195   2.661   6.866
 2047SOL    HW2 7041   6.161   2.536   6.965
 2048SOL     OW 7042   1.587   6.169   0.248
 2048SOL    HW1 7043   1.602   6.231   0.171
 2048SOL    HW2 7044   1.506   6.198   0.299
 2049SOL     OW 7045   5.567   1.836   6.004
 2049SOL    HW1 7046   5.636   1.766   6.022
 2049SOL    HW2 7047   5.573   1.907   6.074
 2050SOL     OW 7048   0.518   2.965   2.973
 2050SOL    HW1 7049   0.498   3.060   2.996
 2050SOL    HW2 7050   0.527   2.911   3.056
 2051SOL     OW 7051   1.361   5.890   0.872
 2051SOL    HW1 7052   1.364   5.918   0.968
 2051SOL    HW2 7053   1.434   5.937   0.821
 2052SOL     OW 7054   0.983   3.781   0.905
 2052SOL    HW1 7055   0.977   3.688   0.870
 2052SOL    HW2 7056   0.891   3.819   0.916
 2053SOL     OW 7057   6.077   6.488   4.775
 2053SOL    HW1 7058   6.040   6.580   4.793
 2053SOL    HW2 7059   6.001   6.425   4.759
 2054SOL     OW 7060   3.526   3.550   2.511
 2054SOL    HW1 7061   3.596   3.591   2.570
 2054SOL    HW2 7062   3.438   3.596   2.527
 2055SOL     OW 7063   5.911   3.748   3.370
 2055SOL    HW1 7064   5.852   3.744   3.451
 2055SOL    HW2 7065   5.858   3.776   3.291
 2056SOL     OW 7066   2.926   6.565   2.582
 2056SOL    HW1 7067   2.934   6.566   2.682
 2056SOL    HW2 7068   2.986   6.635   2.543
 2057SOL     OW 7069   5.560   3.701   5.132
 2057SOL    HW1 7070   5.498   3.757   5.188
 2057SOL    HW2 7071   5.532   3.605   5.138
 2058SOL     OW 7072   0.705   1.336   3.108
 2058SOL    HW1 7073   0.724   1.401   3.182
 2058SOL    HW2 7074   0.742   1.247   3.131
 2059SOL     OW 7075   2.298   5.872   6.287
 2059SOL    HW1 7076   2.289   5.786   6.237
 2059SOL    HW2 7077   2.392   5.882   6.320
 2060SOL     OW 7078   0.104   3.823   1.014
 2060SOL    HW1 7079   0.028   3.886   1.000
 2060SOL    HW2 7080   0.107   3.758   0.938
 2061SOL     OW 7081   0.059   1.476   3.472
 2061SOL    HW1 7082   0.112   1.525   3.542
 2061SOL    HW2 7083   6.984   1.486   3.492
 2062SOL     OW 7084   6.212   0.256   3.842
 2062SOL    HW1 7085   6.201   0.163   3.875
 2062SOL    HW2 7086   6.140   0.277   3.775
 2063SOL     OW 7087   2.191   6.700   6.224
 2063SOL    HW1 7088   2.141   6.619   6.191
 2063SOL    HW2 7089   2.139   6.782   6.203
 2064SOL     OW 7090   0.606   2.507   5.550
 2064SOL    HW1 7091   0.526   2.530   5.495
 2064SOL    HW2 7092   0.611   2.408   5.561
 2065SOL     OW 7093   6.803   2.805   5.038
 2065SOL    HW1 7094   6.722   2.838   5.087
 2065SOL    HW2 7095   6.775   2.753   4.958
 2066SOL     OW 7096   0.772   4.870   3.855
 2066SOL    HW1 7097   0.779   4.951   3.797
 2066SOL    HW2 7098   0.861   4.852   3.897
 2067SOL     OW 7099   6.409   5.399   1.184
 2067SOL    HW1 7100   6.449   5.314   1.150
 2067SOL    HW2 7101   6.324   5.379   1.233
 2068SOL     OW 7102   1.954   1.129   4.919
 2068SOL    HW1 7103   2.045   1.088   4.913
 2068SOL    HW2 7104   1.886   1.058   4.936
 2069SOL     OW 7105   0.565   2.860   3.231
 2069SOL    HW1 7106   0.632   2.861   3.305
 2069SOL    HW2 7107   0.479   2.900   3.264
 2070SOL     OW 7108   1.542   0.880   2.146
 2070SOL    HW1 7109   1.566   0.853   2.240
 2070SOL    HW2 7110   1.477   0.814   2.109
 2071SOL     OW 7111   6.635   6.193   5.928
 2071SOL    HW1 7112   6.683   6.253   5.992
 2071SOL    HW2 7113   6.555   6.154   5.972
 2072SOL     OW 7114   4.011   6.360   3.786
 2072SOL    HW1 7115   3.969   6.276   3.822
 2072SOL    HW2 7116   4.080   6.392   3.852
 2073SOL     OW 7117   4.078   0.310   4.438
 2073SOL    HW1 7118   3.993   0.258   4.428
 2073SOL    HW2 7119   4.156   0.248   4.436
 2074SOL     OW 7120   1.433   2.626   0.458
 2074SOL    HW1 7121   1.413   2.659   0.550
 2074SOL    HW2 7122   1.350   2.630   0.402
 2075SOL     OW 7123   5.672   3.128   1.875
 2075SOL    HW1 7124   5.617   3.171   1.802
 2075SOL    HW2 7125   5.757   3.179   1.887
 2076SOL     OW 7126   6.042   0.155   0.320
 2076SOL    HW1 7127   6.105   0.230   0.301
 2076SOL    HW2 7128   5.990   0.176   0.403
 2077SOL     OW 7129   5.275   2.913   2.768
 2077SOL    HW1 7130   5.324   2.848   2.827
 2077SOL    HW2 7131   5.179   2.917   2.796
 2078SOL     OW 7132   1.118   5.659   5.502
 2078SOL    HW1 7133   1.165   5.725   5.444
 2078SOL    HW2 7134   1.024   5.688   5.515
 2079SOL     OW 7135   5.343   1.843   3.846
 2079SOL    HW1 7136   5.296   1.782   3.782
 2079SOL    HW2 7137   5.279   1.914   3.877
 2080SOL     OW 7138   1.715   0.031   5.165
 2080SOL    HW1 7139   1.779   7.009   5.102
 2080SOL    HW2 7140   1.727   0.130   5.158
 2081SOL     OW 7141   1.676   5.365   4.521
 2081SOL    HW1 7142   1.712   5.386   4.430
 2081SOL    HW2 7143   1.750   5.372   4.588
 2082SOL     OW 7144   0.692   0.289   2.524
 2082SOL    HW1 7145   0.645   0.374   2.549
 2082SOL    HW2 7146   0.640   0.240   2.455
 2083SOL     OW 7147   6.510   5.273   6.351
 2083SOL    HW1 7148   6.468   5.298   6.438
 2083SOL    HW2 7149   6.608   5.255   6.365
 2084SOL     OW 7150   1.400   3.704   3.583
 2084SOL    HW1 7151   1.422   3.797   3.612
 2084SOL    HW2 7152   1.446   3.639   3.643
 2085SOL     OW 7153   4.524   0.584   6.654
 2085SOL    HW1 7154   4.541   0.648   6.579
 2085SOL    HW2 7155   4.439   0.533   6.636
 2086SOL     OW 7156   4.322   6.467   5.501
 2086SOL    HW1 7157   4.393   6.428   5.560
 2086SOL    HW2 7158   4.233   6.433   5.528
 2087SOL     OW 7159   5.281   0.300   1.084
 2087SOL    HW1 7160   5.195   0.346   1.062
 2087SOL    HW2 7161   5.333   0.285   0.999
 2088SOL     OW 7162   1.226   5.954   0.162
 2088SOL    HW1 7163   1.281   5.873   0.183
 2088SOL    HW2 7164   1.268   6.034   0.204
 2089SOL     OW 7165   5.421   2.008   6.512
 2089SOL    HW1 7166   5.365   1.947   6.457
 2089SOL    HW2 7167   5.364   2.051   6.583
 2090SOL     OW 7168   3.690   2.492   5.729
 2090SOL    HW1 7169   3.754   2.436   5.782
 2090SOL    HW2 7170   3.738   2.535   5.653
 2091SOL     OW 7171   0.166   5.519   0.163
 2091SOL    HW1 7172   0.080   5.522   0.113
 2091SOL    HW2 7173   0.227   5.452   0.120
 2092SOL     OW 7174   5.656   3.648   0.128
 2092SOL    HW1 7175   5.711   3.731   0.119
 2092SOL    HW2 7176   5.687   3.596   0.208
 2093SOL     OW 7177   2.501   2.278   1.186
 2093SOL    HW1 7178   2.546   2.365   1.165
 2093SOL    HW2 7179   2.462   2.283   1.279
 2094SOL     OW 7180   5.750   1.775   1.711
 2094SOL    HW1 7181   5.838   1.813   1.683
 2094SOL    HW2 7182   5.731   1.800   1.806
 2095SOL     OW 7183   5.814   6.879   5.251
 2095SOL    HW1 7184   5.784   6.952   5.312
 2095SOL    HW2 7185   5.735   6.828   5.218
 2096SOL     OW 7186   4.825   3.758   2.813
 2096SOL    HW1 7187   4.795   3.664   2.832
 2096SOL    HW2 7188   4.807   3.816   2.892
 2097SOL     OW 7189   3.159   3.626   6.584
 2097SOL    HW1 7190   3.232   3.656   6.645
 2097SOL    HW2 7191   3.155   3.686   6.504
 2098SOL     OW 7192   3.774   5.591   1.746
 2098SOL    HW1 7193   3.834   5.589   1.826
 2098SOL    HW2 7194   3.771   5.500   1.705
 2099SOL     OW 7195   3.140   2.942   5.957
 2099SOL    HW1 7196   3.230   2.897   5.949
 2099SOL    HW2 7197   3.153   3.035   5.990
 2100SOL     OW 7198   4.943   2.404   6.719
 2100SOL    HW1 7199   5.038   2.400   6.687
 2100SOL    HW2 7200   4.933   2.349   6.801
 2101SOL     OW 7201   1.127   6.486   1.904
 2101SOL    HW1 7202   1.222   6.453   1.904
 2101SOL    HW2 7203   1.068   6.418   1.948
 2102SOL     OW 7204   5.829   4.585   2.895
 2102SOL    HW1 7205   5.788   4.495   2.904
 2102SOL    HW2 7206   5.784   4.649   2.958
 2103SOL     OW 7207   4.095   4.230   6.043
 2103SOL    HW1 7208   4.045   4.176   6.110
 2103SOL    HW2 7209   4.150   4.299   6.090
 2104SOL     OW 7210   1.705   4.439   1.293
 2104SOL    HW1 7211   1.718   4.488   1.379
 2104SOL    HW2 7212   1.782   4.377   1.278
 2105SOL     OW 7213   5.310   6.115   5.209
 2105SOL    HW1 7214   5.401   6.153   5.220
 2105SOL    HW2 7215   5.264   6.158   5.131
 2106SOL     OW 7216   4.907   4.186   1.376
 2106SOL    HW1 7217   4.937   4.131   1.298
 2106SOL    HW2 7218   4.833   4.140   1.424
 2107SOL     OW 7219   4.820   2.964   5.729
 2107SOL    HW1 7220   4.736   2.916   5.754
 2107SOL    HW2 7221   4.898   2.904   5.744
 2108SOL     OW 7222   5.862   5.758   4.987
 2108SOL    HW1 7223   5.798   5.811   4.932
 2108SOL    HW2 7224   5.822   5.669   5.010
 2109SOL     OW 7225   4.139   6.117   2.280
 2109SOL    HW1 7226   4.050   6.144   2.244
 2109SOL    HW2 7227   4.147   6.147   2.375
 2110SOL     OW 7228   1.827   1.591   0.758
 2110SOL    HW1 7229   1.758   1.572   0.688
 2110SOL    HW2 7230   1.836   1.690   0.770
 2111SOL     OW 7231   1.819   2.767   6.451
 2111SOL    HW1 7232   1.722   2.787   6.437
 2111SOL    HW2 7233   1.836   2.751   6.548
 2112SOL     OW 7234   5.583   3.385   0.789
 2112SOL    HW1 7235   5.681   3.390   0.806
 2112SOL    HW2 7236   5.566   3.330   0.707
 2113SOL     OW 7237   2.460   2.224   5.066
 2113SOL    HW1 7238   2.556   2.248   5.077
 2113SOL    HW2 7239   2.453   2.136   5.020
 2114SOL     OW 7240   1.908   2.210   6.711
 2114SOL    HW1 7241   1.956   2.153   6.777
 2114SOL    HW2 7242   1.966   2.289   6.687
 2115SOL     OW 7243   2.070   3.730   3.091
 2115SOL    HW1 7244   2.098   3.702   3.183
 2115SOL    HW2 7245   2.115   3.673   3.023
 2116SOL     OW 7246   0.861   5.315   2.926
 2116SOL    HW1 7247   0.815   5.252   2.864
 2116SOL    HW2 7248   0.797   5.386   2.955
 2117SOL     OW 7249   6.888   4.966   1.575
 2117SOL    HW1 7250   6.857   4.896   1.639
 2117SOL    HW2 7251   6.961   5.020   1.617
 2118SOL     OW 7252   6.386   3.106   2.318
 2118SOL    HW1 7253   6.416   3.136   2.409
 2118SOL    HW2 7254   6.466   3.086   2.261
 2119SOL     OW 7255   1.574   0.309   1.181
 2119SOL    HW1 7256   1.553   0.223   1.228
 2119SOL    HW2 7257   1.631   0.366   1.239
 2120SOL     OW 7258   0.101   5.231   3.657
 2120SOL    HW1 7259   0.140   5.139   3.648
 2120SOL    HW2 7260   0.153   5.282   3.725
 2121SOL     OW 7261   1.249   4.270   5.696
 2121SOL    HW1 7262   1.295   4.190   5.659
 2121SOL    HW2 7263   1.160   4.243   5.734
 2122SOL     OW 7264   5.688   4.274   5.555
 2122SOL    HW1 7265   5.740   4.329   5.621
 2122SOL    HW2 7266   5.678   4.181   5.590
 2123SOL     OW 7267   6.974   5.758   2.233
 2123SOL    HW1 7268   6.931   5.710   2.310
 2123SOL    HW2 7269   6.903   5.797   2.174
 2124SOL     OW 7270   3.134   2.133   1.034
 2124SOL    HW1 7271   3.175   2.175   0.954
 2124SOL    HW2 7272   3.201   2.129   1.108
 2125SOL     OW 7273   2.100   0.375   2.199
 2125SOL    HW1 7274   2.164   0.377   2.123
 2125SOL    HW2 7275   2.059   0.466   2.211
 2126SOL     OW 7276   3.557   1.850   6.159
 2126SOL    HW1 7277   3.600   1.930   6.201
 2126SOL    HW2 7278   3.537   1.870   6.063
 2127SOL     OW 7279   0.515   3.079   5.230
 2127SOL    HW1 7280   0.438   3.134   5.262
 2127SOL    HW2 7281   0.590   3.084   5.297
 2128SOL     OW 7282   6.149   3.519   4.098
 2128SOL    HW1 7283   6.204   3.596   4.066
 2128SOL    HW2 7284   6.074   3.553   4.155
 2129SOL     OW 7285   4.188   3.244   5.275
 2129SOL    HW1 7286   4.164   3.154   5.312
 2129SOL    HW2 7287   4.224   3.302   5.348
 2130SOL     OW 7288   3.523   0.030   2.745
 2130SOL    HW1 7289   3.607   0.084   2.753
 2130SOL    HW2 7290   3.446   0.090   2.724
 2131SOL     OW 7291   4.982   1.145   0.454
 2131SOL    HW1 7292   4.916   1.084   0.410
 2131SOL    HW2 7293   5.018   1.209   0.387
 2132SOL     OW 7294   3.278   0.149   1.410
 2132SOL    HW1 7295   3.185   0.178   1.435
 2132SOL    HW2 7296   3.314   0.090   1.482
 2133SOL     OW 7297   3.280   2.794   0.233
 2133SOL    HW1 7298   3.343   2.821   0.305
 2133SOL    HW2 7299   3.187   2.788   0.270
 2134SOL     OW 7300   0.453   0.934   6.186
 2134SOL    HW1 7301   0.419   0.936   6.280
 2134SOL    HW2 7302   0.551   0.914   6.186
 2135SOL     OW 7303   1.443   3.599   5.373
 2135SOL    HW1 7304   1.480   3.520   5.325
 2135SOL    HW2 7305   1.494   3.681   5.347
 2136SOL     OW 7306   0.966   3.836   4.065
 2136SOL    HW1 7307   1.065   3.823   4.061
 2136SOL    HW2 7308   0.920   3.748   4.072
 2137SOL     OW 7309   2.486   5.629   4.799
 2137SOL    HW1 7310   2.479   5.723   4.768
 2137SOL    HW2 7311   2.581   5.607   4.820
 2138SOL     OW 7312   6.541   0.174   2.789
 2138SOL    HW1 7313   6.505   0.080   2.787
 2138SOL    HW2 7314   6.639   0.172   2.807
 2139SOL     OW 7315   3.513   0.844   3.205
 2139SOL    HW1 7316   3.599   0.895   3.201
 2139SOL    HW2 7317   3.463   0.855   3.119
 2140SOL     OW 7318   3.868   6.777   4.027
 2140SOL    HW1 7319   3.900   6.794   4.120
 2140SOL    HW2 7320   3.826   6.859   3.990
 2141SOL     OW 7321   6.242   3.778   2.779
 2141SOL    HW1 7322   6.335   3.743   2.765
 2141SOL    HW2 7323   6.178   3.702   2.780
 2142SOL     OW 7324   1.695   2.624   3.171
 2142SOL    HW1 7325   1.677   2.536   3.217
 2142SOL    HW2 7326   1.738   2.607   3.082
 2143SOL     OW 7327   2.716   4.384   1.155
 2143SOL    HW1 7328   2.658   4.382   1.236
 2143SOL    HW2 7329   2.810   4.406   1.182
 2144SOL     OW 7330   1.385   5.386   4.485
 2144SOL    HW1 7331   1.391   5.469   4.429
 2144SOL    HW2 7332   1.477   5.358   4.511
 2145SOL     OW 7333   4.324   6.343   4.349
 2145SOL    HW1 7334   4.383   6.409   4.303
 2145SOL    HW2 7335   4.380   6.274   4.395
 2146SOL     OW 7336   2.670   3.445   1.780
 2146SOL    HW1 7337   2.728   3.496   1.843
 2146SOL    HW2 7338   2.579   3.432   1.820
 2147SOL     OW 7339   6.409   1.377   5.964
 2147SOL    HW1 7340   6.457   1.447   6.017
 2147SOL    HW2 7341   6.311   1.398   5.964
 2148SOL     OW 7342   5.472   2.186   5.666
 2148SOL    HW1 7343   5.439   2.269   5.709
 2148SOL    HW2 7344   5.492   2.204   5.569
 2149SOL     OW 7345   3.763   2.438   1.297
 2149SOL    HW1 7346   3.814   2.378   1.358
 2149SOL    HW2 7347   3.667   2.441   1.326
 2150SOL     OW 7348   2.763   2.202   2.711
 2150SOL    HW1 7349   2.671   2.238   2.695
 2150SOL    HW2 7350   2.789   2.217   2.806
 2151SOL     OW 7351   1.523   0.176   4.882
 2151SOL    HW1 7352   1.613   0.134   4.866
 2151SOL    HW2 7353   1.519   0.208   4.977
 2152SOL     OW 7354   3.586   5.780   1.192
 2152SOL    HW1 7355   3.508   5.779   1.129
 2152SOL    HW2 7356   3.650   5.707   1.167
 2153SOL     OW 7357   3.730   0.773   2.797
 2153SOL    HW1 7358   3.638   0.736   2.787
 2153SOL    HW2 7359   3.752   0.782   2.894
 2154SOL     OW 7360   5.010   0.090   5.148
 2154SOL    HW1 7361   5.107   0.097   5.126
 2154SOL    HW2 7362   4.972   0.008   5.104
 2155SOL     OW 7363   2.642   5.704   0.145
 2155SOL    HW1 7364   2.570   5.773   0.144
 2155SOL    HW2 7365   2.696   5.711   0.060
 2156SOL     OW 7366   2.116   1.632   5.065
 2156SOL    HW1 7367   2.073   1.544   5.045
 2156SOL    HW2 7368   2.053   1.688   5.119
 2157SOL     OW 7369   6.220   0.667   3.773
 2157SOL    HW1 7370   6.261   0.757   3.760
 2157SOL    HW2 7371   6.135   0.662   3.720
 2158SOL     OW 7372   3.997   5.864   1.017
 2158SOL    HW1 7373   4.027   5.939   0.958
 2158SOL    HW2 7374   3.932   5.807   0.967
 2159SOL     OW 7375   1.414   6.439   5.033
 2159SOL    HW1 7376   1.493   6.452   4.973
 2159SOL    HW2 7377   1.424   6.352   5.082
 2160SOL     OW 7378   3.799   3.813   0.542
 2160SOL    HW1 7379   3.824   3.908   0.521
 2160SOL    HW2 7380   3.708   3.794   0.506
 2161SOL     OW 7381   5.269   5.166   2.888
 2161SOL    HW1 7382   5.351   5.201   2.933
 2161SOL    HW2 7383   5.278   5.067   2.874
 2162SOL     OW 7384   2.017   0.966   1.805
 2162SOL    HW1 7385   2.092   0.933   1.747
 2162SOL    HW2 7386   2.027   1.065   1.818
 2163SOL     OW 7387   1.150   4.725   6.272
 2163SOL    HW1 7388   1.180   4.735   6.177
 2163SOL    HW2 7389   1.072   4.785   6.289
 2164SOL     OW 7390   1.442   2.675   0.097
 2164SOL    HW1 7391   1.383   2.596   0.080
 2164SOL    HW2 7392   1.488   2.702   0.013
 2165SOL     OW 7393   0.649   2.100   2.753
 2165SOL    HW1 7394   0.599   2.036   2.695
 2165SOL    HW2 7395   0.747   2.093   2.735
 2166SOL     OW 7396   1.511   2.337   5.296
 2166SOL    HW1 7397   1.502   2.338   5.196
 2166SOL    HW2 7398   1.439   2.393   5.337
 2167SOL     OW 7399   1.848   1.409   3.866
 2167SOL    HW1 7400   1.825   1.463   3.947
 2167SOL    HW2 7401   1.806   1.451   3.785
 2168SOL     OW 7402   0.612   2.049   3.922
 2168SOL    HW1 7403   0.576   1.965   3.882
 2168SOL    HW2 7404   0.712   2.041   3.930
 2169SOL     OW 7405   5.497   1.223   6.531
 2169SOL    HW1 7406   5.501   1.321   6.548
 2169SOL    HW2 7407   5.409   1.199   6.490
 2170SOL     OW 7408   6.952   5.068   5.694
 2170SOL    HW1 7409   6.984   4.973   5.704
 2170SOL    HW2 7410   6.954   5.093   5.597
 2171SOL     OW 7411   0.211   4.650   1.400
 2171SOL    HW1 7412   0.264   4.568   1.422
 2171SOL    HW2 7413   0.270   4.731   1.406
 2172SOL     OW 7414   2.362   2.602   0.312
 2172SOL    HW1 7415   2.268   2.627   0.337
 2172SOL    HW2 7416   2.360   2.524   0.250
 2173SOL     OW 7417   3.889   0.676   5.421
 2173SOL    HW1 7418   3.805   0.641   5.379
 2173SOL    HW2 7419   3.910   0.766   5.383
 2174SOL     OW 7420   5.317   6.476   5.225
 2174SOL    HW1 7421   5.361   6.450   5.140
 2174SOL    HW2 7422   5.364   6.556   5.264
 2175SOL     OW 7423   2.286   2.886   4.259
 2175SOL    HW1 7424   2.345   2.811   4.289
 2175SOL    HW2 7425   2.239   2.925   4.338
 2176SOL     OW 7426   6.947   1.950   0.549
 2176SOL    HW1 7427   6.862   1.910   0.516
 2176SOL    HW2 7428   6.952   2.046   0.522
 2177SOL     OW 7429   6.037   1.995   3.537
 2177SOL    HW1 7430   6.064   1.919   3.478
 2177SOL    HW2 7431   5.937   1.999   3.543
 2178SOL     OW 7432   1.753   2.278   0.714
 2178SOL    HW1 7433   1.827   2.238   0.768
 2178SOL    HW2 7434   1.671   2.223   0.725
 2179SOL     OW 7435   2.163   5.070   5.135
 2179SOL    HW1 7436   2.116   5.009   5.071
 2179SOL    HW2 7437   2.152   5.164   5.104
 2180SOL     OW 7438   1.931   2.677   2.160
 2180SOL    HW1 7439   1.894   2.615   2.091
 2180SOL    HW2 7440   2.030   2.684   2.148
 2181SOL     OW 7441   4.081   5.182   4.592
 2181SOL    HW1 7442   4.074   5.082   4.588
 2181SOL    HW2 7443   4.067   5.212   4.687
 2182SOL     OW 7444   1.199   3.579   4.192
 2182SOL    HW1 7445   1.263   3.506   4.214
 2182SOL    HW2 7446   1.206   3.651   4.261
 2183SOL     OW 7447   2.804   4.011   6.220
 2183SOL    HW1 7448   2.843   4.056   6.140
 2183SOL    HW2 7449   2.791   4.078   6.293
 2184SOL     OW 7450   4.498   2.043   6.812
 2184SOL    HW1 7451   4.550   2.059   6.896
 2184SOL    HW2 7452   4.501   1.946   6.789
 2185SOL     OW 7453   1.331   1.854   0.926
 2185SOL    HW1 7454   1.429   1.855   0.943
 2185SOL    HW2 7455   1.291   1.770   0.964
 2186SOL     OW 7456   0.316   5.965   1.815
 2186SOL    HW1 7457   0.334   5.972   1.717
 2186SOL    HW2 7458   0.397   5.928   1.862
 2187SOL     OW 7459   6.782   0.304   2.903
 2187SOL    HW1 7460   6.716   0.365   2.858
 2187SOL    HW2 7461   6.815   0.346   2.987
 2188SOL     OW 7462   6.627   6.732   5.307
 2188SOL    HW1 7463   6.544   6.771   5.266
 2188SOL    HW2 7464   6.703   6.796   5.296
 2189SOL     OW 7465   1.715   0.108   0.737
 2189SOL    HW1 7466   1.631   0.115   0.791
 2189SOL    HW2 7467   1.769   0.031   0.770
 2190SOL     OW 7468   0.007   2.780   1.867
 2190SOL    HW1 7469   6.942   2.820   1.893
 2190SOL    HW2 7470   0.051   2.740   1.948
 2191SOL     OW 7471   3.025   2.224   6.670
 2191SOL    HW1 7472   3.052   2.237   6.574
 2191SOL    HW2 7473   3.049   2.132   6.699
 2192SOL     OW 7474   4.029   1.122   2.407
 2192SOL    HW1 7475   4.006   1.027   2.430
 2192SOL    HW2 7476   3.989   1.145   2.319
 2193SOL     OW 7477   6.309   6.021   6.368
 2193SOL    HW1 7478   6.331   5.966   6.288
 2193SOL    HW2 7479   6.370   5.996   6.444
 2194SOL     OW 7480   2.588   4.312   5.926
 2194SOL    HW1 7481   2.550   4.331   5.836
 2194SOL    HW2 7482   2.522   4.340   5.996
 2195SOL     OW 7483   0.268   0.704   4.222
 2195SOL    HW1 7484   0.229   0.613   4.236
 2195SOL    HW2 7485   0.198   0.773   4.239
 2196SOL     OW 7486   3.371   0.062   5.259
 2196SOL    HW1 7487   3.409   0.120   5.187
 2196SOL    HW2 7488   3.303   0.000   5.219
 2197SOL     OW 7489   3.201   3.580   1.026
 2197SOL    HW1 7490   3.139   3.502   1.024
 2197SOL    HW2 7491   3.237   3.591   1.119
 2198SOL     OW 7492   6.070   1.703   0.430
 2198SOL    HW1 7493   6.039   1.668   0.342
 2198SOL    HW2 7494   5.992   1.733   0.484
 2199SOL     OW 7495   5.237   1.305   3.165
 2199SOL    HW1 7496   5.274   1.367   3.234
 2199SOL    HW2 7497   5.311   1.274   3.105
 2200SOL     OW 7498   2.414   0.645   5.199
 2200SOL    HW1 7499   2.408   0.568   5.136
 2200SOL    HW2 7500   2.481   0.711   5.164
 2201SOL     OW 7501   6.777   2.694   3.452
 2201SOL    HW1 7502   6.735   2.644   3.376
 2201SOL    HW2 7503   6.754   2.792   3.444
 2202SOL     OW 7504   2.529   4.976   2.011
 2202SOL    HW1 7505   2.563   4.958   1.919
 2202SOL    HW2 7506   2.604   5.007   2.069
 2203SOL     OW 7507   1.753   2.372   1.143
 2203SOL    HW1 7508   1.741   2.274   1.132
 2203SOL    HW2 7509   1.817   2.389   1.219
 2204SOL     OW 7510   3.849   1.153   0.712
 2204SOL    HW1 7511   3.816   1.211   0.787
 2204SOL    HW2 7512   3.771   1.122   0.657
 2205SOL     OW 7513   1.133   0.258   6.418
 2205SOL    HW1 7514   1.103   0.167   6.449
 2205SOL    HW2 7515   1.204   0.248   6.349
 2206SOL     OW 7516   3.208   4.605   6.044
 2206SOL    HW1 7517   3.198   4.661   5.962
 2206SOL    HW2 7518   3.275   4.533   6.027
 2207SOL     OW 7519   3.311   4.211   6.502
 2207SOL    HW1 7520   3.378   4.163   6.558
 2207SOL    HW2 7521   3.353   4.291   6.460
 2208SOL     OW 7522   1.546   6.423   2.905
 2208SOL    HW1 7523   1.599   6.492   2.855
 2208SOL    HW2 7524   1.505   6.359   2.841
 2209SOL     OW 7525   1.599   6.366   5.618
 2209SOL    HW1 7526   1.519   6.308   5.600
 2209SOL    HW2 7527   1.579   6.428   5.693
 2210SOL     OW 7528   6.494   4.922   3.526
 2210SOL    HW1 7529   6.414   4.978   3.506
 2210SOL    HW2 7530   6.572   4.956   3.474
 2211SOL     OW 7531   5.769   0.937   0.145
 2211SOL    HW1 7532   5.694   0.877   0.174
 2211SOL    HW2 7533   5.832   0.885   0.088
 2212SOL     OW 7534   1.536   6.158   6.960
 2212SOL    HW1 7535   1.603   6.120   7.022
 2212SOL    HW2 7536   1.552   6.256   6.948
 2213SOL     OW 7537   3.705   2.691   5.362
 2213SOL    HW1 7538   3.711   2.791   5.369
 2213SOL    HW2 7539   3.609   2.665   5.353
 2214SOL     OW 7540   3.493   2.954   5.085
 2214SOL    HW1 7541   3.565   2.934   5.019
 2214SOL    HW2 7542   3.524   2.931   5.177
 2215SOL     OW 7543   6.356   1.693   0.426
 2215SOL    HW1 7544   6.257   1.695   0.415
 2215SOL    HW2 7545   6.382   1.752   0.503
 2216SOL     OW 7546   1.976   0.430   5.856
 2216SOL    HW1 7547   2.054   0.406   5.798
 2216SOL    HW2 7548   1.996   0.406   5.951
 2217SOL     OW 7549   4.001   6.788   1.331
 2217SOL    HW1 7550   3.920   6.840   1.356
 2217SOL    HW2 7551   3.984   6.691   1.349
 2218SOL     OW 7552   0.389   6.532   6.625
 2218SOL    HW1 7553   0.480   6.561   6.596
 2218SOL    HW2 7554   0.345   6.479   6.552
 2219SOL     OW 7555   5.427   1.468   1.721
 2219SOL    HW1 7556   5.525   1.458   1.706
 2219SOL    HW2 7557   5.383   1.498   1.637
 2220SOL     OW 7558   1.338   0.401   4.440
 2220SOL    HW1 7559   1.391   0.391   4.524
 2220SOL    HW2 7560   1.390   0.365   4.363
 2221SOL     OW 7561   5.695   0.947   5.192
 2221SOL    HW1 7562   5.773   0.888   5.170
 2221SOL    HW2 7563   5.713   1.040   5.160
 2222SOL     OW 7564   4.851   0.194   0.682
 2222SOL    HW1 7565   4.880   0.272   0.626
 2222SOL    HW2 7566   4.781   0.142   0.633
 2223SOL     OW 7567   5.876   1.488   4.758
 2223SOL    HW1 7568   5.929   1.457   4.679
 2223SOL    HW2 7569   5.895   1.585   4.774
 2224SOL     OW 7570   1.632   3.830   0.933
 2224SOL    HW1 7571   1.628   3.914   0.880
 2224SOL    HW2 7572   1.711   3.834   0.995
 2225SOL     OW 7573   6.449   6.410   3.251
 2225SOL    HW1 7574   6.436   6.417   3.350
 2225SOL    HW2 7575   6.539   6.369   3.232
 2226SOL     OW 7576   3.848   4.562   0.815
 2226SOL    HW1 7577   3.822   4.544   0.910
 2226SOL    HW2 7578   3.927   4.504   0.791
 2227SOL     OW 7579   5.558   3.326   0.449
 2227SOL    HW1 7580   5.513   3.411   0.473
 2227SOL    HW2 7581   5.490   3.260   0.417
 2228SOL     OW 7582   2.723   4.987   1.057
 2228SOL    HW1 7583   2.699   4.897   1.021
 2228SOL    HW2 7584   2.749   4.980   1.153
 2229SOL     OW 7585   4.265   1.590   4.013
 2229SOL    HW1 7586   4.277   1.668   3.952
 2229SOL    HW2 7587   4.171   1.557   4.007
 2230SOL     OW 7588   5.602   5.826   6.569
 2230SOL    HW1 7589   5.646   5.825   6.659
 2230SOL    HW2 7590   5.531   5.897   6.568
 2231SOL     OW 7591   0.457   0.375   2.259
 2231SOL    HW1 7592   0.535   0.420   2.302
 2231SOL    HW2 7593   0.427   0.299   2.317
 2232SOL     OW 7594   0.568   3.507   4.890
 2232SOL    HW1 7595   0.495   3.518   4.822
 2232SOL    HW2 7596   0.657   3.505   4.844
 2233SOL     OW 7597   2.437   3.883   0.729
 2233SOL    HW1 7598   2.467   3.878   0.825
 2233SOL    HW2 7599   2.339   3.864   0.724
 2234SOL     OW 7600   4.012   1.546   1.822
 2234SOL    HW1 7601   3.958   1.602   1.759
 2234SOL    HW2 7602   4.073   1.606   1.875
 2235SOL     OW 7603   2.868   0.147   1.817
 2235SOL    HW1 7604   2.792   0.083   1.823
 2235SOL    HW2 7605   2.833   0.239   1.797
 2236SOL     OW 7606   1.087   4.807   6.623
 2236SOL    HW1 7607   1.100   4.745   6.546
 2236SOL    HW2 7608   1.051   4.755   6.701
 2237SOL     OW 7609   6.012   4.867   4.271
 2237SOL    HW1 7610   5.976   4.808   4.198
 2237SOL    HW2 7611   6.031   4.812   4.352
 2238SOL     OW 7612   5.390   4.403   0.835
 2238SOL    HW1 7613   5.428   4.348   0.760
 2238SOL    HW2 7614   5.316   4.352   0.879
 2239SOL     OW 7615   3.717   4.938   3.098
 2239SOL    HW1 7616   3.699   4.945   3.000
 2239SOL    HW2 7617   3.728   5.030   3.136
 2240SOL     OW 7618   5.008   5.857   3.666
 2240SOL    HW1 7619   5.008   5.839   3.568
 2240SOL    HW2 7620   5.003   5.956   3.681
 2241SOL     OW 7621   0.443   6.536   2.776
 2241SOL    HW1 7622   0.384   6.458   2.756
 2241SOL    HW2 7623   0.422   6.572   2.867
 2242SOL     OW 7624   5.280   1.988   3.018
 2242SOL    HW1 7625   5.368   1.959   3.055
 2242SOL    HW2 7626   5.251   1.924   2.947
 2243SOL     OW 7627   2.771   6.264   5.863
 2243SOL    HW1 7628   2.791   6.248   5.960
 2243SOL    HW2 7629   2.801   6.356   5.838
 2244SOL     OW 7630   2.586   6.306   2.097
 2244SOL    HW1 7631   2.667   6.362   2.115
 2244SOL    HW2 7632   2.511   6.336   2.156
 2245SOL     OW 7633   0.307   1.813   1.622
 2245SOL    HW1 7634   0.361   1.896   1.607
 2245SOL    HW2 7635   0.278   1.809   1.718
 2246SOL     OW 7636   0.749   1.924   5.358
 2246SOL    HW1 7637   0.733   1.875   5.444
 2246SOL    HW2 7638   0.790   1.862   5.291
 2247SOL     OW 7639   3.227   3.315   4.503
 2247SOL    HW1 7640   3.161   3.276   4.438
 2247SOL    HW2 7641   3.183   3.327   4.592
 2248SOL     OW 7642   4.267   4.141   5.859
 2248SOL    HW1 7643   4.200   4.161   5.930
 2248SOL    HW2 7644   4.358   4.164   5.891
 2249SOL     OW 7645   6.387   6.150   2.917
 2249SOL    HW1 7646   6.378   6.249   2.933
 2249SOL    HW2 7647   6.471   6.132   2.866
 2250SOL     OW 7648   4.095   3.341   6.625
 2250SOL    HW1 7649   4.029   3.268   6.645
 2250SOL    HW2 7650   4.144   3.365   6.709
 2251SOL     OW 7651   5.166   0.945   0.163
 2251SOL    HW1 7652   5.172   0.878   0.089
 2251SOL    HW2 7653   5.070   0.969   0.179
 2252SOL     OW 7654   5.268   2.822   2.499
 2252SOL    HW1 7655   5.179   2.858   2.473
 2252SOL    HW2 7656   5.286   2.844   2.595
 2253SOL     OW 7657   1.164   3.279   6.790
 2253SOL    HW1 7658   1.153   3.261   6.692
 2253SOL    HW2 7659   1.232   3.352   6.803
 2254SOL     OW 7660   3.712   2.999   4.892
 2254SOL    HW1 7661   3.631   3.027   4.840
 2254SOL    HW2 7662   3.786   3.064   4.875
 2255SOL     OW 7663   4.830   2.628   6.852
 2255SOL    HW1 7664   4.836   2.716   6.804
 2255SOL    HW2 7665   4.877   2.558   6.799
 2256SOL     OW 7666   5.005   5.812   1.361
 2256SOL    HW1 7667   4.974   5.780   1.272
 2256SOL    HW2 7668   5.086   5.869   1.350
 2257SOL     OW 7669   0.334   2.401   3.709
 2257SOL    HW1 7670   0.396   2.461   3.759
 2257SOL    HW2 7671   0.295   2.334   3.772
 2258SOL     OW 7672   1.291   5.534   5.670
 2258SOL    HW1 7673   1.234   5.561   5.592
 2258SOL    HW2 7674   1.385   5.566   5.655
 2259SOL     OW 7675   5.498   3.237   7.007
 2259SOL    HW1 7676   5.471   3.319   0.036
 2259SOL    HW2 7677   5.553   3.264   6.928
 2260SOL     OW 7678   6.082   4.431   2.746
 2260SOL    HW1 7679   6.038   4.360   2.801
 2260SOL    HW2 7680   6.037   4.438   2.657
 2261SOL     OW 7681   6.631   5.838   6.811
 2261SOL    HW1 7682   6.686   5.909   6.766
 2261SOL    HW2 7683   6.541   5.833   6.769
 2262SOL     OW 7684   5.376   1.741   2.019
 2262SOL    HW1 7685   5.344   1.740   1.925
 2262SOL    HW2 7686   5.321   1.679   2.074
 2263SOL     OW 7687   3.340   5.733   6.824
 2263SOL    HW1 7688   3.296   5.818   6.796
 2263SOL    HW2 7689   3.418   5.754   6.883
 2264SOL     OW 7690   3.435   3.565   0.593
 2264SOL    HW1 7691   3.440   3.515   0.506
 2264SOL    HW2 7692   3.364   3.525   0.651
 2265SOL     OW 7693   0.529   0.992   4.472
 2265SOL    HW1 7694   0.628   1.005   4.471
 2265SOL    HW2 7695   0.501   0.944   4.388
 2266SOL     OW 7696   5.856   2.147   0.931
 2266SOL    HW1 7697   5.944   2.108   0.959
 2266SOL    HW2 7698   5.782   2.103   0.982
 2267SOL     OW 7699   4.929   2.606   4.572
 2267SOL    HW1 7700   4.854   2.666   4.600
 2267SOL    HW2 7701   4.896   2.512   4.565
 2268SOL     OW 7702   6.516   3.771   6.538
 2268SOL    HW1 7703   6.465   3.785   6.453
 2268SOL    HW2 7704   6.611   3.749   6.516
 2269SOL     OW 7705   6.099   5.769   4.867
 2269SOL    HW1 7706   6.008   5.778   4.906
 2269SOL    HW2 7707   6.111   5.837   4.795
 2270SOL     OW 7708   3.442   2.175   6.173
 2270SOL    HW1 7709   3.383   2.256   6.172
 2270SOL    HW2 7710   3.495   2.172   6.088
 2271SOL     OW 7711   6.226   4.418   0.540
 2271SOL    HW1 7712   6.218   4.377   0.449
 2271SOL    HW2 7713   6.321   4.444   0.556
 2272SOL     OW 7714   6.240   2.063   6.212
 2272SOL    HW1 7715   6.143   2.084   6.198
 2272SOL    HW2 7716   6.279   2.127   6.278
 2273SOL     OW 7717   1.884   6.993   2.290
 2273SOL    HW1 7718   1.859   0.060   2.253
 2273SOL    HW2 7719   1.845   6.984   2.382
 2274SOL     OW 7720   0.260   3.125   6.564
 2274SOL    HW1 7721   0.177   3.095   6.517
 2274SOL    HW2 7722   0.294   3.052   6.622
 2275SOL     OW 7723   6.169   0.783   4.017
 2275SOL    HW1 7724   6.117   0.861   3.981
 2275SOL    HW2 7725   6.180   0.715   3.945
 2276SOL     OW 7726   2.478   5.267   1.069
 2276SOL    HW1 7727   2.516   5.254   0.978
 2276SOL    HW2 7728   2.431   5.183   1.098
 2277SOL     OW 7729   4.031   3.317   5.058
 2277SOL    HW1 7730   4.069   3.258   5.129
 2277SOL    HW2 7731   4.105   3.370   5.016
 2278SOL     OW 7732   6.522   5.144   3.848
 2278SOL    HW1 7733   6.525   5.048   3.818
 2278SOL    HW2 7734   6.501   5.202   3.770
 2279SOL     OW 7735   4.947   5.976   4.955
 2279SOL    HW1 7736   4.932   6.069   4.921
 2279SOL    HW2 7737   4.923   5.971   5.051
 2280SOL     OW 7738   0.204   6.368   4.122
 2280SOL    HW1 7739   0.224   6.429   4.046
 2280SOL    HW2 7740   0.143   6.414   4.187
 2281SOL     OW 7741   3.072   1.306   1.706
 2281SOL    HW1 7742   3.144   1.374   1.690
 2281SOL    HW2 7743   3.040   1.271   1.618
 2282SOL     OW 7744   4.768   6.593   4.987
 2282SOL    HW1 7745   4.742   6.577   4.892
 2282SOL    HW2 7746   4.736   6.518   5.044
 2283SOL     OW 7747   0.167   4.431   2.140
 2283SOL    HW1 7748   0.132   4.347   2.098
 2283SOL    HW2 7749   0.121   4.510   2.101
 2284SOL     OW 7750   1.763   2.183   0.322
 2284SOL    HW1 7751   1.777   2.276   0.355
 2284SOL    HW2 7752   1.811   2.119   0.382
 2285SOL     OW 7753   1.930   2.147   0.883
 2285SOL    HW1 7754   1.948   2.241   0.911
 2285SOL    HW2 7755   1.948   2.085   0.960
 2286SOL     OW 7756   6.700   0.721   4.147
 2286SOL    HW1 7757   6.779   0.711   4.086
 2286SOL    HW2 7758   6.627   0.660   4.116
 2287SOL     OW 7759   1.494   1.379   3.700
 2287SOL    HW1 7760   1.457   1.369   3.793
 2287SOL    HW2 7761   1.429   1.342   3.634
 2288SOL     OW 7762   6.388   5.465   4.477
 2288SOL    HW1 7763   6.423   5.457   4.384
 2288SOL    HW2 7764   6.321   5.392   4.493
 2289SOL     OW 7765   6.993   4.548   2.879
 2289SOL    HW1 7766   0.042   4.617   2.872
 2289SOL    HW2 7767   7.002   4.483   2.804
 2290SOL     OW 7768   1.348   3.826   2.342
 2290SOL    HW1 7769   1.285   3.885   2.393
 2290SOL    HW2 7770   1.356   3.859   2.248
 2291SOL     OW 7771   2.316   2.401   6.430
 2291SOL    HW1 7772   2.291   2.435   6.340
 2291SOL    HW2 7773   2.242   2.345   6.467
 2292SOL     OW 7774   5.737   2.795   4.306
 2292SOL    HW1 7775   5.674   2.744   4.364
 2292SOL    HW2 7776   5.828   2.796   4.348
 2293SOL     OW 7777   5.197   6.806   1.153
 2293SOL    HW1 7778   5.218   6.813   1.251
 2293SOL    HW2 7779   5.261   6.862   1.101
 2294SOL     OW 7780   3.462   0.862   6.349
 2294SOL    HW1 7781   3.414   0.788   6.396
 2294SOL    HW2 7782   3.432   0.950   6.386
 2295SOL     OW 7783   0.410   1.253   2.579
 2295SOL    HW1 7784   0.473   1.288   2.510
 2295SOL    HW2 7785   0.460   1.236   2.664
 2296SOL     OW 7786   3.537   5.642   1.937
 2296SOL    HW1 7787   3.599   5.653   1.859
 2296SOL    HW2 7788   3.588   5.657   2.022
 2297SOL     OW 7789   4.624   4.271   5.768
 2297SOL    HW1 7790   4.668   4.361   5.764
 2297SOL    HW2 7791   4.688   4.201   5.737
 2298SOL     OW 7792   4.325   3.407   1.748
 2298SOL    HW1 7793   4.286   3.327   1.794
 2298SOL    HW2 7794   4.424   3.404   1.756
 2299SOL     OW 7795   4.895   4.836   4.896
 2299SOL    HW1 7796   4.880   4.773   4.819
 2299SOL    HW2 7797   4.989   4.869   4.894
 2300SOL     OW 7798   2.251   5.833   2.028
 2300SOL    HW1 7799   2.152   5.845   2.036
 2300SOL    HW2 7800   2.291   5.915   1.987
 2301SOL     OW 7801   3.423   2.848   3.023
 2301SOL    HW1 7802   3.508   2.811   3.061
 2301SOL    HW2 7803   3.430   2.851   2.923
 2302SOL     OW 7804   3.133   7.011   1.141
 2302SOL    HW1 7805   3.078   0.068   1.168
 2302SOL    HW2 7806   3.212   0.018   1.088
 2303SOL     OW 7807   2.350   3.352   6.520
 2303SOL    HW1 7808   2.294   3.429   6.488
 2303SOL    HW2 7809   2.292   3.272   6.533
 2304SOL     OW 7810   5.319   6.781   4.194
 2304SOL    HW1 7811   5.320   6.698   4.250
 2304SOL    HW2 7812   5.287   6.758   4.102
 2305SOL     OW 7813   2.831   6.927   2.544
 2305SOL    HW1 7814   2.792   6.835   2.534
 2305SOL    HW2 7815   2.792   6.986   2.474
 2306SOL     OW 7816   2.045   4.915   1.494
 2306SOL    HW1 7817   2.049   4.840   1.428
 2306SOL    HW2 7818   2.022   4.879   1.584
 2307SOL     OW 7819   6.590   3.551   3.887
 2307SOL    HW1 7820   6.609   3.455   3.909
 2307SOL    HW2 7821   6.529   3.555   3.808
 2308SOL     OW 7822   1.745   4.828   1.744
 2308SOL    HW1 7823   1.705   4.793   1.829
 2308SOL    HW2 7824   1.844   4.827   1.751
 2309SOL     OW 7825   1.363   0.824   6.046
 2309SOL    HW1 7826   1.357   0.923   6.061
 2309SOL    HW2 7827   1.272   0.784   6.047
 2310SOL     OW 7828   5.782   5.975   0.391
 2310SOL    HW1 7829   5.836   5.997   0.472
 2310SOL    HW2 7830   5.802   5.881   0.362
 2311SOL     OW 7831   2.353   6.971   1.660
 2311SOL    HW1 7832   2.435   7.011   1.619
 2311SOL    HW2 7833   2.378   6.916   1.739
 2312SOL     OW 7834   4.233   5.963   2.776
 2312SOL    HW1 7835   4.232   5.948   2.875
 2312SOL    HW2 7836   4.139   5.969   2.742
 2313SOL     OW 7837   6.087   6.029   1.365
 2313SOL    HW1 7838   6.066   6.126   1.377
 2313SOL    HW2 7839   6.134   6.015   1.278
 2314SOL     OW 7840   5.272   6.472   3.622
 2314SOL    HW1 7841   5.273   6.534   3.700
 2314SOL    HW2 7842   5.344   6.498   3.558
 2315SOL     OW 7843   5.331   3.668   5.904
 2315SOL    HW1 7844   5.305   3.571   5.903
 2315SOL    HW2 7845   5.400   3.683   5.974
 2316SOL     OW 7846   3.845   1.200   3.579
 2316SOL    HW1 7847   3.943   1.184   3.570
 2316SOL    HW2 7848   3.825   1.295   3.555
 2317SOL     OW 7849   0.762   6.826   2.929
 2317SOL    HW1 7850   0.815   6.773   2.862
 2317SOL    HW2 7851   0.667   6.831   2.899
 2318SOL     OW 7852   1.618   2.741   3.943
 2318SOL    HW1 7853   1.531   2.777   3.976
 2318SOL    HW2 7854   1.678   2.721   4.020
 2319SOL     OW 7855   1.960   4.999   3.709
 2319SOL    HW1 7856   2.046   4.949   3.705
 2319SOL    HW2 7857   1.887   4.938   3.741
 2320SOL     OW 7858   0.966   2.250   5.068
 2320SOL    HW1 7859   0.896   2.320   5.080
 2320SOL    HW2 7860   0.926   2.171   5.021
 2321SOL     OW 7861   2.763   0.225   6.906
 2321SOL    HW1 7862   2.744   0.283   6.827
 2321SOL    HW2 7863   2.678   0.180   6.934
 2322SOL     OW 7864   3.192   1.562   5.036
 2322SOL    HW1 7865   3.263   1.626   5.065
 2322SOL    HW2 7866   3.104   1.609   5.031
 2323SOL     OW 7867   2.667   4.952   1.770
 2323SOL    HW1 7868   2.696   4.862   1.737
 2323SOL    HW2 7869   2.748   5.005   1.796
 2324SOL     OW 7870   6.145   6.317   1.535
 2324SOL    HW1 7871   6.174   6.309   1.439
 2324SOL    HW2 7872   6.075   6.388   1.542
 2325SOL     OW 7873   0.931   4.565   2.675
 2325SOL    HW1 7874   0.934   4.509   2.758
 2325SOL    HW2 7875   0.944   4.508   2.595
 2326SOL     OW 7876   3.376   5.403   5.884
 2326SOL    HW1 7877   3.329   5.491   5.879
 2326SOL    HW2 7878   3.456   5.410   5.943
 2327SOL     OW 7879   6.389   3.269   4.857
 2327SOL    HW1 7880   6.320   3.274   4.784
 2327SOL    HW2 7881   6.343   3.274   4.946
 2328SOL     OW 7882   3.256   1.938   2.679
 2328SOL    HW1 7883   3.205   2.017   2.645
 2328SOL    HW2 7884   3.328   1.969   2.741
 2329SOL     OW 7885   1.900   3.643   5.306
 2329SOL    HW1 7886   1.819   3.656   5.364
 2329SOL    HW2 7887   1.873   3.601   5.219
 2330SOL     OW 7888   1.110   3.995   2.382
 2330SOL    HW1 7889   1.048   3.924   2.416
 2330SOL    HW2 7890   1.060   4.058   2.323
 2331SOL     OW 7891   6.031   4.554   1.355
 2331SOL    HW1 7892   5.935   4.555   1.325
 2331SOL    HW2 7893   6.081   4.626   1.307
 2332SOL     OW 7894   4.185   1.658   5.548
 2332SOL    HW1 7895   4.189   1.747   5.594
 2332SOL    HW2 7896   4.269   1.607   5.567
 2333SOL     OW 7897   0.566   5.736   2.976
 2333SOL    HW1 7898   0.624   5.772   3.048
 2333SOL    HW2 7899   0.526   5.811   2.924
 2334SOL     OW 7900   2.254   0.278   7.008
 2334SOL    HW1 7901   2.257   0.178   7.007
 2334SOL    HW2 7902   2.335   0.313   0.032
 2335SOL     OW 7903   6.053   1.228   3.209
 2335SOL    HW1 7904   6.120   1.186   3.271
 2335SOL    HW2 7905   6.007   1.157   3.156
 2336SOL     OW 7906   4.525   1.683   4.941
 2336SOL    HW1 7907   4.552   1.770   4.982
 2336SOL    HW2 7908   4.458   1.638   5.000
 2337SOL     OW 7909   4.510   1.036   3.444
 2337SOL    HW1 7910   4.563   1.058   3.363
 2337SOL    HW2 7911   4.524   1.106   3.514
 2338SOL     OW 7912   1.351   1.455   5.806
 2338SOL    HW1 7913   1.301   1.530   5.761
 2338SOL    HW2 7914   1.365   1.478   5.902
 2339SOL     OW 7915   4.013   3.854   4.558
 2339SOL    HW1 7916   4.031   3.888   4.650
 2339SOL    HW2 7917   3.963   3.923   4.505
 2340SOL     OW 7918   5.215   4.735   6.901
 2340SOL    HW1 7919   5.294   4.713   6.959
 2340SOL    HW2 7920   5.228   4.693   6.811
 2341SOL     OW 7921   5.753   4.222   1.505
 2341SOL    HW1 7922   5.682   4.280   1.466
 2341SOL    HW2 7923   5.819   4.198   1.434
 2342SOL     OW 7924   0.373   6.280   5.211
 2342SOL    HW1 7925   0.364   6.353   5.143
 2342SOL    HW2 7926   0.342   6.194   5.171
 2343SOL     OW 7927   1.734   6.098   2.302
 2343SOL    HW1 7928   1.730   6.016   2.245
 2343SOL    HW2 7929   1.807   6.087   2.370
 2344SOL     OW 7930   1.893   0.909   1.411
 2344SOL    HW1 7931   1.993   0.906   1.410
 2344SOL    HW2 7932   1.861   0.968   1.337
 2345SOL     OW 7933   2.800   5.378   5.512
 2345SOL    HW1 7934   2.890   5.349   5.480
 2345SOL    HW2 7935   2.811   5.438   5.592
 2346SOL     OW 7936   4.861   3.014   4.522
 2346SOL    HW1 7937   4.940   2.983   4.467
 2346SOL    HW2 7938   4.889   3.091   4.578
 2347SOL     OW 7939   2.205   3.396   1.660
 2347SOL    HW1 7940   2.116   3.425   1.697
 2347SOL    HW2 7941   2.275   3.405   1.731
 2348SOL     OW 7942   3.444   6.227   3.944
 2348SOL    HW1 7943   3.405   6.141   3.978
 2348SOL    HW2 7944   3.540   6.233   3.974
 2349SOL     OW 7945   0.447   5.213   5.993
 2349SOL    HW1 7946   0.383   5.230   6.068
 2349SOL    HW2 7947   0.470   5.300   5.949
 2350SOL     OW 7948   5.254   0.063   6.548
 2350SOL    HW1 7949   5.155   0.053   6.540
 2350SOL    HW2 7950   5.292   0.084   6.458
 2351SOL     OW 7951   3.833   5.095   1.944
 2351SOL    HW1 7952   3.870   5.112   1.853
 2351SOL    HW2 7953   3.736   5.069   1.937
 2352SOL     OW 7954   1.146   3.632   2.395
 2352SOL    HW1 7955   1.185   3.579   2.471
 2352SOL    HW2 7956   1.204   3.712   2.377
 2353SOL     OW 7957   3.048   4.821   5.060
 2353SOL    HW1 7958   2.968   4.856   5.013
 2353SOL    HW2 7959   3.031   4.728   5.092
 2354SOL     OW 7960   2.922   1.481   6.029
 2354SOL    HW1 7961   3.014   1.515   6.048
 2354SOL    HW2 7962   2.897   1.505   5.935
 2355SOL     OW 7963   1.240   5.487   6.543
 2355SOL    HW1 7964   1.340   5.482   6.543
 2355SOL    HW2 7965   1.204   5.424   6.611
 2356SOL     OW 7966   2.222   4.124   0.142
 2356SOL    HW1 7967   2.311   4.082   0.153
 2356SOL    HW2 7968   2.233   4.222   0.125
 2357SOL     OW 7969   4.221   5.037   3.487
 2357SOL    HW1 7970   4.254   5.042   3.393
 2357SOL    HW2 7971   4.298   5.021   3.549
 2358SOL     OW 7972   2.580   5.233   5.460
 2358SOL    HW1 7973   2.667   5.280   5.478
 2358SOL    HW2 7974   2.598   5.137   5.437
 2359SOL     OW 7975   0.124   0.736   5.781
 2359SOL    HW1 7976   0.104   0.804   5.711
 2359SOL    HW2 7977   0.188   0.668   5.744
 2360SOL     OW 7978   5.205   6.095   5.808
 2360SOL    HW1 7979   5.235   6.183   5.845
 2360SOL    HW2 7980   5.206   6.026   5.880
 2361SOL     OW 7981   3.154   0.119   5.004
 2361SOL    HW1 7982   3.181   0.023   5.016
 2361SOL    HW2 7983   3.161   0.143   4.907
 2362SOL     OW 7984   3.059   0.332   5.390
 2362SOL    HW1 7985   3.011   0.372   5.469
 2362SOL    HW2 7986   3.157   0.342   5.403
 2363SOL     OW 7987   4.268   2.655   5.624
 2363SOL    HW1 7988   4.240   2.563   5.652
 2363SOL    HW2 7989   4.292   2.709   5.705
 2364SOL     OW 7990   0.092   2.210   3.170
 2364SOL    HW1 7991   0.078   2.119   3.208
 2364SOL    HW2 7992   0.053   2.279   3.231
 2365SOL     OW 7993   6.352   2.200   6.430
 2365SOL    HW1 7994   6.443   2.159   6.438
 2365SOL    HW2 7995   6.305   2.195   6.518
 2366SOL     OW 7996   1.125   5.060   5.847
 2366SOL    HW1 7997   1.189   4.991   5.882
 2366SOL    HW2 7998   1.162   5.151   5.865
 2367SOL     OW 7999   3.456   3.457   6.978
 2367SOL    HW1 8000   3.371   3.509   6.972
 2367SOL    HW2 8001   3.519   3.502   0.019
 2368SOL     OW 8002   4.481   0.098   3.740
 2368SOL    HW1 8003   4.415   0.066   3.671
 2368SOL    HW2 8004   4.559   0.035   3.743
 2369SOL     OW 8005   1.876   2.520   4.693
 2369SOL    HW1 8006   1.875   2.558   4.786
 2369SOL    HW2 8007   1.818   2.577   4.634
 2370SOL     OW 8008   4.997   3.880   6.730
 2370SOL    HW1 8009   5.026   3.835   6.644
 2370SOL    HW2 8010   4.952   3.813   6.788
 2371SOL     OW 8011   1.457   6.225   1.610
 2371SOL    HW1 8012   1.435   6.190   1.702
 2371SOL    HW2 8013   1.547   6.191   1.582
 2372SOL     OW 8014   0.649   2.159   1.378
 2372SOL    HW1 8015   0.737   2.166   1.425
 2372SOL    HW2 8016   0.603   2.248   1.380
 2373SOL     OW 8017   6.621   0.023   0.124
 2373SOL    HW1 8018   6.532   0.024   0.171
 2373SOL    HW2 8019   6.647   6.952   0.104
 2374SOL     OW 8020   6.315   1.118   3.967
 2374SOL    HW1 8021   6.221   1.090   3.983
 2374SOL    HW2 8022   6.377   1.048   4.002
 2375SOL     OW 8023   1.573   6.565   4.445
 2375SOL    HW1 8024   1.524   6.645   4.409
 2375SOL    HW2 8025   1.508   6.504   4.490
 2376SOL     OW 8026   6.112   2.805   4.146
 2376SOL    HW1 8027   6.124   2.832   4.050
 2376SOL    HW2 8028   6.048   2.728   4.151
 2377SOL     OW 8029   3.290   3.850   3.361
 2377SOL    HW1 8030   3.305   3.789   3.283
 2377SOL    HW2 8031   3.256   3.797   3.439
 2378SOL     OW 8032   5.440   2.225   6.324
 2378SOL    HW1 8033   5.411   2.313   6.360
 2378SOL    HW2 8034   5.427   2.154   6.394
 2379SOL     OW 8035   6.848   1.617   6.699
 2379SOL    HW1 8036   6.753   1.588   6.715
 2379SOL    HW2 8037   6.901   1.603   6.783
 2380SOL     OW 8038   6.321   6.477   6.301
 2380SOL    HW1 8039   6.379   6.513   6.228
 2380SOL    HW2 8040   6.258   6.410   6.263
 2381SOL     OW 8041   2.394   4.284   3.998
 2381SOL    HW1 8042   2.409   4.294   3.899
 2381SOL    HW2 8043   2.311   4.230   4.014
 2382SOL     OW 8044   2.239   4.778   2.855
 2382SOL    HW1 8045   2.212   4.868   2.889
 2382SOL    HW2 8046   2.339   4.771   2.854
 2383SOL     OW 8047   5.203   5.802   0.058
 2383SOL    HW1 8048   5.182   5.880   0.116
 2383SOL    HW2 8049   5.118   5.762   0.023
 2384SOL     OW 8050   1.055   0.034   2.294
 2384SOL    HW1 8051   1.006   0.117   2.318
 2384SOL    HW2 8052   1.033   0.008   2.200
 2385SOL     OW 8053   6.129   0.166   1.186
 2385SOL    HW1 8054   6.160   0.206   1.272
 2385SOL    HW2 8055   6.039   0.123   1.200
 2386SOL     OW 8056   4.822   5.215   3.977
 2386SOL    HW1 8057   4.874   5.134   4.002
 2386SOL    HW2 8058   4.806   5.271   4.058
 2387SOL     OW 8059   0.139   1.869   3.550
 2387SOL    HW1 8060   0.158   1.773   3.574
 2387SOL    HW2 8061   0.225   1.919   3.544
 2388SOL     OW 8062   1.066   1.543   4.555
 2388SOL    HW1 8063   1.104   1.554   4.647
 2388SOL    HW2 8064   1.140   1.555   4.487
 2389SOL     OW 8065   5.288   3.929   3.799
 2389SOL    HW1 8066   5.370   3.979   3.826
 2389SOL    HW2 8067   5.304   3.830   3.809
 2390SOL     OW 8068   3.612   3.478   4.485
 2390SOL    HW1 8069   3.596   3.380   4.472
 2390SOL    HW2 8070   3.710   3.498   4.474
 2391SOL     OW 8071   4.433   4.592   6.002
 2391SOL    HW1 8072   4.403   4.584   5.907
 2391SOL    HW2 8073   4.439   4.500   6.042
 2392SOL     OW 8074   3.667   6.059   5.472
 2392SOL    HW1 8075   3.675   6.092   5.377
 2392SOL    HW2 8076   3.710   6.125   5.533
 2393SOL     OW 8077   3.805   5.336   0.267
 2393SOL    HW1 8078   3.772   5.301   0.354
 2393SOL    HW2 8079   3.792   5.266   0.196
 2394SOL     OW 8080   1.800   3.234   5.138
 2394SOL    HW1 8081   1.837   3.171   5.070
 2394SOL    HW2 8082   1.814   3.197   5.230
 2395SOL     OW 8083   6.550   2.502   7.001
 2395SOL    HW1 8084   6.648   2.519   6.989
 2395SOL    HW2 8085   6.508   2.580   0.022
 2396SOL     OW 8086   4.603   6.078   0.055
 2396SOL    HW1 8087   4.632   6.115   6.990
 2396SOL    HW2 8088   4.504   6.068   0.055
 2397SOL     OW 8089   0.247   3.934   0.604
 2397SOL    HW1 8090   0.238   3.892   0.514
 2397SOL    HW2 8091   0.282   3.867   0.669
 2398SOL     OW 8092   2.785   4.703   5.877
 2398SOL    HW1 8093   2.822   4.625   5.927
 2398SOL    HW2 8094   2.761   4.776   5.942
 2399SOL     OW 8095   4.611   1.542   2.490
 2399SOL    HW1 8096   4.636   1.591   2.573
 2399SOL    HW2 8097   4.693   1.526   2.435
 2400SOL     OW 8098   4.093   4.976   0.455
 2400SOL    HW1 8099   4.182   4.942   0.425
 2400SOL    HW2 8100   4.090   5.075   0.447
 2401SOL     OW 8101   4.021   0.741   6.010
 2401SOL    HW1 8102   3.955   0.809   6.041
 2401SOL    HW2 8103   4.100   0.740   6.071
 2402SOL     OW 8104   0.394   2.616   4.112
 2402SOL    HW1 8105   0.410   2.615   4.211
 2402SOL    HW2 8106   0.315   2.559   4.091
 2403SOL     OW 8107   2.889   2.885   0.091
 2403SOL    HW1 8108   2.827   2.812   0.064
 2403SOL    HW2 8109   2.913   2.939   0.010
 2404SOL     OW 8110   5.671   1.535   2.661
 2404SOL    HW1 8111   5.697   1.492   2.575
 2404SOL    HW2 8112   5.682   1.469   2.736
 2405SOL     OW 8113   3.244   3.816   4.007
 2405SOL    HW1 8114   3.210   3.910   4.010
 2405SOL    HW2 8115   3.176   3.754   4.045
 2406SOL     OW 8116   1.556   0.480   3.951
 2406SOL    HW1 8117   1.550   0.525   3.861
 2406SOL    HW2 8118   1.577   0.383   3.938
 2407SOL     OW 8119   4.781   2.990   2.925
 2407SOL    HW1 8120   4.684   2.973   2.943
 2407SOL    HW2 8121   4.794   3.011   2.828
 2408SOL     OW 8122   3.272   5.093   2.286
 2408SOL    HW1 8123   3.252   5.020   2.351
 2408SOL    HW2 8124   3.274   5.056   2.193
 2409SOL     OW 8125   1.787   2.832   2.349
 2409SOL    HW1 8126   1.847   2.821   2.427
 2409SOL    HW2 8127   1.820   2.776   2.273
 2410SOL     OW 8128   6.075   2.961   5.809
 2410SOL    HW1 8129   5.979   2.978   5.790
 2410SOL    HW2 8130   6.104   3.013   5.889
 2411SOL     OW 8131   4.232   5.099   5.373
 2411SOL    HW1 8132   4.290   5.171   5.411
 2411SOL    HW2 8133   4.177   5.059   5.446
 2412SOL     OW 8134   3.218   4.114   6.937
 2412SOL    HW1 8135   3.193   4.069   7.023
 2412SOL    HW2 8136   3.179   4.206   6.935
 2413SOL     OW 8137   0.134   2.619   6.705
 2413SOL    HW1 8138   0.058   2.556   6.686
 2413SOL    HW2 8139   0.184   2.588   6.785
 2414SOL     OW 8140   5.808   4.062   2.154
 2414SOL    HW1 8141   5.751   3.984   2.178
 2414SOL    HW2 8142   5.862   4.090   2.234
 2415SOL     OW 8143   0.536   6.780   0.958
 2415SOL    HW1 8144   0.551   6.847   1.031
 2415SOL    HW2 8145   0.437   6.770   0.943
 2416SOL     OW 8146   2.917   1.802   5.405
 2416SOL    HW1 8147   2.919   1.818   5.503
 2416SOL    HW2 8148   2.822   1.798   5.373
 2417SOL     OW 8149   4.359   2.577   0.148
 2417SOL    HW1 8150   4.299   2.639   0.197
 2417SOL    HW2 8151   4.454   2.606   0.160
 2418SOL     OW 8152   2.927   3.723   4.001
 2418SOL    HW1 8153   2.942   3.755   3.908
 2418SOL    HW2 8154   2.934   3.800   4.065
 2419SOL     OW 8155   0.602   6.485   3.833
 2419SOL    HW1 8156   0.536   6.558   3.850
 2419SOL    HW2 8157   0.564   6.419   3.769
 2420SOL     OW 8158   4.238   0.444   2.146
 2420SOL    HW1 8159   4.141   0.452   2.127
 2420SOL    HW2 8160   4.277   0.534   2.163
 2421SOL     OW 8161   2.648   0.718   5.024
 2421SOL    HW1 8162   2.737   0.673   5.016
 2421SOL    HW2 8163   2.604   0.720   4.934
 2422SOL     OW 8164   5.825   0.170   1.457
 2422SOL    HW1 8165   5.756   0.237   1.429
 2422SOL    HW2 8166   5.888   0.212   1.522
 2423SOL     OW 8167   1.582   6.230   3.437
 2423SOL    HW1 8168   1.579   6.238   3.338
 2423SOL    HW2 8169   1.671   6.194   3.465
 2424SOL     OW 8170   5.537   5.629   6.166
 2424SOL    HW1 8171   5.493   5.639   6.256
 2424SOL    HW2 8172   5.627   5.587   6.177
 2425SOL     OW 8173   5.833   0.182   4.331
 2425SOL    HW1 8174   5.929   0.181   4.357
 2425SOL    HW2 8175   5.789   0.263   4.370
 2426SOL     OW 8176   0.715   4.539   4.254
 2426SOL    HW1 8177   0.625   4.498   4.243
 2426SOL    HW2 8178   0.770   4.481   4.315
 2427SOL     OW 8179   6.007   5.485   6.794
 2427SOL    HW1 8180   6.085   5.547   6.782
 2427SOL    HW2 8181   5.982   5.445   6.706
 2428SOL     OW 8182   0.520   6.846   3.120
 2428SOL    HW1 8183   0.484   6.769   3.173
 2428SOL    HW2 8184   0.577   6.903   3.180
 2429SOL     OW 8185   6.360   5.941   4.273
 2429SOL    HW1 8186   6.446   5.891   4.273
 2429SOL    HW2 8187   6.335   5.965   4.367
 2430SOL     OW 8188   6.305   2.483   1.774
 2430SOL    HW1 8189   6.255   2.570   1.776
 2430SOL    HW2 8190   6.377   2.488   1.705
 2431SOL     OW 8191   4.072   7.018   1.610
 2431SOL    HW1 8192   4.109   0.029   1.697
 2431SOL    HW2 8193   4.109   6.927   1.591
 2432SOL     OW 8194   4.225   6.214   2.608
 2432SOL    HW1 8195   4.142   6.254   2.649
 2432SOL    HW2 8196   4.249   6.131   2.658
 2433SOL     OW 8197   2.993   6.483   1.068
 2433SOL    HW1 8198   2.915   6.546   1.074
 2433SOL    HW2 8199   3.063   6.522   1.008
 2434SOL     OW 8200   4.262   1.433   3.351
 2434SOL    HW1 8201   4.204   1.515   3.357
 2434SOL    HW2 8202   4.346   1.456   3.302
 2435SOL     OW 8203   4.804   5.356   5.903
 2435SOL    HW1 8204   4.824   5.384   5.809
 2435SOL    HW2 8205   4.732   5.414   5.940
 2436SOL     OW 8206   1.777   6.922   0.525
 2436SOL    HW1 8207   1.828   6.943   0.609
 2436SOL    HW2 8208   1.756   7.006   0.477
 2437SOL     OW 8209   4.455   5.381   0.406
 2437SOL    HW1 8210   4.450   5.320   0.327
 2437SOL    HW2 8211   4.487   5.471   0.377
 2438SOL     OW 8212   3.727   1.513   5.596
 2438SOL    HW1 8213   3.682   1.435   5.639
 2438SOL    HW2 8214   3.826   1.496   5.592
 2439SOL     OW 8215   1.304   4.214   0.519
 2439SOL    HW1 8216   1.364   4.166   0.584
 2439SOL    HW2 8217   1.338   4.199   0.426
 2440SOL     OW 8218   3.740   6.208   5.266
 2440SOL    HW1 8219   3.667   6.274   5.284
 2440SOL    HW2 8220   3.813   6.253   5.214
 2441SOL     OW 8221   6.202   0.929   6.868
 2441SOL    HW1 8222   6.164   0.837   6.874
 2441SOL    HW2 8223   6.223   0.951   6.773
 2442SOL     OW 8224   6.524   6.170   3.781
 2442SOL    HW1 8225   6.521   6.143   3.877
 2442SOL    HW2 8226   6.596   6.238   3.767
 2443SOL     OW 8227   3.119   0.018   6.329
 2443SOL    HW1 8228   3.038   6.985   6.347
 2443SOL    HW2 8229   3.120   0.044   6.232
 2444SOL     OW 8230   4.162   4.165   6.400
 2444SOL    HW1 8231   4.165   4.126   6.492
 2444SOL    HW2 8232   4.137   4.262   6.406
 2445SOL     OW 8233   6.584   1.038   2.612
 2445SOL    HW1 8234   6.502   1.007   2.660
 2445SOL    HW2 8235   6.560   1.112   2.550
 2446SOL     OW 8236   0.675   2.978   4.329
 2446SOL    HW1 8237   0.695   3.056   4.389
 2446SOL    HW2 8238   0.735   2.983   4.248
 2447SOL     OW 8239   2.151   0.939   0.685
 2447SOL    HW1 8240   2.086   0.919   0.612
 2447SOL    HW2 8241   2.103   0.943   0.772
 2448SOL     OW 8242   0.476   0.563   4.040
 2448SOL    HW1 8243   0.437   0.561   3.948
 2448SOL    HW2 8244   0.415   0.614   4.100
 2449SOL     OW 8245   0.108   4.070   2.788
 2449SOL    HW1 8246   0.174   4.044   2.717
 2449SOL    HW2 8247   0.029   4.114   2.746
 2450SOL     OW 8248   2.795   5.138   5.125
 2450SOL    HW1 8249   2.846   5.111   5.206
 2450SOL    HW2 8250   2.705   5.094   5.125
 2451SOL     OW 8251   0.663   0.215   3.606
 2451SOL    HW1 8252   0.615   0.214   3.519
 2451SOL    HW2 8253   0.597   0.221   3.681
 2452SOL     OW 8254   2.797   2.159   3.534
 2452SOL    HW1 8255   2.712   2.113   3.558
 2452SOL    HW2 8256   2.859   2.159   3.612
 2453SOL     OW 8257   6.778   3.523   0.429
 2453SOL    HW1 8258   6.692   3.573   0.420
 2453SOL    HW2 8259   6.802   3.515   0.526
 2454SOL     OW 8260   3.120   0.802   6.634
 2454SOL    HW1 8261   3.089   0.723   6.581
 2454SOL    HW2 8262   3.197   0.775   6.693
 2455SOL     OW 8263   5.151   0.693   1.286
 2455SOL    HW1 8264   5.077   0.715   1.222
 2455SOL    HW2 8265   5.129   0.607   1.333
 2456SOL     OW 8266   5.896   1.212   0.270
 2456SOL    HW1 8267   5.865   1.119   0.249
 2456SOL    HW2 8268   5.901   1.224   0.369
 2457SOL     OW 8269   6.294   6.241   6.517
 2457SOL    HW1 8270   6.361   6.311   6.492
 2457SOL    HW2 8271   6.299   6.166   6.451
 2458SOL     OW 8272   2.286   5.932   3.837
 2458SOL    HW1 8273   2.312   5.841   3.870
 2458SOL    HW2 8274   2.330   5.948   3.748
 2459SOL     OW 8275   2.610   6.443   6.706
 2459SOL    HW1 8276   2.703   6.422   6.678
 2459SOL    HW2 8277   2.602   6.433   6.805
 2460SOL     OW 8278   1.683   1.773   2.060
 2460SOL    HW1 8279   1.777   1.793   2.086
 2460SOL    HW2 8280   1.674   1.676   2.039
 2461SOL     OW 8281   4.799   0.160   2.655
 2461SOL    HW1 8282   4.877   0.204   2.609
 2461SOL    HW2 8283   4.821   0.148   2.752
 2462SOL     OW 8284   2.283   5.630   0.210
 2462SOL    HW1 8285   2.315   5.718   0.173
 2462SOL    HW2 8286   2.320   5.618   0.302
 2463SOL     OW 8287   6.305   2.609   4.839
 2463SOL    HW1 8288   6.288   2.694   4.890
 2463SOL    HW2 8289   6.309   2.629   4.741
 2464SOL     OW 8290   1.693   4.283   1.950
 2464SOL    HW1 8291   1.674   4.295   2.048
 2464SOL    HW2 8292   1.608   4.293   1.898
 2465SOL     OW 8293   1.290   0.272   1.954
 2465SOL    HW1 8294   1.244   0.344   2.005
 2465SOL    HW2 8295   1.389   0.283   1.963
 2466SOL     OW 8296   2.708   1.798   1.909
 2466SOL    HW1 8297   2.727   1.756   1.820
 2466SOL    HW2 8298   2.723   1.897   1.904
 2467SOL     OW 8299   5.515   1.666   4.745
 2467SOL    HW1 8300   5.567   1.721   4.680
 2467SOL    HW2 8301   5.569   1.653   4.828
 2468SOL     OW 8302   5.502   6.118   2.202
 2468SOL    HW1 8303   5.520   6.022   2.179
 2468SOL    HW2 8304   5.541   6.138   2.292
 2469SOL     OW 8305   4.275   4.387   5.345
 2469SOL    HW1 8306   4.188   4.378   5.392
 2469SOL    HW2 8307   4.259   4.401   5.247
 2470SOL     OW 8308   3.779   4.792   5.630
 2470SOL    HW1 8309   3.856   4.770   5.570
 2470SOL    HW2 8310   3.726   4.709   5.647
 2471SOL     OW 8311   2.648   6.461   0.599
 2471SOL    HW1 8312   2.556   6.501   0.589
 2471SOL    HW2 8313   2.640   6.366   0.628
 2472SOL     OW 8314   4.554   2.071   3.973
 2472SOL    HW1 8315   4.524   2.115   3.888
 2472SOL    HW2 8316   4.618   2.131   4.021
 2473SOL     OW 8317   2.075   3.876   5.028
 2473SOL    HW1 8318   2.144   3.949   5.026
 2473SOL    HW2 8319   2.109   3.800   5.083
 2474SOL     OW 8320   0.524   5.654   6.875
 2474SOL    HW1 8321   0.469   5.735   6.898
 2474SOL    HW2 8322   0.616   5.665   6.912
 2475SOL     OW 8323   5.284   0.878   1.169
 2475SOL    HW1 8324   5.236   0.803   1.215
 2475SOL    HW2 8325   5.241   0.895   1.080
 2476SOL     OW 8326   0.561   2.581   3.592
 2476SOL    HW1 8327   0.568   2.571   3.692
 2476SOL    HW2 8328   0.467   2.601   3.567
 2477SOL     OW 8329   5.592   1.347   2.200
 2477SOL    HW1 8330   5.529   1.372   2.126
 2477SOL    HW2 8331   5.661   1.284   2.164
 2478SOL     OW 8332   6.357   0.785   2.232
 2478SOL    HW1 8333   6.265   0.802   2.265
 2478SOL    HW2 8334   6.420   0.851   2.273
 2479SOL     OW 8335   1.363   3.817   1.755
 2479SOL    HW1 8336   1.359   3.740   1.691
 2479SOL    HW2 8337   1.410   3.894   1.712
 2480SOL     OW 8338   6.172   4.323   1.278
 2480SOL    HW1 8339   6.119   4.255   1.227
 2480SOL    HW2 8340   6.126   4.411   1.273
 2481SOL     OW 8341   2.951   0.715   0.376
 2481SOL    HW1 8342   2.885   0.782   0.341
 2481SOL    HW2 8343   2.902   0.633   0.406
 2482SOL     OW 8344   4.700   3.039   6.058
 2482SOL    HW1 8345   4.722   2.942   6.066
 2482SOL    HW2 8346   4.692   3.064   5.962
 2483SOL     OW 8347   2.474   1.878   6.902
 2483SOL    HW1 8348   2.434   1.851   6.989
 2483SOL    HW2 8349   2.574   1.881   6.910
 2484SOL     OW 8350   2.099   0.341   0.236
 2484SOL    HW1 8351   2.139   0.355   0.145
 2484SOL    HW2 8352   2.003   0.315   0.226
 2485SOL     OW 8353   5.098   4.173   2.295
 2485SOL    HW1 8354   5.104   4.075   2.317
 2485SOL    HW2 8355   5.091   4.226   2.379
 2486SOL     OW 8356   2.897   5.164   3.889
 2486SOL    HW1 8357   2.964   5.183   3.817
 2486SOL    HW2 8358   2.889   5.065   3.903
 2487SOL     OW 8359   3.824   5.893   6.947
 2487SOL    HW1 8360   3.794   5.852   6.861
 2487SOL    HW2 8361   3.834   5.992   6.935
 2488SOL     OW 8362   1.667   4.703   2.592
 2488SOL    HW1 8363   1.589   4.753   2.631
 2488SOL    HW2 8364   1.725   4.670   2.667
 2489SOL     OW 8365   2.274   6.083   3.424
 2489SOL    HW1 8366   2.334   6.012   3.462
 2489SOL    HW2 8367   2.326   6.168   3.414
 2490SOL     OW 8368   6.567   5.666   1.143
 2490SOL    HW1 8369   6.565   5.570   1.169
 2490SOL    HW2 8370   6.614   5.677   1.056
 2491SOL     OW 8371   2.679   5.658   0.946
 2491SOL    HW1 8372   2.677   5.715   1.028
 2491SOL    HW2 8373   2.771   5.621   0.933
 2492SOL     OW 8374   4.602   3.005   6.766
 2492SOL    HW1 8375   4.652   2.991   6.681
 2492SOL    HW2 8376   4.513   3.045   6.746
 2493SOL     OW 8377   5.886   0.444   2.938
 2493SOL    HW1 8378   5.923   0.393   3.016
 2493SOL    HW2 8379   5.818   0.510   2.971
 2494SOL     OW 8380   5.780   3.790   2.774
 2494SOL    HW1 8381   5.813   3.696   2.782
 2494SOL    HW2 8382   5.719   3.810   2.851
 2495SOL     OW 8383   5.188   0.450   5.013
 2495SOL    HW1 8384   5.210   0.536   5.060
 2495SOL    HW2 8385   5.148   0.471   4.924
 2496SOL     OW 8386   0.236   4.237   5.938
 2496SOL    HW1 8387   0.192   4.289   6.012
 2496SOL    HW2 8388   0.327   4.275   5.922
 2497SOL     OW 8389   0.116   1.382   1.409
 2497SOL    HW1 8390   0.082   1.402   1.501
 2497SOL    HW2 8391   0.044   1.337   1.356
 2498SOL     OW 8392   3.448   2.088   3.718
 2498SOL    HW1 8393   3.539   2.130   3.708
 2498SOL    HW2 8394   3.424   2.085   3.815
 2499SOL     OW 8395   4.770   2.221   4.110
 2499SOL    HW1 8396   4.729   2.201   4.199
 2499SOL    HW2 8397   4.869   2.211   4.116
 2500SOL     OW 8398   4.415   2.859   5.936
 2500SOL    HW1 8399   4.455   2.838   5.847
 2500SOL    HW2 8400   4.381   2.953   5.935
 2501SOL     OW 8401   6.906   6.022   6.722
 2501SOL    HW1 8402   6.876   6.098   6.778
 2501SOL    HW2 8403   6.920   6.053   6.628
 2502SOL     OW 8404   2.242   6.094   3.088
 2502SOL    HW1 8405   2.329   6.108   3.134
 2502SOL    HW2 8406   2.167   6.101   3.154
 2503SOL     OW 8407   3.503   5.582   5.537
 2503SOL    HW1 8408   3.410   5.561   5.570
 2503SOL    HW2 8409   3.512   5.551   5.443
 2504SOL     OW 8410   3.077   5.260   5.465
 2504SOL    HW1 8411   3.078   5.230   5.561
 2504SOL    HW2 8412   3.122   5.192   5.408
 2505SOL     OW 8413   1.793   6.423   4.367
 2505SOL    HW1 8414   1.813   6.405   4.271
 2505SOL    HW2 8415   1.709   6.477   4.374
 2506SOL     OW 8416   6.016   3.812   6.271
 2506SOL    HW1 8417   6.033   3.847   6.179
 2506SOL    HW2 8418   6.010   3.712   6.268
 2507SOL     OW 8419   0.550   3.876   0.484
 2507SOL    HW1 8420   0.552   3.971   0.517
 2507SOL    HW2 8421   0.506   3.818   0.552
 2508SOL     OW 8422   2.842   1.473   2.278
 2508SOL    HW1 8423   2.863   1.484   2.375
 2508SOL    HW2 8424   2.788   1.551   2.246
 2509SOL     OW 8425   6.080   2.613   2.778
 2509SOL    HW1 8426   6.158   2.622   2.716
 2509SOL    HW2 8427   6.003   2.574   2.728
 2510SOL     OW 8428   3.480   4.364   1.052
 2510SOL    HW1 8429   3.496   4.343   0.955
 2510SOL    HW2 8430   3.395   4.322   1.082
 2511SOL     OW 8431   2.248   2.060   4.392
 2511SOL    HW1 8432   2.208   2.066   4.300
 2511SOL    HW2 8433   2.327   1.999   4.389
 2512SOL     OW 8434   5.320   5.588   5.146
 2512SOL    HW1 8435   5.313   5.667   5.086
 2512SOL    HW2 8436   5.297   5.615   5.240
 2513SOL     OW 8437   0.795   3.112   5.354
 2513SOL    HW1 8438   0.869   3.077   5.296
 2513SOL    HW2 8439   0.803   3.211   5.363
 2514SOL     OW 8440   6.400   4.141   4.527
 2514SOL    HW1 8441   6.465   4.081   4.574
 2514SOL    HW2 8442   6.408   4.233   4.565
 2515SOL     OW 8443   1.166   0.042   0.601
 2515SOL    HW1 8444   1.069   0.056   0.582
 2515SOL    HW2 8445   1.178   6.987   0.662
 2516SOL     OW 8446   5.675   0.015   2.887
 2516SOL    HW1 8447   5.693   0.112   2.871
 2516SOL    HW2 8448   5.589   7.012   2.843
 2517SOL     OW 8449   1.861   5.713   5.185
 2517SOL    HW1 8450   1.836   5.764   5.103
 2517SOL    HW2 8451   1.947   5.748   5.222
 2518SOL     OW 8452   2.570   3.105   6.563
 2518SOL    HW1 8453   2.612   3.190   6.533
 2518SOL    HW2 8454   2.484   3.124   6.610
 2519SOL     OW 8455   5.031   5.370   4.261
 2519SOL    HW1 8456   5.023   5.433   4.338
 2519SOL    HW2 8457   5.124   5.370   4.226
 2520SOL     OW 8458   1.217   2.803   1.200
 2520SOL    HW1 8459   1.139   2.865   1.190
 2520SOL    HW2 8460   1.264   2.793   1.112
 2521SOL     OW 8461   0.799   6.347   5.533
 2521SOL    HW1 8462   0.837   6.439   5.548
 2521SOL    HW2 8463   0.777   6.305   5.621
 2522SOL     OW 8464   0.405   3.139   5.709
 2522SOL    HW1 8465   0.322   3.188   5.684
 2522SOL    HW2 8466   0.398   3.107   5.803
 2523SOL     OW 8467   0.243   3.318   1.134
 2523SOL    HW1 8468   0.150   3.311   1.097
 2523SOL    HW2 8469   0.275   3.413   1.125
 2524SOL     OW 8470   0.784   6.111   4.157
 2524SOL    HW1 8471   0.741   6.128   4.068
 2524SOL    HW2 8472   0.714   6.080   4.222
 2525SOL     OW 8473   1.193   2.313   4.816
 2525SOL    HW1 8474   1.189   2.291   4.914
 2525SOL    HW2 8475   1.131   2.253   4.766
 2526SOL     OW 8476   1.424   3.845   6.142
 2526SOL    HW1 8477   1.438   3.938   6.109
 2526SOL    HW2 8478   1.343   3.806   6.098
 2527SOL     OW 8479   5.064   6.869   4.852
 2527SOL    HW1 8480   4.989   6.877   4.917
 2527SOL    HW2 8481   5.151   6.878   4.900
 2528SOL     OW 8482   6.376   4.563   1.087
 2528SOL    HW1 8483   6.291   4.538   1.041
 2528SOL    HW2 8484   6.437   4.609   1.022
 2529SOL     OW 8485   6.414   5.581   6.220
 2529SOL    HW1 8486   6.423   5.496   6.169
 2529SOL    HW2 8487   6.463   5.573   6.307
 2530SOL     OW 8488   0.980   6.267   4.326
 2530SOL    HW1 8489   1.042   6.215   4.384
 2530SOL    HW2 8490   0.919   6.204   4.278
 2531SOL     OW 8491   5.568   5.706   4.162
 2531SOL    HW1 8492   5.499   5.749   4.220
 2531SOL    HW2 8493   5.527   5.683   4.073
 2532SOL     OW 8494   0.892   6.001   0.888
 2532SOL    HW1 8495   0.946   6.051   0.820
 2532SOL    HW2 8496   0.927   5.908   0.897
 2533SOL     OW 8497   4.691   6.118   3.834
 2533SOL    HW1 8498   4.721   6.192   3.774
 2533SOL    HW2 8499   4.592   6.110   3.830
 2534SOL     OW 8500   2.377   0.191   3.225
 2534SOL    HW1 8501   2.365   0.260   3.153
 2534SOL    HW2 8502   2.362   0.233   3.315
 2535SOL     OW 8503   2.306   2.667   6.580
 2535SOL    HW1 8504   2.304   2.575   6.620
 2535SOL    HW2 8505   2.213   2.704   6.578
 2536SOL     OW 8506   0.413   2.135   3.526
 2536SOL    HW1 8507   0.418   2.162   3.430
 2536SOL    HW2 8508   0.422   2.216   3.584
 2537SOL     OW 8509   5.306   6.254   6.643
 2537SOL    HW1 8510   5.392   6.302   6.663
 2537SOL    HW2 8511   5.240   6.319   6.606
 2538SOL     OW 8512   1.551   4.301   4.780
 2538SOL    HW1 8513   1.533   4.389   4.824
 2538SOL    HW2 8514   1.522   4.305   4.685
 2539SOL     OW 8515   4.451   0.110   5.691
 2539SOL    HW1 8516   4.473   0.143   5.783
 2539SOL    HW2 8517   4.404   0.182   5.640
 2540SOL     OW 8518   4.930   1.236   1.409
 2540SOL    HW1 8519   4.988   1.166   1.452
 2540SOL    HW2 8520   4.922   1.216   1.311
 2541SOL     OW 8521   1.655   0.415   5.802
 2541SOL    HW1 8522   1.631   0.492   5.861
 2541SOL    HW2 8523   1.753   0.397   5.809
 2542SOL     OW 8524   4.451   1.562   5.623
 2542SOL    HW1 8525   4.448   1.593   5.719
 2542SOL    HW2 8526   4.546   1.568   5.590
 2543SOL     OW 8527   2.128   0.852   3.319
 2543SOL    HW1 8528   2.029   0.844   3.330
 2543SOL    HW2 8529   2.161   0.775   3.264
 2544SOL     OW 8530   0.476   5.392   2.475
 2544SOL    HW1 8531   0.422   5.428   2.399
 2544SOL    HW2 8532   0.570   5.379   2.446
 2545SOL     OW 8533   1.772   0.702   1.251
 2545SOL    HW1 8534   1.833   0.763   1.302
 2545SOL    HW2 8535   1.775   0.610   1.291
 2546SOL     OW 8536   6.982   2.601   2.205
 2546SOL    HW1 8537   0.029   2.549   2.155
 2546SOL    HW2 8538   6.934   2.540   2.268
 2547SOL     OW 8539   5.757   5.529   6.932
 2547SOL    HW1 8540   5.709   5.606   6.889
 2547SOL    HW2 8541   5.848   5.519   6.891
 2548SOL     OW 8542   2.956   0.160   5.195
 2548SOL    HW1 8543   3.032   0.152   5.131
 2548SOL    HW2 8544   2.975   0.233   5.261
 2549SOL     OW 8545   2.046   1.972   1.600
 2549SOL    HW1 8546   1.989   1.891   1.614
 2549SOL    HW2 8547   1.990   2.054   1.612
 2550SOL     OW 8548   6.219   0.576   6.672
 2550SOL    HW1 8549   6.171   0.628   6.743
 2550SOL    HW2 8550   6.214   0.624   6.585
 2551SOL     OW 8551   2.957   5.096   0.237
 2551SOL    HW1 8552   2.999   5.083   0.327
 2551SOL    HW2 8553   3.025   5.081   0.166
 2552SOL     OW 8554   1.558   5.590   5.550
 2552SOL    HW1 8555   1.640   5.534   5.551
 2552SOL    HW2 8556   1.564   5.660   5.621
 2553SOL     OW 8557   2.695   3.565   6.837
 2553SOL    HW1 8558   2.769   3.507   6.804
 2553SOL    HW2 8559   2.609   3.536   6.795
 2554SOL     OW 8560   1.450   5.855   6.339
 2554SOL    HW1 8561   1.531   5.797   6.347
 2554SOL    HW2 8562   1.414   5.875   6.430
 2555SOL     OW 8563   6.111   6.248   6.262
 2555SOL    HW1 8564   6.169   6.178   6.303
 2555SOL    HW2 8565   6.027   6.206   6.229
 2556SOL     OW 8566   3.898   6.002   0.623
 2556SOL    HW1 8567   3.992   6.034   0.618
 2556SOL    HW2 8568   3.842   6.051   0.556
 2557SOL     OW 8569   2.222   1.885   6.624
 2557SOL    HW1 8570   2.250   1.816   6.557
 2557SOL    HW2 8571   2.191   1.838   6.708
 2558SOL     OW 8572   3.628   3.466   6.189
 2558SOL    HW1 8573   3.662   3.441   6.279
 2558SOL    HW2 8574   3.548   3.410   6.167
 2559SOL     OW 8575   6.563   3.024   4.287
 2559SOL    HW1 8576   6.625   3.090   4.328
 2559SOL    HW2 8577   6.474   3.068   4.270
 2560SOL     OW 8578   4.909   3.212   4.115
 2560SOL    HW1 8579   4.943   3.122   4.141
 2560SOL    HW2 8580   4.905   3.271   4.196
 2561SOL     OW 8581   3.982   0.488   3.085
 2561SOL    HW1 8582   3.901   0.440   3.117
 2561SOL    HW2 8583   4.055   0.481   3.153
 2562SOL     OW 8584   2.295   5.143   2.393
 2562SOL    HW1 8585   2.370   5.185   2.444
 2562SOL    HW2 8586   2.261   5.063   2.443
 2563SOL     OW 8587   3.755   1.856   0.091
 2563SOL    HW1 8588   3.682   1.792   0.067
 2563SOL    HW2 8589   3.798   1.889   0.007
 2564SOL     OW 8590   1.006   6.866   6.180
 2564SOL    HW1 8591   0.938   6.856   6.253
 2564SOL    HW2 8592   1.010   6.781   6.127
 2565SOL     OW 8593   7.016   0.475   1.190
 2565SOL    HW1 8594   6.996   0.511   1.281
 2565SOL    HW2 8595   0.037   0.546   1.135
 2566SOL     OW 8596   1.394   6.618   0.541
 2566SOL    HW1 8597   1.379   6.569   0.455
 2566SOL    HW2 8598   1.477   6.583   0.585
 2567SOL     OW 8599   1.353   1.271   2.676
 2567SOL    HW1 8600   1.452   1.289   2.676
 2567SOL    HW2 8601   1.332   1.201   2.745
 2568SOL     OW 8602   2.754   0.874   0.294
 2568SOL    HW1 8603   2.657   0.856   0.275
 2568SOL    HW2 8604   2.773   0.972   0.282
 2569SOL     OW 8605   2.525   1.433   2.574
 2569SOL    HW1 8606   2.618   1.406   2.600
 2569SOL    HW2 8607   2.528   1.524   2.533
 2570SOL     OW 8608   5.691   0.228   6.525
 2570SOL    HW1 8609   5.710   0.170   6.604
 2570SOL    HW2 8610   5.621   0.296   6.551
 2571SOL     OW 8611   3.017   3.596   4.747
 2571SOL    HW1 8612   2.947   3.605   4.676
 2571SOL    HW2 8613   3.059   3.505   4.741
 2572SOL     OW 8614   1.800   6.842   1.653
 2572SOL    HW1 8615   1.714   6.829   1.603
 2572SOL    HW2 8616   1.869   6.779   1.620
 2573SOL     OW 8617   6.253   1.338   2.517
 2573SOL    HW1 8618   6.330   1.384   2.473
 2573SOL    HW2 8619   6.244   1.372   2.611
 2574SOL     OW 8620   7.007   2.684   0.403
 2574SOL    HW1 8621   6.973   2.626   0.477
 2574SOL    HW2 8622   0.054   2.635   0.351
 2575SOL     OW 8623   5.171   3.923   0.459
 2575SOL    HW1 8624   5.100   3.993   0.444
 2575SOL    HW2 8625   5.132   3.832   0.444
 2576SOL     OW 8626   4.065   0.154   3.449
 2576SOL    HW1 8627   4.034   0.112   3.363
 2576SOL    HW2 8628   4.005   0.126   3.523
 2577SOL     OW 8629   4.433   6.535   2.817
 2577SOL    HW1 8630   4.346   6.495   2.847
 2577SOL    HW2 8631   4.470   6.480   2.742
 2578SOL     OW 8632   4.700   2.851   4.990
 2578SOL    HW1 8633   4.663   2.876   5.079
 2578SOL    HW2 8634   4.742   2.760   4.995
 2579SOL     OW 8635   1.225   1.379   3.842
 2579SOL    HW1 8636   1.154   1.444   3.868
 2579SOL    HW2 8637   1.299   1.381   3.910
 2580SOL     OW 8638   1.967   3.004   6.486
 2580SOL    HW1 8639   1.902   2.928   6.475
 2580SOL    HW2 8640   1.933   3.084   6.438
 2581SOL     OW 8641   6.198   4.678   1.845
 2581SOL    HW1 8642   6.181   4.711   1.752
 2581SOL    HW2 8643   6.205   4.755   1.907
 2582SOL     OW 8644   1.279   4.453   2.433
 2582SOL    HW1 8645   1.290   4.380   2.366
 2582SOL    HW2 8646   1.305   4.419   2.524
 2583SOL     OW 8647   0.526   1.708   1.070
 2583SOL    HW1 8648   0.445   1.653   1.088
 2583SOL    HW2 8649   0.600   1.680   1.130
 2584SOL     OW 8650   3.768   5.758   0.469
 2584SOL    HW1 8651   3.739   5.779   0.563
 2584SOL    HW2 8652   3.848   5.814   0.446
 2585SOL     OW 8653   3.651   0.872   0.217
 2585SOL    HW1 8654   3.719   0.913   0.277
 2585SOL    HW2 8655   3.640   0.775   0.239
 2586SOL     OW 8656   4.468   1.851   3.397
 2586SOL    HW1 8657   4.390   1.888   3.448
 2586SOL    HW2 8658   4.547   1.910   3.411
 2587SOL     OW 8659   6.755   1.140   3.913
 2587SOL    HW1 8660   6.698   1.061   3.892
 2587SOL    HW2 8661   6.710   1.196   3.982
 2588SOL     OW 8662   4.936   7.011   0.462
 2588SOL    HW1 8663   4.911   6.915   0.479
 2588SOL    HW2 8664   4.853   0.043   0.455
 2589SOL     OW 8665   0.353   5.708   4.811
 2589SOL    HW1 8666   0.310   5.767   4.879
 2589SOL    HW2 8667   0.433   5.755   4.772
 2590SOL     OW 8668   3.453   6.075   2.213
 2590SOL    HW1 8669   3.395   6.156   2.216
 2590SOL    HW2 8670   3.545   6.101   2.186
 2591SOL     OW 8671   6.288   6.045   2.478
 2591SOL    HW1 8672   6.383   6.048   2.448
 2591SOL    HW2 8673   6.229   6.089   2.411
 2592SOL     OW 8674   2.443   6.763   1.410
 2592SOL    HW1 8675   2.411   6.853   1.379
 2592SOL    HW2 8676   2.505   6.725   1.342
 2593SOL     OW 8677   2.747   5.987   1.706
 2593SOL    HW1 8678   2.710   6.028   1.789
 2593SOL    HW2 8679   2.777   5.894   1.726
 2594SOL     OW 8680   0.223   6.066   5.920
 2594SOL    HW1 8681   0.217   5.998   5.993
 2594SOL    HW2 8682   0.308   6.052   5.868
 2595SOL     OW 8683   6.567   1.241   5.230
 2595SOL    HW1 8684   6.546   1.164   5.291
 2595SOL    HW2 8685   6.491   1.306   5.231
 2596SOL     OW 8686   3.960   2.184   1.828
 2596SOL    HW1 8687   3.979   2.129   1.747
 2596SOL    HW2 8688   3.862   2.203   1.832
 2597SOL     OW 8689   1.772   3.845   6.990
 2597SOL    HW1 8690   1.796   3.766   0.024
 2597SOL    HW2 8691   1.762   3.926   0.026
 2598SOL     OW 8692   6.170   1.070   4.373
 2598SOL    HW1 8693   6.262   1.087   4.409
 2598SOL    HW2 8694   6.144   1.143   4.310
 2599SOL     OW 8695   2.789   0.003   0.834
 2599SOL    HW1 8696   2.804   0.080   0.896
 2599SOL    HW2 8697   2.816   0.028   0.741
 2600SOL     OW 8698   4.860   3.602   4.432
 2600SOL    HW1 8699   4.894   3.678   4.486
 2600SOL    HW2 8700   4.767   3.580   4.460
 2601SOL     OW 8701   2.496   1.673   6.625
 2601SOL    HW1 8702   2.437   1.630   6.557
 2601SOL    HW2 8703   2.443   1.741   6.677
 2602SOL     OW 8704   6.845   4.567   3.703
 2602SOL    HW1 8705   6.811   4.650   3.659
 2602SOL    HW2 8706   6.943   4.576   3.721
 2603SOL     OW 8707   2.214   1.695   2.483
 2603SOL    HW1 8708   2.197   1.793   2.497
 2603SOL    HW2 8709   2.292   1.684   2.422
 2604SOL     OW 8710   4.846   1.092   2.956
 2604SOL    HW1 8711   4.858   1.167   2.891
 2604SOL    HW2 8712   4.844   1.005   2.908
 2605SOL     OW 8713   2.871   4.744   2.986
 2605SOL    HW1 8714   2.906   4.652   3.003
 2605SOL    HW2 8715   2.947   4.808   2.982
 2606SOL     OW 8716   0.158   4.600   0.649
 2606SOL    HW1 8717   0.156   4.638   0.741
 2606SOL    HW2 8718   0.108   4.513   0.647
 2607SOL     OW 8719   0.780   1.182   5.668
 2607SOL    HW1 8720   0.729   1.101   5.698
 2607SOL    HW2 8721   0.842   1.156   5.594
 2608SOL     OW 8722   4.345   5.307   2.374
 2608SOL    HW1 8723   4.286   5.388   2.377
 2608SOL    HW2 8724   4.431   5.331   2.328
 2609SOL     OW 8725   0.409   1.996   2.241
 2609SOL    HW1 8726   0.311   1.980   2.230
 2609SOL    HW2 8727   0.460   1.931   2.186
 2610SOL     OW 8728   6.996   4.928   4.111
 2610SOL    HW1 8729   0.016   4.843   4.079
 2610SOL    HW2 8730   7.006   4.934   4.210
 2611SOL     OW 8731   5.086   6.182   1.310
 2611SOL    HW1 8732   4.989   6.169   1.327
 2611SOL    HW2 8733   5.129   6.094   1.290
 2612SOL     OW 8734   6.494   6.609   6.104
 2612SOL    HW1 8735   6.493   6.611   6.004
 2612SOL    HW2 8736   6.426   6.674   6.139
 2613SOL     OW 8737   2.925   6.193   1.185
 2613SOL    HW1 8738   2.868   6.172   1.106
 2613SOL    HW2 8739   2.909   6.288   1.213
 2614SOL     OW 8740   6.353   0.400   6.063
 2614SOL    HW1 8741   6.366   0.487   6.015
 2614SOL    HW2 8742   6.367   0.324   5.998
 2615SOL     OW 8743   6.466   3.612   3.154
 2615SOL    HW1 8744   6.545   3.673   3.144
 2615SOL    HW2 8745   6.474   3.537   3.089
 2616SOL     OW 8746   4.061   3.233   4.035
 2616SOL    HW1 8747   4.005   3.302   3.989
 2616SOL    HW2 8748   4.060   3.249   4.134
 2617SOL     OW 8749   3.859   6.386   1.106
 2617SOL    HW1 8750   3.861   6.294   1.145
 2617SOL    HW2 8751   3.900   6.451   1.170
 2618SOL     OW 8752   0.045   6.830   4.315
 2618SOL    HW1 8753   7.004   6.841   4.391
 2618SOL    HW2 8754   0.116   6.900   4.322
 2619SOL     OW 8755   3.901   1.123   3.072
 2619SOL    HW1 8756   3.951   1.197   3.117
 2619SOL    HW2 8757   3.874   1.153   2.980
 2620SOL     OW 8758   0.571   6.241   2.971
 2620SOL    HW1 8759   0.518   6.323   2.993
 2620SOL    HW2 8760   0.629   6.217   3.049
 2621SOL     OW 8761   1.728   5.851   2.479
 2621SOL    HW1 8762   1.793   5.926   2.493
 2621SOL    HW2 8763   1.723   5.828   2.382
 2622SOL     OW 8764   2.026   2.388   6.383
 2622SOL    HW1 8765   2.015   2.303   6.332
 2622SOL    HW2 8766   1.985   2.463   6.331
 2623SOL     OW 8767   3.258   1.468   5.540
 2623SOL    HW1 8768   3.160   1.455   5.551
 2623SOL    HW2 8769   3.293   1.404   5.471
 2624SOL     OW 8770   6.090   2.499   5.228
 2624SOL    HW1 8771   6.152   2.482   5.151
 2624SOL    HW2 8772   6.127   2.457   5.310
 2625SOL     OW 8773   2.884   1.795   5.680
 2625SOL    HW1 8774   2.841   1.844   5.756
 2625SOL    HW2 8775   2.872   1.697   5.692
 2626SOL     OW 8776   7.003   0.671   5.294
 2626SOL    HW1 8777   6.928   0.707   5.349
 2626SOL    HW2 8778   6.970   0.647   5.202
 2627SOL     OW 8779   1.047   1.007   4.944
 2627SOL    HW1 8780   1.034   1.056   4.857
 2627SOL    HW2 8781   1.027   1.069   5.020
 2628SOL     OW 8782   1.832   4.522   6.618
 2628SOL    HW1 8783   1.753   4.582   6.630
 2628SOL    HW2 8784   1.805   4.428   6.641
 2629SOL     OW 8785   3.217   4.108   1.624
 2629SOL    HW1 8786   3.119   4.095   1.610
 2629SOL    HW2 8787   3.234   4.134   1.719
 2630SOL     OW 8788   3.240   1.582   3.720
 2630SOL    HW1 8789   3.288   1.651   3.773
 2630SOL    HW2 8790   3.201   1.624   3.638
 2631SOL     OW 8791   5.189   0.389   4.439
 2631SOL    HW1 8792   5.179   0.366   4.342
 2631SOL    HW2 8793   5.282   0.369   4.468
 2632SOL     OW 8794   2.695   2.020   6.438
 2632SOL    HW1 8795   2.658   2.108   6.467
 2632SOL    HW2 8796   2.677   1.951   6.508
 2633SOL     OW 8797   6.659   1.617   5.154
 2633SOL    HW1 8798   6.703   1.528   5.149
 2633SOL    HW2 8799   6.632   1.646   5.062
 2634SOL     OW 8800   1.334   3.925   3.077
 2634SOL    HW1 8801   1.243   3.954   3.108
 2634SOL    HW2 8802   1.325   3.847   3.015
 2635SOL     OW 8803   6.208   5.999   5.384
 2635SOL    HW1 8804   6.266   5.919   5.366
 2635SOL    HW2 8805   6.170   5.993   5.476
 2636SOL     OW 8806   4.541   0.563   5.530
 2636SOL    HW1 8807   4.528   0.473   5.488
 2636SOL    HW2 8808   4.473   0.626   5.494
 2637SOL     OW 8809   5.398   1.716   4.066
 2637SOL    HW1 8810   5.402   1.761   3.977
 2637SOL    HW2 8811   5.308   1.732   4.108
 2638SOL     OW 8812   6.848   0.024   2.631
 2638SOL    HW1 8813   6.772   0.044   2.569
 2638SOL    HW2 8814   6.930   0.005   2.577
 2639SOL     OW 8815   0.990   0.556   1.777
 2639SOL    HW1 8816   0.910   0.497   1.788
 2639SOL    HW2 8817   1.046   0.521   1.701
 2640SOL     OW 8818   0.190   6.372   4.477
 2640SOL    HW1 8819   0.216   6.286   4.434
 2640SOL    HW2 8820   0.123   6.419   4.419
 2641SOL     OW 8821   4.994   3.107   1.961
 2641SOL    HW1 8822   4.899   3.104   1.992
 2641SOL    HW2 8823   5.030   3.200   1.972
 2642SOL     OW 8824   4.135   6.964   4.258
 2642SOL    HW1 8825   4.160   6.992   4.350
 2642SOL    HW2 8826   4.052   6.908   4.261
 2643SOL     OW 8827   0.594   3.809   2.866
 2643SOL    HW1 8828   0.647   3.862   2.800
 2643SOL    HW2 8829   0.634   3.821   2.957
 2644SOL     OW 8830   6.319   5.846   6.150
 2644SOL    HW1 8831   6.323   5.752   6.182
 2644SOL    HW2 8832   6.267   5.850   6.064
 2645SOL     OW 8833   4.344   5.349   4.331
 2645SOL    HW1 8834   4.363   5.251   4.325
 2645SOL    HW2 8835   4.361   5.380   4.425
 2646SOL     OW 8836   5.693   0.382   6.920
 2646SOL    HW1 8837   5.744   0.410   6.839
 2646SOL    HW2 8838   5.707   0.284   6.937
 2647SOL     OW 8839   6.658   0.697   2.346
 2647SOL    HW1 8840   6.754   0.720   2.357
 2647SOL    HW2 8841   6.636   0.615   2.398
 2648SOL     OW 8842   0.245   6.909   3.702
 2648SOL    HW1 8843   0.336   6.872   3.684
 2648SOL    HW2 8844   0.253   6.994   3.754
 2649SOL     OW 8845   6.163   3.278   6.586
 2649SOL    HW1 8846   6.238   3.339   6.613
 2649SOL    HW2 8847   6.149   3.208   6.657
 2650SOL     OW 8848   0.433   3.944   4.124
 2650SOL    HW1 8849   0.385   3.910   4.043
 2650SOL    HW2 8850   0.531   3.938   4.109
 2651SOL     OW 8851   0.392   1.863   0.306
 2651SOL    HW1 8852   0.338   1.856   0.222
 2651SOL    HW2 8853   0.331   1.868   0.384
 2652SOL     OW 8854   3.332   3.719   3.741
 2652SOL    HW1 8855   3.326   3.693   3.837
 2652SOL    HW2 8856   3.413   3.676   3.700
 2653SOL     OW 8857   5.442   0.290   5.246
 2653SOL    HW1 8858   5.359   0.286   5.301
 2653SOL    HW2 8859   5.436   0.366   5.181
 2654SOL     OW 8860   5.398   5.015   1.070
 2654SOL    HW1 8861   5.410   5.066   0.985
 2654SOL    HW2 8862   5.334   5.063   1.129
 2655SOL     OW 8863   4.728   5.007   4.179
 2655SOL    HW1 8864   4.733   5.091   4.234
 2655SOL    HW2 8865   4.641   4.961   4.197
 2656SOL     OW 8866   3.518   5.127   4.002
 2656SOL    HW1 8867   3.494   5.067   3.926
 2656SOL    HW2 8868   3.561   5.074   4.075
 2657SOL     OW 8869   1.600   3.863   6.775
 2657SOL    HW1 8870   1.667   3.868   6.850
 2657SOL    HW2 8871   1.646   3.832   6.692
 2658SOL     OW 8872   4.755   4.521   0.342
 2658SOL    HW1 8873   4.834   4.475   0.382
 2658SOL    HW2 8874   4.719   4.465   0.267
 2659SOL     OW 8875   6.041   3.232   5.094
 2659SOL    HW1 8876   6.025   3.175   5.013
 2659SOL    HW2 8877   5.955   3.272   5.124
 2660SOL     OW 8878   0.630   1.182   0.902
 2660SOL    HW1 8879   0.616   1.249   0.829
 2660SOL    HW2 8880   0.579   1.099   0.881
 2661SOL     OW 8881   2.363   6.448   0.595
 2661SOL    HW1 8882   2.353   6.427   0.692
 2661SOL    HW2 8883   2.387   6.364   0.545
 2662SOL     OW 8884   4.413   0.006   5.445
 2662SOL    HW1 8885   4.444   0.022   5.539
 2662SOL    HW2 8886   4.389   0.094   5.403
 2663SOL     OW 8887   2.542   3.895   0.980
 2663SOL    HW1 8888   2.624   3.912   0.926
 2663SOL    HW2 8889   2.531   3.967   1.049
 2664SOL     OW 8890   4.370   3.569   5.227
 2664SOL    HW1 8891   4.320   3.510   5.164
 2664SOL    HW2 8892   4.467   3.569   5.203
 2665SOL     OW 8893   2.534   2.755   5.304
 2665SOL    HW1 8894   2.538   2.853   5.283
 2665SOL    HW2 8895   2.607   2.708   5.254
 2666SOL     OW 8896   5.633   3.968   1.331
 2666SOL    HW1 8897   5.638   3.966   1.231
 2666SOL    HW2 8898   5.549   3.923   1.361
 2667SOL     OW 8899   1.629   6.044   4.156
 2667SOL    HW1 8900   1.702   6.086   4.103
 2667SOL    HW2 8901   1.540   6.071   4.117
 2668SOL     OW 8902   5.845   3.418   4.417
 2668SOL    HW1 8903   5.858   3.326   4.379
 2668SOL    HW2 8904   5.790   3.412   4.500
 2669SOL     OW 8905   2.906   4.624   5.405
 2669SOL    HW1 8906   2.993   4.602   5.450
 2669SOL    HW2 8907   2.911   4.600   5.309
 2670SOL     OW 8908   5.811   2.681   6.321
 2670SOL    HW1 8909   5.892   2.688   6.380
 2670SOL    HW2 8910   5.797   2.585   6.296
 2671SOL     OW 8911   4.049   4.948   6.357
 2671SOL    HW1 8912   4.034   4.850   6.358
 2671SOL    HW2 8913   3.964   4.994   6.385
 2672SOL     OW 8914   0.437   5.377   0.450
 2672SOL    HW1 8915   0.430   5.313   0.526
 2672SOL    HW2 8916   0.385   5.460   0.472
 2673SOL     OW 8917   6.258   1.397   4.470
 2673SOL    HW1 8918   6.346   1.411   4.515
 2673SOL    HW2 8919   6.227   1.483   4.430
 2674SOL     OW 8920   1.176   4.302   3.771
 2674SOL    HW1 8921   1.102   4.247   3.733
 2674SOL    HW2 8922   1.192   4.381   3.712
 2675SOL     OW 8923   6.347   5.403   3.950
 2675SOL    HW1 8924   6.304   5.493   3.944
 2675SOL    HW2 8925   6.407   5.400   4.030
 2676SOL     OW 8926   4.151   1.659   0.736
 2676SOL    HW1 8927   4.097   1.578   0.758
 2676SOL    HW2 8928   4.113   1.738   0.785
 2677SOL     OW 8929   3.156   3.816   0.418
 2677SOL    HW1 8930   3.062   3.842   0.399
 2677SOL    HW2 8931   3.194   3.876   0.489
 2678SOL     OW 8932   6.969   3.425   1.391
 2678SOL    HW1 8933   6.900   3.370   1.438
 2678SOL    HW2 8934   0.009   3.465   1.458
 2679SOL     OW 8935   3.628   5.099   0.969
 2679SOL    HW1 8936   3.541   5.105   1.017
 2679SOL    HW2 8937   3.623   5.029   0.898
 2680SOL     OW 8938   0.649   1.435   0.563
 2680SOL    HW1 8939   0.672   1.532   0.558
 2680SOL    HW2 8940   0.671   1.391   0.476
 2681SOL     OW 8941   1.303   2.506   4.650
 2681SOL    HW1 8942   1.270   2.436   4.714
 2681SOL    HW2 8943   1.224   2.549   4.605
 2682SOL     OW 8944   5.242   4.318   2.524
 2682SOL    HW1 8945   5.255   4.408   2.565
 2682SOL    HW2 8946   5.331   4.279   2.501
 2683SOL     OW 8947   2.591   3.770   0.548
 2683SOL    HW1 8948   2.524   3.809   0.610
 2683SOL    HW2 8949   2.550   3.753   0.458
 2684SOL     OW 8950   4.751   5.682   1.063
 2684SOL    HW1 8951   4.693   5.608   1.096
 2684SOL    HW2 8952   4.694   5.759   1.035
 2685SOL     OW 8953   6.301   6.315   6.918
 2685SOL    HW1 8954   6.247   6.370   6.854
 2685SOL    HW2 8955   6.363   6.256   6.867
 2686SOL     OW 8956   1.615   1.521   5.930
 2686SOL    HW1 8957   1.636   1.498   5.835
 2686SOL    HW2 8958   1.601   1.619   5.938
 2687SOL     OW 8959   4.719   4.338   2.146
 2687SOL    HW1 8960   4.803   4.357   2.095
 2687SOL    HW2 8961   4.642   4.332   2.082
 2688SOL     OW 8962   4.628   4.464   0.111
 2688SOL    HW1 8963   4.618   4.558   0.079
 2688SOL    HW2 8964   4.691   4.415   0.051
 2689SOL     OW 8965   1.305   3.673   3.925
 2689SOL    HW1 8966   1.276   3.642   4.015
 2689SOL    HW2 8967   1.226   3.709   3.875
 2690SOL     OW 8968   3.517   3.767   4.068
 2690SOL    HW1 8969   3.566   3.680   4.058
 2690SOL    HW2 8970   3.419   3.751   4.063
 2691SOL     OW 8971   1.497   5.462   2.256
 2691SOL    HW1 8972   1.591   5.493   2.258
 2691SOL    HW2 8973   1.479   5.405   2.336
 2692SOL     OW 8974   3.430   5.104   3.025
 2692SOL    HW1 8975   3.426   5.017   2.975
 2692SOL    HW2 8976   3.340   5.147   3.025
 2693SOL     OW 8977   1.167   4.264   2.884
 2693SOL    HW1 8978   1.199   4.269   2.979
 2693SOL    HW2 8979   1.095   4.332   2.869
 2694SOL     OW 8980   4.580   6.709   2.954
 2694SOL    HW1 8981   4.551   6.717   3.050
 2694SOL    HW2 8982   4.517   6.648   2.906
 2695SOL     OW 8983   4.649   0.451   2.623
 2695SOL    HW1 8984   4.700   0.365   2.628
 2695SOL    HW2 8985   4.623   0.479   2.715
 2696SOL     OW 8986   4.006   3.352   5.818
 2696SOL    HW1 8987   4.027   3.440   5.859
 2696SOL    HW2 8988   3.907   3.340   5.812
 2697SOL     OW 8989   3.396   1.962   2.941
 2697SOL    HW1 8990   3.319   2.018   2.971
 2697SOL    HW2 8991   3.479   2.018   2.939
 2698SOL     OW 8992   1.991   6.041   0.398
 2698SOL    HW1 8993   1.988   5.950   0.357
 2698SOL    HW2 8994   1.916   6.050   0.464
 2699SOL     OW 8995   3.178   6.763   0.354
 2699SOL    HW1 8996   3.116   6.737   0.429
 2699SOL    HW2 8997   3.136   6.738   0.267
 2700SOL     OW 8998   1.985   3.936   0.894
 2700SOL    HW1 8999   2.002   4.022   0.846
 2700SOL    HW2 9000   1.916   3.950   0.966
 2701SOL     OW 9001   4.345   0.984   6.549
 2701SOL    HW1 9002   4.409   0.911   6.525
 2701SOL    HW2 9003   4.393   1.056   6.599
 2702SOL     OW 9004   0.452   3.079   4.108
 2702SOL    HW1 9005   0.542   3.040   4.090
 2702SOL    HW2 9006   0.432   3.150   4.040
 2703SOL     OW 9007   1.855   0.238   2.226
 2703SOL    HW1 9008   1.795   0.305   2.271
 2703SOL    HW2 9009   1.947   0.277   2.216
 2704SOL     OW 9010   6.795   6.751   0.976
 2704SOL    HW1 9011   6.698   6.758   0.999
 2704SOL    HW2 9012   6.837   6.676   1.027
 2705SOL     OW 9013   0.709   5.135   4.375
 2705SOL    HW1 9014   0.740   5.043   4.353
 2705SOL    HW2 9015   0.776   5.181   4.432
 2706SOL     OW 9016   0.677   0.332   1.546
 2706SOL    HW1 9017   0.603   0.267   1.530
 2706SOL    HW2 9018   0.671   0.406   1.479
 2707SOL     OW 9019   3.130   0.398   4.665
 2707SOL    HW1 9020   3.065   0.384   4.740
 2707SOL    HW2 9021   3.081   0.432   4.584
 2708SOL     OW 9022   0.769   2.537   6.743
 2708SOL    HW1 9023   0.674   2.529   6.774
 2708SOL    HW2 9024   0.830   2.538   6.823
 2709SOL     OW 9025   6.075   6.547   0.214
 2709SOL    HW1 9026   6.174   6.548   0.231
 2709SOL    HW2 9027   6.028   6.508   0.293
 2710SOL     OW 9028   0.920   2.971   3.651
 2710SOL    HW1 9029   0.845   2.986   3.715
 2710SOL    HW2 9030   0.979   3.051   3.649
 2711SOL     OW 9031   2.691   1.593   4.336
 2711SOL    HW1 9032   2.766   1.573   4.273
 2711SOL    HW2 9033   2.644   1.677   4.306
 2712SOL     OW 9034   3.049   4.412   0.604
 2712SOL    HW1 9035   3.118   4.354   0.647
 2712SOL    HW2 9036   3.092   4.466   0.531
 2713SOL     OW 9037   2.155   2.177   5.019
 2713SOL    HW1 9038   2.210   2.227   5.085
 2713SOL    HW2 9039   2.066   2.154   5.059
 2714SOL     OW 9040   4.446   2.413   0.354
 2714SOL    HW1 9041   4.408   2.438   0.265
 2714SOL    HW2 9042   4.371   2.392   0.418
 2715SOL     OW 9043   4.930   1.649   0.402
 2715SOL    HW1 9044   4.877   1.580   0.452
 2715SOL    HW2 9045   4.897   1.740   0.428
 2716SOL     OW 9046   4.957   4.624   2.516
 2716SOL    HW1 9047   5.049   4.655   2.494
 2716SOL    HW2 9048   4.919   4.680   2.590
 2717SOL     OW 9049   1.890   4.781   2.385
 2717SOL    HW1 9050   1.964   4.824   2.436
 2717SOL    HW2 9051   1.817   4.754   2.449
 2718SOL     OW 9052   1.846   2.691   5.632
 2718SOL    HW1 9053   1.943   2.696   5.656
 2718SOL    HW2 9054   1.801   2.778   5.654
 2719SOL     OW 9055   6.705   6.027   1.071
 2719SOL    HW1 9056   6.626   6.087   1.088
 2719SOL    HW2 9057   6.695   5.983   0.982
 2720SOL     OW 9058   1.912   6.062   2.512
 2720SOL    HW1 9059   1.916   6.143   2.570
 2720SOL    HW2 9060   2.004   6.036   2.484
 2721SOL     OW 9061   3.262   0.311   4.017
 2721SOL    HW1 9062   3.299   0.319   4.109
 2721SOL    HW2 9063   3.263   0.400   3.972
 2722SOL     OW 9064   6.482   5.922   1.548
 2722SOL    HW1 9065   6.462   5.854   1.477
 2722SOL    HW2 9066   6.398   5.965   1.578
 2723SOL     OW 9067   0.861   0.101   5.736
 2723SOL    HW1 9068   0.921   0.037   5.689
 2723SOL    HW2 9069   0.793   0.051   5.789
 2724SOL     OW 9070   2.661   6.948   6.701
 2724SOL    HW1 9071   2.739   6.981   6.647
 2724SOL    HW2 9072   2.625   6.865   6.661
 2725SOL     OW 9073   5.644   4.392   4.171
 2725SOL    HW1 9074   5.742   4.388   4.190
 2725SOL    HW2 9075   5.597   4.436   4.248
 2726SOL     OW 9076   6.935   3.039   0.835
 2726SOL    HW1 9077   6.880   2.998   0.762
 2726SOL    HW2 9078   6.897   3.013   0.924
 2727SOL     OW 9079   0.487   5.273   4.004
 2727SOL    HW1 9080   0.507   5.181   3.972
 2727SOL    HW2 9081   0.571   5.327   4.006
 2728SOL     OW 9082   3.844   6.572   5.612
 2728SOL    HW1 9083   3.759   6.613   5.645
 2728SOL    HW2 9084   3.880   6.626   5.536
 2729SOL     OW 9085   6.730   5.828   1.317
 2729SOL    HW1 9086   6.671   5.773   1.258
 2729SOL    HW2 9087   6.758   5.911   1.267
 2730SOL     OW 9088   2.165   5.178   1.021
 2730SOL    HW1 9089   2.086   5.132   0.981
 2730SOL    HW2 9090   2.187   5.136   1.109
 2731SOL     OW 9091   3.835   3.697   2.183
 2731SOL    HW1 9092   3.863   3.770   2.246
 2731SOL    HW2 9093   3.907   3.681   2.116
 2732SOL     OW 9094   5.356   2.536   1.950
 2732SOL    HW1 9095   5.418   2.506   1.877
 2732SOL    HW2 9096   5.307   2.457   1.988
 2733SOL     OW 9097   0.533   0.253   4.552
 2733SOL    HW1 9098   0.586   0.212   4.626
 2733SOL    HW2 9099   0.593   0.274   4.475
 2734SOL     OW 9100   2.043   5.399   1.810
 2734SOL    HW1 9101   2.092   5.355   1.735
 2734SOL    HW2 9102   2.107   5.452   1.866
 2735SOL     OW 9103   1.015   3.452   3.118
 2735SOL    HW1 9104   1.061   3.512   3.053
 2735SOL    HW2 9105   1.057   3.361   3.115
 2736SOL     OW 9106   4.083   6.749   4.887
 2736SOL    HW1 9107   3.988   6.717   4.898
 2736SOL    HW2 9108   4.106   6.751   4.790
 2737SOL     OW 9109   3.705   3.297   5.827
 2737SOL    HW1 9110   3.699   3.390   5.862
 2737SOL    HW2 9111   3.667   3.293   5.735
 2738SOL     OW 9112   5.492   4.994   3.875
 2738SOL    HW1 9113   5.415   4.959   3.820
 2738SOL    HW2 9114   5.521   4.924   3.940
 2739SOL     OW 9115   0.179   4.742   0.890
 2739SOL    HW1 9116   0.087   4.759   0.924
 2739SOL    HW2 9117   0.202   4.811   0.821
 2740SOL     OW 9118   6.104   3.557   2.789
 2740SOL    HW1 9119   6.009   3.588   2.775
 2740SOL    HW2 9120   6.104   3.461   2.817
 2741SOL     OW 9121   6.062   0.513   5.528
 2741SOL    HW1 9122   6.015   0.443   5.474
 2741SOL    HW2 9123   6.110   0.576   5.466
 2742SOL     OW 9124   2.313   5.274   6.651
 2742SOL    HW1 9125   2.380   5.347   6.641
 2742SOL    HW2 9126   2.221   5.311   6.642
 2743SOL     OW 9127   6.992   5.401   2.235
 2743SOL    HW1 9128   6.939   5.457   2.299
 2743SOL    HW2 9129   0.024   5.336   2.287
 2744SOL     OW 9130   5.293   1.538   6.954
 2744SOL    HW1 9131   5.222   1.609   6.955
 2744SOL    HW2 9132   5.262   1.462   6.897
 2745SOL     OW 9133   0.459   6.751   6.090
 2745SOL    HW1 9134   0.423   6.796   6.172
 2745SOL    HW2 9135   0.393   6.759   6.016
 2746SOL     OW 9136   2.198   2.084   4.120
 2746SOL    HW1 9137   2.232   2.056   4.031
 2746SOL    HW2 9138   2.219   2.181   4.135
 2747SOL     OW 9139   6.021   3.957   5.400
 2747SOL    HW1 9140   5.938   3.985   5.351
 2747SOL    HW2 9141   6.051   3.868   5.367
 2748SOL     OW 9142   4.746   2.104   1.263
 2748SOL    HW1 9143   4.677   2.077   1.197
 2748SOL    HW2 9144   4.815   2.031   1.270
 2749SOL     OW 9145   6.303   4.556   3.464
 2749SOL    HW1 9146   6.377   4.501   3.426
 2749SOL    HW2 9147   6.243   4.586   3.390
 2750SOL     OW 9148   0.753   4.855   1.149
 2750SOL    HW1 9149   0.747   4.850   1.049
 2750SOL    HW2 9150   0.744   4.763   1.187
 2751SOL     OW 9151   0.166   6.355   0.986
 2751SOL    HW1 9152   0.140   6.405   1.069
 2751SOL    HW2 9153   0.264   6.368   0.970
 2752SOL     OW 9154   4.778   4.783   5.508
 2752SOL    HW1 9155   4.865   4.737   5.522
 2752SOL    HW2 9156   4.731   4.795   5.595
 2753SOL     OW 9157   0.624   0.239   5.813
 2753SOL    HW1 9158   0.674   0.176   5.872
 2753SOL    HW2 9159   0.665   0.239   5.722
 2754SOL     OW 9160   7.016   0.424   3.506
 2754SOL    HW1 9161   0.018   0.482   3.584
 2754SOL    HW2 9162   6.921   0.440   3.481
 2755SOL     OW 9163   2.220   0.095   3.925
 2755SOL    HW1 9164   2.290   0.153   3.883
 2755SOL    HW2 9165   2.222   0.108   4.025
 2756SOL     OW 9166   5.524   4.413   5.922
 2756SOL    HW1 9167   5.447   4.468   5.890
 2756SOL    HW2 9168   5.605   4.433   5.868
 2757SOL     OW 9169   2.265   1.448   6.061
 2757SOL    HW1 9170   2.316   1.526   6.097
 2757SOL    HW2 9171   2.207   1.411   6.133
 2758SOL     OW 9172   4.641   6.269   3.020
 2758SOL    HW1 9173   4.593   6.266   2.933
 2758SOL    HW2 9174   4.737   6.291   3.004
 2759SOL     OW 9175   4.836   5.188   5.195
 2759SOL    HW1 9176   4.848   5.092   5.219
 2759SOL    HW2 9177   4.831   5.197   5.096
 2760SOL     OW 9178   0.518   5.994   2.871
 2760SOL    HW1 9179   0.589   5.982   2.801
 2760SOL    HW2 9180   0.529   6.083   2.915
 2761SOL     OW 9181   2.015   4.614   5.035
 2761SOL    HW1 9182   2.073   4.629   4.955
 2761SOL    HW2 9183   2.057   4.546   5.095
 2762SOL     OW 9184   2.078   1.378   6.296
 2762SOL    HW1 9185   2.010   1.352   6.365
 2762SOL    HW2 9186   2.045   1.458   6.246
 2763SOL     OW 9187   4.644   2.133   4.846
 2763SOL    HW1 9188   4.696   2.055   4.880
 2763SOL    HW2 9189   4.546   2.116   4.859
 2764SOL     OW 9190   0.210   0.537   2.184
 2764SOL    HW1 9191   0.218   0.507   2.089
 2764SOL    HW2 9192   0.137   0.605   2.191
 2765SOL     OW 9193   6.453   6.879   1.137
 2765SOL    HW1 9194   6.483   6.891   1.042
 2765SOL    HW2 9195   6.356   6.855   1.139
 2766SOL     OW 9196   4.610   2.710   0.219
 2766SOL    HW1 9197   4.660   2.691   0.304
 2766SOL    HW2 9198   4.639   2.799   0.183
 2767SOL     OW 9199   6.939   5.534   0.031
 2767SOL    HW1 9200   6.935   5.438   0.004
 2767SOL    HW2 9201   6.861   5.583   7.016
 2768SOL     OW 9202   4.528   0.672   1.517
 2768SOL    HW1 9203   4.574   0.705   1.435
 2768SOL    HW2 9204   4.454   0.735   1.542
 2769SOL     OW 9205   2.228   4.128   6.543
 2769SOL    HW1 9206   2.319   4.114   6.502
 2769SOL    HW2 9207   2.217   4.225   6.567
 2770SOL     OW 9208   4.635   5.541   5.510
 2770SOL    HW1 9209   4.616   5.526   5.413
 2770SOL    HW2 9210   4.598   5.629   5.539
 2771SOL     OW 9211   5.736   1.279   4.870
 2771SOL    HW1 9212   5.639   1.285   4.847
 2771SOL    HW2 9213   5.786   1.354   4.826
 2772SOL     OW 9214   3.182   1.335   0.786
 2772SOL    HW1 9215   3.160   1.260   0.724
 2772SOL    HW2 9216   3.240   1.402   0.738
 2773SOL     OW 9217   6.495   2.741   4.133
 2773SOL    HW1 9218   6.521   2.686   4.212
 2773SOL    HW2 9219   6.446   2.684   4.067
 2774SOL     OW 9220   5.591   2.830   3.071
 2774SOL    HW1 9221   5.512   2.836   3.009
 2774SOL    HW2 9222   5.660   2.897   3.042
 2775SOL     OW 9223   6.651   3.567   5.461
 2775SOL    HW1 9224   6.676   3.663   5.457
 2775SOL    HW2 9225   6.733   3.511   5.473
 2776SOL     OW 9226   5.114   4.142   5.875
 2776SOL    HW1 9227   5.168   4.133   5.791
 2776SOL    HW2 9228   5.174   4.147   5.954
 2777SOL     OW 9229   2.734   2.147   1.564
 2777SOL    HW1 9230   2.703   2.218   1.501
 2777SOL    HW2 9231   2.663   2.130   1.633
 2778SOL     OW 9232   0.902   6.626   6.073
 2778SOL    HW1 9233   0.968   6.596   6.005
 2778SOL    HW2 9234   0.842   6.550   6.097
 2779SOL     OW 9235   5.457   6.778   2.242
 2779SOL    HW1 9236   5.527   6.822   2.185
 2779SOL    HW2 9237   5.377   6.836   2.247
 2780SOL     OW 9238   0.332   6.894   5.777
 2780SOL    HW1 9239   0.299   6.803   5.753
 2780SOL    HW2 9240   0.388   6.929   5.702
 2781SOL     OW 9241   5.924   0.618   2.706
 2781SOL    HW1 9242   5.936   0.559   2.785
 2781SOL    HW2 9243   5.866   0.695   2.730
 2782SOL     OW 9244   4.696   1.303   5.422
 2782SOL    HW1 9245   4.744   1.245   5.487
 2782SOL    HW2 9246   4.622   1.251   5.379
 2783SOL     OW 9247   6.203   4.227   2.583
 2783SOL    HW1 9248   6.280   4.177   2.623
 2783SOL    HW2 9249   6.167   4.293   2.648
 2784SOL     OW 9250   3.268   1.474   2.047
 2784SOL    HW1 9251   3.333   1.530   1.995
 2784SOL    HW2 9252   3.293   1.377   2.038
 2785SOL     OW 9253   5.185   2.534   0.797
 2785SOL    HW1 9254   5.248   2.607   0.824
 2785SOL    HW2 9255   5.092   2.569   0.794
 2786SOL     OW 9256   5.874   0.011   2.090
 2786SOL    HW1 9257   5.965   6.999   2.066
 2786SOL    HW2 9258   5.883   0.073   2.168
 2787SOL     OW 9259   5.769   6.504   5.918
 2787SOL    HW1 9260   5.850   6.548   5.957
 2787SOL    HW2 9261   5.689   6.560   5.937
 2788SOL     OW 9262   2.648   6.471   5.606
 2788SOL    HW1 9263   2.649   6.571   5.616
 2788SOL    HW2 9264   2.612   6.430   5.690
 2789SOL     OW 9265   2.159   1.999   3.845
 2789SOL    HW1 9266   2.083   1.952   3.888
 2789SOL    HW2 9267   2.149   1.995   3.745
 2790SOL     OW 9268   3.682   5.229   1.341
 2790SOL    HW1 9269   3.705   5.323   1.363
 2790SOL    HW2 9270   3.599   5.226   1.286
 2791SOL     OW 9271   0.419   3.275   2.461
 2791SOL    HW1 9272   0.446   3.179   2.455
 2791SOL    HW2 9273   0.470   3.319   2.535
 2792SOL     OW 9274   2.432   0.676   3.992
 2792SOL    HW1 9275   2.465   0.596   4.041
 2792SOL    HW2 9276   2.350   0.712   4.037
 2793SOL     OW 9277   4.897   3.575   1.516
 2793SOL    HW1 9278   4.996   3.562   1.509
 2793SOL    HW2 9279   4.867   3.559   1.610
 2794SOL     OW 9280   6.524   1.678   6.239
 2794SOL    HW1 9281   6.574   1.614   6.181
 2794SOL    HW2 9282   6.444   1.632   6.279
 2795SOL     OW 9283   1.317   3.292   1.136
 2795SOL    HW1 9284   1.341   3.234   1.214
 2795SOL    HW2 9285   1.395   3.350   1.112
 2796SOL     OW 9286   0.133   6.396   3.217
 2796SOL    HW1 9287   0.062   6.338   3.176
 2796SOL    HW2 9288   0.091   6.457   3.285
 2797SOL     OW 9289   5.382   5.893   5.048
 2797SOL    HW1 9290   5.357   5.949   5.128
 2797SOL    HW2 9291   5.302   5.844   5.015
 2798SOL     OW 9292   6.489   5.610   2.577
 2798SOL    HW1 9293   6.495   5.637   2.482
 2798SOL    HW2 9294   6.393   5.590   2.600
 2799SOL     OW 9295   5.742   5.808   5.774
 2799SOL    HW1 9296   5.741   5.878   5.703
 2799SOL    HW2 9297   5.814   5.828   5.840
 2800SOL     OW 9298   5.173   6.497   5.624
 2800SOL    HW1 9299   5.114   6.436   5.678
 2800SOL    HW2 9300   5.172   6.467   5.529
 2801SOL     OW 9301   0.480   5.241   5.554
 2801SOL    HW1 9302   0.560   5.275   5.504
 2801SOL    HW2 9303   0.397   5.263   5.503
 2802SOL     OW 9304   5.457   6.698   5.427
 2802SOL    HW1 9305   5.434   6.793   5.451
 2802SOL    HW2 9306   5.435   6.638   5.504
 2803SOL     OW 9307   3.987   5.196   5.591
 2803SOL    HW1 9308   4.004   5.187   5.689
 2803SOL    HW2 9309   3.942   5.284   5.573
 2804SOL     OW 9310   1.093   4.232   5.286
 2804SOL    HW1 9311   1.025   4.303   5.275
 2804SOL    HW2 9312   1.136   4.213   5.197
 2805SOL     OW 9313   6.019   3.297   2.798
 2805SOL    HW1 9314   5.931   3.280   2.843
 2805SOL    HW2 9315   6.089   3.239   2.839
 2806SOL     OW 9316   1.956   3.847   6.170
 2806SOL    HW1 9317   1.993   3.846   6.077
 2806SOL    HW2 9318   2.008   3.783   6.227
 2807SOL     OW 9319   4.599   6.836   3.876
 2807SOL    HW1 9320   4.569   6.753   3.829
 2807SOL    HW2 9321   4.699   6.841   3.876
 2808SOL     OW 9322   6.214   5.225   1.978
 2808SOL    HW1 9323   6.304   5.206   2.017
 2808SOL    HW2 9324   6.210   5.320   1.947
 2809SOL     OW 9325   4.847   3.020   1.353
 2809SOL    HW1 9326   4.789   3.040   1.432
 2809SOL    HW2 9327   4.941   3.049   1.373
 2810SOL     OW 9328   2.396   5.723   2.642
 2810SOL    HW1 9329   2.436   5.684   2.725
 2810SOL    HW2 9330   2.414   5.822   2.640
 2811SOL     OW 9331   1.633   1.811   3.539
 2811SOL    HW1 9332   1.586   1.803   3.451
 2811SOL    HW2 9333   1.607   1.896   3.583
 2812SOL     OW 9334   6.061   3.449   0.480
 2812SOL    HW1 9335   6.143   3.452   0.424
 2812SOL    HW2 9336   5.982   3.474   0.425
 2813SOL     OW 9337   0.632   1.448   0.261
 2813SOL    HW1 9338   0.565   1.382   0.296
 2813SOL    HW2 9339   0.665   1.418   0.172
 2814SOL     OW 9340   3.359   3.988   5.400
 2814SOL    HW1 9341   3.380   4.005   5.304
 2814SOL    HW2 9342   3.410   4.054   5.456
 2815SOL     OW 9343   6.701   4.694   6.402
 2815SOL    HW1 9344   6.698   4.609   6.349
 2815SOL    HW2 9345   6.687   4.673   6.499
 2816SOL     OW 9346   6.704   6.112   4.498
 2816SOL    HW1 9347   6.780   6.088   4.438
 2816SOL    HW2 9348   6.660   6.029   4.533
 2817SOL     OW 9349   3.332   0.375   2.150
 2817SOL    HW1 9350   3.373   0.467   2.154
 2817SOL    HW2 9351   3.258   0.376   2.084
 2818SOL     OW 9352   0.012   1.169   2.228
 2818SOL    HW1 9353   6.989   1.176   2.316
 2818SOL    HW2 9354   0.104   1.208   2.234
 2819SOL     OW 9355   2.205   6.970   1.984
 2819SOL    HW1 9356   2.131   6.915   1.947
 2819SOL    HW2 9357   2.169   0.012   2.051
 2820SOL     OW 9358   1.916   1.837   3.238
 2820SOL    HW1 9359   1.838   1.898   3.253
 2820SOL    HW2 9360   1.935   1.786   3.322
 2821SOL     OW 9361   3.442   4.688   5.720
 2821SOL    HW1 9362   3.465   4.749   5.644
 2821SOL    HW2 9363   3.469   4.595   5.697
 2822SOL     OW 9364   4.431   2.127   0.539
 2822SOL    HW1 9365   4.333   2.139   0.556
 2822SOL    HW2 9366   4.468   2.058   0.601
 2823SOL     OW 9367   5.622   1.228   0.337
 2823SOL    HW1 9368   5.550   1.241   0.269
 2823SOL    HW2 9369   5.710   1.257   0.299
 2824SOL     OW 9370   1.687   1.836   5.462
 2824SOL    HW1 9371   1.663   1.930   5.437
 2824SOL    HW2 9372   1.786   1.831   5.478
 2825SOL     OW 9373   5.278   0.284   5.955
 2825SOL    HW1 9374   5.319   0.214   5.896
 2825SOL    HW2 9375   5.226   0.239   6.028
 2826SOL     OW 9376   4.350   2.706   6.866
 2826SOL    HW1 9377   4.342   2.755   6.779
 2826SOL    HW2 9378   4.432   2.649   6.865
 2827SOL     OW 9379   0.224   0.738   6.596
 2827SOL    HW1 9380   0.320   0.757   6.576
 2827SOL    HW2 9381   0.174   0.724   6.511
 2828SOL     OW 9382   1.765   2.451   0.487
 2828SOL    HW1 9383   1.736   2.391   0.562
 2828SOL    HW2 9384   1.826   2.521   0.522
 2829SOL     OW 9385   3.504   3.292   3.583
 2829SOL    HW1 9386   3.455   3.258   3.663
 2829SOL    HW2 9387   3.520   3.216   3.519
 2830SOL     OW 9388   3.129   4.113   5.015
 2830SOL    HW1 9389   3.154   4.196   5.064
 2830SOL    HW2 9390   3.208   4.080   4.963
 2831SOL     OW 9391   1.097   3.505   3.362
 2831SOL    HW1 9392   1.136   3.419   3.395
 2831SOL    HW2 9393   1.051   3.490   3.275
 2832SOL     OW 9394   0.815   3.058   1.851
 2832SOL    HW1 9395   0.900   3.079   1.899
 2832SOL    HW2 9396   0.798   2.960   1.855
 2833SOL     OW 9397   3.219   1.379   2.370
 2833SOL    HW1 9398   3.187   1.391   2.276
 2833SOL    HW2 9399   3.170   1.441   2.431
 2834SOL     OW 9400   3.759   6.278   5.658
 2834SOL    HW1 9401   3.680   6.310   5.710
 2834SOL    HW2 9402   3.820   6.356   5.639
 2835SOL     OW 9403   0.709   6.723   1.282
 2835SOL    HW1 9404   0.789   6.780   1.303
 2835SOL    HW2 9405   0.726   6.673   1.197
 2836SOL     OW 9406   1.077   6.764   1.597
 2836SOL    HW1 9407   1.132   6.812   1.528
 2836SOL    HW2 9408   1.084   6.665   1.581
 2837SOL     OW 9409   5.269   4.662   2.473
 2837SOL    HW1 9410   5.266   4.761   2.489
 2837SOL    HW2 9411   5.350   4.623   2.518
 2838SOL     OW 9412   4.318   3.835   0.999
 2838SOL    HW1 9413   4.383   3.808   1.071
 2838SOL    HW2 9414   4.286   3.753   0.951
 2839SOL     OW 9415   7.000   2.767   2.896
 2839SOL    HW1 9416   6.937   2.840   2.871
 2839SOL    HW2 9417   0.070   2.804   2.905
 2840SOL     OW 9418   1.502   5.981   2.004
 2840SOL    HW1 9419   1.599   5.997   1.984
 2840SOL    HW2 9420   1.449   5.987   1.919
 2841SOL     OW 9421   5.992   2.199   6.379
 2841SOL    HW1 9422   6.041   2.286   6.387
 2841SOL    HW2 9423   6.025   2.136   6.449
 2842SOL     OW 9424   0.325   5.059   4.358
 2842SOL    HW1 9425   0.358   5.083   4.449
 2842SOL    HW2 9426   0.390   4.996   4.315
 2843SOL     OW 9427   2.808   1.946   2.712
 2843SOL    HW1 9428   2.794   1.925   2.809
 2843SOL    HW2 9429   2.793   2.043   2.697
 2844SOL     OW 9430   6.515   5.342   0.796
 2844SOL    HW1 9431   6.560   5.321   0.709
 2844SOL    HW2 9432   6.578   5.327   0.871
 2845SOL     OW 9433   5.141   3.190   2.301
 2845SOL    HW1 9434   5.227   3.142   2.285
 2845SOL    HW2 9435   5.159   3.287   2.318
 2846SOL     OW 9436   3.926   0.244   0.450
 2846SOL    HW1 9437   4.020   0.274   0.463
 2846SOL    HW2 9438   3.878   0.307   0.389
 2847SOL     OW 9439   5.118   3.883   3.570
 2847SOL    HW1 9440   5.128   3.800   3.514
 2847SOL    HW2 9441   5.183   3.881   3.645
 2848SOL     OW 9442   2.434   2.800   5.765
 2848SOL    HW1 9443   2.348   2.766   5.804
 2848SOL    HW2 9444   2.494   2.830   5.839
 2849SOL     OW 9445   3.211   0.402   1.164
 2849SOL    HW1 9446   3.294   0.441   1.204
 2849SOL    HW2 9447   3.220   0.401   1.065
 2850SOL     OW 9448   2.145   0.239   2.960
 2850SOL    HW1 9449   2.156   0.209   2.865
 2850SOL    HW2 9450   2.225   0.292   2.987
 2851SOL     OW 9451   5.464   2.624   6.651
 2851SOL    HW1 9452   5.554   2.585   6.672
 2851SOL    HW2 9453   5.469   2.724   6.656
 2852SOL     OW 9454   6.143   4.346   0.275
 2852SOL    HW1 9455   6.051   4.371   0.245
 2852SOL    HW2 9456   6.168   4.257   0.237
 2853SOL     OW 9457   1.633   2.499   6.761
 2853SOL    HW1 9458   1.542   2.540   6.764
 2853SOL    HW2 9459   1.662   2.475   6.854
 2854SOL     OW 9460   4.059   0.982   5.648
 2854SOL    HW1 9461   4.014   1.003   5.561
 2854SOL    HW2 9462   4.103   0.892   5.642
 2855SOL     OW 9463   1.220   2.025   5.498
 2855SOL    HW1 9464   1.299   1.965   5.484
 2855SOL    HW2 9465   1.203   2.077   5.415
 2856SOL     OW 9466   0.754   3.311   4.251
 2856SOL    HW1 9467   0.836   3.278   4.205
 2856SOL    HW2 9468   0.684   3.332   4.184
 2857SOL     OW 9469   0.666   2.472   1.651
 2857SOL    HW1 9470   0.694   2.546   1.590
 2857SOL    HW2 9471   0.571   2.445   1.629
 2858SOL     OW 9472   4.178   4.926   2.579
 2858SOL    HW1 9473   4.267   4.935   2.624
 2858SOL    HW2 9474   4.160   4.829   2.561
 2859SOL     OW 9475   6.522   0.010   6.822
 2859SOL    HW1 9476   6.534   6.960   6.890
 2859SOL    HW2 9477   6.440   0.063   6.843
 2860SOL     OW 9478   2.264   0.722   2.587
 2860SOL    HW1 9479   2.237   0.802   2.640
 2860SOL    HW2 9480   2.363   0.724   2.572
 2861SOL     OW 9481   3.104   5.471   5.299
 2861SOL    HW1 9482   3.033   5.462   5.230
 2861SOL    HW2 9483   3.099   5.394   5.362
 2862SOL     OW 9484   4.306   2.414   1.678
 2862SOL    HW1 9485   4.302   2.421   1.578
 2862SOL    HW2 9486   4.401   2.402   1.707
 2863SOL     OW 9487   5.042   1.375   6.336
 2863SOL    HW1 9488   4.986   1.451   6.368
 2863SOL    HW2 9489   5.002   1.336   6.253
 2864SOL     OW 9490   4.737   2.611   0.820
 2864SOL    HW1 9491   4.814   2.632   0.760
 2864SOL    HW2 9492   4.687   2.531   0.785
 2865SOL     OW 9493   4.206   6.332   4.000
 2865SOL    HW1 9494   4.188   6.242   4.038
 2865SOL    HW2 9495   4.305   6.350   4.001
 2866SOL     OW 9496   5.513   4.509   0.229
 2866SOL    HW1 9497   5.565   4.546   0.152
 2866SOL    HW2 9498   5.574   4.491   0.306
 2867SOL     OW 9499   5.870   5.932   3.130
 2867SOL    HW1 9500   5.807   5.877   3.076
 2867SOL    HW2 9501   5.963   5.899   3.116
 2868SOL     OW 9502   1.540   1.031   5.400
 2868SOL    HW1 9503   1.500   0.955   5.349
 2868SOL    HW2 9504   1.591   0.994   5.478
 2869SOL     OW 9505   6.714   0.543   3.124
 2869SOL    HW1 9506   6.686   0.592   3.042
 2869SOL    HW2 9507   6.647   0.558   3.197
 2870SOL     OW 9508   0.729   2.140   5.717
 2870SOL    HW1 9509   0.651   2.179   5.668
 2870SOL    HW2 9510   0.697   2.093   5.799
 2871SOL     OW 9511   5.634   0.706   1.119
 2871SOL    HW1 9512   5.689   0.725   1.200
 2871SOL    HW2 9513   5.560   0.643   1.144
 2872SOL     OW 9514   2.312   2.097   1.068
 2872SOL    HW1 9515   2.330   2.001   1.046
 2872SOL    HW2 9516   2.393   2.137   1.111
 2873SOL     OW 9517   6.659   6.796   2.352
 2873SOL    HW1 9518   6.630   6.842   2.268
 2873SOL    HW2 9519   6.759   6.800   2.360
 2874SOL     OW 9520   4.142   6.621   2.653
 2874SOL    HW1 9521   4.089   6.539   2.673
 2874SOL    HW2 9522   4.238   6.605   2.676
 2875SOL     OW 9523   4.820   7.023   1.674
 2875SOL    HW1 9524   4.808   0.012   1.773
 2875SOL    HW2 9525   4.874   0.076   1.637
 2876SOL     OW 9526   1.963   0.385   3.155
 2876SOL    HW1 9527   1.883   0.419   3.105
 2876SOL    HW2 9528   2.013   0.320   3.097
 2877SOL     OW 9529   2.683   1.267   6.110
 2877SOL    HW1 9530   2.769   1.270   6.060
 2877SOL    HW2 9531   2.669   1.175   6.147
 2878SOL     OW 9532   2.997   3.908   5.132
 2878SOL    HW1 9533   3.047   3.983   5.090
 2878SOL    HW2 9534   3.000   3.828   5.072
 2879SOL     OW 9535   5.456   5.330   5.651
 2879SOL    HW1 9536   5.358   5.349   5.655
 2879SOL    HW2 9537   5.489   5.306   5.742
 2880SOL     OW 9538   0.670   1.447   2.868
 2880SOL    HW1 9539   0.699   1.395   2.948
 2880SOL    HW2 9540   0.743   1.510   2.842
 2881SOL     OW 9541   4.022   5.882   0.338
 2881SOL    HW1 9542   3.965   5.839   0.268
 2881SOL    HW2 9543   4.111   5.836   0.341
 2882SOL     OW 9544   7.007   5.769   1.231
 2882SOL    HW1 9545   6.960   5.735   1.150
 2882SOL    HW2 9546   6.939   5.799   1.299
 2883SOL     OW 9547   5.576   0.039   3.888
 2883SOL    HW1 9548   5.532   0.126   3.910
 2883SOL    HW2 9549   5.675   0.053   3.884
 2884SOL     OW 9550   0.911   6.709   2.744
 2884SOL    HW1 9551   0.956   6.627   2.710
 2884SOL    HW2 9552   0.897   6.774   2.669
 2885SOL     OW 9553   1.641   2.820   4.437
 2885SOL    HW1 9554   1.712   2.889   4.443
 2885SOL    HW2 9555   1.632   2.773   4.525
 2886SOL     OW 9556   1.902   3.526   6.519
 2886SOL    HW1 9557   1.888   3.486   6.609
 2886SOL    HW2 9558   2.000   3.541   6.503
 2887SOL     OW 9559   0.873   0.060   5.169
 2887SOL    HW1 9560   0.913   0.010   5.092
 2887SOL    HW2 9561   0.804   0.124   5.134
 2888SOL     OW 9562   0.341   4.389   6.891
 2888SOL    HW1 9563   0.247   4.360   6.872
 2888SOL    HW2 9564   0.364   4.467   6.833
 2889SOL     OW 9565   2.719   5.960   2.647
 2889SOL    HW1 9566   2.781   5.986   2.573
 2889SOL    HW2 9567   2.625   5.980   2.620
 2890SOL     OW 9568   1.487   6.322   0.677
 2890SOL    HW1 9569   1.535   6.325   0.765
 2890SOL    HW2 9570   1.546   6.357   0.605
 2891SOL     OW 9571   0.837   3.941   3.330
 2891SOL    HW1 9572   0.915   3.878   3.330
 2891SOL    HW2 9573   0.865   4.028   3.372
 2892SOL     OW 9574   6.232   2.955   1.211
 2892SOL    HW1 9575   6.279   3.024   1.265
 2892SOL    HW2 9576   6.289   2.873   1.203
 2893SOL     OW 9577   0.938   5.260   4.464
 2893SOL    HW1 9578   1.029   5.232   4.433
 2893SOL    HW2 9579   0.934   5.256   4.564
 2894SOL     OW 9580   1.191   2.827   1.927
 2894SOL    HW1 9581   1.248   2.828   2.009
 2894SOL    HW2 9582   1.198   2.916   1.881
 2895SOL     OW 9583   5.380   1.272   5.534
 2895SOL    HW1 9584   5.302   1.209   5.534
 2895SOL    HW2 9585   5.456   1.231   5.484
 2896SOL     OW 9586   4.030   7.008   5.465
 2896SOL    HW1 9587   4.103   6.955   5.509
 2896SOL    HW2 9588   3.969   6.947   5.416
 2897SOL     OW 9589   3.731   5.126   2.548
 2897SOL    HW1 9590   3.783   5.209   2.571
 2897SOL    HW2 9591   3.771   5.083   2.467
 2898SOL     OW 9592   4.077   4.849   4.557
 2898SOL    HW1 9593   4.131   4.793   4.495
 2898SOL    HW2 9594   4.118   4.846   4.648
 2899SOL     OW 9595   0.305   1.547   1.094
 2899SOL    HW1 9596   0.289   1.496   1.010
 2899SOL    HW2 9597   0.220   1.554   1.146
 2900SOL     OW 9598   3.774   4.447   6.725
 2900SOL    HW1 9599   3.760   4.357   6.683
 2900SOL    HW2 9600   3.693   4.472   6.778
 2901SOL     OW 9601   2.695   4.676   3.220
 2901SOL    HW1 9602   2.720   4.714   3.309
 2901SOL    HW2 9603   2.764   4.701   3.152
 2902SOL     OW 9604   6.725   4.967   3.087
 2902SOL    HW1 9605   6.781   4.884   3.087
 2902SOL    HW2 9606   6.669   4.970   3.005
 2903SOL     OW 9607   4.046   6.695   0.642
 2903SOL    HW1 9608   4.030   6.621   0.708
 2903SOL    HW2 9609   4.066   6.657   0.552
 2904SOL     OW 9610   2.934   5.178   4.660
 2904SOL    HW1 9611   2.917   5.086   4.696
 2904SOL    HW2 9612   2.855   5.207   4.605
 2905SOL     OW 9613   1.567   3.944   4.177
 2905SOL    HW1 9614   1.658   3.986   4.172
 2905SOL    HW2 9615   1.539   3.916   4.085
 2906SOL     OW 9616   4.619   5.448   2.932
 2906SOL    HW1 9617   4.609   5.539   2.892
 2906SOL    HW2 9618   4.716   5.422   2.930
 2907SOL     OW 9619   0.752   1.569   3.279
 2907SOL    HW1 9620   0.733   1.598   3.373
 2907SOL    HW2 9621   0.705   1.629   3.215
 2908SOL     OW 9622   5.028   0.177   3.423
 2908SOL    HW1 9623   4.992   0.085   3.405
 2908SOL    HW2 9624   4.980   0.216   3.502
 2909SOL     OW 9625   2.091   5.950   4.197
 2909SOL    HW1 9626   2.146   5.972   4.277
 2909SOL    HW2 9627   2.000   5.919   4.226
 2910SOL     OW 9628   5.477   0.282   4.283
 2910SOL    HW1 9629   5.448   0.290   4.378
 2910SOL    HW2 9630   5.474   0.187   4.254
 2911SOL     OW 9631   2.054   5.771   3.954
 2911SOL    HW1 9632   2.081   5.838   3.885
 2911SOL    HW2 9633   1.954   5.767   3.959
 2912SOL     OW 9634   6.146   6.909   0.749
 2912SOL    HW1 9635   6.198   6.939   0.829
 2912SOL    HW2 9636   6.184   6.950   0.667
 2913SOL     OW 9637   3.915   4.840   2.000
 2913SOL    HW1 9638   3.909   4.940   2.001
 2913SOL    HW2 9639   3.825   4.801   1.979
 2914SOL     OW 9640   6.071   6.007   6.508
 2914SOL    HW1 9641   6.160   5.973   6.476
 2914SOL    HW2 9642   6.086   6.083   6.572
 2915SOL     OW 9643   3.318   2.092   3.466
 2915SOL    HW1 9644   3.376   2.110   3.545
 2915SOL    HW2 9645   3.225   2.074   3.496
 2916SOL     OW 9646   1.070   5.786   0.524
 2916SOL    HW1 9647   1.163   5.755   0.548
 2916SOL    HW2 9648   1.068   5.886   0.523
 2917SOL     OW 9649   2.739   6.997   3.863
 2917SOL    HW1 9650   2.660   7.017   3.922
 2917SOL    HW2 9651   2.748   0.046   3.794
 2918SOL     OW 9652   6.116   4.245   5.298
 2918SOL    HW1 9653   6.019   4.265   5.290
 2918SOL    HW2 9654   6.166   4.288   5.223
 2919SOL     OW 9655   6.121   0.579   2.508
 2919SOL    HW1 9656   6.072   0.555   2.425
 2919SOL    HW2 9657   6.056   0.599   2.581
 2920SOL     OW 9658   2.645   1.233   1.120
 2920SOL    HW1 9659   2.660   1.229   1.022
 2920SOL    HW2 9660   2.551   1.208   1.141
 2921SOL     OW 9661   0.763   0.297   5.078
 2921SOL    HW1 9662   0.709   0.374   5.113
 2921SOL    HW2 9663   0.859   0.322   5.074
 2922SOL     OW 9664   4.819   6.524   1.679
 2922SOL    HW1 9665   4.865   6.566   1.600
 2922SOL    HW2 9666   4.779   6.436   1.651
 2923SOL     OW 9667   6.348   5.809   3.581
 2923SOL    HW1 9668   6.343   5.878   3.508
 2923SOL    HW2 9669   6.277   5.827   3.649
 2924SOL     OW 9670   6.536   2.484   5.417
 2924SOL    HW1 9671   6.627   2.445   5.407
 2924SOL    HW2 9672   6.476   2.417   5.462
 2925SOL     OW 9673   6.037   2.304   0.361
 2925SOL    HW1 9674   5.982   2.288   0.279
 2925SOL    HW2 9675   6.009   2.240   0.432
 2926SOL     OW 9676   5.958   2.124   6.753
 2926SOL    HW1 9677   5.969   2.221   6.731
 2926SOL    HW2 9678   6.011   2.069   6.689
 2927SOL     OW 9679   1.860   3.493   1.136
 2927SOL    HW1 9680   1.946   3.517   1.091
 2927SOL    HW2 9681   1.819   3.575   1.174
 2928SOL     OW 9682   6.568   0.826   6.621
 2928SOL    HW1 9683   6.520   0.764   6.683
 2928SOL    HW2 9684   6.645   0.868   6.669
 2929SOL     OW 9685   1.171   2.547   5.905
 2929SOL    HW1 9686   1.214   2.460   5.926
 2929SOL    HW2 9687   1.239   2.620   5.910
 2930SOL     OW 9688   5.367   6.954   5.456
 2930SOL    HW1 9689   5.300   6.968   5.529
 2930SOL    HW2 9690   5.418   0.016   5.440
 2931SOL     OW 9691   5.010   4.985   0.187
 2931SOL    HW1 9692   4.975   5.069   0.229
 2931SOL    HW2 9693   4.950   4.909   0.210
 2932SOL     OW 9694   1.040   5.775   1.967
 2932SOL    HW1 9695   1.070   5.816   2.053
 2932SOL    HW2 9696   1.062   5.677   1.968
 2933SOL     OW 9697   1.934   6.465   2.289
 2933SOL    HW1 9698   1.885   6.470   2.202
 2933SOL    HW2 9699   1.937   6.370   2.320
 2934SOL     OW 9700   5.352   2.259   6.936
 2934SOL    HW1 9701   5.450   2.242   6.930
 2934SOL    HW2 9702   5.321   2.246   0.007
 2935SOL     OW 9703   6.834   3.173   6.410
 2935SOL    HW1 9704   6.793   3.082   6.403
 2935SOL    HW2 9705   6.761   3.242   6.411
 2936SOL     OW 9706   4.582   6.090   0.355
 2936SOL    HW1 9707   4.599   6.091   0.257
 2936SOL    HW2 9708   4.659   6.134   0.403
 2937SOL     OW 9709   5.584   5.010   1.368
 2937SOL    HW1 9710   5.508   5.074   1.378
 2937SOL    HW2 9711   5.648   5.046   1.300
 2938SOL     OW 9712   5.308   4.650   0.115
 2938SOL    HW1 9713   5.388   4.594   0.138
 2938SOL    HW2 9714   5.225   4.597   0.130
 2939SOL     OW 9715   2.525   0.608   1.942
 2939SOL    HW1 9716   2.569   0.696   1.958
 2939SOL    HW2 9717   2.517   0.591   1.844
 2940SOL     OW 9718   5.505   4.994   5.431
 2940SOL    HW1 9719   5.550   4.927   5.489
 2940SOL    HW2 9720   5.517   4.969   5.335
 2941SOL     OW 9721   1.647   2.076   4.337
 2941SOL    HW1 9722   1.690   2.142   4.399
 2941SOL    HW2 9723   1.608   2.125   4.259
 2942SOL     OW 9724   3.728   1.798   0.829
 2942SOL    HW1 9725   3.731   1.834   0.736
 2942SOL    HW2 9726   3.669   1.855   0.886
 2943SOL     OW 9727   5.928   3.858   3.881
 2943SOL    HW1 9728   5.996   3.906   3.938
 2943SOL    HW2 9729   5.965   3.848   3.788
 2944SOL     OW 9730   2.789   5.971   4.019
 2944SOL    HW1 9731   2.707   5.922   3.989
 2944SOL    HW2 9732   2.764   6.039   4.088
 2945SOL     OW 9733   4.054   3.345   1.644
 2945SOL    HW1 9734   4.104   3.293   1.714
 2945SOL    HW2 9735   4.072   3.442   1.657
 2946SOL     OW 9736   1.883   4.883   6.334
 2946SOL    HW1 9737   1.923   4.911   6.247
 2946SOL    HW2 9738   1.948   4.826   6.384
 2947SOL     OW 9739   0.660   5.827   1.524
 2947SOL    HW1 9740   0.654   5.793   1.431
 2947SOL    HW2 9741   0.737   5.782   1.571
 2948SOL     OW 9742   0.006   4.581   4.403
 2948SOL    HW1 9743   0.090   4.563   4.351
 2948SOL    HW2 9744   0.010   4.532   4.490
 2949SOL     OW 9745   1.189   5.662   1.401
 2949SOL    HW1 9746   1.207   5.641   1.305
 2949SOL    HW2 9747   1.116   5.603   1.434
 2950SOL     OW 9748   5.718   5.871   4.290
 2950SOL    HW1 9749   5.743   5.952   4.237
 2950SOL    HW2 9750   5.682   5.801   4.228
 2951SOL     OW 9751   5.500   1.919   2.178
 2951SOL    HW1 9752   5.494   1.881   2.270
 2951SOL    HW2 9753   5.446   1.863   2.115
 2952SOL     OW 9754   0.091   5.958   5.373
 2952SOL    HW1 9755   0.084   6.052   5.341
 2952SOL    HW2 9756   0.176   5.945   5.424
 2953SOL     OW 9757   6.270   3.814   3.050
 2953SOL    HW1 9758   6.246   3.834   2.955
 2953SOL    HW2 9759   6.339   3.742   3.053
 2954SOL     OW 9760   1.380   5.331   1.866
 2954SOL    HW1 9761   1.374   5.429   1.882
 2954SOL    HW2 9762   1.298   5.300   1.817
 2955SOL     OW 9763   1.073   4.529   1.459
 2955SOL    HW1 9764   1.113   4.612   1.420
 2955SOL    HW2 9765   1.111   4.513   1.550
 2956SOL     OW 9766   5.482   6.009   3.034
 2956SOL    HW1 9767   5.401   6.056   3.001
 2956SOL    HW2 9768   5.559   6.072   3.036
 2957SOL     OW 9769   5.366   4.140   1.647
 2957SOL    HW1 9770   5.426   4.206   1.603
 2957SOL    HW2 9771   5.315   4.089   1.578
 2958SOL     OW 9772   2.412   4.304   3.740
 2958SOL    HW1 9773   2.415   4.404   3.743
 2958SOL    HW2 9774   2.372   4.274   3.653
 2959SOL     OW 9775   4.880   3.562   1.816
 2959SOL    HW1 9776   4.951   3.620   1.776
 2959SOL    HW2 9777   4.909   3.530   1.906
 2960SOL     OW 9778   3.110   0.372   0.436
 2960SOL    HW1 9779   3.014   0.360   0.462
 2960SOL    HW2 9780   3.149   0.284   0.409
 2961SOL     OW 9781   5.485   4.594   3.360
 2961SOL    HW1 9782   5.500   4.629   3.452
 2961SOL    HW2 9783   5.445   4.666   3.303
 2962SOL     OW 9784   4.471   6.090   3.542
 2962SOL    HW1 9785   4.571   6.087   3.539
 2962SOL    HW2 9786   4.441   6.086   3.638
 2963SOL     OW 9787   1.345   0.906   6.994
 2963SOL    HW1 9788   1.379   1.000   7.007
 2963SOL    HW2 9789   1.376   0.872   6.905
 2964SOL     OW 9790   6.951   1.574   5.002
 2964SOL    HW1 9791   6.970   1.597   4.906
 2964SOL    HW2 9792   6.887   1.497   5.006
 2965SOL     OW 9793   0.667   0.643   4.759
 2965SOL    HW1 9794   0.741   0.703   4.791
 2965SOL    HW2 9795   0.607   0.694   4.698
 2966SOL     OW 9796   4.574   4.951   3.387
 2966SOL    HW1 9797   4.550   5.042   3.353
 2966SOL    HW2 9798   4.668   4.951   3.420
 2967SOL     OW 9799   5.834   1.024   5.554
 2967SOL    HW1 9800   5.745   1.046   5.595
 2967SOL    HW2 9801   5.851   0.926   5.562
 2968SOL     OW 9802   0.939   2.558   0.625
 2968SOL    HW1 9803   0.841   2.539   0.628
 2968SOL    HW2 9804   0.984   2.510   0.700
 2969SOL     OW 9805   4.656   2.177   4.343
 2969SOL    HW1 9806   4.661   2.079   4.358
 2969SOL    HW2 9807   4.674   2.225   4.429
 2970SOL     OW 9808   2.782   3.064   5.297
 2970SOL    HW1 9809   2.689   3.050   5.263
 2970SOL    HW2 9810   2.791   3.022   5.387
 2971SOL     OW 9811   4.951   4.047   0.848
 2971SOL    HW1 9812   4.877   3.979   0.851
 2971SOL    HW2 9813   4.971   4.070   0.753
 2972SOL     OW 9814   6.508   4.724   6.673
 2972SOL    HW1 9815   6.543   4.681   6.757
 2972SOL    HW2 9816   6.433   4.669   6.636
 2973SOL     OW 9817   5.523   5.767   1.859
 2973SOL    HW1 9818   5.467   5.713   1.797
 2973SOL    HW2 9819   5.616   5.774   1.824
 2974SOL     OW 9820   0.094   4.666   3.657
 2974SOL    HW1 9821   0.189   4.664   3.626
 2974SOL    HW2 9822   0.050   4.750   3.625
 2975SOL     OW 9823   4.974   3.974   4.133
 2975SOL    HW1 9824   4.955   3.878   4.156
 2975SOL    HW2 9825   4.896   4.031   4.158
 2976SOL     OW 9826   4.357   2.455   2.718
 2976SOL    HW1 9827   4.377   2.546   2.683
 2976SOL    HW2 9828   4.413   2.388   2.670
 2977SOL     OW 9829   1.320   0.710   2.806
 2977SOL    HW1 9830   1.312   0.745   2.712
 2977SOL    HW2 9831   1.232   0.672   2.835
 2978SOL     OW 9832   3.729   4.829   6.885
 2978SOL    HW1 9833   3.812   4.822   6.939
 2978SOL    HW2 9834   3.676   4.908   6.915
 2979SOL     OW 9835   3.562   1.371   4.014
 2979SOL    HW1 9836   3.547   1.422   4.099
 2979SOL    HW2 9837   3.498   1.294   4.010
 2980SOL     OW 9838   1.783   5.460   5.413
 2980SOL    HW1 9839   1.812   5.547   5.373
 2980SOL    HW2 9840   1.779   5.390   5.342
 2981SOL     OW 9841   2.739   1.093   6.568
 2981SOL    HW1 9842   2.658   1.036   6.552
 2981SOL    HW2 9843   2.711   1.183   6.600
 2982SOL     OW 9844   3.122   5.313   1.187
 2982SOL    HW1 9845   3.188   5.389   1.186
 2982SOL    HW2 9846   3.093   5.297   1.281
 2983SOL     OW 9847   6.247   2.433   2.394
 2983SOL    HW1 9848   6.178   2.370   2.429
 2983SOL    HW2 9849   6.276   2.403   2.303
 2984SOL     OW 9850   5.899   4.718   0.166
 2984SOL    HW1 9851   5.858   4.643   0.113
 2984SOL    HW2 9852   5.959   4.681   0.236
 2985SOL     OW 9853   2.119   2.757   4.580
 2985SOL    HW1 9854   2.083   2.669   4.549
 2985SOL    HW2 9855   2.098   2.769   4.677
 2986SOL     OW 9856   3.621   4.156   2.873
 2986SOL    HW1 9857   3.694   4.119   2.930
 2986SOL    HW2 9858   3.632   4.255   2.866
 2987SOL     OW 9859   1.468   1.632   3.982
 2987SOL    HW1 9860   1.498   1.682   4.063
 2987SOL    HW2 9861   1.503   1.538   3.987
 2988SOL     OW 9862   1.783   7.021   2.565
 2988SOL    HW1 9863   1.783   0.094   2.592
 2988SOL    HW2 9864   1.775   6.964   2.646
 2989SOL     OW 9865   4.897   4.951   5.918
 2989SOL    HW1 9866   4.880   4.955   6.017
 2989SOL    HW2 9867   4.840   5.019   5.872
 2990SOL     OW 9868   3.533   1.548   4.230
 2990SOL    HW1 9869   3.594   1.617   4.269
 2990SOL    HW2 9870   3.440   1.564   4.263
 2991SOL     OW 9871   6.286   3.630   5.729
 2991SOL    HW1 9872   6.201   3.587   5.697
 2991SOL    HW2 9873   6.356   3.621   5.658
 2992SOL     OW 9874   1.183   5.307   4.697
 2992SOL    HW1 9875   1.259   5.316   4.633
 2992SOL    HW2 9876   1.177   5.389   4.753
 2993SOL     OW 9877   0.366   4.913   1.457
 2993SOL    HW1 9878   0.427   4.990   1.438
 2993SOL    HW2 9879   0.351   4.907   1.555
 2994SOL     OW 9880   4.072   6.563   6.864
 2994SOL    HW1 9881   4.086   6.650   6.911
 2994SOL    HW2 9882   4.048   6.492   6.930
 2995SOL     OW 9883   3.618   1.573   6.649
 2995SOL    HW1 9884   3.581   1.520   6.725
 2995SOL    HW2 9885   3.542   1.609   6.594
 2996SOL     OW 9886   0.459   1.376   4.953
 2996SOL    HW1 9887   0.468   1.409   5.047
 2996SOL    HW2 9888   0.549   1.375   4.910
 2997SOL     OW 9889   4.729   0.396   3.068
 2997SOL    HW1 9890   4.727   0.485   3.113
 2997SOL    HW2 9891   4.636   0.370   3.041
 2998SOL     OW 9892   5.204   6.915   3.741
 2998SOL    HW1 9893   5.235   6.823   3.763
 2998SOL    HW2 9894   5.147   6.912   3.659
 2999SOL     OW 9895   2.343   5.008   5.568
 2999SOL    HW1 9896   2.437   4.990   5.538
 2999SOL    HW2 9897   2.287   4.927   5.552
 3000SOL     OW 9898   3.064   4.356   6.148
 3000SOL    HW1 9899   3.004   4.392   6.220
 3000SOL    HW2 9900   3.103   4.433   6.096
 3001SOL     OW 9901   6.929   1.092   0.065
 3001SOL    HW1 9902   6.958   1.008   0.019
 3001SOL    HW2 9903   6.847   1.128   0.021
 3002SOL     OW 9904   3.318   1.902   6.940
 3002SOL    HW1 9905   3.409   1.886   6.901
 3002SOL    HW2 9906   3.283   1.817   6.978
 3003SOL     OW 9907   0.675   6.555   1.029
 3003SOL    HW1 9908   0.632   6.629   0.978
 3003SOL    HW2 9909   0.728   6.497   0.967
 3004SOL     OW 9910   0.766   4.226   2.666
 3004SOL    HW1 9911   0.775   4.222   2.566
 3004SOL    HW2 9912   0.673   4.251   2.690
 3005SOL     OW 9913   1.320   2.444   0.057
 3005SOL    HW1 9914   1.405   2.400   0.026
 3005SOL    HW2 9915   1.244   2.380   0.044
 3006SOL     OW 9916   5.334   2.107   4.167
 3006SOL    HW1 9917   5.284   2.067   4.244
 3006SOL    HW2 9918   5.414   2.051   4.146
 3007SOL     OW 9919   5.830   3.925   0.874
 3007SOL    HW1 9920   5.860   3.856   0.809
 3007SOL    HW2 9921   5.813   3.883   0.963
 3008SOL     OW 9922   3.301   2.718   6.276
 3008SOL    HW1 9923   3.313   2.679   6.184
 3008SOL    HW2 9924   3.203   2.732   6.293
 3009SOL     OW 9925   6.648   2.658   2.893
 3009SOL    HW1 9926   6.577   2.669   2.963
 3009SOL    HW2 9927   6.716   2.591   2.924
 3010SOL     OW 9928   2.982   5.618   3.197
 3010SOL    HW1 9929   2.891   5.623   3.238
 3010SOL    HW2 9930   3.022   5.709   3.191
 3011SOL     OW 9931   5.519   1.301   3.050
 3011SOL    HW1 9932   5.558   1.351   3.127
 3011SOL    HW2 9933   5.472   1.365   2.989
 3012SOL     OW 9934   2.621   3.351   6.468
 3012SOL    HW1 9935   2.676   3.423   6.509
 3012SOL    HW2 9936   2.527   3.355   6.503
 3013SOL     OW 9937   5.567   5.419   3.985
 3013SOL    HW1 9938   5.583   5.384   3.892
 3013SOL    HW2 9939   5.477   5.463   3.989
 3014SOL     OW 9940   4.728   2.202   5.603
 3014SOL    HW1 9941   4.773   2.113   5.606
 3014SOL    HW2 9942   4.629   2.188   5.592
 3015SOL     OW 9943   1.838   1.804   0.006
 3015SOL    HW1 9944   1.886   1.786   6.944
 3015SOL    HW2 9945   1.903   1.836   0.075
 3016SOL     OW 9946   2.873   6.232   4.435
 3016SOL    HW1 9947   2.918   6.159   4.488
 3016SOL    HW2 9948   2.889   6.320   4.480
 3017SOL     OW 9949   6.212   5.673   2.177
 3017SOL    HW1 9950   6.194   5.766   2.145
 3017SOL    HW2 9951   6.161   5.656   2.262
 3018SOL     OW 9952   3.036   0.334   6.576
 3018SOL    HW1 9953   2.997   0.260   6.631
 3018SOL    HW2 9954   3.107   0.297   6.516
 3019SOL     OW 9955   0.518   0.031   6.479
 3019SOL    HW1 9956   0.426   0.064   6.502
 3019SOL    HW2 9957   0.518   6.954   6.481
 3020SOL     OW 9958   3.835   2.942   0.936
 3020SOL    HW1 9959   3.767   2.922   0.865
 3020SOL    HW2 9960   3.916   2.982   0.895
 3021SOL     OW 9961   3.624   0.121   5.378
 3021SOL    HW1 9962   3.686   0.132   5.300
 3021SOL    HW2 9963   3.549   0.060   5.352
 3022SOL     OW 9964   4.078   5.276   4.876
 3022SOL    HW1 9965   3.991   5.319   4.899
 3022SOL    HW2 9966   4.107   5.217   4.951
 3023SOL     OW 9967   4.209   6.453   2.963
 3023SOL    HW1 9968   4.109   6.461   2.965
 3023SOL    HW2 9969   4.242   6.420   3.051
 3024SOL     OW 9970   5.540   6.684   4.496
 3024SOL    HW1 9971   5.441   6.678   4.497
 3024SOL    HW2 9972   5.575   6.692   4.589
 3025SOL     OW 9973   4.129   6.317   1.290
 3025SOL    HW1 9974   4.035   6.350   1.298
 3025SOL    HW2 9975   4.156   6.314   1.194
 3026SOL     OW 9976   0.382   1.325   5.993
 3026SOL    HW1 9977   0.342   1.299   6.081
 3026SOL    HW2 9978   0.309   1.345   5.928
 3027SOL     OW 9979   4.026   1.503   3.064
 3027SOL    HW1 9980   3.929   1.526   3.074
 3027SOL    HW2 9981   4.048   1.426   3.125
 3028SOL     OW 9982   1.229   3.605   5.886
 3028SOL    HW1 9983   1.276   3.522   5.857
 3028SOL    HW2 9984   1.166   3.635   5.814
 3029SOL     OW 9985   0.700   3.130   4.935
 3029SOL    HW1 9986   0.773   3.176   4.985
 3029SOL    HW2 9987   0.621   3.118   4.995
 3030SOL     OW 9988   1.132   2.984   0.702
 3030SOL    HW1 9989   1.131   3.052   0.775
 3030SOL    HW2 9990   1.142   3.030   0.614
 3031SOL     OW 9991   0.206   5.064   1.126
 3031SOL    HW1 9992   0.263   4.985   1.149
 3031SOL    HW2 9993   0.263   5.146   1.121
 3032SOL     OW 9994   2.145   6.954   1.500
 3032SOL    HW1 9995   2.120   0.028   1.491
 3032SOL    HW2 9996   2.220   6.946   1.566
 3033SOL     OW 9997   5.524   1.163   1.813
 3033SOL    HW1 9998   5.588   1.234   1.841
 3033SOL    HW2 9999   5.459   1.145   1.886
 3034SOL     OW10000   1.041   0.362   3.215
 3034SOL    HW110001   0.950   0.379   3.175
 3034SOL    HW210002   1.035   0.368   3.315
 3035SOL     OW10003   0.640   2.872   5.972
 3035SOL    HW110004   0.637   2.940   6.044
 3035SOL    HW210005   0.552   2.871   5.923
 3036SOL     OW10006   1.528   2.057   5.613
 3036SOL    HW110007   1.520   2.157   5.609
 3036SOL    HW210008   1.497   2.018   5.527
 3037SOL     OW10009   6.237   5.358   6.287
 3037SOL    HW110010   6.337   5.350   6.280
 3037SOL    HW210011   6.208   5.447   6.251
 3038SOL     OW10012   5.185   5.259   5.734
 3038SOL    HW110013   5.275   5.227   5.765
 3038SOL    HW210014   5.127   5.276   5.814
 3039SOL     OW10015   0.941   3.130   1.494
 3039SOL    HW110016   0.878   3.137   1.571
 3039SOL    HW210017   0.978   3.221   1.474
 3040SOL     OW10018   3.184   4.095   6.083
 3040SOL    HW110019   3.140   4.013   6.048
 3040SOL    HW210020   3.115   4.158   6.119
 3041SOL     OW10021   1.751   4.197   5.730
 3041SOL    HW110022   1.851   4.196   5.733
 3041SOL    HW210023   1.719   4.138   5.656
 3042SOL     OW10024   6.403   6.101   3.179
 3042SOL    HW110025   6.493   6.133   3.206
 3042SOL    HW210026   6.397   6.097   3.080
 3043SOL     OW10027   2.872   3.913   1.778
 3043SOL    HW110028   2.942   3.867   1.833
 3043SOL    HW210029   2.910   3.997   1.739
 3044SOL     OW10030   3.693   5.624   5.742
 3044SOL    HW110031   3.708   5.723   5.740
 3044SOL    HW210032   3.606   5.603   5.696
 3045SOL     OW10033   4.910   6.978   3.303
 3045SOL    HW110034   4.884   6.886   3.275
 3045SOL    HW210035   4.888   0.020   3.231
 3046SOL     OW10036   3.457   1.182   6.067
 3046SOL    HW110037   3.520   1.217   6.136
 3046SOL    HW210038   3.378   1.243   6.061
 3047SOL     OW10039   6.239   0.587   1.792
 3047SOL    HW110040   6.322   0.619   1.839
 3047SOL    HW210041   6.196   0.664   1.745
 3048SOL     OW10042   4.167   2.362   1.381
 3048SOL    HW110043   4.188   2.439   1.321
 3048SOL    HW210044   4.067   2.350   1.386
 3049SOL     OW10045   1.575   7.006   3.303
 3049SOL    HW110046   1.620   6.918   3.284
 3049SOL    HW210047   1.566   7.018   3.402
 3050SOL     OW10048   2.953   1.969   1.822
 3050SOL    HW110049   3.016   2.044   1.842
 3050SOL    HW210050   2.957   1.948   1.724
 3051SOL     OW10051   1.916   6.203   6.578
 3051SOL    HW110052   1.910   6.160   6.488
 3051SOL    HW210053   2.003   6.178   6.621
 3052SOL     OW10054   5.014   5.438   1.732
 3052SOL    HW110055   5.016   5.420   1.634
 3052SOL    HW210056   5.038   5.533   1.750
 3053SOL     OW10057   6.786   2.923   1.018
 3053SOL    HW110058   6.747   2.989   1.083
 3053SOL    HW210059   6.865   2.879   1.060
 3054SOL     OW10060   6.003   2.318   1.388
 3054SOL    HW110061   5.913   2.355   1.368
 3054SOL    HW210062   6.070   2.392   1.388
 3055SOL     OW10063   5.216   0.169   4.989
 3055SOL    HW110064   5.242   0.265   4.983
 3055SOL    HW210065   5.291   0.111   4.957
 3056SOL     OW10066   5.989   0.957   5.908
 3056SOL    HW110067   6.014   1.014   5.986
 3056SOL    HW210068   5.892   0.972   5.886
 3057SOL     OW10069   4.127   5.170   3.706
 3057SOL    HW110070   4.151   5.119   3.623
 3057SOL    HW210071   4.055   5.122   3.755
 3058SOL     OW10072   0.416   4.560   0.893
 3058SOL    HW110073   0.454   4.543   0.984
 3058SOL    HW210074   0.329   4.609   0.902
 3059SOL     OW10075   2.821   1.796   4.105
 3059SOL    HW110076   2.856   1.866   4.166
 3059SOL    HW210077   2.740   1.830   4.057
 3060SOL     OW10078   1.502   5.309   0.333
 3060SOL    HW110079   1.582   5.303   0.274
 3060SOL    HW210080   1.529   5.345   0.422
 3061SOL     OW10081   6.760   5.958   5.808
 3061SOL    HW110082   6.738   6.044   5.853
 3061SOL    HW210083   6.859   5.946   5.807
 3062SOL     OW10084   2.224   0.222   1.077
 3062SOL    HW110085   2.233   0.131   1.038
 3062SOL    HW210086   2.139   0.228   1.130
 3063SOL     OW10087   1.779   4.575   1.534
 3063SOL    HW110088   1.806   4.649   1.473
 3063SOL    HW210089   1.738   4.614   1.617
 3064SOL     OW10090   5.085   3.172   1.019
 3064SOL    HW110091   5.131   3.245   0.969
 3064SOL    HW210092   5.004   3.208   1.064
 3065SOL     OW10093   1.665   2.428   6.505
 3065SOL    HW110094   1.662   2.423   6.605
 3065SOL    HW210095   1.645   2.522   6.476
 3066SOL     OW10096   5.214   4.456   0.564
 3066SOL    HW110097   5.294   4.408   0.530
 3066SOL    HW210098   5.241   4.545   0.601
 3067SOL     OW10099   3.829   1.702   6.466
 3067SOL    HW110100   3.757   1.658   6.519
 3067SOL    HW210101   3.800   1.710   6.371
 3068SOL     OW10102   6.884   6.518   1.088
 3068SOL    HW110103   6.954   6.519   1.159
 3068SOL    HW210104   6.850   6.425   1.075
 3069SOL     OW10105   6.852   6.213   2.245
 3069SOL    HW110106   6.827   6.233   2.150
 3069SOL    HW210107   6.906   6.289   2.283
 3070SOL     OW10108   2.870   1.606   6.961
 3070SOL    HW110109   2.773   1.601   6.937
 3070SOL    HW210110   2.921   1.644   6.883
 3071SOL     OW10111   6.498   6.593   4.104
 3071SOL    HW110112   6.496   6.544   4.017
 3071SOL    HW210113   6.588   6.633   4.118
 3072SOL     OW10114   2.580   5.649   6.236
 3072SOL    HW110115   2.571   5.706   6.318
 3072SOL    HW210116   2.559   5.705   6.155
 3073SOL     OW10117   0.052   3.561   3.779
 3073SOL    HW110118   0.050   3.532   3.684
 3073SOL    HW210119   6.989   3.606   3.802
 3074SOL     OW10120   6.952   4.045   0.976
 3074SOL    HW110121   6.959   4.109   1.052
 3074SOL    HW210122   6.920   4.094   0.894
 3075SOL     OW10123   2.327   5.473   2.544
 3075SOL    HW110124   2.336   5.570   2.568
 3075SOL    HW210125   2.407   5.445   2.491
 3076SOL     OW10126   6.354   1.193   3.618
 3076SOL    HW110127   6.310   1.273   3.661
 3076SOL    HW210128   6.447   1.218   3.591
 3077SOL     OW10129   5.580   4.622   1.690
 3077SOL    HW110130   5.537   4.594   1.776
 3077SOL    HW210131   5.661   4.677   1.710
 3078SOL     OW10132   0.139   3.294   2.983
 3078SOL    HW110133   0.202   3.336   3.048
 3078SOL    HW210134   0.188   3.228   2.926
 3079SOL     OW10135   2.929   2.174   3.276
 3079SOL    HW110136   2.915   2.137   3.369
 3079SOL    HW210137   2.846   2.159   3.222
 3080SOL     OW10138   6.178   5.046   2.454
 3080SOL    HW110139   6.252   5.037   2.387
 3080SOL    HW210140   6.197   5.124   2.513
 3081SOL     OW10141   1.303   4.081   6.385
 3081SOL    HW110142   1.306   3.988   6.420
 3081SOL    HW210143   1.264   4.081   6.293
 3082SOL     OW10144   2.047   5.662   4.241
 3082SOL    HW110145   2.050   5.569   4.205
 3082SOL    HW210146   2.063   5.727   4.167
 3083SOL     OW10147   2.925   5.779   3.481
 3083SOL    HW110148   2.969   5.853   3.532
 3083SOL    HW210149   2.986   5.700   3.479
 3084SOL     OW10150   6.512   3.837   3.884
 3084SOL    HW110151   6.543   3.857   3.977
 3084SOL    HW210152   6.542   3.745   3.858
 3085SOL     OW10153   6.777   4.045   0.477
 3085SOL    HW110154   6.704   3.978   0.490
 3085SOL    HW210155   6.861   3.999   0.447
 3086SOL     OW10156   5.105   1.671   0.679
 3086SOL    HW110157   5.054   1.631   0.603
 3086SOL    HW210158   5.110   1.770   0.667
 3087SOL     OW10159   2.060   6.723   3.728
 3087SOL    HW110160   2.059   6.660   3.805
 3087SOL    HW210161   1.985   6.700   3.665
 3088SOL     OW10162   2.181   4.626   4.829
 3088SOL    HW110163   2.169   4.568   4.748
 3088SOL    HW210164   2.250   4.586   4.889
 3089SOL     OW10165   3.463   1.840   4.446
 3089SOL    HW110166   3.467   1.836   4.546
 3089SOL    HW210167   3.402   1.768   4.412
 3090SOL     OW10168   2.169   1.533   1.852
 3090SOL    HW110169   2.110   1.546   1.772
 3090SOL    HW210170   2.114   1.531   1.935
 3091SOL     OW10171   1.313   1.011   0.970
 3091SOL    HW110172   1.276   1.096   0.933
 3091SOL    HW210173   1.320   1.018   1.070
 3092SOL     OW10174   5.656   0.346   1.021
 3092SOL    HW110175   5.617   0.427   1.064
 3092SOL    HW210176   5.584   0.293   0.976
 3093SOL     OW10177   5.340   5.818   6.824
 3093SOL    HW110178   5.294   5.804   6.911
 3093SOL    HW210179   5.272   5.826   6.751
 3094SOL     OW10180   2.148   0.746   4.090
 3094SOL    HW110181   2.072   0.801   4.125
 3094SOL    HW210182   2.111   0.675   4.029
 3095SOL     OW10183   2.496   4.057   5.469
 3095SOL    HW110184   2.555   3.987   5.509
 3095SOL    HW210185   2.474   4.031   5.375
 3096SOL     OW10186   0.883   5.315   4.943
 3096SOL    HW110187   0.934   5.250   4.999
 3096SOL    HW210188   0.795   5.334   4.986
 3097SOL     OW10189   5.801   3.680   6.749
 3097SOL    HW110190   5.820   3.583   6.767
 3097SOL    HW210191   5.880   3.735   6.773
 3098SOL     OW10192   1.722   3.264   1.452
 3098SOL    HW110193   1.767   3.175   1.463
 3098SOL    HW210194   1.633   3.262   1.498
 3099SOL     OW10195   1.203   6.333   4.109
 3099SOL    HW110196   1.228   6.291   4.196
 3099SOL    HW210197   1.137   6.275   4.061
 3100SOL     OW10198   6.798   5.984   3.909
 3100SOL    HW110199   6.702   6.003   3.929
 3100SOL    HW210200   6.856   6.042   3.967
 3101SOL     OW10201   6.331   5.864   6.809
 3101SOL    HW110202   6.292   5.793   6.751
 3101SOL    HW210203   6.306   5.847   6.905
 3102SOL     OW10204   6.316   6.842   1.865
 3102SOL    HW110205   6.311   6.785   1.782
 3102SOL    HW210206   6.264   6.926   1.851
 3103SOL     OW10207   4.462   1.479   1.859
 3103SOL    HW110208   4.388   1.415   1.880
 3103SOL    HW210209   4.519   1.491   1.940
 3104SOL     OW10210   4.227   0.519   6.450
 3104SOL    HW110211   4.271   0.566   6.374
 3104SOL    HW210212   4.172   0.443   6.414
 3105SOL     OW10213   5.939   4.097   1.333
 3105SOL    HW110214   5.882   4.023   1.370
 3105SOL    HW210215   5.999   4.061   1.262
 3106SOL     OW10216   4.509   0.145   4.490
 3106SOL    HW110217   4.601   0.181   4.498
 3106SOL    HW210218   4.488   0.127   4.394
 3107SOL     OW10219   3.558   0.726   4.644
 3107SOL    HW110220   3.548   0.808   4.700
 3107SOL    HW210221   3.637   0.673   4.675
 3108SOL     OW10222   2.555   5.876   4.681
 3108SOL    HW110223   2.583   5.968   4.654
 3108SOL    HW210224   2.616   5.809   4.638
 3109SOL     OW10225   5.776   6.505   3.544
 3109SOL    HW110226   5.816   6.441   3.610
 3109SOL    HW210227   5.678   6.489   3.536
 3110SOL     OW10228   1.404   3.488   3.411
 3110SOL    HW110229   1.380   3.573   3.458
 3110SOL    HW210230   1.320   3.441   3.383
 3111SOL     OW10231   6.927   5.154   3.048
 3111SOL    HW110232   6.890   5.241   3.079
 3111SOL    HW210233   6.856   5.084   3.052
 3112SOL     OW10234   3.598   2.733   7.003
 3112SOL    HW110235   3.648   2.769   6.925
 3112SOL    HW210236   3.519   2.791   7.023
 3113SOL     OW10237   3.352   4.942   3.339
 3113SOL    HW110238   3.355   4.886   3.257
 3113SOL    HW210239   3.292   5.021   3.324
 3114SOL     OW10240   3.337   1.621   0.085
 3114SOL    HW110241   3.250   1.593   0.045
 3114SOL    HW210242   3.322   1.693   0.152
 3115SOL     OW10243   4.089   4.532   5.910
 3115SOL    HW110244   4.131   4.476   5.982
 3115SOL    HW210245   4.029   4.600   5.952
 3116SOL     OW10246   0.097   1.837   6.858
 3116SOL    HW110247   0.028   1.906   6.834
 3116SOL    HW210248   0.170   1.837   6.791
 3117SOL     OW10249   4.610   4.196   5.191
 3117SOL    HW110250   4.576   4.289   5.207
 3117SOL    HW210251   4.543   4.130   5.226
 3118SOL     OW10252   1.043   5.082   2.038
 3118SOL    HW110253   1.121   5.020   2.036
 3118SOL    HW210254   0.991   5.073   1.953
 3119SOL     OW10255   2.064   2.792   0.059
 3119SOL    HW110256   2.067   2.889   0.084
 3119SOL    HW210257   2.155   2.752   0.073
 3120SOL     OW10258   3.102   0.142   6.093
 3120SOL    HW110259   3.140   0.228   6.059
 3120SOL    HW210260   3.025   0.114   6.034
 3121SOL     OW10261   6.745   1.501   4.392
 3121SOL    HW110262   6.778   1.585   4.437
 3121SOL    HW210263   6.646   1.496   4.401
 3122SOL     OW10264   4.413   5.421   6.141
 3122SOL    HW110265   4.416   5.488   6.215
 3122SOL    HW210266   4.466   5.455   6.063
 3123SOL     OW10267   2.617   1.701   2.549
 3123SOL    HW110268   2.589   1.721   2.643
 3123SOL    HW210269   2.717   1.698   2.545
 3124SOL     OW10270   5.004   6.988   4.607
 3124SOL    HW110271   5.040   6.949   4.692
 3124SOL    HW210272   5.051   6.947   4.529
 3125SOL     OW10273   1.157   3.466   5.416
 3125SOL    HW110274   1.157   3.565   5.401
 3125SOL    HW210275   1.220   3.423   5.351
 3126SOL     OW10276   5.854   4.337   5.266
 3126SOL    HW110277   5.810   4.356   5.178
 3126SOL    HW210278   5.795   4.277   5.320
 3127SOL     OW10279   2.235   2.456   6.798
 3127SOL    HW110280   2.146   2.465   6.754
 3127SOL    HW210281   2.253   2.359   6.817
 3128SOL     OW10282   2.927   1.128   6.373
 3128SOL    HW110283   2.870   1.137   6.456
 3128SOL    HW210284   2.986   1.048   6.382
 3129SOL     OW10285   6.252   3.538   6.914
 3129SOL    HW110286   6.334   3.496   6.955
 3129SOL    HW210287   6.230   3.490   6.829
 3130SOL     OW10288   2.008   4.583   2.194
 3130SOL    HW110289   1.988   4.544   2.104
 3130SOL    HW210290   1.923   4.595   2.245
 3131SOL     OW10291   0.766   3.451   1.583
 3131SOL    HW110292   0.828   3.433   1.506
 3131SOL    HW210293   0.784   3.543   1.618
 3132SOL     OW10294   4.963   5.514   6.522
 3132SOL    HW110295   5.021   5.463   6.459
 3132SOL    HW210296   4.941   5.456   6.601
 3133SOL     OW10297   3.315   1.123   2.802
 3133SOL    HW110298   3.409   1.160   2.802
 3133SOL    HW210299   3.307   1.054   2.874
 3134SOL     OW10300   4.397   4.174   1.332
 3134SOL    HW110301   4.492   4.168   1.300
 3134SOL    HW210302   4.394   4.227   1.416
 3135SOL     OW10303   4.479   0.493   6.039
 3135SOL    HW110304   4.488   0.545   5.954
 3135SOL    HW210305   4.386   0.457   6.045
 3136SOL     OW10306   5.314   0.404   2.880
 3136SOL    HW110307   5.399   0.369   2.841
 3136SOL    HW210308   5.272   0.332   2.936
 3137SOL     OW10309   6.185   0.383   2.837
 3137SOL    HW110310   6.086   0.398   2.836
 3137SOL    HW210311   6.205   0.290   2.808
 3138SOL     OW10312   0.028   6.074   3.262
 3138SOL    HW110313   0.025   6.139   3.186
 3138SOL    HW210314   6.996   5.994   3.240
 3139SOL     OW10315   4.395   5.346   7.013
 3139SOL    HW110316   4.459   5.273   0.014
 3139SOL    HW210317   4.308   5.330   0.038
 3140SOL     OW10318   6.599   6.224   6.595
 3140SOL    HW110319   6.628   6.180   6.510
 3140SOL    HW210320   6.675   6.276   6.634
 3141SOL     OW10321   1.166   0.524   6.520
 3141SOL    HW110322   1.169   0.440   6.465
 3141SOL    HW210323   1.104   0.512   6.597
 3142SOL     OW10324   3.041   6.892   2.245
 3142SOL    HW110325   3.015   6.805   2.287
 3142SOL    HW210326   2.968   6.959   2.257
 3143SOL     OW10327   6.605   2.106   0.343
 3143SOL    HW110328   6.616   2.164   0.262
 3143SOL    HW210329   6.571   2.016   0.315
 3144SOL     OW10330   4.076   3.992   1.026
 3144SOL    HW110331   4.170   3.961   1.032
 3144SOL    HW210332   4.014   3.914   1.029
 3145SOL     OW10333   2.088   6.294   2.548
 3145SOL    HW110334   2.123   6.275   2.456
 3145SOL    HW210335   2.004   6.347   2.541
 3146SOL     OW10336   0.562   1.669   4.239
 3146SOL    HW110337   0.515   1.585   4.267
 3146SOL    HW210338   0.587   1.722   4.321
 3147SOL     OW10339   3.243   5.327   0.601
 3147SOL    HW110340   3.274   5.293   0.689
 3147SOL    HW210341   3.190   5.256   0.554
 3148SOL     OW10342   6.503   0.127   3.389
 3148SOL    HW110343   6.531   0.035   3.364
 3148SOL    HW210344   6.518   0.189   3.312
 3149SOL     OW10345   3.312   0.719   5.925
 3149SOL    HW110346   3.329   0.778   6.004
 3149SOL    HW210347   3.243   0.760   5.866
 3150SOL     OW10348   6.474   5.593   5.438
 3150SOL    HW110349   6.410   5.646   5.382
 3150SOL    HW210350   6.542   5.550   5.379
 3151SOL     OW10351   0.557   1.125   4.807
 3151SOL    HW110352   0.596   1.172   4.886
 3151SOL    HW210353   0.545   1.028   4.828
 3152SOL     OW10354   0.531   5.611   0.652
 3152SOL    HW110355   0.474   5.606   0.571
 3152SOL    HW210356   0.604   5.678   0.637
 3153SOL     OW10357   6.360   5.792   0.635
 3153SOL    HW110358   6.457   5.770   0.620
 3153SOL    HW210359   6.308   5.774   0.552
 3154SOL     OW10360   0.128   1.934   6.290
 3154SOL    HW110361   0.213   1.986   6.284
 3154SOL    HW210362   0.146   1.838   6.269
 3155SOL     OW10363   6.632   4.712   0.643
 3155SOL    HW110364   6.725   4.676   0.649
 3155SOL    HW210365   6.606   4.722   0.547
 3156SOL     OW10366   3.410   2.876   2.292
 3156SOL    HW110367   3.471   2.859   2.369
 3156SOL    HW210368   3.423   2.970   2.259
 3157SOL     OW10369   2.389   1.564   5.315
 3157SOL    HW110370   2.321   1.495   5.343
 3157SOL    HW210371   2.350   1.655   5.329
 3158SOL     OW10372   3.560   1.842   3.809
 3158SOL    HW110373   3.645   1.795   3.785
 3158SOL    HW210374   3.543   1.915   3.743
 3159SOL     OW10375   5.743   0.637   0.175
 3159SOL    HW110376   5.710   0.586   0.254
 3159SOL    HW210377   5.843   0.638   0.175
 3160SOL     OW10378   0.624   5.851   5.627
 3160SOL    HW110379   0.631   5.760   5.586
 3160SOL    HW210380   0.696   5.863   5.695
 3161SOL     OW10381   2.134   2.926   2.932
 3161SOL    HW110382   2.079   2.843   2.934
 3161SOL    HW210383   2.166   2.944   2.839
 3162SOL     OW10384   1.448   5.666   1.503
 3162SOL    HW110385   1.367   5.642   1.449
 3162SOL    HW210386   1.421   5.692   1.595
 3163SOL     OW10387   4.510   3.281   6.846
 3163SOL    HW110388   4.519   3.219   6.923
 3163SOL    HW210389   4.416   3.315   6.842
 3164SOL     OW10390   4.036   5.541   0.974
 3164SOL    HW110391   4.079   5.476   0.911
 3164SOL    HW210392   4.076   5.530   1.065
 3165SOL     OW10393   1.253   6.871   1.426
 3165SOL    HW110394   1.315   6.830   1.359
 3165SOL    HW210395   1.286   6.963   1.450
 3166SOL     OW10396   3.984   1.681   3.807
 3166SOL    HW110397   3.925   1.649   3.882
 3166SOL    HW210398   4.021   1.602   3.759
 3167SOL     OW10399   6.156   4.536   0.930
 3167SOL    HW110400   6.151   4.439   0.909
 3167SOL    HW210401   6.169   4.588   0.845
 3168SOL     OW10402   4.982   2.698   0.348
 3168SOL    HW110403   4.949   2.731   0.259
 3168SOL    HW210404   4.995   2.599   0.344
 3169SOL     OW10405   2.277   4.171   4.545
 3169SOL    HW110406   2.262   4.094   4.483
 3169SOL    HW210407   2.273   4.139   4.640
 3170SOL     OW10408   3.919   5.971   1.486
 3170SOL    HW110409   3.827   5.959   1.450
 3170SOL    HW210410   3.919   5.952   1.584
 3171SOL     OW10411   6.838   1.333   2.456
 3171SOL    HW110412   6.891   1.256   2.490
 3171SOL    HW210413   6.886   1.418   2.476
 3172SOL     OW10414   0.135   5.973   6.917
 3172SOL    HW110415   0.100   6.042   6.854
 3172SOL    HW210416   0.068   5.955   6.988
 3173SOL     OW10417   3.261   2.254   0.250
 3173SOL    HW110418   3.329   2.182   0.256
 3173SOL    HW210419   3.303   2.342   0.275
 3174SOL     OW10420   2.997   2.428   0.600
 3174SOL    HW110421   2.934   2.428   0.678
 3174SOL    HW210422   2.943   2.432   0.515
 3175SOL     OW10423   5.999   0.875   1.794
 3175SOL    HW110424   5.926   0.943   1.797
 3175SOL    HW210425   5.989   0.813   1.871
 3176SOL     OW10426   1.377   4.418   5.904
 3176SOL    HW110427   1.464   4.371   5.919
 3176SOL    HW210428   1.337   4.387   5.818
 3177SOL     OW10429   4.902   4.241   3.926
 3177SOL    HW110430   4.936   4.147   3.929
 3177SOL    HW210431   4.832   4.249   3.855
 3178SOL     OW10432   6.543   2.154   0.807
 3178SOL    HW110433   6.513   2.155   0.712
 3178SOL    HW210434   6.641   2.174   0.812
 3179SOL     OW10435   0.737   2.773   2.257
 3179SOL    HW110436   0.801   2.768   2.181
 3179SOL    HW210437   0.747   2.693   2.316
 3180SOL     OW10438   5.782   0.953   6.761
 3180SOL    HW110439   5.792   0.878   6.826
 3180SOL    HW210440   5.718   0.927   6.689
 3181SOL     OW10441   0.351   2.123   2.843
 3181SOL    HW110442   0.269   2.181   2.842
 3181SOL    HW210443   0.431   2.179   2.821
 3182SOL     OW10444   2.739   0.406   6.666
 3182SOL    HW110445   2.739   0.506   6.665
 3182SOL    HW210446   2.819   0.373   6.615
 3183SOL     OW10447   4.853   3.838   2.296
 3183SOL    HW110448   4.832   3.868   2.389
 3183SOL    HW210449   4.829   3.912   2.232
 3184SOL     OW10450   0.874   3.012   2.719
 3184SOL    HW110451   0.818   3.012   2.636
 3184SOL    HW210452   0.853   3.095   2.772
 3185SOL     OW10453   5.066   5.606   6.905
 3185SOL    HW110454   5.001   5.534   6.879
 3185SOL    HW210455   5.051   5.687   6.848
 3186SOL     OW10456   2.978   2.199   1.294
 3186SOL    HW110457   3.053   2.193   1.228
 3186SOL    HW210458   2.998   2.140   1.372
 3187SOL     OW10459   4.580   4.647   0.653
 3187SOL    HW110460   4.547   4.658   0.559
 3187SOL    HW210461   4.614   4.735   0.687
 3188SOL     OW10462   1.095   6.908   4.257
 3188SOL    HW110463   1.157   6.984   4.275
 3188SOL    HW210464   1.056   6.918   4.165
 3189SOL     OW10465   1.179   1.832   1.253
 3189SOL    HW110466   1.217   1.793   1.169
 3189SOL    HW210467   1.194   1.768   1.329
 3190SOL     OW10468   0.794   5.227   6.986
 3190SOL    HW110469   0.777   5.136   6.948
 3190SOL    HW210470   0.810   5.291   6.912
 3191SOL     OW10471   5.234   6.005   0.963
 3191SOL    HW110472   5.318   5.952   0.956
 3191SOL    HW210473   5.196   5.994   1.055
 3192SOL     OW10474   0.202   3.124   1.354
 3192SOL    HW110475   0.150   3.169   1.427
 3192SOL    HW210476   0.221   3.190   1.282
 3193SOL     OW10477   4.263   1.265   6.763
 3193SOL    HW110478   4.283   1.317   6.680
 3193SOL    HW210479   4.208   1.320   6.825
 3194SOL     OW10480   1.421   1.542   6.602
 3194SOL    HW110481   1.418   1.639   6.627
 3194SOL    HW210482   1.480   1.493   6.666
 3195SOL     OW10483   2.564   1.320   3.762
 3195SOL    HW110484   2.624   1.336   3.684
 3195SOL    HW210485   2.472   1.297   3.729
 3196SOL     OW10486   0.397   0.404   6.489
 3196SOL    HW110487   0.422   0.477   6.426
 3196SOL    HW210488   0.297   0.396   6.493
 3197SOL     OW10489   3.064   6.735   4.025
 3197SOL    HW110490   3.014   6.819   4.005
 3197SOL    HW210491   3.009   6.656   3.998
 3198SOL     OW10492   6.118   2.956   4.355
 3198SOL    HW110493   6.108   2.881   4.290
 3198SOL    HW210494   6.155   2.921   4.441
 3199SOL     OW10495   5.043   4.147   2.751
 3199SOL    HW110496   4.959   4.100   2.726
 3199SOL    HW210497   5.021   4.241   2.780
 3200SOL     OW10498   5.929   3.206   2.339
 3200SOL    HW110499   5.865   3.282   2.329
 3200SOL    HW210500   5.887   3.122   2.304
 3201SOL     OW10501   6.329   4.916   4.043
 3201SOL    HW110502   6.321   5.014   4.056
 3201SOL    HW210503   6.391   4.897   3.967
 3202SOL     OW10504   0.814   4.803   1.614
 3202SOL    HW110505   0.751   4.770   1.544
 3202SOL    HW210506   0.887   4.857   1.571
 3203SOL     OW10507   6.576   2.495   0.467
 3203SOL    HW110508   6.522   2.527   0.388
 3203SOL    HW210509   6.614   2.574   0.515
 3204SOL     OW10510   4.742   6.314   3.602
 3204SOL    HW110511   4.668   6.374   3.573
 3204SOL    HW210512   4.828   6.366   3.606
 3205SOL     OW10513   6.127   2.859   6.095
 3205SOL    HW110514   6.099   2.767   6.066
 3205SOL    HW210515   6.222   2.874   6.067
 3206SOL     OW10516   1.963   4.756   0.050
 3206SOL    HW110517   1.979   4.809   6.990
 3206SOL    HW210518   1.961   4.818   0.129
 3207SOL     OW10519   0.657   1.364   5.835
 3207SOL    HW110520   0.694   1.282   5.792
 3207SOL    HW210521   0.566   1.346   5.870
 3208SOL     OW10522   4.640   6.442   6.124
 3208SOL    HW110523   4.644   6.538   6.094
 3208SOL    HW210524   4.558   6.399   6.086
 3209SOL     OW10525   3.991   5.269   3.376
 3209SOL    HW110526   4.051   5.192   3.397
 3209SOL    HW210527   4.032   5.353   3.410
 3210SOL     OW10528   0.996   4.364   0.867
 3210SOL    HW110529   0.915   4.418   0.892
 3210SOL    HW210530   0.999   4.282   0.924
 3211SOL     OW10531   2.175   3.642   0.354
 3211SOL    HW110532   2.213   3.551   0.369
 3211SOL    HW210533   2.182   3.696   0.438
 3212SOL     OW10534   3.058   6.627   1.384
 3212SOL    HW110535   3.080   6.673   1.297
 3212SOL    HW210536   3.045   6.696   1.455
 3213SOL     OW10537   0.951   6.836   0.690
 3213SOL    HW110538   0.966   6.869   0.783
 3213SOL    HW210539   1.026   6.775   0.664
 3214SOL     OW10540   4.216   5.658   0.379
 3214SOL    HW110541   4.142   5.595   0.400
 3214SOL    HW210542   4.267   5.626   0.300
 3215SOL     OW10543   0.029   3.254   0.963
 3215SOL    HW110544   6.989   3.297   1.028
 3215SOL    HW210545   7.014   3.166   0.934
 3216SOL     OW10546   6.519   5.564   0.159
 3216SOL    HW110547   6.487   5.659   0.162
 3216SOL    HW210548   6.479   5.513   0.235
 3217SOL     OW10549   6.978   4.920   2.067
 3217SOL    HW110550   0.014   4.973   2.007
 3217SOL    HW210551   6.883   4.930   2.037
 3218SOL     OW10552   4.417   2.136   3.722
 3218SOL    HW110553   4.409   2.207   3.652
 3218SOL    HW210554   4.389   2.048   3.683
 3219SOL     OW10555   0.437   1.623   3.368
 3219SOL    HW110556   0.511   1.618   3.435
 3219SOL    HW210557   0.473   1.654   3.280
 3220SOL     OW10558   7.021   5.537   6.500
 3220SOL    HW110559   6.950   5.518   6.432
 3220SOL    HW210560   6.984   5.597   6.571
 3221SOL     OW10561   4.334   0.711   1.291
 3221SOL    HW110562   4.415   0.769   1.290
 3221SOL    HW210563   4.256   0.763   1.257
 3222SOL     OW10564   3.475   1.299   2.399
 3222SOL    HW110565   3.510   1.347   2.319
 3222SOL    HW210566   3.379   1.323   2.412
 3223SOL     OW10567   2.275   6.359   6.450
 3223SOL    HW110568   2.302   6.300   6.527
 3223SOL    HW210569   2.298   6.454   6.471
 3224SOL     OW10570   4.501   3.940   5.766
 3224SOL    HW110571   4.460   3.878   5.699
 3224SOL    HW210572   4.441   4.018   5.781
 3225SOL     OW10573   5.448   3.163   6.162
 3225SOL    HW110574   5.511   3.234   6.192
 3225SOL    HW210575   5.462   3.144   6.065
 3226SOL     OW10576   2.075   1.323   2.994
 3226SOL    HW110577   2.167   1.353   2.967
 3226SOL    HW210578   2.007   1.384   2.954
 3227SOL     OW10579   3.391   2.426   0.037
 3227SOL    HW110580   3.362   2.476   6.978
 3227SOL    HW210581   3.402   2.329   0.014
 3228SOL     OW10582   0.164   4.033   2.335
 3228SOL    HW110583   0.134   4.113   2.284
 3228SOL    HW210584   0.178   3.956   2.273
 3229SOL     OW10585   4.191   0.229   4.836
 3229SOL    HW110586   4.172   0.142   4.792
 3229SOL    HW210587   4.276   0.267   4.800
 3230SOL     OW10588   2.656   3.853   5.573
 3230SOL    HW110589   2.755   3.870   5.573
 3230SOL    HW210590   2.637   3.769   5.522
 3231SOL     OW10591   2.732   0.296   1.370
 3231SOL    HW110592   2.770   0.376   1.323
 3231SOL    HW210593   2.635   0.312   1.391
 3232SOL     OW10594   4.867   6.242   4.952
 3232SOL    HW110595   4.921   6.312   4.999
 3232SOL    HW210596   4.788   6.283   4.909
 3233SOL     OW10597   0.797   2.391   1.880
 3233SOL    HW110598   0.888   2.361   1.854
 3233SOL    HW210599   0.749   2.426   1.799
 3234SOL     OW10600   0.202   2.227   0.107
 3234SOL    HW110601   0.230   2.174   0.027
 3234SOL    HW210602   0.120   2.187   0.147
 3235SOL     OW10603   6.426   0.758   2.723
 3235SOL    HW110604   6.378   0.726   2.804
 3235SOL    HW210605   6.408   0.696   2.647
 3236SOL     OW10606   1.594   3.386   0.595
 3236SOL    HW110607   1.613   3.484   0.603
 3236SOL    HW210608   1.679   3.336   0.582
 3237SOL     OW10609   5.443   1.318   3.534
 3237SOL    HW110610   5.426   1.357   3.625
 3237SOL    HW210611   5.407   1.380   3.464
 3238SOL     OW10612   7.011   5.856   0.499
 3238SOL    HW110613   0.028   5.904   0.422
 3238SOL    HW210614   7.009   5.916   0.579
 3239SOL     OW10615   6.620   1.603   2.689
 3239SOL    HW110616   6.545   1.587   2.625
 3239SOL    HW210617   6.607   1.692   2.733
 3240SOL     OW10618   6.833   6.647   6.444
 3240SOL    HW110619   6.772   6.681   6.372
 3240SOL    HW210620   6.928   6.653   6.412
 3241SOL     OW10621   4.297   1.480   4.761
 3241SOL    HW110622   4.219   1.459   4.703
 3241SOL    HW210623   4.338   1.567   4.732
 3242SOL     OW10624   3.993   3.606   6.825
 3242SOL    HW110625   4.084   3.638   6.799
 3242SOL    HW210626   3.941   3.581   6.743
 3243SOL     OW10627   4.363   3.938   0.733
 3243SOL    HW110628   4.399   3.849   0.705
 3243SOL    HW210629   4.334   3.932   0.829
 3244SOL     OW10630   4.574   5.800   6.960
 3244SOL    HW110631   4.634   5.862   7.010
 3244SOL    HW210632   4.579   5.821   6.862
 3245SOL     OW10633   5.320   3.188   5.174
 3245SOL    HW110634   5.256   3.191   5.097
 3245SOL    HW210635   5.388   3.117   5.157
 3246SOL     OW10636   5.596   0.567   2.445
 3246SOL    HW110637   5.587   0.620   2.530
 3246SOL    HW210638   5.655   0.488   2.462
 3247SOL     OW10639   6.365   4.854   2.798
 3247SOL    HW110640   6.303   4.932   2.792
 3247SOL    HW210641   6.312   4.771   2.817
 3248SOL     OW10642   6.522   3.741   1.235
 3248SOL    HW110643   6.569   3.716   1.319
 3248SOL    HW210644   6.580   3.718   1.156
 3249SOL     OW10645   3.841   3.070   4.199
 3249SOL    HW110646   3.819   2.986   4.248
 3249SOL    HW210647   3.914   3.119   4.246
 3250SOL     OW10648   5.739   0.259   2.196
 3250SOL    HW110649   5.672   0.231   2.265
 3250SOL    HW210650   5.729   0.357   2.178
 3251SOL     OW10651   3.249   1.029   3.645
 3251SOL    HW110652   3.227   0.947   3.593
 3251SOL    HW210653   3.348   1.046   3.640
 3252SOL     OW10654   2.360   1.097   2.819
 3252SOL    HW110655   2.388   1.135   2.907
 3252SOL    HW210656   2.312   1.011   2.834
 3253SOL     OW10657   4.973   4.370   1.818
 3253SOL    HW110658   5.029   4.347   1.897
 3253SOL    HW210659   4.896   4.427   1.847
 3254SOL     OW10660   4.854   5.455   5.640
 3254SOL    HW110661   4.869   5.554   5.644
 3254SOL    HW210662   4.776   5.436   5.581
 3255SOL     OW10663   5.485   6.558   0.248
 3255SOL    HW110664   5.415   6.609   0.197
 3255SOL    HW210665   5.477   6.580   0.346
 3256SOL     OW10666   3.076   0.651   0.743
 3256SOL    HW110667   3.134   0.732   0.742
 3256SOL    HW210668   2.984   0.675   0.713
 3257SOL     OW10669   1.559   1.933   2.222
 3257SOL    HW110670   1.599   1.876   2.151
 3257SOL    HW210671   1.567   1.886   2.311
 3258SOL     OW10672   4.588   5.179   2.367
 3258SOL    HW110673   4.580   5.157   2.465
 3258SOL    HW210674   4.644   5.261   2.356
 3259SOL     OW10675   5.246   5.315   4.003
 3259SOL    HW110676   5.338   5.279   4.020
 3259SOL    HW210677   5.248   5.415   4.006
 3260SOL     OW10678   0.922   1.890   1.358
 3260SOL    HW110679   0.900   1.946   1.438
 3260SOL    HW210680   1.021   1.880   1.351
 3261SOL     OW10681   5.676   0.398   1.387
 3261SOL    HW110682   5.659   0.404   1.289
 3261SOL    HW210683   5.594   0.424   1.437
 3262SOL     OW10684   3.092   2.176   2.847
 3262SOL    HW110685   3.007   2.178   2.900
 3262SOL    HW210686   3.077   2.216   2.757
 3263SOL     OW10687   2.457   1.140   3.552
 3263SOL    HW110688   2.400   1.078   3.607
 3263SOL    HW210689   2.482   1.095   3.467
 3264SOL     OW10690   1.206   3.893   0.717
 3264SOL    HW110691   1.156   3.888   0.803
 3264SOL    HW210692   1.142   3.889   0.641
 3265SOL     OW10693   5.564   0.575   6.302
 3265SOL    HW110694   5.534   0.536   6.389
 3265SOL    HW210695   5.546   0.510   6.228
 3266SOL     OW10696   1.880   3.837   0.626
 3266SOL    HW110697   1.840   3.912   0.574
 3266SOL    HW210698   1.913   3.870   0.714
 3267SOL     OW10699   3.196   6.587   0.926
 3267SOL    HW110700   3.267   6.530   0.886
 3267SOL    HW210701   3.174   6.663   0.864
 3268SOL     OW10702   1.274   3.639   1.566
 3268SOL    HW110703   1.210   3.673   1.497
 3268SOL    HW210704   1.347   3.587   1.521
 3269SOL     OW10705   4.856   5.671   2.171
 3269SOL    HW110706   4.843   5.591   2.111
 3269SOL    HW210707   4.913   5.645   2.249
 3270SOL     OW10708   1.089   4.344   6.157
 3270SOL    HW110709   0.995   4.322   6.184
 3270SOL    HW210710   1.089   4.430   6.105
 3271SOL     OW10711   5.567   3.604   3.063
 3271SOL    HW110712   5.547   3.569   3.155
 3271SOL    HW210713   5.502   3.676   3.040
 3272SOL     OW10714   3.584   4.672   6.164
 3272SOL    HW110715   3.555   4.739   6.096
 3272SOL    HW210716   3.626   4.720   6.242
 3273SOL     OW10717   0.208   6.201   0.696
 3273SOL    HW110718   0.217   6.214   0.794
 3273SOL    HW210719   0.251   6.278   0.648
 3274SOL     OW10720   5.161   0.928   0.920
 3274SOL    HW110721   5.185   0.896   0.828
 3274SOL    HW210722   5.160   1.028   0.920
 3275SOL     OW10723   6.101   1.703   6.842
 3275SOL    HW110724   6.037   1.717   6.766
 3275SOL    HW210725   6.053   1.714   6.929
 3276SOL     OW10726   2.854   5.754   0.298
 3276SOL    HW110727   2.810   5.739   0.387
 3276SOL    HW210728   2.790   5.729   0.226
 3277SOL     OW10729   3.737   6.952   6.428
 3277SOL    HW110730   3.655   6.895   6.424
 3277SOL    HW210731   3.725   0.001   6.496
 3278SOL     OW10732   0.910   1.059   5.452
 3278SOL    HW110733   0.886   1.087   5.358
 3278SOL    HW210734   0.886   0.963   5.464
 3279SOL     OW10735   5.439   0.224   0.523
 3279SOL    HW110736   5.520   0.169   0.543
 3279SOL    HW210737   5.358   0.165   0.523
 3280SOL     OW10738   3.808   4.970   4.408
 3280SOL    HW110739   3.818   5.069   4.407
 3280SOL    HW210740   3.895   4.928   4.435
 3281SOL     OW10741   1.973   5.055   1.821
 3281SOL    HW110742   2.011   5.113   1.748
 3281SOL    HW210743   1.993   5.096   1.910
 3282SOL     OW10744   0.036   4.814   5.758
 3282SOL    HW110745   0.083   4.811   5.847
 3282SOL    HW210746   0.051   4.728   5.709
 3283SOL     OW10747   3.512   0.281   1.048
 3283SOL    HW110748   3.516   0.276   1.148
 3283SOL    HW210749   3.541   0.372   1.018
 3284SOL     OW10750   0.030   5.156   6.680
 3284SOL    HW110751   0.081   5.189   6.601
 3284SOL    HW210752   0.094   5.127   6.751
 3285SOL     OW10753   4.074   2.273   3.342
 3285SOL    HW110754   4.158   2.244   3.388
 3285SOL    HW210755   4.083   2.259   3.244
 3286SOL     OW10756   3.595   2.983   2.549
 3286SOL    HW110757   3.655   2.949   2.621
 3286SOL    HW210758   3.644   2.980   2.461
 3287SOL     OW10759   0.724   0.553   7.017
 3287SOL    HW110760   0.789   0.483   0.025
 3287SOL    HW210761   0.679   0.523   6.934
 3288SOL     OW10762   0.743   5.533   5.797
 3288SOL    HW110763   0.686   5.530   5.715
 3288SOL    HW210764   0.789   5.622   5.802
 3289SOL     OW10765   2.757   6.950   5.596
 3289SOL    HW110766   2.782   6.968   5.501
 3289SOL    HW210767   2.695   7.021   5.629
 3290SOL     OW10768   0.302   6.754   1.861
 3290SOL    HW110769   0.268   6.696   1.935
 3290SOL    HW210770   0.284   6.710   1.773
 3291SOL     OW10771   1.256   6.896   0.788
 3291SOL    HW110772   1.298   6.955   0.857
 3291SOL    HW210773   1.266   6.800   0.815
 3292SOL     OW10774   0.465   1.263   0.378
 3292SOL    HW110775   0.399   1.219   0.439
 3292SOL    HW210776   0.518   1.192   0.330
 3293SOL     OW10777   0.158   3.536   2.248
 3293SOL    HW110778   0.131   3.455   2.300
 3293SOL    HW210779   0.258   3.539   2.241
 3294SOL     OW10780   5.966   1.752   6.578
 3294SOL    HW110781   5.870   1.775   6.566
 3294SOL    HW210782   5.988   1.671   6.523
 3295SOL     OW10783   1.463   3.132   2.182
 3295SOL    HW110784   1.376   3.139   2.134
 3295SOL    HW210785   1.451   3.077   2.264
 3296SOL     OW10786   1.266   6.905   2.675
 3296SOL    HW110787   1.193   6.927   2.740
 3296SOL    HW210788   1.355   6.924   2.717
 3297SOL     OW10789   2.902   0.549   4.980
 3297SOL    HW110790   2.975   0.526   5.045
 3297SOL    HW210791   2.934   0.621   4.918
 3298SOL     OW10792   6.195   1.765   5.293
 3298SOL    HW110793   6.158   1.790   5.204
 3298SOL    HW210794   6.175   1.837   5.359
 3299SOL     OW10795   2.882   5.787   2.807
 3299SOL    HW110796   2.855   5.745   2.893
 3299SOL    HW210797   2.805   5.842   2.772
 3300SOL     OW10798   6.581   0.745   5.211
 3300SOL    HW110799   6.607   0.813   5.280
 3300SOL    HW210800   6.607   0.654   5.243
 3301SOL     OW10801   1.755   3.110   3.609
 3301SOL    HW110802   1.708   3.026   3.636
 3301SOL    HW210803   1.696   3.164   3.549
 3302SOL     OW10804   0.330   4.718   5.339
 3302SOL    HW110805   0.272   4.649   5.297
 3302SOL    HW210806   0.335   4.702   5.438
 3303SOL     OW10807   3.319   3.848   1.552
 3303SOL    HW110808   3.228   3.806   1.556
 3303SOL    HW210809   3.314   3.941   1.588
 3304SOL     OW10810   1.052   5.794   4.029
 3304SOL    HW110811   1.116   5.718   4.034
 3304SOL    HW210812   1.075   5.861   4.101
 3305SOL     OW10813   2.034   0.999   2.446
 3305SOL    HW110814   2.103   0.967   2.381
 3305SOL    HW210815   2.075   1.070   2.505
 3306SOL     OW10816   2.120   5.323   5.371
 3306SOL    HW110817   2.036   5.274   5.350
 3306SOL    HW210818   2.144   5.382   5.294
 3307SOL     OW10819   0.250   5.212   6.471
 3307SOL    HW110820   0.341   5.171   6.468
 3307SOL    HW210821   0.257   5.311   6.462
 3308SOL     OW10822   2.747   6.219   0.982
 3308SOL    HW110823   2.763   6.142   0.920
 3308SOL    HW210824   2.680   6.281   0.941
 3309SOL     OW10825   0.310   5.930   2.723
 3309SOL    HW110826   0.275   5.838   2.742
 3309SOL    HW210827   0.389   5.948   2.781
 3310SOL     OW10828   0.009   3.450   6.552
 3310SOL    HW110829   0.014   3.380   6.623
 3310SOL    HW210830   6.942   3.494   6.554
 3311SOL     OW10831   2.210   4.219   1.276
 3311SOL    HW110832   2.280   4.202   1.346
 3311SOL    HW210833   2.133   4.157   1.290
 3312SOL     OW10834   3.956   4.374   5.721
 3312SOL    HW110835   3.983   4.279   5.739
 3312SOL    HW210836   3.991   4.433   5.793
 3313SOL     OW10837   0.909   5.551   3.521
 3313SOL    HW110838   0.981   5.535   3.589
 3313SOL    HW210839   0.946   5.539   3.429
 3314SOL     OW10840   2.687   1.404   2.874
 3314SOL    HW110841   2.743   1.336   2.826
 3314SOL    HW210842   2.746   1.476   2.910
 3315SOL     OW10843   6.480   3.655   4.331
 3315SOL    HW110844   6.390   3.658   4.287
 3315SOL    HW210845   6.475   3.596   4.412
 3316SOL     OW10846   5.025   1.618   6.010
 3316SOL    HW110847   4.938   1.658   6.040
 3316SOL    HW210848   5.013   1.521   5.991
 3317SOL     OW10849   4.435   3.131   1.730
 3317SOL    HW110850   4.367   3.161   1.796
 3317SOL    HW210851   4.502   3.071   1.774
 3318SOL     OW10852   1.823   1.065   1.191
 3318SOL    HW110853   1.853   1.158   1.208
 3318SOL    HW210854   1.727   1.064   1.165
 3319SOL     OW10855   6.678   1.564   3.690
 3319SOL    HW110856   6.720   1.484   3.732
 3319SOL    HW210857   6.697   1.564   3.592
 3320SOL     OW10858   6.251   6.835   4.972
 3320SOL    HW110859   6.306   6.834   5.056
 3320SOL    HW210860   6.162   6.877   4.992
 3321SOL     OW10861   4.901   1.309   0.215
 3321SOL    HW110862   4.821   1.284   0.161
 3321SOL    HW210863   4.871   1.357   0.298
 3322SOL     OW10864   6.208   3.205   0.774
 3322SOL    HW110865   6.275   3.221   0.847
 3322SOL    HW210866   6.233   3.123   0.723
 3323SOL     OW10867   3.051   3.073   0.544
 3323SOL    HW110868   2.979   3.007   0.524
 3323SOL    HW210869   3.063   3.080   0.644
 3324SOL     OW10870   3.694   5.445   6.821
 3324SOL    HW110871   3.648   5.477   6.904
 3324SOL    HW210872   3.645   5.366   6.784
 3325SOL     OW10873   0.858   3.136   7.017
 3325SOL    HW110874   0.935   3.104   0.049
 3325SOL    HW210875   0.882   3.134   6.920
 3326SOL     OW10876   4.662   2.086   1.607
 3326SOL    HW110877   4.627   2.147   1.536
 3326SOL    HW210878   4.757   2.110   1.627
 3327SOL     OW10879   3.093   5.678   1.793
 3327SOL    HW110880   3.000   5.657   1.826
 3327SOL    HW210881   3.105   5.778   1.792
 3328SOL     OW10882   4.239   2.419   0.560
 3328SOL    HW110883   4.290   2.394   0.642
 3328SOL    HW210884   4.156   2.468   0.585
 3329SOL     OW10885   4.520   0.290   5.150
 3329SOL    HW110886   4.548   0.195   5.137
 3329SOL    HW210887   4.593   0.351   5.118
 3330SOL     OW10888   6.225   5.010   1.420
 3330SOL    HW110889   6.149   4.946   1.404
 3330SOL    HW210890   6.296   4.965   1.474
 3331SOL     OW10891   1.865   3.030   1.446
 3331SOL    HW110892   1.909   3.010   1.533
 3331SOL    HW210893   1.829   2.945   1.407
 3332SOL     OW10894   6.149   5.065   6.898
 3332SOL    HW110895   6.237   5.093   6.936
 3332SOL    HW210896   6.081   5.138   6.913
 3333SOL     OW10897   4.219   4.175   6.674
 3333SOL    HW110898   4.173   4.264   6.672
 3333SOL    HW210899   4.249   4.156   6.767
 3334SOL     OW10900   3.057   3.782   1.575
 3334SOL    HW110901   3.007   3.764   1.490
 3334SOL    HW210902   3.002   3.842   1.634
 3335SOL     OW10903   4.891   6.878   5.054
 3335SOL    HW110904   4.925   6.805   5.114
 3335SOL    HW210905   4.791   6.878   5.054
 3336SOL     OW10906   2.150   6.460   4.649
 3336SOL    HW110907   2.129   6.396   4.575
 3336SOL    HW210908   2.075   6.459   4.716
 3337SOL     OW10909   3.280   4.055   2.571
 3337SOL    HW110910   3.203   4.038   2.632
 3337SOL    HW210911   3.245   4.070   2.478
 3338SOL     OW10912   5.210   3.501   1.918
 3338SOL    HW110913   5.138   3.463   1.976
 3338SOL    HW210914   5.282   3.539   1.975
 3339SOL     OW10915   6.863   0.670   6.715
 3339SOL    HW110916   6.853   0.616   6.632
 3339SOL    HW210917   6.952   0.649   6.757
 3340SOL     OW10918   3.579   1.689   2.640
 3340SOL    HW110919   3.631   1.763   2.681
 3340SOL    HW210920   3.619   1.665   2.551
 3341SOL     OW10921   1.427   5.520   3.453
 3341SOL    HW110922   1.495   5.512   3.380
 3341SOL    HW210923   1.364   5.595   3.431
 3342SOL     OW10924   2.347   6.894   4.063
 3342SOL    HW110925   2.315   6.846   4.145
 3342SOL    HW210926   2.272   6.945   4.023
 3343SOL     OW10927   5.830   3.116   0.145
 3343SOL    HW110928   5.883   3.139   0.227
 3343SOL    HW210929   5.740   3.082   0.171
 3344SOL     OW10930   5.747   3.173   4.072
 3344SOL    HW110931   5.834   3.219   4.090
 3344SOL    HW210932   5.709   3.138   4.158
 3345SOL     OW10933   1.414   3.669   5.667
 3345SOL    HW110934   1.347   3.628   5.729
 3345SOL    HW210935   1.420   3.615   5.583
 3346SOL     OW10936   1.521   0.629   0.842
 3346SOL    HW110937   1.539   0.714   0.892
 3346SOL    HW210938   1.453   0.575   0.891
 3347SOL     OW10939   0.789   3.865   5.856
 3347SOL    HW110940   0.856   3.921   5.903
 3347SOL    HW210941   0.828   3.832   5.769
 3348SOL     OW10942   3.571   3.991   3.903
 3348SOL    HW110943   3.560   3.967   3.807
 3348SOL    HW210944   3.562   3.909   3.960
 3349SOL     OW10945   1.050   5.913   2.993
 3349SOL    HW110946   1.131   5.934   3.048
 3349SOL    HW210947   0.989   5.992   2.993
 3350SOL     OW10948   0.819   2.606   6.315
 3350SOL    HW110949   0.898   2.545   6.312
 3350SOL    HW210950   0.851   2.700   6.326
 3351SOL     OW10951   4.636   1.351   2.154
 3351SOL    HW110952   4.581   1.433   2.140
 3351SOL    HW210953   4.576   1.272   2.167
 3352SOL     OW10954   6.866   2.185   0.412
 3352SOL    HW110955   6.898   2.219   0.324
 3352SOL    HW210956   6.768   2.163   0.405
 3353SOL     OW10957   2.475   5.627   1.636
 3353SOL    HW110958   2.493   5.720   1.604
 3353SOL    HW210959   2.453   5.629   1.733
 3354SOL     OW10960   4.688   2.718   5.393
 3354SOL    HW110961   4.783   2.738   5.365
 3354SOL    HW210962   4.636   2.803   5.398
 3355SOL     OW10963   2.453   2.035   6.687
 3355SOL    HW110964   2.381   2.012   6.621
 3355SOL    HW210965   2.455   1.966   6.759
 3356SOL     OW10966   0.624   5.023   5.664
 3356SOL    HW110967   0.708   5.073   5.649
 3356SOL    HW210968   0.546   5.084   5.651
 3357SOL     OW10969   2.296   4.301   1.925
 3357SOL    HW110970   2.315   4.347   1.838
 3357SOL    HW210971   2.287   4.202   1.908
 3358SOL     OW10972   4.412   1.328   0.841
 3358SOL    HW110973   4.509   1.346   0.826
 3358SOL    HW210974   4.358   1.389   0.784
 3359SOL     OW10975   0.038   6.840   3.100
 3359SOL    HW110976   0.009   6.843   3.196
 3359SOL    HW210977   0.098   6.762   3.085
 3360SOL     OW10978   1.187   1.478   6.790
 3360SOL    HW110979   1.166   1.487   6.887
 3360SOL    HW210980   1.273   1.525   6.770
 3361SOL     OW10981   1.156   4.922   4.193
 3361SOL    HW110982   1.173   4.933   4.291
 3361SOL    HW210983   1.200   4.996   4.143
 3362SOL     OW10984   3.707   1.281   2.556
 3362SOL    HW110985   3.616   1.284   2.515
 3362SOL    HW210986   3.773   1.323   2.495
 3363SOL     OW10987   6.237   6.973   1.522
 3363SOL    HW110988   6.211   0.040   1.488
 3363SOL    HW210989   6.293   6.926   1.454
 3364SOL     OW10990   1.184   4.766   3.788
 3364SOL    HW110991   1.185   4.757   3.688
 3364SOL    HW210992   1.222   4.855   3.814
 3365SOL     OW10993   6.624   2.105   5.348
 3365SOL    HW110994   6.587   2.050   5.423
 3365SOL    HW210995   6.689   2.050   5.296
 3366SOL     OW10996   5.870   6.302   4.740
 3366SOL    HW110997   5.834   6.213   4.771
 3366SOL    HW210998   5.794   6.360   4.711
 3367SOL     OW10999   3.660   2.804   2.021
 3367SOL    HW111000   3.661   2.705   2.039
 3367SOL    HW211001   3.708   2.852   2.094
 3368SOL     OW11002   1.003   5.385   5.687
 3368SOL    HW111003   0.941   5.459   5.661
 3368SOL    HW211004   1.004   5.375   5.787
 3369SOL     OW11005   4.102   2.667   7.003
 3369SOL    HW111006   4.079   2.571   6.987
 3369SOL    HW211007   4.182   2.692   6.947
 3370SOL     OW11008   6.972   5.760   6.689
 3370SOL    HW111009   0.050   5.759   6.685
 3370SOL    HW211010   6.941   5.852   6.712
 3371SOL     OW11011   2.161   2.988   2.103
 3371SOL    HW111012   2.209   3.071   2.131
 3371SOL    HW211013   2.204   2.952   2.020
 3372SOL     OW11014   0.572   2.194   1.026
 3372SOL    HW111015   0.486   2.144   1.019
 3372SOL    HW211016   0.642   2.135   1.065
 3373SOL     OW11017   6.847   1.735   3.073
 3373SOL    HW111018   6.867   1.763   3.167
 3373SOL    HW211019   6.847   1.815   3.014
 3374SOL     OW11020   1.205   6.499   4.848
 3374SOL    HW111021   1.294   6.513   4.890
 3374SOL    HW211022   1.200   6.408   4.806
 3375SOL     OW11023   0.100   5.045   6.317
 3375SOL    HW111024   0.157   5.076   6.393
 3375SOL    HW211025   0.042   4.969   6.348
 3376SOL     OW11026   4.143   3.350   3.468
 3376SOL    HW111027   4.140   3.313   3.561
 3376SOL    HW211028   4.188   3.439   3.469
 3377SOL     OW11029   6.637   6.163   6.314
 3377SOL    HW111030   6.554   6.161   6.258
 3377SOL    HW211031   6.682   6.251   6.302
 3378SOL     OW11032   0.615   1.139   0.181
 3378SOL    HW111033   0.665   1.068   0.232
 3378SOL    HW211034   0.681   1.198   0.134
 3379SOL     OW11035   6.298   6.775   6.156
 3379SOL    HW111036   6.255   6.815   6.075
 3379SOL    HW211037   6.273   6.829   6.237
 3380SOL     OW11038   5.892   6.846   4.797
 3380SOL    HW111039   5.967   6.829   4.733
 3380SOL    HW211040   5.930   6.870   4.887
 3381SOL     OW11041   0.822   2.833   1.548
 3381SOL    HW111042   0.874   2.837   1.462
 3381SOL    HW211043   0.725   2.821   1.527
 3382SOL     OW11044   0.537   2.525   0.855
 3382SOL    HW111045   0.465   2.467   0.894
 3382SOL    HW211046   0.598   2.555   0.928
 3383SOL     OW11047   4.612   5.687   1.495
 3383SOL    HW111048   4.612   5.596   1.537
 3383SOL    HW211049   4.571   5.681   1.404
 3384SOL     OW11050   2.855   3.305   6.356
 3384SOL    HW111051   2.759   3.330   6.372
 3384SOL    HW211052   2.906   3.385   6.324
 3385SOL     OW11053   6.760   2.895   4.128
 3385SOL    HW111054   6.690   2.832   4.093
 3385SOL    HW211055   6.719   2.956   4.196
 3386SOL     OW11056   5.667   4.619   0.019
 3386SOL    HW111057   5.664   4.717   0.036
 3386SOL    HW211058   5.725   4.601   6.962
 3387SOL     OW11059   3.237   0.739   3.197
 3387SOL    HW111060   3.264   0.713   3.289
 3387SOL    HW211061   3.248   0.661   3.136
 3388SOL     OW11062   5.307   3.232   1.842
 3388SOL    HW111063   5.391   3.223   1.789
 3388SOL    HW211064   5.288   3.329   1.858
 3389SOL     OW11065   5.592   4.960   6.414
 3389SOL    HW111066   5.655   5.031   6.383
 3389SOL    HW211067   5.632   4.870   6.398
 3390SOL     OW11068   5.042   5.997   6.455
 3390SOL    HW111069   5.141   5.996   6.467
 3390SOL    HW211070   5.015   6.078   6.403
 3391SOL     OW11071   5.146   3.408   5.299
 3391SOL    HW111072   5.198   3.324   5.285
 3391SOL    HW211073   5.060   3.404   5.248
 3392SOL     OW11074   2.831   0.093   3.324
 3392SOL    HW111075   2.879   0.167   3.276
 3392SOL    HW211076   2.738   0.085   3.289
 3393SOL     OW11077   0.174   6.413   6.910
 3393SOL    HW111078   0.274   6.411   6.921
 3393SOL    HW211079   0.150   6.470   6.831
 3394SOL     OW11080   5.136   3.682   1.749
 3394SOL    HW111081   5.165   3.776   1.772
 3394SOL    HW211082   5.154   3.622   1.827
 3395SOL     OW11083   5.195   3.013   3.140
 3395SOL    HW111084   5.271   3.068   3.107
 3395SOL    HW211085   5.202   3.001   3.239
 3396SOL     OW11086   4.456   1.964   3.143
 3396SOL    HW111087   4.441   1.915   3.228
 3396SOL    HW211088   4.479   1.899   3.070
 3397SOL     OW11089   2.803   0.417   5.659
 3397SOL    HW111090   2.706   0.408   5.637
 3397SOL    HW211091   2.849   0.466   5.585
 3398SOL     OW11092   0.782   6.842   5.046
 3398SOL    HW111093   0.766   6.744   5.031
 3398SOL    HW211094   0.859   6.854   5.109
 3399SOL     OW11095   5.789   4.130   3.854
 3399SOL    HW111096   5.843   4.058   3.897
 3399SOL    HW211097   5.838   4.217   3.861
 3400SOL     OW11098   4.736   3.191   5.830
 3400SOL    HW111099   4.678   3.242   5.767
 3400SOL    HW211100   4.783   3.117   5.780
 3401SOL     OW11101   0.031   2.972   1.187
 3401SOL    HW111102   0.070   2.973   1.095
 3401SOL    HW211103   0.100   3.003   1.252
 3402SOL     OW11104   4.100   5.749   6.759
 3402SOL    HW111105   4.166   5.771   6.830
 3402SOL    HW211106   4.052   5.832   6.731
 3403SOL     OW11107   3.623   5.390   5.013
 3403SOL    HW111108   3.713   5.402   4.971
 3403SOL    HW211109   3.556   5.370   4.941
 3404SOL     OW11110   4.737   0.999   0.004
 3404SOL    HW111111   4.661   0.950   6.985
 3404SOL    HW211112   4.736   1.094   6.997
 3405SOL     OW11113   6.733   3.864   4.928
 3405SOL    HW111114   6.677   3.943   4.953
 3405SOL    HW211115   6.700   3.783   4.977
 3406SOL     OW11116   1.210   4.211   1.670
 3406SOL    HW111117   1.269   4.250   1.600
 3406SOL    HW211118   1.157   4.284   1.714
 3407SOL     OW11119   1.711   4.976   6.500
 3407SOL    HW111120   1.787   4.935   6.448
 3407SOL    HW211121   1.631   4.985   6.440
 3408SOL     OW11122   4.863   3.851   5.158
 3408SOL    HW111123   4.853   3.919   5.085
 3408SOL    HW211124   4.838   3.761   5.123
 3409SOL     OW11125   3.301   6.682   6.579
 3409SOL    HW111126   3.317   6.694   6.677
 3409SOL    HW211127   3.373   6.625   6.540
 3410SOL     OW11128   6.540   6.593   1.100
 3410SOL    HW111129   6.528   6.691   1.082
 3410SOL    HW211130   6.635   6.576   1.125
 3411SOL     OW11131   0.507   3.053   1.881
 3411SOL    HW111132   0.581   3.094   1.828
 3411SOL    HW211133   0.492   2.959   1.851
 3412SOL     OW11134   4.451   2.672   0.583
 3412SOL    HW111135   4.399   2.604   0.532
 3412SOL    HW211136   4.388   2.726   0.640
 3413SOL     OW11137   5.920   1.245   0.810
 3413SOL    HW111138   5.934   1.331   0.761
 3413SOL    HW211139   5.994   1.232   0.876
 3414SOL     OW11140   3.634   0.884   5.559
 3414SOL    HW111141   3.727   0.854   5.580
 3414SOL    HW211142   3.636   0.976   5.521
 3415SOL     OW11143   1.908   3.821   4.823
 3415SOL    HW111144   1.964   3.829   4.906
 3415SOL    HW211145   1.968   3.808   4.744
 3416SOL     OW11146   6.889   5.645   1.023
 3416SOL    HW111147   6.939   5.716   0.974
 3416SOL    HW211148   6.808   5.619   0.971
 3417SOL     OW11149   0.664   6.344   2.724
 3417SOL    HW111150   0.627   6.260   2.764
 3417SOL    HW211151   0.608   6.422   2.753
 3418SOL     OW11152   3.239   0.044   3.712
 3418SOL    HW111153   3.167   0.111   3.698
 3418SOL    HW211154   3.276   0.015   3.624
 3419SOL     OW11155   2.759   6.395   5.085
 3419SOL    HW111156   2.858   6.397   5.069
 3419SOL    HW211157   2.739   6.332   5.159
 3420SOL     OW11158   5.619   3.056   4.333
 3420SOL    HW111159   5.638   2.967   4.291
 3420SOL    HW211160   5.609   3.044   4.432
 3421SOL     OW11161   5.136   0.935   4.980
 3421SOL    HW111162   5.187   0.916   4.896
 3421SOL    HW211163   5.118   0.849   5.028
 3422SOL     OW11164   1.933   0.789   0.767
 3422SOL    HW111165   1.856   0.787   0.831
 3422SOL    HW211166   2.010   0.738   0.806
 3423SOL     OW11167   0.089   4.587   6.200
 3423SOL    HW111168   0.124   4.499   6.166
 3423SOL    HW211169   0.135   4.609   6.286
 3424SOL     OW11170   2.877   6.431   1.377
 3424SOL    HW111171   2.939   6.504   1.350
 3424SOL    HW211172   2.929   6.350   1.404
 3425SOL     OW11173   5.649   5.017   2.944
 3425SOL    HW111174   5.631   5.066   3.030
 3425SOL    HW211175   5.625   4.921   2.956
 3426SOL     OW11176   3.771   2.545   0.537
 3426SOL    HW111177   3.729   2.605   0.469
 3426SOL    HW211178   3.725   2.558   0.625
 3427SOL     OW11179   6.641   0.772   0.258
 3427SOL    HW111180   6.716   0.734   0.203
 3427SOL    HW211181   6.580   0.699   0.287
 3428SOL     OW11182   2.085   5.445   6.831
 3428SOL    HW111183   2.044   5.451   6.740
 3428SOL    HW211184   2.047   5.367   6.880
 3429SOL     OW11185   0.755   1.920   0.481
 3429SOL    HW111186   0.694   1.899   0.404
 3429SOL    HW211187   0.760   1.841   0.542
 3430SOL     OW11188   1.354   6.808   5.525
 3430SOL    HW111189   1.376   6.873   5.598
 3430SOL    HW211190   1.291   6.739   5.559
 3431SOL     OW11191   1.350   6.774   1.182
 3431SOL    HW111192   1.336   6.863   1.139
 3431SOL    HW211193   1.273   6.714   1.161
 3432SOL     OW11194   1.584   2.792   6.901
 3432SOL    HW111195   1.680   2.775   6.922
 3432SOL    HW211196   1.571   2.888   6.877
 3433SOL     OW11197   1.194   0.227   5.927
 3433SOL    HW111198   1.271   0.225   5.864
 3433SOL    HW211199   1.112   0.260   5.879
 3434SOL     OW11200   4.381   1.088   1.227
 3434SOL    HW111201   4.358   1.171   1.278
 3434SOL    HW211202   4.454   1.109   1.161
 3435SOL     OW11203   0.276   1.357   0.915
 3435SOL    HW111204   0.358   1.347   0.859
 3435SOL    HW211205   0.233   1.267   0.927
 3436SOL     OW11206   4.145   6.113   6.533
 3436SOL    HW111207   4.114   6.085   6.624
 3436SOL    HW211208   4.121   6.209   6.518
 3437SOL     OW11209   2.355   0.673   5.939
 3437SOL    HW111210   2.344   0.574   5.950
 3437SOL    HW211211   2.390   0.693   5.848
 3438SOL     OW11212   1.240   2.785   0.243
 3438SOL    HW111213   1.314   2.766   0.178
 3438SOL    HW211214   1.162   2.725   0.223
 3439SOL     OW11215   2.285   6.171   4.829
 3439SOL    HW111216   2.211   6.118   4.787
 3439SOL    HW211217   2.340   6.213   4.757
 3440SOL     OW11218   3.316   3.610   1.292
 3440SOL    HW111219   3.298   3.665   1.373
 3440SOL    HW211220   3.347   3.519   1.320
 3441SOL     OW11221   5.353   6.540   4.763
 3441SOL    HW111222   5.258   6.561   4.739
 3441SOL    HW211223   5.365   6.441   4.767
 3442SOL     OW11224   2.207   4.799   1.995
 3442SOL    HW111225   2.219   4.886   1.947
 3442SOL    HW211226   2.126   4.805   2.054
 3443SOL     OW11227   4.823   6.078   1.360
 3443SOL    HW111228   4.746   6.097   1.421
 3443SOL    HW211229   4.884   6.012   1.404
 3444SOL     OW11230   4.917   5.188   0.318
 3444SOL    HW111231   4.919   5.282   0.283
 3444SOL    HW211232   5.004   5.166   0.361
 3445SOL     OW11233   6.511   5.508   3.187
 3445SOL    HW111234   6.589   5.447   3.179
 3445SOL    HW211235   6.504   5.565   3.105
 3446SOL     OW11236   6.193   0.974   3.100
 3446SOL    HW111237   6.254   1.047   3.071
 3446SOL    HW211238   6.241   0.914   3.165
 3447SOL     OW11239   6.267   5.374   0.686
 3447SOL    HW111240   6.226   5.287   0.710
 3447SOL    HW211241   6.363   5.375   0.714
 3448SOL     OW11242   3.372   0.541   0.435
 3448SOL    HW111243   3.468   0.562   0.416
 3448SOL    HW211244   3.360   0.523   0.533
 3449SOL     OW11245   5.926   6.450   4.058
 3449SOL    HW111246   6.010   6.473   4.010
 3449SOL    HW211247   5.864   6.529   4.056
 3450SOL     OW11248   6.947   2.477   6.553
 3450SOL    HW111249   6.971   2.468   6.457
 3450SOL    HW211250   6.858   2.522   6.561
 3451SOL     OW11251   2.332   5.940   1.235
 3451SOL    HW111252   2.421   5.986   1.240
 3451SOL    HW211253   2.341   5.857   1.180
 3452SOL     OW11254   6.346   0.675   6.018
 3452SOL    HW111255   6.302   0.697   5.931
 3452SOL    HW211256   6.277   0.671   6.090
 3453SOL     OW11257   6.866   5.825   6.451
 3453SOL    HW111258   6.867   5.777   6.538
 3453SOL    HW211259   6.926   5.906   6.456
 3454SOL     OW11260   0.992   2.399   5.344
 3454SOL    HW111261   0.949   2.310   5.358
 3454SOL    HW211262   1.024   2.434   5.433
 3455SOL     OW11263   2.680   2.308   4.826
 3455SOL    HW111264   2.671   2.237   4.755
 3455SOL    HW211265   2.641   2.393   4.794
 3456SOL     OW11266   5.779   5.808   2.253
 3456SOL    HW111267   5.773   5.851   2.343
 3456SOL    HW211268   5.793   5.710   2.264
 3457SOL     OW11269   2.954   4.992   3.296
 3457SOL    HW111270   3.035   4.947   3.334
 3457SOL    HW211271   2.876   4.930   3.301
 3458SOL     OW11272   4.948   0.771   1.996
 3458SOL    HW111273   4.958   0.755   1.898
 3458SOL    HW211274   4.955   0.869   2.014
 3459SOL     OW11275   5.337   3.176   3.382
 3459SOL    HW111276   5.326   3.083   3.418
 3459SOL    HW211277   5.334   3.241   3.458
 3460SOL     OW11278   2.422   3.391   6.991
 3460SOL    HW111279   2.386   3.430   6.906
 3460SOL    HW211280   2.476   3.310   6.970
 3461SOL     OW11281   4.824   5.207   4.915
 3461SOL    HW111282   4.762   5.272   4.870
 3461SOL    HW211283   4.918   5.224   4.884
 3462SOL     OW11284   0.277   4.003   3.000
 3462SOL    HW111285   0.242   3.910   2.995
 3462SOL    HW211286   0.251   4.053   2.917
 3463SOL     OW11287   0.768   3.775   2.620
 3463SOL    HW111288   0.822   3.709   2.672
 3463SOL    HW211289   0.814   3.797   2.535
 3464SOL     OW11290   6.248   4.070   6.324
 3464SOL    HW111291   6.244   4.120   6.237
 3464SOL    HW211292   6.165   4.016   6.335
 3465SOL     OW11293   1.599   2.357   2.200
 3465SOL    HW111294   1.555   2.446   2.211
 3465SOL    HW211295   1.552   2.305   2.129
 3466SOL     OW11296   0.423   4.687   0.282
 3466SOL    HW111297   0.341   4.687   0.340
 3466SOL    HW211298   0.505   4.685   0.339
 3467SOL     OW11299   1.907   2.827   0.359
 3467SOL    HW111300   1.861   2.780   0.434
 3467SOL    HW211301   1.846   2.831   0.279
 3468SOL     OW11302   4.996   6.610   2.927
 3468SOL    HW111303   5.075   6.659   2.962
 3468SOL    HW211304   4.943   6.671   2.867
 3469SOL     OW11305   5.329   0.552   2.623
 3469SOL    HW111306   5.403   0.619   2.624
 3469SOL    HW211307   5.340   0.489   2.699
 3470SOL     OW11308   6.156   3.414   1.182
 3470SOL    HW111309   6.069   3.364   1.185
 3470SOL    HW211310   6.210   3.391   1.262
 3471SOL     OW11311   3.837   5.253   4.314
 3471SOL    HW111312   3.857   5.241   4.217
 3471SOL    HW211313   3.912   5.302   4.358
 3472SOL     OW11314   2.652   0.422   2.475
 3472SOL    HW111315   2.598   0.505   2.459
 3472SOL    HW211316   2.686   0.422   2.569
 3473SOL     OW11317   6.883   2.270   1.380
 3473SOL    HW111318   6.946   2.258   1.457
 3473SOL    HW211319   6.928   2.323   1.308
 3474SOL     OW11320   1.416   4.534   1.702
 3474SOL    HW111321   1.443   4.543   1.606
 3474SOL    HW211322   1.324   4.570   1.715
 3475SOL     OW11323   0.820   4.886   4.265
 3475SOL    HW111324   0.836   4.790   4.290
 3475SOL    HW211325   0.907   4.934   4.262
 3476SOL     OW11326   2.971   1.330   3.489
 3476SOL    HW111327   3.031   1.314   3.567
 3476SOL    HW211328   3.022   1.377   3.417
 3477SOL     OW11329   2.604   5.142   0.805
 3477SOL    HW111330   2.624   5.102   0.715
 3477SOL    HW211331   2.649   5.088   0.875
 3478SOL     OW11332   2.725   5.691   5.253
 3478SOL    HW111333   2.704   5.727   5.161
 3478SOL    HW211334   2.739   5.593   5.247
 3479SOL     OW11335   1.531   0.414   3.237
 3479SOL    HW111336   1.545   0.331   3.184
 3479SOL    HW211337   1.434   0.438   3.237
 3480SOL     OW11338   0.574   7.008   5.126
 3480SOL    HW111339   0.624   6.969   5.049
 3480SOL    HW211340   0.627   6.998   5.209
 3481SOL     OW11341   4.808   0.373   0.479
 3481SOL    HW111342   4.728   0.408   0.528
 3481SOL    HW211343   4.779   0.329   0.394
 3482SOL     OW11344   5.191   1.232   1.677
 3482SOL    HW111345   5.100   1.246   1.714
 3482SOL    HW211346   5.258   1.284   1.731
 3483SOL     OW11347   4.585   1.939   1.136
 3483SOL    HW111348   4.565   1.851   1.093
 3483SOL    HW211349   4.569   1.932   1.234
 3484SOL     OW11350   1.208   3.581   0.100
 3484SOL    HW111351   1.163   3.621   0.020
 3484SOL    HW211352   1.184   3.484   0.107
 3485SOL     OW11353   1.885   1.391   4.696
 3485SOL    HW111354   1.913   1.318   4.759
 3485SOL    HW211355   1.788   1.410   4.707
 3486SOL     OW11356   3.041   0.898   2.870
 3486SOL    HW111357   2.993   0.811   2.883
 3486SOL    HW211358   3.070   0.906   2.774
 3487SOL     OW11359   5.420   2.806   5.421
 3487SOL    HW111360   5.341   2.852   5.380
 3487SOL    HW211361   5.391   2.755   5.502
 3488SOL     OW11362   6.232   1.646   4.350
 3488SOL    HW111363   6.200   1.730   4.394
 3488SOL    HW211364   6.197   1.642   4.256
 3489SOL     OW11365   3.773   0.191   1.201
 3489SOL    HW111366   3.819   0.212   1.115
 3489SOL    HW211367   3.684   0.150   1.182
 3490SOL     OW11368   4.304   4.311   0.418
 3490SOL    HW111369   4.297   4.404   0.381
 3490SOL    HW211370   4.216   4.264   0.410
 3491SOL     OW11371   4.745   2.587   5.013
 3491SOL    HW111372   4.670   2.523   5.030
 3491SOL    HW211373   4.833   2.541   5.030
 3492SOL     OW11374   0.364   5.269   1.113
 3492SOL    HW111375   0.396   5.314   1.197
 3492SOL    HW211376   0.422   5.295   1.037
 3493SOL     OW11377   5.520   4.613   6.786
 3493SOL    HW111378   5.441   4.610   6.725
 3493SOL    HW211379   5.547   4.520   6.812
 3494SOL     OW11380   4.054   0.673   1.030
 3494SOL    HW111381   3.965   0.717   1.045
 3494SOL    HW211382   4.045   0.575   1.048
 3495SOL     OW11383   5.131   5.300   2.688
 3495SOL    HW111384   5.173   5.249   2.763
 3495SOL    HW211385   5.130   5.398   2.710
 3496SOL     OW11386   6.481   4.478   0.577
 3496SOL    HW111387   6.506   4.381   0.582
 3496SOL    HW211388   6.549   4.532   0.626
 3497SOL     OW11389   3.571   0.958   3.824
 3497SOL    HW111390   3.657   1.006   3.840
 3497SOL    HW211391   3.499   0.999   3.879
 3498SOL     OW11392   2.655   2.394   0.633
 3498SOL    HW111393   2.566   2.376   0.674
 3498SOL    HW211394   2.646   2.465   0.564
 3499SOL     OW11395   4.910   3.347   4.361
 3499SOL    HW111396   4.913   3.441   4.394
 3499SOL    HW211397   4.892   3.285   4.438
 3500SOL     OW11398   1.618   3.358   4.423
 3500SOL    HW111399   1.628   3.454   4.449
 3500SOL    HW211400   1.696   3.330   4.367
 3501SOL     OW11401   1.950   5.848   4.697
 3501SOL    HW111402   2.014   5.922   4.675
 3501SOL    HW211403   2.001   5.764   4.715
 3502SOL     OW11404   6.327   2.763   2.611
 3502SOL    HW111405   6.300   2.767   2.514
 3502SOL    HW211406   6.375   2.676   2.628
 3503SOL     OW11407   6.745   6.320   4.654
 3503SOL    HW111408   6.654   6.362   4.654
 3503SOL    HW211409   6.741   6.232   4.607
 3504SOL     OW11410   1.646   1.929   1.396
 3504SOL    HW111411   1.607   1.940   1.488
 3504SOL    HW211412   1.718   1.997   1.382
 3505SOL     OW11413   5.538   4.838   5.175
 3505SOL    HW111414   5.453   4.834   5.122
 3505SOL    HW211415   5.552   4.751   5.222
 3506SOL     OW11416   5.044   5.286   5.972
 3506SOL    HW111417   5.067   5.363   6.033
 3506SOL    HW211418   4.947   5.289   5.950
 3507SOL     OW11419   1.480   1.067   0.233
 3507SOL    HW111420   1.406   1.001   0.218
 3507SOL    HW211421   1.441   1.154   0.262
 3508SOL     OW11422   3.297   2.395   6.164
 3508SOL    HW111423   3.293   2.427   6.070
 3508SOL    HW211424   3.211   2.414   6.210
 3509SOL     OW11425   5.990   0.068   5.509
 3509SOL    HW111426   6.009   0.082   5.606
 3509SOL    HW211427   5.961   0.154   5.467
 3510SOL     OW11428   1.757   2.745   1.769
 3510SOL    HW111429   1.745   2.677   1.842
 3510SOL    HW211430   1.832   2.716   1.709
 3511SOL     OW11431   3.155   5.101   0.497
 3511SOL    HW111432   3.089   5.115   0.571
 3511SOL    HW211433   3.159   5.003   0.474
 3512SOL     OW11434   0.479   4.882   0.707
 3512SOL    HW111435   0.458   4.894   0.804
 3512SOL    HW211436   0.544   4.952   0.678
 3513SOL     OW11437   6.440   3.333   0.599
 3513SOL    HW111438   6.440   3.256   0.534
 3513SOL    HW211439   6.362   3.323   0.662
 3514SOL     OW11440   1.064   1.523   1.921
 3514SOL    HW111441   1.130   1.452   1.947
 3514SOL    HW211442   0.988   1.480   1.872
 3515SOL     OW11443   4.921   6.002   3.306
 3515SOL    HW111444   4.963   6.090   3.284
 3515SOL    HW211445   4.990   5.930   3.301
 3516SOL     OW11446   4.829   6.714   0.954
 3516SOL    HW111447   4.857   6.700   0.859
 3516SOL    HW211448   4.872   6.797   0.989
 3517SOL     OW11449   1.006   2.172   0.902
 3517SOL    HW111450   0.949   2.254   0.913
 3517SOL    HW211451   0.994   2.113   0.982
 3518SOL     OW11452   5.661   3.429   4.635
 3518SOL    HW111453   5.585   3.407   4.574
 3518SOL    HW211454   5.683   3.526   4.627
 3519SOL     OW11455   1.004   1.031   6.141
 3519SOL    HW111456   1.087   1.003   6.188
 3519SOL    HW211457   1.018   1.120   6.098
 3520SOL     OW11458   3.523   5.098   6.310
 3520SOL    HW111459   3.534   5.007   6.350
 3520SOL    HW211460   3.485   5.089   6.218
 3521SOL     OW11461   5.244   3.032   6.669
 3521SOL    HW111462   5.199   2.955   6.625
 3521SOL    HW211463   5.253   3.108   6.605
 3522SOL     OW11464   6.505   4.347   1.751
 3522SOL    HW111465   6.446   4.409   1.700
 3522SOL    HW211466   6.451   4.299   1.820
 3523SOL     OW11467   3.078   4.960   6.076
 3523SOL    HW111468   3.007   4.890   6.064
 3523SOL    HW211469   3.165   4.916   6.098
 3524SOL     OW11470   3.726   1.008   1.228
 3524SOL    HW111471   3.778   1.082   1.269
 3524SOL    HW211472   3.655   1.046   1.168
 3525SOL     OW11473   0.994   4.052   2.640
 3525SOL    HW111474   0.910   4.106   2.632
 3525SOL    HW211475   1.043   4.052   2.553
 3526SOL     OW11476   2.526   6.109   4.097
 3526SOL    HW111477   2.546   6.092   4.001
 3526SOL    HW211478   2.427   6.121   4.109
 3527SOL     OW11479   6.232   3.122   5.997
 3527SOL    HW111480   6.286   3.161   5.922
 3527SOL    HW211481   6.264   3.159   6.084
 3528SOL     OW11482   0.585   4.718   3.989
 3528SOL    HW111483   0.635   4.766   3.916
 3528SOL    HW211484   0.647   4.657   4.037
 3529SOL     OW11485   4.476   0.108   0.155
 3529SOL    HW111486   4.441   0.122   0.248
 3529SOL    HW211487   4.420   0.161   0.091
 3530SOL     OW11488   1.753   5.170   3.324
 3530SOL    HW111489   1.693   5.195   3.400
 3530SOL    HW211490   1.820   5.103   3.354
 3531SOL     OW11491   4.760   3.537   0.835
 3531SOL    HW111492   4.765   3.446   0.877
 3531SOL    HW211493   4.682   3.587   0.873
 3532SOL     OW11494   2.736   0.759   1.332
 3532SOL    HW111495   2.764   0.853   1.315
 3532SOL    HW211496   2.682   0.755   1.416
 3533SOL     OW11497   1.782   1.428   2.464
 3533SOL    HW111498   1.835   1.507   2.433
 3533SOL    HW211499   1.710   1.409   2.398
 3534SOL     OW11500   5.575   1.147   5.397
 3534SOL    HW111501   5.606   1.052   5.389
 3534SOL    HW211502   5.598   1.197   5.314
 3535SOL     OW11503   0.881   5.465   0.415
 3535SOL    HW111504   0.942   5.538   0.385
 3535SOL    HW211505   0.876   5.394   0.344
 3536SOL     OW11506   2.355   2.196   3.786
 3536SOL    HW111507   2.452   2.169   3.790
 3536SOL    HW211508   2.300   2.129   3.834
 3537SOL     OW11509   2.945   5.141   0.661
 3537SOL    HW111510   2.871   5.125   0.595
 3537SOL    HW211511   2.941   5.072   0.733
 3538SOL     OW11512   1.124   0.706   6.014
 3538SOL    HW111513   1.037   0.742   6.047
 3538SOL    HW211514   1.112   0.666   5.923
 3539SOL     OW11515   6.120   3.980   6.053
 3539SOL    HW111516   6.172   3.956   5.971
 3539SOL    HW211517   6.108   4.079   6.057
 3540SOL     OW11518   1.461   2.589   5.884
 3540SOL    HW111519   1.501   2.497   5.888
 3540SOL    HW211520   1.507   2.642   5.813
 3541SOL     OW11521   1.924   3.175   6.851
 3541SOL    HW111522   1.943   3.184   6.949
 3541SOL    HW211523   1.972   3.096   6.815
 3542SOL     OW11524   0.929   4.647   1.829
 3542SOL    HW111525   0.884   4.662   1.916
 3542SOL    HW211526   0.881   4.697   1.757
 3543SOL     OW11527   0.754   3.605   5.408
 3543SOL    HW111528   0.678   3.629   5.348
 3543SOL    HW211529   0.718   3.566   5.493
 3544SOL     OW11530   2.906   4.878   6.548
 3544SOL    HW111531   2.835   4.942   6.519
 3544SOL    HW211532   2.995   4.922   6.540
 3545SOL     OW11533   4.186   5.141   0.036
 3545SOL    HW111534   4.101   5.166   7.013
 3545SOL    HW211535   4.181   5.045   0.065
 3546SOL     OW11536   0.512   4.669   3.092
 3546SOL    HW111537   0.562   4.720   3.022
 3546SOL    HW211538   0.567   4.665   3.175
 3547SOL     OW11539   6.299   5.079   5.043
 3547SOL    HW111540   6.287   5.171   5.078
 3547SOL    HW211541   6.336   5.083   4.950
 3548SOL     OW11542   5.214   0.430   5.674
 3548SOL    HW111543   5.266   0.417   5.758
 3548SOL    HW211544   5.152   0.508   5.685
 3549SOL     OW11545   6.987   5.268   5.871
 3549SOL    HW111546   0.008   5.350   5.834
 3549SOL    HW211547   6.970   5.203   5.796
 3550SOL     OW11548   5.903   2.889   3.621
 3550SOL    HW111549   5.881   2.986   3.615
 3550SOL    HW211550   5.823   2.835   3.593
 3551SOL     OW11551   3.441   2.108   3.226
 3551SOL    HW111552   3.415   2.109   3.323
 3551SOL    HW211553   3.361   2.124   3.170
 3552SOL     OW11554   6.295   6.639   1.651
 3552SOL    HW111555   6.212   6.687   1.621
 3552SOL    HW211556   6.270   6.547   1.683
 3553SOL     OW11557   4.307   5.233   0.611
 3553SOL    HW111558   4.315   5.136   0.637
 3553SOL    HW211559   4.357   5.248   0.526
 3554SOL     OW11560   4.606   1.159   1.090
 3554SOL    HW111561   4.676   1.104   1.045
 3554SOL    HW211562   4.611   1.253   1.056
 3555SOL     OW11563   0.257   4.071   4.321
 3555SOL    HW111564   0.229   4.164   4.298
 3555SOL    HW211565   0.333   4.043   4.261
 3556SOL     OW11566   4.157   1.202   4.642
 3556SOL    HW111567   4.172   1.284   4.586
 3556SOL    HW211568   4.060   1.179   4.642
 3557SOL     OW11569   0.847   0.972   4.286
 3557SOL    HW111570   0.813   0.990   4.194
 3557SOL    HW211571   0.796   0.896   4.327
 3558SOL     OW11572   1.583   6.261   2.457
 3558SOL    HW111573   1.557   6.342   2.404
 3558SOL    HW211574   1.642   6.202   2.402
 3559SOL     OW11575   0.637   6.719   5.302
 3559SOL    HW111576   0.691   6.787   5.352
 3559SOL    HW211577   0.670   6.628   5.325
 3560SOL     OW11578   2.013   5.661   2.603
 3560SOL    HW111579   2.105   5.641   2.636
 3560SOL    HW211580   1.946   5.620   2.665
 3561SOL     OW11581   4.560   4.484   5.209
 3561SOL    HW111582   4.469   4.462   5.172
 3561SOL    HW211583   4.622   4.503   5.133
 3562SOL     OW11584   3.554   1.274   2.898
 3562SOL    HW111585   3.559   1.371   2.875
 3562SOL    HW211586   3.550   1.263   2.998
 3563SOL     OW11587   6.241   2.206   0.640
 3563SOL    HW111588   6.227   2.214   0.739
 3563SOL    HW211589   6.312   2.269   0.611
 3564SOL     OW11590   1.346   4.550   3.200
 3564SOL    HW111591   1.303   4.462   3.175
 3564SOL    HW211592   1.276   4.621   3.200
 3565SOL     OW11593   3.010   6.405   4.817
 3565SOL    HW111594   2.919   6.365   4.818
 3565SOL    HW211595   3.070   6.352   4.757
 3566SOL     OW11596   6.507   3.343   6.116
 3566SOL    HW111597   6.475   3.401   6.191
 3566SOL    HW211598   6.606   3.353   6.106
 3567SOL     OW11599   0.303   2.030   5.798
 3567SOL    HW111600   0.211   2.019   5.759
 3567SOL    HW211601   0.329   1.947   5.846
 3568SOL     OW11602   4.679   4.259   3.752
 3568SOL    HW111603   4.642   4.231   3.841
 3568SOL    HW211604   4.672   4.358   3.742
 3569SOL     OW11605   2.687   1.434   6.382
 3569SOL    HW111606   2.678   1.529   6.355
 3569SOL    HW211607   2.742   1.385   6.315
 3570SOL     OW11608   5.438   0.937   5.538
 3570SOL    HW111609   5.422   0.840   5.558
 3570SOL    HW211610   5.351   0.982   5.519
 3571SOL     OW11611   0.390   5.041   4.618
 3571SOL    HW111612   0.487   5.033   4.639
 3571SOL    HW211613   0.362   5.137   4.628
 3572SOL     OW11614   5.830   3.580   3.018
 3572SOL    HW111615   5.854   3.488   2.987
 3572SOL    HW211616   5.734   3.581   3.046
 3573SOL     OW11617   0.606   5.676   3.389
 3573SOL    HW111618   0.507   5.677   3.399
 3573SOL    HW211619   0.639   5.582   3.386
 3574SOL     OW11620   0.418   3.637   0.302
 3574SOL    HW111621   0.474   3.701   0.355
 3574SOL    HW211622   0.418   3.548   0.347
 3575SOL     OW11623   5.183   5.131   2.407
 3575SOL    HW111624   5.198   5.228   2.386
 3575SOL    HW211625   5.093   5.104   2.372
 3576SOL     OW11626   6.955   1.782   6.124
 3576SOL    HW111627   6.897   1.743   6.196
 3576SOL    HW211628   0.027   1.756   6.139
 3577SOL     OW11629   1.535   1.830   5.994
 3577SOL    HW111630   1.492   1.881   5.920
 3577SOL    HW211631   1.465   1.795   6.056
 3578SOL     OW11632   3.525   1.932   0.690
 3578SOL    HW111633   3.515   2.018   0.640
 3578SOL    HW211634   3.485   1.941   0.781
 3579SOL     OW11635   6.390   2.585   3.937
 3579SOL    HW111636   6.306   2.539   3.968
 3579SOL    HW211637   6.455   2.516   3.904
 3580SOL     OW11638   5.759   3.269   1.601
 3580SOL    HW111639   5.728   3.196   1.540
 3580SOL    HW211640   5.799   3.342   1.547
 3581SOL     OW11641   1.636   5.824   3.619
 3581SOL    HW111642   1.569   5.853   3.688
 3581SOL    HW211643   1.590   5.811   3.531
 3582SOL     OW11644   0.223   3.482   6.146
 3582SOL    HW111645   0.198   3.577   6.167
 3582SOL    HW211646   0.289   3.482   6.070
 3583SOL     OW11647   0.725   4.109   6.395
 3583SOL    HW111648   0.640   4.137   6.441
 3583SOL    HW211649   0.742   4.012   6.412
 3584SOL     OW11650   5.413   5.561   6.727
 3584SOL    HW111651   5.414   5.657   6.755
 3584SOL    HW211652   5.493   5.542   6.670
 3585SOL     OW11653   3.574   0.429   4.825
 3585SOL    HW111654   3.654   0.489   4.828
 3585SOL    HW211655   3.566   0.390   4.733
 3586SOL     OW11656   6.854   2.174   5.023
 3586SOL    HW111657   6.834   2.077   5.032
 3586SOL    HW211658   6.913   2.203   5.099
 3587SOL     OW11659   2.542   4.666   6.070
 3587SOL    HW111660   2.593   4.580   6.080
 3587SOL    HW211661   2.590   4.739   6.118
 3588SOL     OW11662   0.905   2.540   5.811
 3588SOL    HW111663   1.003   2.545   5.832
 3588SOL    HW211664   0.865   2.632   5.815
 3589SOL     OW11665   4.468   1.674   4.660
 3589SOL    HW111666   4.488   1.769   4.637
 3589SOL    HW211667   4.482   1.660   4.758
 3590SOL     OW11668   0.768   2.582   0.243
 3590SOL    HW111669   0.729   2.525   0.315
 3590SOL    HW211670   0.864   2.556   0.228
 3591SOL     OW11671   5.167   3.842   6.933
 3591SOL    HW111672   5.114   3.868   6.852
 3591SOL    HW211673   5.264   3.841   6.911
 3592SOL     OW11674   0.445   5.151   2.010
 3592SOL    HW111675   0.517   5.151   1.940
 3592SOL    HW211676   0.436   5.243   2.047
 3593SOL     OW11677   0.713   5.568   4.621
 3593SOL    HW111678   0.689   5.664   4.638
 3593SOL    HW211679   0.803   5.549   4.662
 3594SOL     OW11680   4.374   6.388   3.657
 3594SOL    HW111681   4.438   6.382   3.580
 3594SOL    HW211682   4.280   6.381   3.623
 3595SOL     OW11683   3.327   5.615   6.570
 3595SOL    HW111684   3.314   5.661   6.658
 3595SOL    HW211685   3.378   5.675   6.508
 3596SOL     OW11686   6.147   3.004   3.275
 3596SOL    HW111687   6.055   3.014   3.237
 3596SOL    HW211688   6.187   3.094   3.290
 3597SOL     OW11689   1.585   2.621   5.624
 3597SOL    HW111690   1.683   2.642   5.618
 3597SOL    HW211691   1.533   2.691   5.576
 3598SOL     OW11692   1.505   5.373   6.548
 3598SOL    HW111693   1.497   5.326   6.460
 3598SOL    HW211694   1.568   5.450   6.539
 3599SOL     OW11695   6.794   2.182   6.250
 3599SOL    HW111696   6.889   2.211   6.258
 3599SOL    HW211697   6.784   2.122   6.170
 3600SOL     OW11698   0.618   3.025   1.400
 3600SOL    HW111699   0.664   3.054   1.483
 3600SOL    HW211700   0.568   2.940   1.416
 3601SOL     OW11701   5.425   3.948   6.887
 3601SOL    HW111702   5.376   3.977   6.805
 3601SOL    HW211703   5.474   3.863   6.869
 3602SOL     OW11704   2.086   2.594   0.367
 3602SOL    HW111705   2.059   2.690   0.376
 3602SOL    HW211706   2.066   2.545   0.452
 3603SOL     OW11707   3.818   1.051   3.818
 3603SOL    HW111708   3.869   0.976   3.776
 3603SOL    HW211709   3.801   1.122   3.749
 3604SOL     OW11710   6.251   5.408   2.967
 3604SOL    HW111711   6.314   5.453   2.903
 3604SOL    HW211712   6.209   5.477   3.026
 3605SOL     OW11713   6.606   3.431   4.889
 3605SOL    HW111714   6.539   3.363   4.917
 3605SOL    HW211715   6.678   3.387   4.835
 3606SOL     OW11716   0.199   0.588   4.641
 3606SOL    HW111717   0.138   0.647   4.588
 3606SOL    HW211718   0.205   0.498   4.597
 3607SOL     OW11719   5.946   5.201   1.961
 3607SOL    HW111720   6.043   5.195   1.985
 3607SOL    HW211721   5.893   5.142   2.022
 3608SOL     OW11722   5.545   2.532   4.051
 3608SOL    HW111723   5.623   2.593   4.063
 3608SOL    HW211724   5.574   2.438   4.067
 3609SOL     OW11725   1.381   0.008   3.889
 3609SOL    HW111726   1.318   6.955   3.904
 3609SOL    HW211727   1.468   7.011   3.934
 3610SOL     OW11728   1.983   6.942   6.142
 3610SOL    HW111729   1.912   6.955   6.211
 3610SOL    HW211730   2.049   7.017   6.149
 3611SOL     OW11731   4.430   5.164   4.724
 3611SOL    HW111732   4.340   5.205   4.706
 3611SOL    HW211733   4.454   5.178   4.820
 3612SOL     OW11734   6.777   6.838   0.338
 3612SOL    HW111735   6.774   6.756   0.395
 3612SOL    HW211736   6.870   6.876   0.339
 3613SOL     OW11737   4.307   4.634   2.159
 3613SOL    HW111738   4.291   4.730   2.136
 3613SOL    HW211739   4.278   4.576   2.083
 3614SOL     OW11740   3.703   3.518   1.395
 3614SOL    HW111741   3.738   3.607   1.367
 3614SOL    HW211742   3.631   3.530   1.464
 3615SOL     OW11743   5.155   4.869   6.525
 3615SOL    HW111744   5.142   4.944   6.590
 3615SOL    HW211745   5.221   4.896   6.455
 3616SOL     OW11746   0.292   1.892   0.010
 3616SOL    HW111747   0.212   1.872   6.976
 3616SOL    HW211748   0.374   1.893   6.976
 3617SOL     OW11749   3.681   1.257   6.787
 3617SOL    HW111750   3.676   1.297   6.878
 3617SOL    HW211751   3.597   1.205   6.768
 3618SOL     OW11752   2.317   2.987   5.601
 3618SOL    HW111753   2.370   2.924   5.658
 3618SOL    HW211754   2.343   2.975   5.505
 3619SOL     OW11755   5.711   2.456   4.562
 3619SOL    HW111756   5.740   2.490   4.651
 3619SOL    HW211757   5.653   2.524   4.517
 3620SOL     OW11758   5.952   6.637   6.039
 3620SOL    HW111759   6.042   6.595   6.021
 3620SOL    HW211760   5.927   6.621   6.134
 3621SOL     OW11761   3.090   2.727   5.353
 3621SOL    HW111762   3.159   2.787   5.311
 3621SOL    HW211763   3.080   2.751   5.449
 3622SOL     OW11764   1.044   1.384   5.574
 3622SOL    HW111765   1.091   1.304   5.612
 3622SOL    HW211766   1.111   1.449   5.540
 3623SOL     OW11767   6.844   5.904   4.773
 3623SOL    HW111768   6.860   5.837   4.846
 3623SOL    HW211769   6.761   5.956   4.794
 3624SOL     OW11770   1.469   6.815   2.073
 3624SOL    HW111771   1.501   6.826   2.167
 3624SOL    HW211772   1.385   6.759   2.073
 3625SOL     OW11773   0.051   2.750   6.478
 3625SOL    HW111774   0.055   2.849   6.466
 3625SOL    HW211775   0.093   2.725   6.565
 3626SOL     OW11776   1.379   1.949   5.826
 3626SOL    HW111777   1.319   2.017   5.868
 3626SOL    HW211778   1.425   1.989   5.747
 3627SOL     OW11779   3.252   3.470   2.474
 3627SOL    HW111780   3.347   3.456   2.503
 3627SOL    HW211781   3.200   3.386   2.489
 3628SOL     OW11782   2.035   1.058   2.077
 3628SOL    HW111783   2.047   1.022   1.984
 3628SOL    HW211784   1.944   1.034   2.110
 3629SOL     OW11785   6.530   0.905   5.600
 3629SOL    HW111786   6.461   0.978   5.594
 3629SOL    HW211787   6.621   0.944   5.591
 3630SOL     OW11788   5.274   2.517   4.088
 3630SOL    HW111789   5.356   2.574   4.094
 3630SOL    HW211790   5.297   2.423   4.115
 3631SOL     OW11791   2.529   1.503   3.330
 3631SOL    HW111792   2.576   1.435   3.386
 3631SOL    HW211793   2.541   1.481   3.233
 3632SOL     OW11794   5.255   4.895   1.778
 3632SOL    HW111795   5.174   4.913   1.722
 3632SOL    HW211796   5.335   4.937   1.736
 3633SOL     OW11797   4.163   1.893   5.716
 3633SOL    HW111798   4.075   1.886   5.762
 3633SOL    HW211799   4.155   1.955   5.638
 3634SOL     OW11800   1.743   4.984   5.119
 3634SOL    HW111801   1.662   4.951   5.072
 3634SOL    HW211802   1.739   4.959   5.216
 3635SOL     OW11803   3.194   0.033   0.711
 3635SOL    HW111804   3.120   0.079   0.760
 3635SOL    HW211805   3.194   0.061   0.615
 3636SOL     OW11806   0.121   5.681   0.695
 3636SOL    HW111807   0.076   5.736   0.624
 3636SOL    HW211808   0.147   5.739   0.772
 3637SOL     OW11809   6.897   1.997   2.256
 3637SOL    HW111810   6.933   2.074   2.203
 3637SOL    HW211811   6.815   2.026   2.305
 3638SOL     OW11812   0.964   4.628   3.242
 3638SOL    HW111813   0.867   4.606   3.237
 3638SOL    HW211814   1.009   4.566   3.306
 3639SOL     OW11815   3.841   5.379   0.650
 3639SOL    HW111816   3.911   5.419   0.591
 3639SOL    HW211817   3.884   5.322   0.720
 3640SOL     OW11818   4.060   0.483   0.040
 3640SOL    HW111819   4.075   0.452   6.969
 3640SOL    HW211820   4.095   0.414   0.104
 3641SOL     OW11821   5.588   3.560   2.531
 3641SOL    HW111822   5.533   3.489   2.577
 3641SOL    HW211823   5.669   3.580   2.586
 3642SOL     OW11824   5.093   1.962   0.508
 3642SOL    HW111825   5.177   1.978   0.456
 3642SOL    HW211826   5.015   2.001   0.459
 3643SOL     OW11827   3.111   5.623   3.936
 3643SOL    HW111828   3.190   5.614   3.875
 3643SOL    HW211829   3.131   5.579   4.024
 3644SOL     OW11830   0.260   0.958   1.884
 3644SOL    HW111831   0.171   0.993   1.857
 3644SOL    HW211832   0.262   0.943   1.983
 3645SOL     OW11833   1.133   2.570   3.973
 3645SOL    HW111834   1.205   2.524   3.921
 3645SOL    HW211835   1.175   2.633   4.039
 3646SOL     OW11836   1.330   4.050   6.829
 3646SOL    HW111837   1.346   3.993   6.910
 3646SOL    HW211838   1.381   4.014   6.751
 3647SOL     OW11839   2.557   6.130   6.457
 3647SOL    HW111840   2.494   6.154   6.531
 3647SOL    HW211841   2.536   6.185   6.376
 3648SOL     OW11842   4.372   5.232   1.772
 3648SOL    HW111843   4.362   5.300   1.699
 3648SOL    HW211844   4.285   5.220   1.818
 3649SOL     OW11845   6.018   2.898   1.370
 3649SOL    HW111846   6.096   2.932   1.316
 3649SOL    HW211847   5.948   2.969   1.374
 3650SOL     OW11848   6.669   5.873   1.746
 3650SOL    HW111849   6.759   5.858   1.706
 3650SOL    HW211850   6.602   5.890   1.673
 3651SOL     OW11851   0.276   0.314   4.521
 3651SOL    HW111852   0.220   0.257   4.582
 3651SOL    HW211853   0.372   0.305   4.546
 3652SOL     OW11854   6.347   7.008   3.701
 3652SOL    HW111855   6.366   6.918   3.740
 3652SOL    HW211856   6.416   0.051   3.732
 3653SOL     OW11857   1.008   2.056   3.649
 3653SOL    HW111858   0.985   2.153   3.636
 3653SOL    HW211859   1.074   2.028   3.580
 3654SOL     OW11860   3.545   4.539   0.592
 3654SOL    HW111861   3.518   4.626   0.551
 3654SOL    HW211862   3.618   4.554   0.658
 3655SOL     OW11863   3.157   6.769   3.774
 3655SOL    HW111864   3.146   6.750   3.872
 3655SOL    HW211865   3.177   6.866   3.761
 3656SOL     OW11866   0.647   4.382   1.093
 3656SOL    HW111867   0.568   4.402   1.151
 3656SOL    HW211868   0.670   4.285   1.099
 3657SOL     OW11869   5.394   6.155   5.495
 3657SOL    HW111870   5.339   6.159   5.411
 3657SOL    HW211871   5.376   6.236   5.551
 3658SOL     OW11872   2.006   4.719   6.526
 3658SOL    HW111873   1.938   4.683   6.590
 3658SOL    HW211874   2.057   4.643   6.486
 3659SOL     OW11875   2.140   3.474   5.624
 3659SOL    HW111876   2.107   3.459   5.717
 3659SOL    HW211877   2.158   3.385   5.581
 3660SOL     OW11878   5.663   5.836   3.862
 3660SOL    HW111879   5.655   5.893   3.781
 3660SOL    HW211880   5.736   5.769   3.849
 3661SOL     OW11881   6.224   0.688   5.412
 3661SOL    HW111882   6.310   0.678   5.462
 3661SOL    HW211883   6.233   0.648   5.321
 3662SOL     OW11884   3.830   0.918   4.063
 3662SOL    HW111885   3.809   0.972   3.982
 3662SOL    HW211886   3.795   0.825   4.051
 3663SOL     OW11887   2.057   2.175   0.365
 3663SOL    HW111888   2.045   2.205   0.459
 3663SOL    HW211889   2.034   2.078   0.357
 3664SOL     OW11890   4.631   2.388   1.252
 3664SOL    HW111891   4.659   2.469   1.200
 3664SOL    HW211892   4.596   2.319   1.188
 3665SOL     OW11893   1.011   6.306   5.211
 3665SOL    HW111894   0.993   6.375   5.140
 3665SOL    HW211895   0.945   6.316   5.285
 3666SOL     OW11896   0.530   3.233   3.064
 3666SOL    HW111897   0.489   3.212   3.152
 3666SOL    HW211898   0.491   3.317   3.028
 3667SOL     OW11899   0.618   1.464   3.905
 3667SOL    HW111900   0.644   1.372   3.873
 3667SOL    HW211901   0.519   1.468   3.918
 3668SOL     OW11902   1.489   1.352   1.124
 3668SOL    HW111903   1.481   1.430   1.061
 3668SOL    HW211904   1.397   1.317   1.145
 3669SOL     OW11905   5.494   1.398   3.824
 3669SOL    HW111906   5.583   1.424   3.785
 3669SOL    HW211907   5.485   1.439   3.914
 3670SOL     OW11908   1.616   5.909   6.854
 3670SOL    HW111909   1.631   5.864   6.942
 3670SOL    HW211910   1.596   6.006   6.869
 3671SOL     OW11911   0.339   1.774   3.836
 3671SOL    HW111912   0.354   1.814   3.745
 3671SOL    HW211913   0.423   1.780   3.889
 3672SOL     OW11914   4.443   1.958   1.743
 3672SOL    HW111915   4.521   1.991   1.690
 3672SOL    HW211916   4.446   1.998   1.835
 3673SOL     OW11917   4.014   6.406   0.056
 3673SOL    HW111918   3.969   6.484   0.100
 3673SOL    HW211919   4.092   6.377   0.110
 3674SOL     OW11920   1.454   5.670   5.258
 3674SOL    HW111921   1.387   5.745   5.257
 3674SOL    HW211922   1.480   5.650   5.352
 3675SOL     OW11923   2.234   3.002   3.844
 3675SOL    HW111924   2.208   2.968   3.753
 3675SOL    HW211925   2.285   2.931   3.892
 3676SOL     OW11926   6.401   4.230   2.849
 3676SOL    HW111927   6.355   4.205   2.934
 3676SOL    HW211928   6.403   4.150   2.788
 3677SOL     OW11929   2.774   6.247   4.170
 3677SOL    HW111930   2.805   6.246   4.265
 3677SOL    HW211931   2.681   6.210   4.166
 3678SOL     OW11932   0.456   1.146   3.982
 3678SOL    HW111933   0.546   1.154   3.938
 3678SOL    HW211934   0.462   1.082   4.058
 3679SOL     OW11935   0.191   0.223   3.603
 3679SOL    HW111936   0.165   0.246   3.510
 3679SOL    HW211937   0.213   0.307   3.653
 3680SOL     OW11938   4.934   2.942   4.184
 3680SOL    HW111939   5.002   2.941   4.258
 3680SOL    HW211940   4.848   2.904   4.218
 3681SOL     OW11941   0.259   0.702   6.058
 3681SOL    HW111942   0.242   0.736   5.965
 3681SOL    HW211943   0.326   0.761   6.103
 3682SOL     OW11944   5.267   2.632   0.095
 3682SOL    HW111945   5.278   2.671   0.187
 3682SOL    HW211946   5.356   2.630   0.049
 3683SOL     OW11947   6.816   1.731   4.056
 3683SOL    HW111948   6.885   1.659   4.069
 3683SOL    HW211949   6.830   1.774   3.967
 3684SOL     OW11950   1.148   5.215   0.075
 3684SOL    HW111951   1.108   5.198   0.165
 3684SOL    HW211952   1.107   5.152   0.008
 3685SOL     OW11953   1.668   6.353   6.594
 3685SOL    HW111954   1.755   6.303   6.592
 3685SOL    HW211955   1.668   6.416   6.671
 3686SOL     OW11956   6.038   5.270   4.775
 3686SOL    HW111957   5.995   5.221   4.851
 3686SOL    HW211958   6.064   5.362   4.806
 3687SOL     OW11959   3.755   6.560   3.896
 3687SOL    HW111960   3.773   6.473   3.943
 3687SOL    HW211961   3.794   6.635   3.950
 3688SOL     OW11962   0.742   3.286   6.656
 3688SOL    HW111963   0.643   3.282   6.668
 3688SOL    HW211964   0.775   3.378   6.680
 3689SOL     OW11965   2.342   0.405   5.927
 3689SOL    HW111966   2.311   0.389   5.833
 3689SOL    HW211967   2.385   0.322   5.962
 3690SOL     OW11968   4.258   5.814   6.979
 3690SOL    HW111969   4.355   5.806   7.002
 3690SOL    HW211970   4.208   5.737   7.018
 3691SOL     OW11971   2.259   1.654   6.445
 3691SOL    HW111972   2.296   1.646   6.352
 3691SOL    HW211973   2.159   1.647   6.442
 3692SOL     OW11974   6.480   5.253   5.529
 3692SOL    HW111975   6.484   5.348   5.562
 3692SOL    HW211976   6.502   5.251   5.431
 3693SOL     OW11977   1.981   4.001   3.141
 3693SOL    HW111978   1.883   4.018   3.131
 3693SOL    HW211979   1.998   3.902   3.141
 3694SOL     OW11980   0.634   6.547   1.567
 3694SOL    HW111981   0.603   6.467   1.617
 3694SOL    HW211982   0.669   6.615   1.631
 3695SOL     OW11983   5.339   2.998   2.013
 3695SOL    HW111984   5.403   3.015   2.087
 3695SOL    HW211985   5.344   3.074   1.947
 3696SOL     OW11986   4.120   6.954   3.803
 3696SOL    HW111987   4.178   6.981   3.726
 3696SOL    HW211988   4.087   0.013   3.850
 3697SOL     OW11989   0.280   6.316   2.740
 3697SOL    HW111990   0.302   6.253   2.814
 3697SOL    HW211991   0.204   6.279   2.686
 3698SOL     OW11992   2.923   1.091   4.568
 3698SOL    HW111993   2.855   1.150   4.526
 3698SOL    HW211994   3.015   1.121   4.540
 3699SOL     OW11995   1.409   2.047   4.485
 3699SOL    HW111996   1.483   2.015   4.426
 3699SOL    HW211997   1.432   2.028   4.580
 3700SOL     OW11998   1.195   5.535   4.837
 3700SOL    HW111999   1.286   5.556   4.802
 3700SOL    HW212000   1.129   5.600   4.799
 3701SOL     OW12001   1.373   1.041   4.254
 3701SOL    HW112002   1.459   1.001   4.223
 3701SOL    HW212003   1.363   1.028   4.353
 3702SOL     OW12004   5.475   6.723   3.154
 3702SOL    HW112005   5.487   6.752   3.249
 3702SOL    HW212006   5.539   6.773   3.096
 3703SOL     OW12007   6.319   0.434   6.325
 3703SOL    HW112008   6.351   0.525   6.353
 3703SOL    HW212009   6.334   0.423   6.227
 3704SOL     OW12010   3.275   1.658   0.956
 3704SOL    HW112011   3.200   1.629   0.897
 3704SOL    HW212012   3.265   1.756   0.977
 3705SOL     OW12013   5.257   4.139   4.668
 3705SOL    HW112014   5.238   4.235   4.649
 3705SOL    HW212015   5.242   4.121   4.766
 3706SOL     OW12016   1.413   4.159   0.239
 3706SOL    HW112017   1.389   4.062   0.241
 3706SOL    HW212018   1.365   4.204   0.164
 3707SOL     OW12019   5.229   4.887   4.109
 3707SOL    HW112020   5.201   4.797   4.142
 3707SOL    HW212021   5.319   4.910   4.147
 3708SOL     OW12022   6.277   0.957   0.237
 3708SOL    HW112023   6.189   0.993   0.206
 3708SOL    HW212024   6.280   0.961   0.337
 3709SOL     OW12025   3.525   1.114   1.020
 3709SOL    HW112026   3.530   1.061   0.936
 3709SOL    HW212027   3.437   1.161   1.024
 3710SOL     OW12028   6.340   5.759   5.273
 3710SOL    HW112029   6.401   5.804   5.208
 3710SOL    HW212030   6.291   5.685   5.227
 3711SOL     OW12031   0.995   6.095   4.575
 3711SOL    HW112032   0.916   6.125   4.628
 3711SOL    HW212033   0.978   6.004   4.537
 3712SOL     OW12034   1.078   5.403   6.309
 3712SOL    HW112035   0.990   5.374   6.348
 3712SOL    HW212036   1.141   5.425   6.382
 3713SOL     OW12037   0.272   6.993   5.133
 3713SOL    HW112038   0.371   7.004   5.127
 3713SOL    HW212039   0.237   6.954   5.047
 3714SOL     OW12040   5.604   6.101   6.359
 3714SOL    HW112041   5.545   6.112   6.278
 3714SOL    HW212042   5.670   6.028   6.342
 3715SOL     OW12043   0.686   3.862   3.109
 3715SOL    HW112044   0.775   3.867   3.154
 3715SOL    HW212045   0.646   3.954   3.104
 3716SOL     OW12046   6.283   6.676   3.638
 3716SOL    HW112047   6.214   6.659   3.708
 3716SOL    HW212048   6.373   6.684   3.681
 3717SOL     OW12049   6.013   6.849   6.486
 3717SOL    HW112050   6.051   6.807   6.569
 3717SOL    HW212051   6.086   6.864   6.419
 3718SOL     OW12052   0.790   0.824   6.989
 3718SOL    HW112053   0.840   0.758   0.023
 3718SOL    HW212054   0.703   0.847   0.010
 3719SOL     OW12055   5.307   4.074   1.141
 3719SOL    HW112056   5.342   4.042   1.053
 3719SOL    HW212057   5.365   4.147   1.176
 3720SOL     OW12058   5.727   2.884   6.804
 3720SOL    HW112059   5.781   2.800   6.798
 3720SOL    HW212060   5.630   2.861   6.814
 3721SOL     OW12061   6.730   4.950   1.965
 3721SOL    HW112062   6.679   5.036   1.956
 3721SOL    HW212063   6.668   4.877   1.993
 3722SOL     OW12064   5.925   5.911   1.016
 3722SOL    HW112065   5.868   5.993   1.013
 3722SOL    HW212066   5.879   5.837   0.967
 3723SOL     OW12067   5.682   5.125   1.129
 3723SOL    HW112068   5.729   5.075   1.057
 3723SOL    HW212069   5.585   5.134   1.106
 3724SOL     OW12070   1.702   4.754   4.831
 3724SOL    HW112071   1.653   4.799   4.906
 3724SOL    HW212072   1.760   4.821   4.785
 3725SOL     OW12073   7.001   5.029   0.111
 3725SOL    HW112074   6.953   4.947   0.080
 3725SOL    HW212075   6.953   5.069   0.188
 3726SOL     OW12076   6.351   3.226   6.843
 3726SOL    HW112077   6.356   3.254   6.939
 3726SOL    HW212078   6.282   3.154   6.833
 3727SOL     OW12079   6.638   1.339   5.810
 3727SOL    HW112080   6.603   1.314   5.720
 3727SOL    HW212081   6.565   1.335   5.878
 3728SOL     OW12082   0.993   3.512   6.236
 3728SOL    HW112083   0.936   3.431   6.224
 3728SOL    HW212084   1.088   3.485   6.252
 3729SOL     OW12085   1.900   1.732   4.572
 3729SOL    HW112086   1.998   1.753   4.568
 3729SOL    HW212087   1.862   1.769   4.656
 3730SOL     OW12088   3.153   5.870   5.608
 3730SOL    HW112089   3.054   5.863   5.624
 3730SOL    HW212090   3.182   5.798   5.546
 3731SOL     OW12091   6.802   1.608   1.016
 3731SOL    HW112092   6.886   1.587   0.967
 3731SOL    HW212093   6.744   1.666   0.958
 3732SOL     OW12094   2.727   1.915   6.874
 3732SOL    HW112095   2.734   1.872   6.784
 3732SOL    HW212096   2.816   1.913   6.919
 3733SOL     OW12097   1.742   3.212   3.215
 3733SOL    HW112098   1.774   3.267   3.138
 3733SOL    HW212099   1.655   3.168   3.190
 3734SOL     OW12100   4.797   0.301   1.235
 3734SOL    HW112101   4.791   0.281   1.137
 3734SOL    HW212102   4.725   0.367   1.259
 3735SOL     OW12103   2.929   1.119   3.027
 3735SOL    HW112104   2.978   1.040   2.990
 3735SOL    HW212105   2.973   1.149   3.112
 3736SOL     OW12106   6.615   2.119   1.287
 3736SOL    HW112107   6.626   2.218   1.277
 3736SOL    HW212108   6.639   2.074   1.200
 3737SOL     OW12109   5.382   1.048   4.428
 3737SOL    HW112110   5.414   0.961   4.389
 3737SOL    HW212111   5.286   1.039   4.453
 3738SOL     OW12112   6.741   0.381   1.957
 3738SOL    HW112113   6.777   0.318   1.888
 3738SOL    HW212114   6.665   0.432   1.917
 3739SOL     OW12115   2.812   5.334   0.807
 3739SOL    HW112116   2.878   5.286   0.750
 3739SOL    HW212117   2.723   5.289   0.801
 3740SOL     OW12118   6.815   0.383   1.031
 3740SOL    HW112119   6.887   0.429   1.084
 3740SOL    HW212120   6.749   0.342   1.094
 3741SOL     OW12121   5.807   3.027   5.752
 3741SOL    HW112122   5.812   3.084   5.670
 3741SOL    HW212123   5.715   2.989   5.760
 3742SOL     OW12124   2.733   1.808   6.627
 3742SOL    HW112125   2.658   1.742   6.634
 3742SOL    HW212126   2.791   1.785   6.549
 3743SOL     OW12127   5.989   3.156   0.389
 3743SOL    HW112128   6.010   3.217   0.465
 3743SOL    HW212129   6.074   3.116   0.354
 3744SOL     OW12130   1.837   5.958   1.370
 3744SOL    HW112131   1.806   5.932   1.278
 3744SOL    HW212132   1.914   5.899   1.396
 3745SOL     OW12133   4.651   4.598   2.746
 3745SOL    HW112134   4.589   4.577   2.671
 3745SOL    HW212135   4.697   4.685   2.728
 3746SOL     OW12136   6.061   1.011   3.931
 3746SOL    HW112137   6.005   1.032   4.011
 3746SOL    HW212138   6.014   1.043   3.849
 3747SOL     OW12139   3.108   6.466   5.084
 3747SOL    HW112140   3.061   6.476   4.996
 3747SOL    HW212141   3.045   6.492   5.157
 3748SOL     OW12142   5.875   0.773   2.013
 3748SOL    HW112143   5.869   0.763   2.112
 3748SOL    HW212144   5.784   0.793   1.976
 3749SOL     OW12145   1.733   5.251   3.048
 3749SOL    HW112146   1.719   5.229   3.145
 3749SOL    HW212147   1.698   5.343   3.030
 3750SOL     OW12148   6.640   5.090   1.539
 3750SOL    HW112149   6.595   5.137   1.616
 3750SOL    HW212150   6.738   5.083   1.558
 3751SOL     OW12151   6.916   3.763   1.425
 3751SOL    HW112152   6.838   3.703   1.445
 3751SOL    HW212153   6.898   3.813   1.341
 3752SOL     OW12154   6.258   6.661   0.948
 3752SOL    HW112155   6.258   6.611   1.035
 3752SOL    HW212156   6.164   6.668   0.914
 3753SOL     OW12157   6.879   1.079   4.209
 3753SOL    HW112158   6.877   1.103   4.112
 3753SOL    HW212159   6.955   1.127   4.254
 3754SOL     OW12160   4.374   6.640   0.947
 3754SOL    HW112161   4.275   6.630   0.952
 3754SOL    HW212162   4.416   6.550   0.934
 3755SOL     OW12163   5.245   5.753   4.223
 3755SOL    HW112164   5.147   5.766   4.235
 3755SOL    HW212165   5.291   5.766   4.311
 3756SOL     OW12166   1.931   5.693   6.521
 3756SOL    HW112167   1.990   5.617   6.548
 3756SOL    HW212168   1.948   5.717   6.426
 3757SOL     OW12169   4.400   6.586   6.238
 3757SOL    HW112170   4.370   6.490   6.237
 3757SOL    HW212171   4.469   6.601   6.167
 3758SOL     OW12172   2.184   1.644   5.592
 3758SOL    HW112173   2.268   1.697   5.582
 3758SOL    HW212174   2.118   1.673   5.523
 3759SOL     OW12175   4.384   5.506   6.409
 3759SOL    HW112176   4.289   5.536   6.412
 3759SOL    HW212177   4.395   5.424   6.465
 3760SOL     OW12178   1.789   1.543   5.362
 3760SOL    HW112179   1.883   1.509   5.353
 3760SOL    HW212180   1.745   1.497   5.439
 3761SOL     OW12181   1.069   0.943   4.468
 3761SOL    HW112182   0.996   0.960   4.401
 3761SOL    HW212183   1.095   0.846   4.464
 3762SOL     OW12184   1.432   3.587   0.289
 3762SOL    HW112185   1.418   3.667   0.347
 3762SOL    HW212186   1.358   3.580   0.223
 3763SOL     OW12187   6.632   4.098   1.640
 3763SOL    HW112188   6.641   4.050   1.727
 3763SOL    HW212189   6.589   4.187   1.654
 3764SOL     OW12190   1.597   6.715   3.509
 3764SOL    HW112191   1.573   6.624   3.545
 3764SOL    HW212192   1.608   6.779   3.586
 3765SOL     OW12193   4.687   0.883   0.693
 3765SOL    HW112194   4.735   0.899   0.779
 3765SOL    HW212195   4.708   0.791   0.659
 3766SOL     OW12196   1.368   1.091   3.617
 3766SOL    HW112197   1.292   1.155   3.611
 3766SOL    HW212198   1.336   1.004   3.655
 3767SOL     OW12199   2.122   4.509   0.388
 3767SOL    HW112200   2.202   4.514   0.327
 3767SOL    HW212201   2.039   4.530   0.335
 3768SOL     OW12202   1.655   6.468   4.906
 3768SOL    HW112203   1.653   6.568   4.911
 3768SOL    HW212204   1.698   6.440   4.820
 3769SOL     OW12205   6.214   6.586   5.381
 3769SOL    HW112206   6.243   6.518   5.448
 3769SOL    HW212207   6.120   6.569   5.354
 3770SOL     OW12208   1.839   0.523   6.857
 3770SOL    HW112209   1.817   0.620   6.867
 3770SOL    HW212210   1.796   0.471   6.931
 3771SOL     OW12211   5.890   3.323   6.595
 3771SOL    HW112212   5.866   3.229   6.574
 3771SOL    HW212213   5.987   3.329   6.619
 3772SOL     OW12214   6.769   0.957   6.794
 3772SOL    HW112215   6.693   0.943   6.858
 3772SOL    HW212216   6.825   0.873   6.789
 3773SOL     OW12217   6.280   2.660   6.318
 3773SOL    HW112218   6.239   2.738   6.366
 3773SOL    HW212219   6.255   2.663   6.222
 3774SOL     OW12220   0.277   6.137   0.391
 3774SOL    HW112221   0.342   6.172   0.324
 3774SOL    HW212222   0.281   6.193   0.473
 3775SOL     OW12223   4.700   5.218   2.064
 3775SOL    HW112224   4.753   5.292   2.106
 3775SOL    HW212225   4.722   5.213   1.967
 3776SOL     OW12226   4.151   0.972   0.334
 3776SOL    HW112227   4.189   0.969   0.427
 3776SOL    HW212228   4.155   0.881   0.294
 3777SOL     OW12229   3.322   5.553   3.780
 3777SOL    HW112230   3.375   5.481   3.825
 3777SOL    HW212231   3.367   5.641   3.796
 3778SOL     OW12232   3.805   4.953   2.329
 3778SOL    HW112233   3.867   4.899   2.272
 3778SOL    HW212234   3.717   4.964   2.282
 3779SOL     OW12235   1.731   4.742   0.690
 3779SOL    HW112236   1.678   4.811   0.740
 3779SOL    HW212237   1.768   4.676   0.755
 3780SOL     OW12238   5.896   5.967   5.215
 3780SOL    HW112239   5.934   5.980   5.123
 3780SOL    HW212240   5.936   6.034   5.277
 3781SOL     OW12241   0.745   6.627   4.470
 3781SOL    HW112242   0.752   6.727   4.463
 3781SOL    HW212243   0.780   6.586   4.386
 3782SOL     OW12244   2.827   0.987   4.080
 3782SOL    HW112245   2.838   1.064   4.018
 3782SOL    HW212246   2.875   0.908   4.044
 3783SOL     OW12247   5.843   5.536   4.042
 3783SOL    HW112248   5.764   5.478   4.024
 3783SOL    HW212249   5.834   5.578   4.132
 3784SOL     OW12250   4.837   2.816   2.185
 3784SOL    HW112251   4.800   2.900   2.147
 3784SOL    HW212252   4.927   2.798   2.147
 3785SOL     OW12253   2.180   2.040   6.381
 3785SOL    HW112254   2.181   2.024   6.480
 3785SOL    HW212255   2.085   2.050   6.350
 3786SOL     OW12256   2.183   5.916   2.909
 3786SOL    HW112257   2.204   5.976   2.986
 3786SOL    HW212258   2.085   5.894   2.910
 3787SOL     OW12259   6.087   0.855   2.297
 3787SOL    HW112260   6.083   0.902   2.209
 3787SOL    HW212261   6.069   0.921   2.370
 3788SOL     OW12262   0.576   4.124   4.535
 3788SOL    HW112263   0.509   4.051   4.519
 3788SOL    HW212264   0.560   4.166   4.624
 3789SOL     OW12265   0.296   2.580   5.183
 3789SOL    HW112266   0.346   2.666   5.171
 3789SOL    HW212267   0.251   2.555   5.098
 3790SOL     OW12268   1.157   4.740   5.247
 3790SOL    HW112269   1.086   4.697   5.305
 3790SOL    HW212270   1.229   4.777   5.305
 3791SOL     OW12271   5.266   0.606   0.271
 3791SOL    HW112272   5.322   0.524   0.262
 3791SOL    HW212273   5.304   0.679   0.213
 3792SOL     OW12274   1.146   1.860   5.140
 3792SOL    HW112275   1.052   1.844   5.110
 3792SOL    HW212276   1.150   1.943   5.197
 3793SOL     OW12277   5.172   6.751   2.486
 3793SOL    HW112278   5.191   6.846   2.511
 3793SOL    HW212279   5.167   6.743   2.387
 3794SOL     OW12280   2.406   3.769   0.274
 3794SOL    HW112281   2.432   3.699   0.207
 3794SOL    HW212282   2.315   3.749   0.310
 3795SOL     OW12283   4.245   6.430   6.668
 3795SOL    HW112284   4.187   6.477   6.735
 3795SOL    HW212285   4.312   6.495   6.632
 3796SOL     OW12286   2.702   2.003   2.234
 3796SOL    HW112287   2.715   2.066   2.311
 3796SOL    HW212288   2.711   2.054   2.148
 3797SOL     OW12289   6.662   3.994   1.393
 3797SOL    HW112290   6.607   3.912   1.378
 3797SOL    HW212291   6.641   4.033   1.483
 3798SOL     OW12292   2.474   5.571   2.854
 3798SOL    HW112293   2.546   5.610   2.912
 3798SOL    HW212294   2.497   5.477   2.832
 3799SOL     OW12295   0.698   2.412   4.127
 3799SOL    HW112296   0.609   2.372   4.103
 3799SOL    HW212297   0.771   2.355   4.089
 3800SOL     OW12298   5.618   3.247   3.851
 3800SOL    HW112299   5.692   3.302   3.813
 3800SOL    HW212300   5.647   3.206   3.937
 3801SOL     OW12301   6.305   6.862   3.124
 3801SOL    HW112302   6.375   6.792   3.136
 3801SOL    HW212303   6.252   6.843   3.042
 3802SOL     OW12304   1.300   2.207   3.052
 3802SOL    HW112305   1.293   2.122   3.104
 3802SOL    HW212306   1.215   2.259   3.062
 3803SOL     OW12307   3.292   2.360   1.698
 3803SOL    HW112308   3.195   2.364   1.719
 3803SOL    HW212309   3.333   2.451   1.713
 3804SOL     OW12310   4.796   1.212   3.890
 3804SOL    HW112311   4.806   1.304   3.850
 3804SOL    HW212312   4.714   1.210   3.947
 3805SOL     OW12313   2.569   2.945   1.721
 3805SOL    HW112314   2.655   2.930   1.770
 3805SOL    HW212315   2.551   3.044   1.716
 3806SOL     OW12316   3.579   3.662   6.458
 3806SOL    HW112317   3.601   3.564   6.463
 3806SOL    HW212318   3.658   3.712   6.422
 3807SOL     OW12319   1.694   5.778   2.761
 3807SOL    HW112320   1.713   5.803   2.666
 3807SOL    HW212321   1.714   5.681   2.775
 3808SOL     OW12322   3.935   0.456   0.770
 3808SOL    HW112323   4.027   0.421   0.756
 3808SOL    HW212324   3.937   0.555   0.781
 3809SOL     OW12325   5.283   3.051   1.193
 3809SOL    HW112326   5.218   3.102   1.137
 3809SOL    HW212327   5.322   2.977   1.138
 3810SOL     OW12328   4.215   2.204   4.299
 3810SOL    HW112329   4.255   2.113   4.291
 3810SOL    HW212330   4.146   2.205   4.371
 3811SOL     OW12331   1.472   4.099   4.412
 3811SOL    HW112332   1.503   4.048   4.332
 3811SOL    HW212333   1.540   4.092   4.485
 3812SOL     OW12334   5.258   6.716   4.481
 3812SOL    HW112335   5.248   6.617   4.469
 3812SOL    HW212336   5.178   6.762   4.445
 3813SOL     OW12337   4.485   4.629   0.378
 3813SOL    HW112338   4.399   4.585   0.351
 3813SOL    HW212339   4.562   4.576   0.343
 3814SOL     OW12340   6.997   6.865   6.966
 3814SOL    HW112341   6.956   6.804   6.898
 3814SOL    HW212342   0.056   6.822   7.005
 3815SOL     OW12343   4.698   2.743   0.488
 3815SOL    HW112344   4.780   2.696   0.520
 3815SOL    HW212345   4.618   2.705   0.534
 3816SOL     OW12346   1.042   6.045   6.479
 3816SOL    HW112347   1.022   5.960   6.430
 3816SOL    HW212348   0.991   6.047   6.564
 3817SOL     OW12349   4.734   4.265   2.878
 3817SOL    HW112350   4.747   4.364   2.875
 3817SOL    HW212351   4.728   4.228   2.785
 3818SOL     OW12352   6.031   0.773   0.563
 3818SOL    HW112353   6.110   0.827   0.533
 3818SOL    HW212354   5.947   0.816   0.530
 3819SOL     OW12355   5.506   5.489   2.164
 3819SOL    HW112356   5.470   5.411   2.215
 3819SOL    HW212357   5.549   5.457   2.080
 3820SOL     OW12358   5.581   6.826   3.386
 3820SOL    HW112359   5.678   6.839   3.367
 3820SOL    HW212360   5.549   6.897   3.449
 3821SOL     OW12361   2.088   1.597   1.188
 3821SOL    HW112362   2.149   1.644   1.252
 3821SOL    HW212363   2.143   1.551   1.119
 3822SOL     OW12364   1.918   6.779   2.128
 3822SOL    HW112365   1.923   6.847   2.200
 3822SOL    HW212366   1.918   6.824   2.038
 3823SOL     OW12367   3.102   2.778   5.632
 3823SOL    HW112368   3.071   2.745   5.721
 3823SOL    HW212369   3.104   2.878   5.632
 3824SOL     OW12370   5.894   2.296   0.684
 3824SOL    HW112371   5.873   2.227   0.754
 3824SOL    HW212372   5.988   2.283   0.651
 3825SOL     OW12373   0.953   6.145   0.654
 3825SOL    HW112374   1.013   6.137   0.574
 3825SOL    HW212375   0.859   6.159   0.624
 3826SOL     OW12376   1.028   2.868   6.792
 3826SOL    HW112377   1.123   2.899   6.799
 3826SOL    HW212378   0.968   2.947   6.784
 3827SOL     OW12379   2.226   2.354   0.989
 3827SOL    HW112380   2.269   2.436   1.026
 3827SOL    HW212381   2.267   2.273   1.030
 3828SOL     OW12382   4.066   2.524   1.728
 3828SOL    HW112383   4.144   2.472   1.693
 3828SOL    HW212384   3.981   2.482   1.696
 3829SOL     OW12385   1.469   4.780   4.459
 3829SOL    HW112386   1.432   4.692   4.488
 3829SOL    HW212387   1.567   4.783   4.480
 3830SOL     OW12388   0.803   0.898   3.823
 3830SOL    HW112389   0.866   0.876   3.898
 3830SOL    HW212390   0.856   0.913   3.739
 3831SOL     OW12391   4.544   2.437   2.317
 3831SOL    HW112392   4.618   2.479   2.264
 3831SOL    HW212393   4.460   2.437   2.263
 3832SOL     OW12394   5.813   0.871   3.161
 3832SOL    HW112395   5.856   0.877   3.071
 3832SOL    HW212396   5.732   0.929   3.164
 3833SOL     OW12397   0.667   6.453   5.298
 3833SOL    HW112398   0.675   6.422   5.392
 3833SOL    HW212399   0.659   6.374   5.237
 3834SOL     OW12400   4.640   3.469   1.717
 3834SOL    HW112401   4.636   3.527   1.635
 3834SOL    HW212402   4.716   3.498   1.775
 3835SOL     OW12403   3.076   5.547   4.703
 3835SOL    HW112404   3.078   5.616   4.775
 3835SOL    HW212405   3.139   5.473   4.727
 3836SOL     OW12406   1.677   4.069   5.441
 3836SOL    HW112407   1.579   4.053   5.431
 3836SOL    HW212408   1.728   3.990   5.407
 3837SOL     OW12409   4.828   4.294   6.987
 3837SOL    HW112410   4.806   4.268   6.893
 3837SOL    HW212411   4.915   4.252   7.014
 3838SOL     OW12412   6.663   3.609   4.585
 3838SOL    HW112413   6.674   3.517   4.623
 3838SOL    HW212414   6.595   3.659   4.639
 3839SOL     OW12415   4.147   0.712   3.599
 3839SOL    HW112416   4.230   0.685   3.648
 3839SOL    HW212417   4.127   0.644   3.528
 3840SOL     OW12418   1.737   1.253   5.448
 3840SOL    HW112419   1.645   1.223   5.475
 3840SOL    HW212420   1.805   1.210   5.506
 3841SOL     OW12421   0.224   3.313   5.623
 3841SOL    HW112422   0.212   3.411   5.605
 3841SOL    HW212423   0.144   3.279   5.672
 3842SOL     OW12424   1.367   3.829   6.438
 3842SOL    HW112425   1.341   3.794   6.348
 3842SOL    HW212426   1.467   3.841   6.441
 3843SOL     OW12427   6.851   4.145   2.694
 3843SOL    HW112428   6.812   4.184   2.778
 3843SOL    HW212429   6.777   4.128   2.628
 3844SOL     OW12430   0.348   3.075   6.301
 3844SOL    HW112431   0.342   3.109   6.395
 3844SOL    HW212432   0.267   3.102   6.250
 3845SOL     OW12433   3.681   2.934   3.388
 3845SOL    HW112434   3.584   2.921   3.370
 3845SOL    HW212435   3.700   2.913   3.484
 3846SOL     OW12436   0.628   5.041   4.029
 3846SOL    HW112437   0.678   4.983   3.965
 3846SOL    HW212438   0.569   4.983   4.086
 3847SOL     OW12439   6.079   0.923   4.589
 3847SOL    HW112440   6.151   0.855   4.571
 3847SOL    HW212441   6.082   0.994   4.518
 3848SOL     OW12442   3.138   5.729   2.911
 3848SOL    HW112443   3.108   5.636   2.933
 3848SOL    HW212444   3.079   5.767   2.840
 3849SOL     OW12445   0.726   1.658   5.189
 3849SOL    HW112446   0.782   1.611   5.258
 3849SOL    HW212447   0.630   1.645   5.210
 3850SOL     OW12448   2.829   3.097   1.426
 3850SOL    HW112449   2.837   3.148   1.512
 3850SOL    HW212450   2.734   3.068   1.413
 3851SOL     OW12451   1.845   4.599   2.830
 3851SOL    HW112452   1.921   4.545   2.794
 3851SOL    HW212453   1.758   4.560   2.797
 3852SOL     OW12454   4.820   6.646   4.339
 3852SOL    HW112455   4.783   6.567   4.387
 3852SOL    HW212456   4.745   6.710   4.319
 3853SOL     OW12457   1.121   3.198   3.134
 3853SOL    HW112458   1.183   3.208   3.056
 3853SOL    HW212459   1.044   3.141   3.109
 3854SOL     OW12460   0.882   3.468   2.478
 3854SOL    HW112461   0.965   3.518   2.453
 3854SOL    HW212462   0.846   3.420   2.398
 3855SOL     OW12463   4.993   5.948   6.936
 3855SOL    HW112464   4.953   5.958   6.845
 3855SOL    HW212465   5.071   6.010   6.944
 3856SOL     OW12466   6.456   6.320   5.738
 3856SOL    HW112467   6.493   6.282   5.653
 3856SOL    HW212468   6.515   6.295   5.814
 3857SOL     OW12469   0.650   5.870   6.070
 3857SOL    HW112470   0.710   5.797   6.102
 3857SOL    HW212471   0.568   5.874   6.127
 3858SOL     OW12472   1.320   6.328   5.611
 3858SOL    HW112473   1.291   6.419   5.579
 3858SOL    HW212474   1.269   6.304   5.693
 3859SOL     OW12475   6.516   2.072   2.966
 3859SOL    HW112476   6.598   2.054   3.020
 3859SOL    HW212477   6.440   2.093   3.027
 3860SOL     OW12478   1.820   0.502   5.508
 3860SOL    HW112479   1.767   0.581   5.478
 3860SOL    HW212480   1.877   0.527   5.586
 3861SOL     OW12481   4.881   4.858   2.280
 3861SOL    HW112482   4.925   4.787   2.225
 3861SOL    HW212483   4.817   4.817   2.345
 3862SOL     OW12484   0.829   0.388   4.747
 3862SOL    HW112485   0.826   0.290   4.728
 3862SOL    HW212486   0.738   0.420   4.773
 3863SOL     OW12487   5.135   2.793   6.557
 3863SOL    HW112488   5.039   2.807   6.581
 3863SOL    HW212489   5.166   2.706   6.595
 3864SOL     OW12490   2.893   1.173   5.577
 3864SOL    HW112491   2.966   1.111   5.547
 3864SOL    HW212492   2.866   1.150   5.671
 3865SOL     OW12493   3.515   0.156   0.581
 3865SOL    HW112494   3.593   0.214   0.556
 3865SOL    HW212495   3.528   0.121   0.674
 3866SOL     OW12496   4.025   0.964   0.810
 3866SOL    HW112497   4.099   1.028   0.835
 3866SOL    HW212498   3.941   1.016   0.793
 3867SOL     OW12499   1.469   3.897   3.926
 3867SOL    HW112500   1.404   3.822   3.912
 3867SOL    HW212501   1.450   3.970   3.859
 3868SOL     OW12502   2.615   6.804   1.133
 3868SOL    HW112503   2.568   6.874   1.080
 3868SOL    HW212504   2.656   6.846   1.215
 3869SOL     OW12505   0.154   3.293   4.618
 3869SOL    HW112506   0.111   3.240   4.691
 3869SOL    HW212507   0.201   3.231   4.555
 3870SOL     OW12508   4.664   5.153   0.822
 3870SOL    HW112509   4.631   5.217   0.753
 3870SOL    HW212510   4.609   5.162   0.906
 3871SOL     OW12511   4.413   0.202   2.045
 3871SOL    HW112512   4.482   0.205   2.117
 3871SOL    HW212513   4.343   0.271   2.063
 3872SOL     OW12514   4.144   3.271   2.257
 3872SOL    HW112515   4.101   3.351   2.298
 3872SOL    HW212516   4.237   3.261   2.293
 3873SOL     OW12517   6.796   4.808   1.381
 3873SOL    HW112518   6.872   4.749   1.354
 3873SOL    HW212519   6.830   4.878   1.444
 3874SOL     OW12520   3.496   5.941   6.615
 3874SOL    HW112521   3.503   5.954   6.714
 3874SOL    HW212522   3.405   5.967   6.584
 3875SOL     OW12523   1.096   2.729   2.300
 3875SOL    HW112524   1.094   2.735   2.400
 3875SOL    HW212525   1.010   2.690   2.267
 3876SOL     OW12526   5.754   5.210   6.742
 3876SOL    HW112527   5.723   5.129   6.792
 3876SOL    HW212528   5.835   5.248   6.786
 3877SOL     OW12529   0.259   2.498   6.915
 3877SOL    HW112530   0.330   2.431   6.893
 3877SOL    HW212531   0.302   2.578   6.958
 3878SOL     OW12532   2.286   6.711   5.673
 3878SOL    HW112533   2.249   6.661   5.595
 3878SOL    HW212534   2.281   6.655   5.755
 3879SOL     OW12535   5.066   6.457   1.380
 3879SOL    HW112536   5.065   6.360   1.356
 3879SOL    HW212537   5.112   6.469   1.468
 3880SOL     OW12538   6.072   4.268   3.606
 3880SOL    HW112539   5.986   4.238   3.566
 3880SOL    HW212540   6.087   4.364   3.585
 3881SOL     OW12541   1.316   5.119   0.394
 3881SOL    HW112542   1.240   5.136   0.330
 3881SOL    HW212543   1.392   5.179   0.371
 3882SOL     OW12544   6.308   1.613   5.078
 3882SOL    HW112545   6.341   1.706   5.061
 3882SOL    HW212546   6.212   1.616   5.104
 3883SOL     OW12547   4.827   0.907   3.200
 3883SOL    HW112548   4.827   0.959   3.286
 3883SOL    HW212549   4.870   0.962   3.128
 3884SOL     OW12550   1.628   5.836   4.332
 3884SOL    HW112551   1.633   5.901   4.257
 3884SOL    HW212552   1.720   5.821   4.369
 3885SOL     OW12553   6.633   1.318   4.067
 3885SOL    HW112554   6.551   1.335   4.122
 3885SOL    HW212555   6.700   1.390   4.083
 3886SOL     OW12556   6.837   6.986   4.923
 3886SOL    HW112557   6.833   6.887   4.911
 3886SOL    HW212558   6.759   7.017   4.978
 3887SOL     OW12559   5.470   1.793   5.372
 3887SOL    HW112560   5.517   1.770   5.458
 3887SOL    HW212561   5.415   1.715   5.343
 3888SOL     OW12562   0.635   0.294   6.531
 3888SOL    HW112563   0.545   0.335   6.518
 3888SOL    HW212564   0.630   0.196   6.512
 3889SOL     OW12565   6.953   2.653   6.071
 3889SOL    HW112566   7.002   2.712   6.007
 3889SOL    HW212567   7.020   2.603   6.126
 3890SOL     OW12568   5.830   6.052   2.753
 3890SOL    HW112569   5.914   6.020   2.797
 3890SOL    HW212570   5.828   6.151   2.754
 3891SOL     OW12571   5.384   4.959   4.491
 3891SOL    HW112572   5.294   4.968   4.534
 3891SOL    HW212573   5.454   4.948   4.561
 3892SOL     OW12574   0.052   0.941   2.565
 3892SOL    HW112575   0.092   0.853   2.541
 3892SOL    HW212576   6.975   0.936   2.559
 3893SOL     OW12577   2.727   5.092   2.158
 3893SOL    HW112578   2.757   5.172   2.107
 3893SOL    HW212579   2.807   5.038   2.185
 3894SOL     OW12580   3.043   1.902   0.342
 3894SOL    HW112581   2.959   1.895   0.397
 3894SOL    HW212582   3.075   1.997   0.343
 3895SOL     OW12583   1.166   1.126   5.498
 3895SOL    HW112584   1.074   1.126   5.457
 3895SOL    HW212585   1.196   1.031   5.511
 3896SOL     OW12586   0.346   2.277   5.964
 3896SOL    HW112587   0.260   2.286   6.014
 3896SOL    HW212588   0.344   2.195   5.908
 3897SOL     OW12589   3.562   6.413   2.042
 3897SOL    HW112590   3.652   6.453   2.025
 3897SOL    HW212591   3.546   6.338   1.978
 3898SOL     OW12592   3.071   3.314   3.465
 3898SOL    HW112593   3.098   3.360   3.549
 3898SOL    HW212594   3.032   3.380   3.402
 3899SOL     OW12595   4.754   1.165   4.315
 3899SOL    HW112596   4.748   1.201   4.409
 3899SOL    HW212597   4.842   1.189   4.275
 3900SOL     OW12598   5.066   3.285   3.433
 3900SOL    HW112599   5.013   3.224   3.492
 3900SOL    HW212600   5.140   3.233   3.390
 3901SOL     OW12601   2.715   6.278   5.374
 3901SOL    HW112602   2.707   6.343   5.449
 3901SOL    HW212603   2.809   6.244   5.369
 3902SOL     OW12604   4.877   4.089   2.155
 3902SOL    HW112605   4.969   4.103   2.191
 3902SOL    HW212606   4.819   4.168   2.180
 3903SOL     OW12607   4.257   3.417   6.885
 3903SOL    HW112608   4.249   3.342   6.950
 3903SOL    HW212609   4.239   3.504   6.932
 3904SOL     OW12610   1.798   0.915   6.426
 3904SOL    HW112611   1.761   1.002   6.393
 3904SOL    HW212612   1.727   0.864   6.473
 3905SOL     OW12613   5.618   6.093   5.909
 3905SOL    HW112614   5.631   6.052   5.819
 3905SOL    HW212615   5.622   6.021   5.979
 3906SOL     OW12616   1.708   5.007   5.977
 3906SOL    HW112617   1.654   4.945   6.033
 3906SOL    HW212618   1.708   4.974   5.882
 3907SOL     OW12619   0.207   0.979   4.372
 3907SOL    HW112620   0.149   1.059   4.365
 3907SOL    HW212621   0.234   0.965   4.468
 3908SOL     OW12622   1.262   0.959   6.333
 3908SOL    HW112623   1.330   1.023   6.298
 3908SOL    HW212624   1.228   0.992   6.421
 3909SOL     OW12625   6.374   4.258   6.497
 3909SOL    HW112626   6.335   4.187   6.437
 3909SOL    HW212627   6.332   4.252   6.587
 3910SOL     OW12628   3.470   4.139   2.072
 3910SOL    HW112629   3.508   4.230   2.088
 3910SOL    HW212630   3.456   4.094   2.160
 3911SOL     OW12631   4.924   1.199   0.711
 3911SOL    HW112632   4.938   1.173   0.615
 3911SOL    HW212633   5.010   1.230   0.750
 3912SOL     OW12634   3.826   0.946   6.088
 3912SOL    HW112635   3.758   0.877   6.114
 3912SOL    HW212636   3.842   1.008   6.165
 3913SOL     OW12637   3.485   6.157   6.855
 3913SOL    HW112638   3.404   6.121   6.900
 3913SOL    HW212639   3.548   6.195   6.924
 3914SOL     OW12640   5.276   0.819   1.532
 3914SOL    HW112641   5.364   0.860   1.508
 3914SOL    HW212642   5.258   0.740   1.472
 3915SOL     OW12643   4.495   6.754   6.882
 3915SOL    HW112644   4.408   6.768   6.834
 3915SOL    HW212645   4.502   6.657   6.908
 3916SOL     OW12646   2.922   0.039   2.972
 3916SOL    HW112647   3.002   0.021   2.914
 3916SOL    HW212648   2.855   6.989   2.961
 3917SOL     OW12649   2.121   4.519   0.923
 3917SOL    HW112650   2.169   4.450   0.869
 3917SOL    HW212651   2.161   4.609   0.905
 3918SOL     OW12652   3.919   0.289   0.985
 3918SOL    HW112653   3.971   0.339   1.055
 3918SOL    HW212654   3.909   0.346   0.904
 3919SOL     OW12655   3.796   0.723   6.551
 3919SOL    HW112656   3.854   0.674   6.616
 3919SOL    HW212657   3.723   0.770   6.601
 3920SOL     OW12658   2.468   0.767   0.192
 3920SOL    HW112659   2.436   0.742   0.101
 3920SOL    HW212660   2.429   0.855   0.219
 3921SOL     OW12661   0.177   2.276   6.632
 3921SOL    HW112662   0.119   2.195   6.618
 3921SOL    HW212663   0.159   2.343   6.560
 3922SOL     OW12664   4.867   5.024   1.421
 3922SOL    HW112665   4.831   4.944   1.374
 3922SOL    HW212666   4.824   5.107   1.385
 3923SOL     OW12667   5.567   2.127   1.004
 3923SOL    HW112668   5.474   2.129   1.042
 3923SOL    HW212669   5.566   2.170   0.913
 3924SOL     OW12670   0.717   4.564   3.274
 3924SOL    HW112671   0.731   4.555   3.373
 3924SOL    HW212672   0.642   4.504   3.245
 3925SOL     OW12673   5.184   4.790   1.481
 3925SOL    HW112674   5.126   4.860   1.522
 3925SOL    HW212675   5.279   4.804   1.510
 3926SOL     OW12676   0.265   0.273   5.376
 3926SOL    HW112677   0.208   0.194   5.358
 3926SOL    HW212678   0.207   0.350   5.404
 3927SOL     OW12679   0.791   2.997   4.073
 3927SOL    HW112680   0.815   2.902   4.055
 3927SOL    HW212681   0.872   3.046   4.104
 3928SOL     OW12682   3.173   5.952   2.665
 3928SOL    HW112683   3.082   5.990   2.680
 3928SOL    HW212684   3.166   5.864   2.619
 3929SOL     OW12685   0.227   0.874   0.277
 3929SOL    HW112686   0.280   0.928   0.212
 3929SOL    HW212687   0.171   0.935   0.333
 3930SOL     OW12688   0.773   2.006   3.440
 3930SOL    HW112689   0.825   1.976   3.520
 3930SOL    HW212690   0.817   2.087   3.400
 3931SOL     OW12691   1.739   1.976   1.746
 3931SOL    HW112692   1.788   2.034   1.811
 3931SOL    HW212693   1.654   2.022   1.718
 3932SOL     OW12694   2.714   5.262   4.492
 3932SOL    HW112695   2.631   5.308   4.522
 3932SOL    HW212696   2.690   5.188   4.429
 3933SOL     OW12697   1.635   6.798   0.093
 3933SOL    HW112698   1.556   6.836   0.142
 3933SOL    HW212699   1.693   6.750   0.159
 3934SOL     OW12700   0.048   0.891   3.241
 3934SOL    HW112701   0.123   0.881   3.176
 3934SOL    HW212702   7.002   0.954   3.204
 3935SOL     OW12703   0.047   1.958   5.721
 3935SOL    HW112704   0.009   2.008   5.643
 3935SOL    HW212705   7.010   1.882   5.745
 3936SOL     OW12706   6.878   6.171   5.514
 3936SOL    HW112707   6.946   6.186   5.442
 3936SOL    HW212708   6.803   6.236   5.503
 3937SOL     OW12709   0.505   6.093   3.418
 3937SOL    HW112710   0.472   6.165   3.358
 3937SOL    HW212711   0.429   6.035   3.446
 3938SOL     OW12712   6.677   3.346   4.256
 3938SOL    HW112713   6.612   3.409   4.298
 3938SOL    HW212714   6.705   3.277   4.322
 3939SOL     OW12715   2.555   1.860   3.924
 3939SOL    HW112716   2.557   1.948   3.877
 3939SOL    HW212717   2.560   1.786   3.857
 3940SOL     OW12718   3.014   4.798   1.905
 3940SOL    HW112719   2.941   4.730   1.919
 3940SOL    HW212720   3.068   4.806   1.989
 3941SOL     OW12721   5.724   6.985   4.212
 3941SOL    HW112722   5.777   0.045   4.231
 3941SOL    HW212723   5.738   6.919   4.285
 3942SOL     OW12724   0.955   6.023   5.339
 3942SOL    HW112725   0.886   6.048   5.271
 3942SOL    HW212726   1.046   6.042   5.303
 3943SOL     OW12727   1.057   3.056   2.013
 3943SOL    HW112728   1.075   3.014   2.102
 3943SOL    HW212729   1.059   3.156   2.023
 3944SOL     OW12730   5.509   3.914   5.639
 3944SOL    HW112731   5.594   3.966   5.633
 3944SOL    HW212732   5.527   3.817   5.620
 3945SOL     OW12733   1.327   2.379   3.427
 3945SOL    HW112734   1.310   2.442   3.351
 3945SOL    HW212735   1.401   2.415   3.484
 3946SOL     OW12736   0.462   3.982   6.785
 3946SOL    HW112737   0.479   3.885   6.769
 3946SOL    HW212738   0.375   3.993   6.834
 3947SOL     OW12739   6.006   5.154   0.218
 3947SOL    HW112740   6.024   5.178   0.313
 3947SOL    HW212741   6.049   5.067   0.196
 3948SOL     OW12742   1.408   3.876   0.054
 3948SOL    HW112743   1.308   3.880   0.052
 3948SOL    HW212744   1.439   3.855   0.147
 3949SOL     OW12745   6.254   0.169   3.494
 3949SOL    HW112746   6.245   0.125   3.584
 3949SOL    HW212747   6.348   0.157   3.461
 3950SOL     OW12748   4.132   4.018   1.825
 3950SOL    HW112749   4.208   4.083   1.816
 3950SOL    HW212750   4.141   3.968   1.911
 3951SOL     OW12751   6.998   1.603   6.937
 3951SOL    HW112752   0.012   1.689   6.902
 3951SOL    HW212753   0.049   1.545   6.970
 3952SOL     OW12754   5.908   3.155   4.321
 3952SOL    HW112755   5.821   3.106   4.314
 3952SOL    HW212756   5.980   3.091   4.346
 3953SOL     OW12757   3.346   4.406   5.642
 3953SOL    HW112758   3.407   4.339   5.599
 3953SOL    HW212759   3.308   4.367   5.726
 3954SOL     OW12760   6.155   5.052   5.759
 3954SOL    HW112761   6.146   5.084   5.853
 3954SOL    HW212762   6.102   4.968   5.748
 3955SOL     OW12763   4.841   6.397   6.997
 3955SOL    HW112764   4.809   6.305   6.978
 3955SOL    HW212765   4.843   6.451   6.913
 3956SOL     OW12766   0.427   2.831   5.110
 3956SOL    HW112767   0.399   2.863   5.020
 3956SOL    HW212768   0.445   2.909   5.170
 3957SOL     OW12769   3.283   5.918   3.471
 3957SOL    HW112770   3.296   5.981   3.547
 3957SOL    HW212771   3.267   5.826   3.508
 3958SOL     OW12772   5.975   6.802   0.217
 3958SOL    HW112773   5.879   6.773   0.213
 3958SOL    HW212774   6.034   6.722   0.209
 3959SOL     OW12775   3.438   6.412   0.896
 3959SOL    HW112776   3.379   6.338   0.928
 3959SOL    HW212777   3.532   6.379   0.887
 3960SOL     OW12778   5.402   2.475   6.093
 3960SOL    HW112779   5.411   2.473   6.193
 3960SOL    HW212780   5.363   2.389   6.061
 3961SOL     OW12781   4.936   2.038   1.599
 3961SOL    HW112782   4.972   2.112   1.656
 3961SOL    HW212783   4.997   2.025   1.520
 3962SOL     OW12784   0.640   5.921   6.679
 3962SOL    HW112785   0.691   5.837   6.700
 3962SOL    HW212786   0.658   5.989   6.749
 3963SOL     OW12787   6.112   5.721   3.433
 3963SOL    HW112788   6.208   5.710   3.458
 3963SOL    HW212789   6.105   5.757   3.340
 3964SOL     OW12790   4.841   5.536   5.192
 3964SOL    HW112791   4.746   5.513   5.210
 3964SOL    HW212792   4.899   5.493   5.261
 3965SOL     OW12793   3.525   4.817   5.941
 3965SOL    HW112794   3.466   4.786   5.867
 3965SOL    HW212795   3.582   4.893   5.910
 3966SOL     OW12796   6.420   5.114   6.790
 3966SOL    HW112797   6.333   5.101   6.744
 3966SOL    HW212798   6.405   5.117   6.889
 3967SOL     OW12799   1.251   4.946   3.298
 3967SOL    HW112800   1.204   4.858   3.295
 3967SOL    HW212801   1.321   4.949   3.227
 3968SOL     OW12802   5.412   0.771   2.251
 3968SOL    HW112803   5.407   0.688   2.306
 3968SOL    HW212804   5.346   0.766   2.176
 3969SOL     OW12805   0.758   4.793   2.677
 3969SOL    HW112806   0.714   4.812   2.589
 3969SOL    HW212807   0.798   4.701   2.675
 3970SOL     OW12808   5.085   5.484   3.476
 3970SOL    HW112809   5.011   5.469   3.410
 3970SOL    HW212810   5.075   5.422   3.553
 3971SOL     OW12811   3.173   5.460   2.684
 3971SOL    HW112812   3.241   5.451   2.611
 3971SOL    HW212813   3.214   5.506   2.763
 3972SOL     OW12814   0.786   6.056   0.352
 3972SOL    HW112815   0.761   6.095   0.440
 3972SOL    HW212816   0.753   5.962   0.346
 3973SOL     OW12817   3.485   3.527   4.758
 3973SOL    HW112818   3.526   3.602   4.809
 3973SOL    HW212819   3.522   3.525   4.665
 3974SOL     OW12820   0.599   0.778   6.388
 3974SOL    HW112821   0.669   0.732   6.442
 3974SOL    HW212822   0.590   0.873   6.418
 3975SOL     OW12823   6.692   0.228   5.766
 3975SOL    HW112824   6.728   0.287   5.839
 3975SOL    HW212825   6.727   0.135   5.778
 3976SOL     OW12826   0.991   5.014   1.110
 3976SOL    HW112827   0.910   4.957   1.119
 3976SOL    HW212828   1.073   4.959   1.126
 3977SOL     OW12829   3.086   5.248   5.734
 3977SOL    HW112830   2.998   5.201   5.732
 3977SOL    HW212831   3.116   5.256   5.829
 3978SOL     OW12832   4.943   0.779   4.683
 3978SOL    HW112833   4.977   0.872   4.694
 3978SOL    HW212834   5.018   0.714   4.694
 3979SOL     OW12835   2.275   6.356   1.975
 3979SOL    HW112836   2.289   6.257   1.976
 3979SOL    HW212837   2.313   6.395   2.060
 3980SOL     OW12838   6.757   3.849   5.525
 3980SOL    HW112839   6.847   3.882   5.551
 3980SOL    HW212840   6.700   3.840   5.606
 3981SOL     OW12841   0.976   1.660   5.948
 3981SOL    HW112842   0.984   1.738   6.010
 3981SOL    HW212843   0.883   1.625   5.951
 3982SOL     OW12844   3.017   0.557   4.482
 3982SOL    HW112845   2.981   0.638   4.528
 3982SOL    HW212846   3.057   0.583   4.394
 3983SOL     OW12847   2.859   5.933   4.470
 3983SOL    HW112848   2.912   5.850   4.453
 3983SOL    HW212849   2.788   5.942   4.400
 3984SOL     OW12850   2.363   0.230   1.452
 3984SOL    HW112851   2.269   0.198   1.455
 3984SOL    HW212852   2.404   0.224   1.543
 3985SOL     OW12853   2.003   3.818   6.828
 3985SOL    HW112854   2.035   3.905   6.865
 3985SOL    HW212855   1.910   3.800   6.858
 3986SOL     OW12856   0.504   1.651   2.756
 3986SOL    HW112857   0.558   1.576   2.795
 3986SOL    HW212858   0.507   1.730   2.818
 3987SOL     OW12859   1.660   5.310   4.962
 3987SOL    HW112860   1.596   5.351   5.028
 3987SOL    HW212861   1.609   5.274   4.884
 3988SOL     OW12862   3.550   1.818   5.646
 3988SOL    HW112863   3.612   1.740   5.654
 3988SOL    HW212864   3.470   1.792   5.593
 3989SOL     OW12865   5.895   0.456   5.797
 3989SOL    HW112866   5.835   0.384   5.761
 3989SOL    HW212867   5.982   0.455   5.748
 3990SOL     OW12868   5.560   1.955   4.172
 3990SOL    HW112869   5.540   1.872   4.223
 3990SOL    HW212870   5.633   1.938   4.106
 3991SOL     OW12871   6.671   2.185   3.658
 3991SOL    HW112872   6.749   2.235   3.697
 3991SOL    HW212873   6.623   2.243   3.592
 3992SOL     OW12874   4.940   3.108   6.828
 3992SOL    HW112875   4.867   3.129   6.893
 3992SOL    HW212876   4.943   3.178   6.757
 3993SOL     OW12877   2.553   2.039   3.567
 3993SOL    HW112878   2.466   2.088   3.565
 3993SOL    HW212879   2.547   1.957   3.510
 3994SOL     OW12880   2.053   2.746   4.858
 3994SOL    HW112881   1.991   2.677   4.894
 3994SOL    HW212882   2.124   2.765   4.926
 3995SOL     OW12883   2.371   5.047   4.309
 3995SOL    HW112884   2.429   4.993   4.247
 3995SOL    HW212885   2.406   5.039   4.402
 3996SOL     OW12886   1.990   1.383   5.039
 3996SOL    HW112887   1.908   1.360   5.092
 3996SOL    HW212888   2.003   1.315   4.967
 3997SOL     OW12889   4.844   3.872   3.536
 3997SOL    HW112890   4.944   3.874   3.531
 3997SOL    HW212891   4.807   3.831   3.453
 3998SOL     OW12892   5.333   2.157   2.235
 3998SOL    HW112893   5.365   2.072   2.193
 3998SOL    HW212894   5.240   2.143   2.270
 3999SOL     OW12895   6.130   3.824   3.683
 3999SOL    HW112896   6.195   3.886   3.640
 3999SOL    HW212897   6.131   3.736   3.635
 4000SOL     OW12898   3.337   5.186   2.672
 4000SOL    HW112899   3.276   5.264   2.685
 4000SOL    HW212900   3.426   5.206   2.713
 4001SOL     OW12901   2.149   3.666   5.247
 4001SOL    HW112902   2.198   3.738   5.296
 4001SOL    HW212903   2.052   3.670   5.269
 4002SOL     OW12904   3.648   3.846   5.117
 4002SOL    HW112905   3.675   3.754   5.143
 4002SOL    HW212906   3.727   3.907   5.121
 4003SOL     OW12907   2.005   1.274   5.876
 4003SOL    HW112908   2.047   1.185   5.893
 4003SOL    HW212909   2.073   1.336   5.836
 4004SOL     OW12910   5.919   2.738   4.571
 4004SOL    HW112911   6.002   2.793   4.570
 4004SOL    HW212912   5.893   2.718   4.665
 4005SOL     OW12913   5.479   4.590   1.264
 4005SOL    HW112914   5.404   4.582   1.198
 4005SOL    HW212915   5.442   4.597   1.356
 4006SOL     OW12916   5.390   4.563   2.238
 4006SOL    HW112917   5.465   4.629   2.239
 4006SOL    HW212918   5.335   4.574   2.321
 4007SOL     OW12919   0.508   2.371   2.903
 4007SOL    HW112920   0.482   2.422   2.985
 4007SOL    HW212921   0.596   2.327   2.917
 4008SOL     OW12922   3.311   1.443   6.035
 4008SOL    HW112923   3.352   1.468   5.947
 4008SOL    HW212924   3.240   1.509   6.059
 4009SOL     OW12925   4.072   2.060   1.037
 4009SOL    HW112926   4.079   1.968   0.997
 4009SOL    HW212927   4.061   2.127   0.964
 4010SOL     OW12928   2.788   3.206   1.676
 4010SOL    HW112929   2.692   3.229   1.661
 4010SOL    HW212930   2.837   3.286   1.708
 4011SOL     OW12931   0.309   6.615   1.618
 4011SOL    HW112932   0.223   6.618   1.567
 4011SOL    HW212933   0.332   6.520   1.638
 4012SOL     OW12934   4.467   6.179   2.285
 4012SOL    HW112935   4.415   6.263   2.299
 4012SOL    HW212936   4.411   6.112   2.236
 4013SOL     OW12937   2.378   0.399   1.246
 4013SOL    HW112938   2.325   0.345   1.180
 4013SOL    HW212939   2.395   0.343   1.327
 4014SOL     OW12940   3.453   5.781   3.951
 4014SOL    HW112941   3.417   5.852   4.011
 4014SOL    HW212942   3.490   5.823   3.868
 4015SOL     OW12943   4.383   4.470   0.007
 4015SOL    HW112944   4.300   4.484   0.060
 4015SOL    HW212945   4.462   4.466   0.068
 4016SOL     OW12946   2.410   5.893   0.239
 4016SOL    HW112947   2.367   5.883   0.149
 4016SOL    HW212948   2.443   5.986   0.250
 4017SOL     OW12949   0.763   6.271   6.008
 4017SOL    HW112950   0.765   6.224   6.096
 4017SOL    HW212951   0.716   6.359   6.019
 4018SOL     OW12952   4.907   6.472   1.043
 4018SOL    HW112953   5.005   6.459   1.059
 4018SOL    HW212954   4.891   6.561   1.000
 4019SOL     OW12955   5.973   4.199   2.857
 4019SOL    HW112956   5.952   4.163   2.948
 4019SOL    HW212957   6.007   4.126   2.799
 4020SOL     OW12958   6.791   3.248   5.931
 4020SOL    HW112959   6.785   3.161   5.981
 4020SOL    HW212960   6.800   3.323   5.996
 4021SOL     OW12961   3.404   3.984   5.122
 4021SOL    HW112962   3.492   3.936   5.118
 4021SOL    HW212963   3.368   3.996   5.030
 4022SOL     OW12964   4.625   6.960   6.969
 4022SOL    HW112965   4.567   6.881   6.947
 4022SOL    HW212966   4.578   7.017   0.014
 4023SOL     OW12967   0.481   0.615   4.367
 4023SOL    HW112968   0.398   0.625   4.313
 4023SOL    HW212969   0.471   0.663   4.454
 4024SOL     OW12970   2.536   5.626   4.346
 4024SOL    HW112971   2.514   5.554   4.281
 4024SOL    HW212972   2.579   5.586   4.427
 4025SOL     OW12973   1.047   6.184   3.957
 4025SOL    HW112974   1.021   6.183   3.860
 4025SOL    HW212975   0.986   6.125   4.008
 4026SOL     OW12976   6.121   6.530   3.412
 4026SOL    HW112977   6.037   6.496   3.369
 4026SOL    HW212978   6.107   6.624   3.443
 4027SOL     OW12979   2.787   2.176   0.451
 4027SOL    HW112980   2.736   2.254   0.485
 4027SOL    HW212981   2.791   2.179   0.351
 4028SOL     OW12982   3.844   1.483   3.504
 4028SOL    HW112983   3.802   1.532   3.581
 4028SOL    HW212984   3.926   1.532   3.474
 4029SOL     OW12985   3.077   4.470   5.766
 4029SOL    HW112986   3.115   4.563   5.773
 4029SOL    HW212987   3.137   4.406   5.815
 4030SOL     OW12988   0.519   1.635   1.864
 4030SOL    HW112989   0.615   1.609   1.877
 4030SOL    HW212990   0.479   1.581   1.791
 4031SOL     OW12991   5.409   5.910   3.532
 4031SOL    HW112992   5.374   5.817   3.540
 4031SOL    HW212993   5.413   5.952   3.622
 4032SOL     OW12994   6.630   0.329   2.199
 4032SOL    HW112995   6.538   0.369   2.203
 4032SOL    HW212996   6.679   0.366   2.120
 4033SOL     OW12997   2.253   3.427   1.362
 4033SOL    HW112998   2.157   3.400   1.355
 4033SOL    HW212999   2.289   3.399   1.451
 4034SOL     OW13000   6.621   1.614   4.701
 4034SOL    HW113001   6.663   1.662   4.623
 4034SOL    HW213002   6.641   1.665   4.785
 4035SOL     OW13003   6.345   2.217   1.087
 4035SOL    HW113004   6.346   2.304   1.039
 4035SOL    HW213005   6.429   2.207   1.141
 4036SOL     OW13006   4.225   5.570   2.447
 4036SOL    HW113007   4.161   5.638   2.483
 4036SOL    HW213008   4.294   5.549   2.517
 4037SOL     OW13009   1.904   1.400   0.262
 4037SOL    HW113010   1.901   1.310   0.306
 4037SOL    HW213011   1.816   1.418   0.218
 4038SOL     OW13012   4.698   2.992   1.561
 4038SOL    HW113013   4.678   2.909   1.613
 4038SOL    HW213014   4.648   3.069   1.600
 4039SOL     OW13015   5.694   5.014   1.628
 4039SOL    HW113016   5.636   5.023   1.548
 4039SOL    HW213017   5.761   5.089   1.630
 4040SOL     OW13018   3.931   0.141   5.947
 4040SOL    HW113019   4.002   0.212   5.947
 4040SOL    HW213020   3.974   0.051   5.955
 4041SOL     OW13021   1.076   5.202   1.351
 4041SOL    HW113022   0.994   5.256   1.369
 4041SOL    HW213023   1.060   5.140   1.275
 4042SOL     OW13024   6.131   5.788   3.115
 4042SOL    HW113025   6.228   5.794   3.135
 4042SOL    HW213026   6.119   5.752   3.022
 4043SOL     OW13027   6.054   1.973   4.938
 4043SOL    HW113028   6.094   2.012   5.021
 4043SOL    HW213029   6.069   1.874   4.937
 4044SOL     OW13030   4.600   0.072   3.287
 4044SOL    HW113031   4.562   0.163   3.300
 4044SOL    HW213032   4.684   0.078   3.234
 4045SOL     OW13033   3.768   6.065   4.967
 4045SOL    HW113034   3.703   6.024   4.903
 4045SOL    HW213035   3.718   6.104   5.044
 4046SOL     OW13036   1.525   1.752   4.217
 4046SOL    HW113037   1.590   1.827   4.231
 4046SOL    HW213038   1.470   1.740   4.299
 4047SOL     OW13039   2.036   2.392   0.189
 4047SOL    HW113040   2.052   2.467   0.254
 4047SOL    HW213041   2.063   2.305   0.230
 4048SOL     OW13042   4.829   1.953   1.838
 4048SOL    HW113043   4.849   1.856   1.832
 4048SOL    HW213044   4.872   2.002   1.762
 4049SOL     OW13045   6.244   4.990   6.378
 4049SOL    HW113046   6.325   4.954   6.425
 4049SOL    HW213047   6.252   4.972   6.280
 4050SOL     OW13048   1.593   0.290   1.538
 4050SOL    HW113049   1.543   0.346   1.603
 4050SOL    HW213050   1.635   0.213   1.585
 4051SOL     OW13051   4.053   1.996   0.117
 4051SOL    HW113052   4.058   2.027   0.023
 4051SOL    HW213053   4.042   1.896   0.118
 4052SOL     OW13054   6.800   0.907   3.079
 4052SOL    HW113055   6.742   0.849   3.022
 4052SOL    HW213056   6.743   0.969   3.133
 4053SOL     OW13057   2.939   5.505   3.748
 4053SOL    HW113058   2.878   5.582   3.767
 4053SOL    HW213059   3.028   5.522   3.790
 4054SOL     OW13060   6.100   3.879   2.022
 4054SOL    HW113061   6.063   3.827   2.099
 4054SOL    HW213062   6.070   3.974   2.028
 4055SOL     OW13063   3.187   3.121   0.170
 4055SOL    HW113064   3.148   3.201   0.125
 4055SOL    HW213065   3.220   3.147   0.261
 4056SOL     OW13066   3.893   4.057   0.551
 4056SOL    HW113067   3.943   4.036   0.635
 4056SOL    HW213068   3.847   4.146   0.561
 4057SOL     OW13069   6.259   2.956   1.530
 4057SOL    HW113070   6.173   2.969   1.579
 4057SOL    HW213071   6.277   3.035   1.471
 4058SOL     OW13072   1.949   0.278   4.641
 4058SOL    HW113073   1.852   0.292   4.625
 4058SOL    HW213074   1.984   0.347   4.704
 4059SOL     OW13075   1.693   2.014   3.259
 4059SOL    HW113076   1.645   2.051   3.339
 4059SOL    HW213077   1.674   2.073   3.180
 4060SOL     OW13078   5.772   5.622   4.704
 4060SOL    HW113079   5.831   5.626   4.624
 4060SOL    HW213080   5.760   5.527   4.733
 4061SOL     OW13081   2.872   4.735   2.225
 4061SOL    HW113082   2.931   4.664   2.263
 4061SOL    HW213083   2.823   4.700   2.146
 4062SOL     OW13084   1.769   2.112   2.267
 4062SOL    HW113085   1.754   2.193   2.211
 4062SOL    HW213086   1.683   2.062   2.279
 4063SOL     OW13087   6.201   6.461   6.708
 4063SOL    HW113088   6.127   6.527   6.693
 4063SOL    HW213089   6.197   6.390   6.636
 4064SOL     OW13090   2.426   0.282   3.871
 4064SOL    HW113091   2.478   0.302   3.788
 4064SOL    HW213092   2.487   0.248   3.942
 4065SOL     OW13093   0.528   6.976   1.155
 4065SOL    HW113094   0.438   6.993   1.195
 4065SOL    HW213095   0.597   6.975   1.228
 4066SOL     OW13096   5.625   5.165   3.710
 4066SOL    HW113097   5.580   5.247   3.673
 4066SOL    HW213098   5.562   5.117   3.770
 4067SOL     OW13099   6.163   3.084   2.937
 4067SOL    HW113100   6.135   3.011   2.875
 4067SOL    HW213101   6.221   3.047   3.009
 4068SOL     OW13102   2.556   1.402   4.646
 4068SOL    HW113103   2.626   1.471   4.663
 4068SOL    HW213104   2.542   1.393   4.547
 4069SOL     OW13105   2.488   5.212   6.422
 4069SOL    HW113106   2.455   5.287   6.365
 4069SOL    HW213107   2.433   5.208   6.506
 4070SOL     OW13108   0.481   3.481   2.296
 4070SOL    HW113109   0.502   3.554   2.361
 4070SOL    HW213110   0.459   3.397   2.346
 4071SOL     OW13111   1.400   0.574   5.455
 4071SOL    HW113112   1.416   0.652   5.394
 4071SOL    HW213113   1.377   0.494   5.401
 4072SOL     OW13114   0.168   5.661   4.272
 4072SOL    HW113115   0.250   5.608   4.295
 4072SOL    HW213116   0.101   5.602   4.228
 4073SOL     OW13117   2.811   6.105   6.536
 4073SOL    HW113118   2.713   6.107   6.516
 4073SOL    HW213119   2.836   6.186   6.589
 4074SOL     OW13120   0.028   3.408   1.888
 4074SOL    HW113121   7.018   3.382   1.979
 4074SOL    HW213122   6.976   3.403   1.822
 4075SOL     OW13123   3.805   1.980   1.929
 4075SOL    HW113124   3.741   2.056   1.939
 4075SOL    HW213125   3.851   1.987   1.840
 4076SOL     OW13126   2.804   2.762   5.601
 4076SOL    HW113127   2.896   2.768   5.642
 4076SOL    HW213128   2.782   2.849   5.556
 4077SOL     OW13129   3.287   0.849   0.840
 4077SOL    HW113130   3.363   0.910   0.818
 4077SOL    HW213131   3.240   0.883   0.922
 4078SOL     OW13132   0.107   6.077   1.985
 4078SOL    HW113133   0.155   6.045   1.904
 4078SOL    HW213134   0.142   6.030   2.066
 4079SOL     OW13135   1.329   2.065   3.734
 4079SOL    HW113136   1.269   2.123   3.789
 4079SOL    HW213137   1.307   1.969   3.750
 4080SOL     OW13138   3.625   4.220   6.586
 4080SOL    HW113139   3.643   4.164   6.666
 4080SOL    HW213140   3.709   4.227   6.531
 4081SOL     OW13141   1.811   2.816   4.688
 4081SOL    HW113142   1.853   2.866   4.612
 4081SOL    HW213143   1.879   2.801   4.760
 4082SOL     OW13144   1.429   3.210   0.726
 4082SOL    HW113145   1.483   3.126   0.738
 4082SOL    HW213146   1.490   3.284   0.696
 4083SOL     OW13147   0.059   4.681   1.646
 4083SOL    HW113148   6.983   4.699   1.650
 4083SOL    HW213149   0.090   4.692   1.551
 4084SOL     OW13150   4.669   2.016   3.488
 4084SOL    HW113151   4.757   2.025   3.441
 4084SOL    HW213152   4.645   2.103   3.531
 4085SOL     OW13153   2.334   6.168   0.891
 4085SOL    HW113154   2.359   6.264   0.877
 4085SOL    HW213155   2.287   6.133   0.810
 4086SOL     OW13156   0.951   5.397   1.755
 4086SOL    HW113157   0.923   5.412   1.849
 4086SOL    HW213158   1.049   5.374   1.753
 4087SOL     OW13159   1.932   1.363   3.533
 4087SOL    HW113160   2.013   1.305   3.542
 4087SOL    HW213161   1.946   1.448   3.583
 4088SOL     OW13162   5.955   0.784   6.588
 4088SOL    HW113163   5.924   0.868   6.633
 4088SOL    HW213164   5.876   0.728   6.563
 4089SOL     OW13165   5.801   5.095   3.953
 4089SOL    HW113166   5.799   4.997   3.969
 4089SOL    HW213167   5.748   5.117   3.871
 4090SOL     OW13168   1.455   5.455   5.095
 4090SOL    HW113169   1.362   5.422   5.083
 4090SOL    HW213170   1.456   5.531   5.160
 4091SOL     OW13171   6.516   6.570   6.477
 4091SOL    HW113172   6.596   6.513   6.460
 4091SOL    HW213173   6.446   6.552   6.407
 4092SOL     OW13174   5.683   2.205   4.469
 4092SOL    HW113175   5.670   2.292   4.518
 4092SOL    HW213176   5.594   2.163   4.452
 4093SOL     OW13177   4.411   5.793   2.414
 4093SOL    HW113178   4.475   5.757   2.347
 4093SOL    HW213179   4.348   5.721   2.442
 4094SOL     OW13180   1.943   5.408   5.618
 4094SOL    HW113181   2.012   5.343   5.589
 4094SOL    HW213182   1.866   5.406   5.553
 4095SOL     OW13183   0.987   3.492   0.473
 4095SOL    HW113184   0.911   3.444   0.428
 4095SOL    HW213185   1.030   3.430   0.539
 4096SOL     OW13186   4.666   6.975   6.408
 4096SOL    HW113187   4.690   7.001   6.501
 4096SOL    HW213188   4.595   0.015   6.374
 4097SOL     OW13189   4.034   4.918   4.976
 4097SOL    HW113190   4.122   4.881   4.946
 4097SOL    HW213191   3.979   4.942   4.897
 4098SOL     OW13192   6.720   2.750   1.638
 4098SOL    HW113193   6.728   2.650   1.643
 4098SOL    HW213194   6.809   2.789   1.617
 4099SOL     OW13195   3.360   5.125   1.102
 4099SOL    HW113196   3.366   5.212   1.149
 4099SOL    HW213197   3.304   5.061   1.156
 4100SOL     OW13198   0.024   0.257   4.606
 4100SOL    HW113199   6.968   0.204   4.639
 4100SOL    HW213200   7.015   0.328   4.543
 4101SOL     OW13201   6.296   1.080   6.222
 4101SOL    HW113202   6.328   1.004   6.279
 4101SOL    HW213203   6.213   1.053   6.173
 4102SOL     OW13204   0.332   0.826   0.668
 4102SOL    HW113205   0.368   0.752   0.724
 4102SOL    HW213206   0.301   0.790   0.580
 4103SOL     OW13207   6.838   0.163   0.255
 4103SOL    HW113208   6.897   0.092   0.293
 4103SOL    HW213209   6.751   0.123   0.228
 4104SOL     OW13210   6.858   4.861   2.806
 4104SOL    HW113211   6.843   4.778   2.860
 4104SOL    HW213212   6.788   4.866   2.734
 4105SOL     OW13213   5.286   0.033   1.630
 4105SOL    HW113214   5.281   0.127   1.598
 4105SOL    HW213215   5.381   0.001   1.624
 4106SOL     OW13216   6.439   3.224   2.582
 4106SOL    HW113217   6.375   3.301   2.576
 4106SOL    HW213218   6.528   3.257   2.612
 4107SOL     OW13219   0.906   5.148   0.869
 4107SOL    HW113220   0.932   5.101   0.953
 4107SOL    HW213221   0.956   5.235   0.862
 4108SOL     OW13222   5.954   4.942   5.562
 4108SOL    HW113223   5.925   5.023   5.612
 4108SOL    HW213224   6.003   4.970   5.479
 4109SOL     OW13225   6.479   6.609   4.424
 4109SOL    HW113226   6.422   6.608   4.342
 4109SOL    HW213227   6.437   6.550   4.493
 4110SOL     OW13228   4.511   3.484   6.275
 4110SOL    HW113229   4.553   3.538   6.202
 4110SOL    HW213230   4.412   3.484   6.264
 4111SOL     OW13231   5.330   3.737   0.349
 4111SOL    HW113232   5.284   3.809   0.400
 4111SOL    HW213233   5.275   3.713   0.268
 4112SOL     OW13234   4.933   6.085   4.591
 4112SOL    HW113235   4.897   6.155   4.652
 4112SOL    HW213236   4.873   6.005   4.592
 4113SOL     OW13237   5.186   6.261   5.021
 4113SOL    HW113238   5.123   6.339   5.027
 4113SOL    HW213239   5.165   6.208   4.939
 4114SOL     OW13240   3.643   2.128   4.422
 4114SOL    HW113241   3.702   2.159   4.348
 4114SOL    HW213242   3.570   2.195   4.437
 4115SOL     OW13243   3.472   5.318   1.789
 4115SOL    HW113244   3.535   5.288   1.717
 4115SOL    HW213245   3.389   5.357   1.748
 4116SOL     OW13246   3.551   1.032   2.439
 4116SOL    HW113247   3.630   1.024   2.500
 4116SOL    HW213248   3.544   1.126   2.406
 4117SOL     OW13249   1.553   3.779   2.715
 4117SOL    HW113250   1.606   3.864   2.728
 4117SOL    HW213251   1.571   3.743   2.624
 4118SOL     OW13252   4.323   6.063   0.123
 4118SOL    HW113253   4.306   5.993   0.054
 4118SOL    HW213254   4.307   6.025   0.214
 4119SOL     OW13255   3.127   1.874   3.867
 4119SOL    HW113256   3.207   1.820   3.894
 4119SOL    HW213257   3.122   1.957   3.921
 4120SOL     OW13258   3.463   1.082   6.738
 4120SOL    HW113259   3.453   1.081   6.639
 4120SOL    HW213260   3.376   1.103   6.781
 4121SOL     OW13261   5.795   0.839   4.398
 4121SOL    HW113262   5.877   0.852   4.342
 4121SOL    HW213263   5.820   0.797   4.485
 4122SOL     OW13264   1.068   5.960   4.278
 4122SOL    HW113265   1.128   6.006   4.343
 4122SOL    HW213266   0.979   5.944   4.320
 4123SOL     OW13267   4.089   4.723   5.531
 4123SOL    HW113268   4.101   4.795   5.598
 4123SOL    HW213269   4.162   4.728   5.463
 4124SOL     OW13270   0.269   6.249   0.101
 4124SOL    HW113271   0.263   6.337   0.147
 4124SOL    HW213272   0.184   6.232   0.050
 4125SOL     OW13273   4.824   1.458   2.316
 4125SOL    HW113274   4.748   1.396   2.295
 4125SOL    HW213275   4.835   1.524   2.242
 4126SOL     OW13276   1.729   3.637   4.473
 4126SOL    HW113277   1.644   3.675   4.437
 4126SOL    HW213278   1.806   3.695   4.446
 4127SOL     OW13279   5.294   4.862   5.080
 4127SOL    HW113280   5.250   4.946   5.114
 4127SOL    HW213281   5.257   4.783   5.130
 4128SOL     OW13282   0.921   2.765   2.038
 4128SOL    HW113283   1.011   2.802   2.018
 4128SOL    HW213284   0.866   2.762   1.954
 4129SOL     OW13285   4.316   1.396   5.899
 4129SOL    HW113286   4.381   1.468   5.923
 4129SOL    HW213287   4.327   1.318   5.961
 4130SOL     OW13288   6.928   3.206   0.088
 4130SOL    HW113289   7.009   3.209   0.147
 4130SOL    HW213290   6.890   3.299   0.081
 4131SOL     OW13291   0.673   1.371   3.548
 4131SOL    HW113292   0.615   1.379   3.630
 4131SOL    HW213293   0.622   1.323   3.476
 4132SOL     OW13294   5.012   4.168   3.573
 4132SOL    HW113295   4.918   4.158   3.542
 4132SOL    HW213296   5.058   4.079   3.573
 4133SOL     OW13297   3.115   5.561   0.642
 4133SOL    HW113298   3.154   5.472   0.618
 4133SOL    HW213299   3.182   5.633   0.623
 4134SOL     OW13300   2.391   3.688   1.063
 4134SOL    HW113301   2.453   3.758   1.026
 4134SOL    HW213302   2.432   3.646   1.144
 4135SOL     OW13303   1.096   1.348   2.631
 4135SOL    HW113304   1.193   1.325   2.641
 4135SOL    HW213305   1.046   1.316   2.711
 4136SOL     OW13306   1.375   2.849   4.002
 4136SOL    HW113307   1.322   2.828   3.920
 4136SOL    HW213308   1.384   2.948   4.013
 4137SOL     OW13309   1.330   4.348   1.288
 4137SOL    HW113310   1.286   4.270   1.244
 4137SOL    HW213311   1.415   4.319   1.333
 4138SOL     OW13312   4.882   5.702   2.643
 4138SOL    HW113313   4.946   5.768   2.605
 4138SOL    HW213314   4.932   5.632   2.694
 4139SOL     OW13315   1.891   1.752   5.748
 4139SOL    HW113316   1.938   1.713   5.827
 4139SOL    HW213317   1.958   1.787   5.682
 4140SOL     OW13318   3.623   0.224   5.622
 4140SOL    HW113319   3.626   0.197   5.526
 4140SOL    HW213320   3.528   0.225   5.654
 4141SOL     OW13321   5.809   6.440   0.845
 4141SOL    HW113322   5.710   6.458   0.844
 4141SOL    HW213323   5.853   6.491   0.771
 4142SOL     OW13324   6.597   4.969   1.290
 4142SOL    HW113325   6.653   4.915   1.353
 4142SOL    HW213326   6.602   5.066   1.315
 4143SOL     OW13327   5.546   1.790   0.742
 4143SOL    HW113328   5.528   1.802   0.644
 4143SOL    HW213329   5.643   1.770   0.756
 4144SOL     OW13330   4.812   3.160   0.057
 4144SOL    HW113331   4.725   3.135   0.098
 4144SOL    HW213332   4.878   3.085   0.070
 4145SOL     OW13333   6.910   6.473   1.439
 4145SOL    HW113334   6.930   6.545   1.505
 4145SOL    HW213335   6.854   6.402   1.483
 4146SOL     OW13336   6.559   0.267   3.145
 4146SOL    HW113337   6.636   0.214   3.109
 4146SOL    HW213338   6.552   0.354   3.096
 4147SOL     OW13339   5.033   4.068   6.489
 4147SOL    HW113340   4.944   4.046   6.448
 4147SOL    HW213341   5.037   4.033   6.582
 4148SOL     OW13342   1.312   0.412   5.269
 4148SOL    HW113343   1.347   0.398   5.176
 4148SOL    HW213344   1.242   0.343   5.289
 4149SOL     OW13345   0.220   3.384   0.814
 4149SOL    HW113346   0.286   3.428   0.874
 4149SOL    HW213347   0.148   3.341   0.868
 4150SOL     OW13348   1.219   0.461   5.618
 4150SOL    HW113349   1.155   0.498   5.685
 4150SOL    HW213350   1.254   0.534   5.560
 4151SOL     OW13351   2.472   6.031   5.733
 4151SOL    HW113352   2.569   6.009   5.738
 4151SOL    HW213353   2.424   5.959   5.683
 4152SOL     OW13354   4.326   5.636   0.673
 4152SOL    HW113355   4.319   5.638   0.573
 4152SOL    HW213356   4.320   5.729   0.709
 4153SOL     OW13357   4.890   5.432   0.192
 4153SOL    HW113358   4.910   5.485   0.275
 4153SOL    HW213359   4.826   5.482   0.135
 4154SOL     OW13360   0.109   5.386   3.210
 4154SOL    HW113361   0.070   5.426   3.293
 4154SOL    HW213362   0.184   5.324   3.235
 4155SOL     OW13363   1.091   1.213   3.216
 4155SOL    HW113364   1.182   1.224   3.176
 4155SOL    HW213365   1.071   1.291   3.276
 4156SOL     OW13366   5.665   6.142   4.873
 4156SOL    HW113367   5.646   6.049   4.841
 4156SOL    HW213368   5.674   6.143   4.972
 4157SOL     OW13369   4.338   5.348   3.842
 4157SOL    HW113370   4.368   5.294   3.920
 4157SOL    HW213371   4.315   5.287   3.766
 4158SOL     OW13372   0.246   4.029   1.916
 4158SOL    HW113373   0.267   3.931   1.908
 4158SOL    HW213374   0.287   4.079   1.840
 4159SOL     OW13375   1.689   3.763   3.824
 4159SOL    HW113376   1.634   3.841   3.854
 4159SOL    HW213377   1.628   3.686   3.803
 4160SOL     OW13378   6.357   0.976   0.827
 4160SOL    HW113379   6.377   0.980   0.925
 4160SOL    HW213380   6.315   0.888   0.805
 4161SOL     OW13381   0.901   1.271   0.941
 4161SOL    HW113382   0.819   1.235   0.895
 4161SOL    HW213383   0.892   1.255   1.039
 4162SOL     OW13384   6.947   6.108   6.484
 4162SOL    HW113385   6.891   6.172   6.431
 4162SOL    HW213386   0.021   6.127   6.467
 4163SOL     OW13387   4.845   6.724   3.167
 4163SOL    HW113388   4.876   6.649   3.225
 4163SOL    HW213389   4.874   6.707   3.073
 4164SOL     OW13390   1.674   6.975   5.790
 4164SOL    HW113391   1.640   6.885   5.763
 4164SOL    HW213392   1.760   6.964   5.841
 4165SOL     OW13393   4.272   6.929   6.289
 4165SOL    HW113394   4.257   6.901   6.384
 4165SOL    HW213395   4.187   6.918   6.237
 4166SOL     OW13396   6.135   2.671   0.565
 4166SOL    HW113397   6.052   2.644   0.516
 4166SOL    HW213398   6.110   2.707   0.655
 4167SOL     OW13399   1.455   3.609   0.965
 4167SOL    HW113400   1.525   3.677   0.947
 4167SOL    HW213401   1.405   3.589   0.881
 4168SOL     OW13402   6.676   4.556   1.479
 4168SOL    HW113403   6.577   4.551   1.493
 4168SOL    HW213404   6.707   4.649   1.498
 4169SOL     OW13405   6.112   4.084   4.601
 4169SOL    HW113406   6.121   4.176   4.561
 4169SOL    HW213407   6.187   4.069   4.666
 4170SOL     OW13408   4.531   4.316   6.027
 4170SOL    HW113409   4.591   4.279   6.098
 4170SOL    HW213410   4.577   4.311   5.939
 4171SOL     OW13411   6.746   5.898   0.514
 4171SOL    HW113412   6.844   5.882   0.500
 4171SOL    HW213413   6.696   5.813   0.495
 4172SOL     OW13414   1.009   2.065   5.893
 4172SOL    HW113415   1.064   2.022   5.821
 4172SOL    HW213416   0.924   2.099   5.853
 4173SOL     OW13417   5.170   4.390   5.568
 4173SOL    HW113418   5.132   4.430   5.651
 4173SOL    HW213419   5.183   4.292   5.580
 4174SOL     OW13420   5.777   0.408   3.471
 4174SOL    HW113421   5.700   0.469   3.452
 4174SOL    HW213422   5.744   0.324   3.513
 4175SOL     OW13423   2.212   6.371   4.303
 4175SOL    HW113424   2.284   6.416   4.355
 4175SOL    HW213425   2.249   6.289   4.259
 4176SOL     OW13426   3.387   5.926   1.951
 4176SOL    HW113427   3.385   5.957   2.046
 4176SOL    HW213428   3.457   5.856   1.940
 4177SOL     OW13429   6.553   4.258   5.429
 4177SOL    HW113430   6.626   4.321   5.456
 4177SOL    HW213431   6.467   4.309   5.419
 4178SOL     OW13432   4.881   0.707   3.753
 4178SOL    HW113433   4.950   0.779   3.758
 4178SOL    HW213434   4.925   0.617   3.758
 4179SOL     OW13435   4.581   2.590   3.690
 4179SOL    HW113436   4.536   2.551   3.770
 4179SOL    HW213437   4.632   2.672   3.717
 4180SOL     OW13438   5.624   4.591   0.880
 4180SOL    HW113439   5.584   4.675   0.917
 4180SOL    HW213440   5.553   4.520   0.873
 4181SOL     OW13441   2.221   1.508   0.976
 4181SOL    HW113442   2.150   1.459   0.924
 4181SOL    HW213443   2.304   1.514   0.922
 4182SOL     OW13444   0.767   6.636   3.139
 4182SOL    HW113445   0.828   6.563   3.109
 4182SOL    HW213446   0.752   6.700   3.064
 4183SOL     OW13447   3.948   1.264   0.069
 4183SOL    HW113448   3.993   1.260   0.158
 4183SOL    HW213449   3.957   1.176   0.023
 4184SOL     OW13450   5.047   5.018   1.617
 4184SOL    HW113451   4.967   5.019   1.557
 4184SOL    HW213452   5.085   5.110   1.622
 4185SOL     OW13453   0.302   5.543   2.305
 4185SOL    HW113454   0.316   5.497   2.217
 4185SOL    HW213455   0.350   5.631   2.304
 4186SOL     OW13456   2.104   5.370   0.174
 4186SOL    HW113457   2.085   5.329   0.263
 4186SOL    HW213458   2.169   5.446   0.185
 4187SOL     OW13459   3.412   3.259   5.487
 4187SOL    HW113460   3.400   3.358   5.476
 4187SOL    HW213461   3.378   3.232   5.578
 4188SOL     OW13462   4.841   0.084   4.409
 4188SOL    HW113463   4.882   0.031   4.483
 4188SOL    HW213464   4.833   0.028   4.327
 4189SOL     OW13465   3.966   5.982   5.313
 4189SOL    HW113466   3.887   6.043   5.322
 4189SOL    HW213467   4.035   6.005   5.382
 4190SOL     OW13468   0.937   0.737   0.227
 4190SOL    HW113469   1.019   0.748   0.283
 4190SOL    HW213470   0.860   0.714   0.286
 4191SOL     OW13471   4.803   3.992   3.017
 4191SOL    HW113472   4.780   4.068   2.955
 4191SOL    HW213473   4.769   4.013   3.109
 4192SOL     OW13474   0.808   1.486   4.171
 4192SOL    HW113475   0.812   1.572   4.220
 4192SOL    HW213476   0.718   1.476   4.128
 4193SOL     OW13477   1.363   0.683   2.000
 4193SOL    HW113478   1.269   0.709   1.976
 4193SOL    HW213479   1.361   0.600   2.056
 4194SOL     OW13480   5.614   0.755   4.962
 4194SOL    HW113481   5.619   0.840   5.014
 4194SOL    HW213482   5.579   0.774   4.870
 4195SOL     OW13483   3.985   6.228   1.723
 4195SOL    HW113484   4.015   6.258   1.813
 4195SOL    HW213485   4.033   6.144   1.698
 4196SOL     OW13486   5.477   1.984   3.396
 4196SOL    HW113487   5.426   2.066   3.369
 4196SOL    HW213488   5.497   1.988   3.494
 4197SOL     OW13489   5.005   5.743   5.719
 4197SOL    HW113490   5.069   5.666   5.709
 4197SOL    HW213491   5.011   5.801   5.638
 4198SOL     OW13492   5.575   3.097   0.204
 4198SOL    HW113493   5.574   3.150   0.119
 4198SOL    HW213494   5.503   3.130   0.264
 4199SOL     OW13495   2.225   2.718   5.953
 4199SOL    HW113496   2.155   2.769   6.002
 4199SOL    HW213497   2.286   2.673   6.019
 4200SOL     OW13498   3.255   6.618   6.205
 4200SOL    HW113499   3.199   6.679   6.262
 4200SOL    HW213500   3.197   6.547   6.165
 4201SOL     OW13501   6.060   6.555   3.753
 4201SOL    HW113502   6.044   6.456   3.762
 4201SOL    HW213503   6.012   6.589   3.671
 4202SOL     OW13504   4.192   4.959   5.684
 4202SOL    HW113505   4.285   4.949   5.721
 4202SOL    HW213506   4.140   5.023   5.741
 4203SOL     OW13507   5.030   4.807   0.497
 4203SOL    HW113508   5.115   4.816   0.445
 4203SOL    HW213509   4.968   4.744   0.450
 4204SOL     OW13510   3.932   3.160   2.588
 4204SOL    HW113511   3.839   3.194   2.571
 4204SOL    HW213512   3.972   3.211   2.664
 4205SOL     OW13513   4.038   5.663   3.389
 4205SOL    HW113514   3.964   5.718   3.348
 4205SOL    HW213515   4.069   5.595   3.323
 4206SOL     OW13516   6.909   0.325   6.173
 4206SOL    HW113517   6.826   0.305   6.122
 4206SOL    HW213518   6.966   0.388   6.120
 4207SOL     OW13519   1.419   1.083   1.728
 4207SOL    HW113520   1.508   1.128   1.714
 4207SOL    HW213521   1.348   1.133   1.678
 4208SOL     OW13522   0.790   3.852   6.474
 4208SOL    HW113523   0.860   3.786   6.499
 4208SOL    HW213524   0.729   3.812   6.405
 4209SOL     OW13525   0.366   1.063   5.956
 4209SOL    HW113526   0.402   1.026   6.041
 4209SOL    HW213527   0.362   1.163   5.963
 4210SOL     OW13528   2.998   3.318   2.459
 4210SOL    HW113529   2.978   3.413   2.483
 4210SOL    HW213530   2.970   3.258   2.534
 4211SOL     OW13531   3.877   5.443   5.591
 4211SOL    HW113532   3.806   5.503   5.628
 4211SOL    HW213533   3.853   5.417   5.497
 4212SOL     OW13534   6.042   2.281   2.730
 4212SOL    HW113535   5.995   2.365   2.756
 4212SOL    HW213536   6.039   2.215   2.805
 4213SOL     OW13537   2.335   1.138   1.686
 4213SOL    HW113538   2.361   1.226   1.726
 4213SOL    HW213539   2.324   1.070   1.759
 4214SOL     OW13540   1.655   4.762   5.329
 4214SOL    HW113541   1.740   4.710   5.321
 4214SOL    HW213542   1.584   4.704   5.369
 4215SOL     OW13543   0.013   6.517   4.811
 4215SOL    HW113544   0.046   6.427   4.782
 4215SOL    HW213545   0.063   6.588   4.763
 4216SOL     OW13546   1.282   1.982   3.230
 4216SOL    HW113547   1.347   1.922   3.276
 4216SOL    HW213548   1.263   2.061   3.289
 4217SOL     OW13549   0.284   0.359   2.970
 4217SOL    HW113550   0.278   0.270   3.015
 4217SOL    HW213551   0.372   0.401   2.990
 4218SOL     OW13552   4.389   0.918   1.559
 4218SOL    HW113553   4.300   0.890   1.595
 4218SOL    HW213554   4.385   1.012   1.526
 4219SOL     OW13555   2.681   5.277   3.174
 4219SOL    HW113556   2.669   5.182   3.203
 4219SOL    HW213557   2.592   5.316   3.151
 4220SOL     OW13558   5.331   2.411   3.366
 4220SOL    HW113559   5.256   2.475   3.352
 4220SOL    HW213560   5.415   2.448   3.324
 4221SOL     OW13561   6.169   5.138   6.619
 4221SOL    HW113562   6.188   5.067   6.551
 4221SOL    HW213563   6.120   5.099   6.696
 4222SOL     OW13564   6.190   2.126   3.355
 4222SOL    HW113565   6.157   2.079   3.437
 4222SOL    HW213566   6.141   2.213   3.345
 4223SOL     OW13567   3.255   3.612   5.672
 4223SOL    HW113568   3.280   3.575   5.582
 4223SOL    HW213569   3.273   3.710   5.675
 4224SOL     OW13570   4.787   3.046   3.344
 4224SOL    HW113571   4.688   3.034   3.339
 4224SOL    HW213572   4.818   3.099   3.266
 4225SOL     OW13573   4.068   0.731   5.756
 4225SOL    HW113574   4.057   0.729   5.856
 4225SOL    HW213575   3.982   0.707   5.713
 4226SOL     OW13576   0.886   1.101   2.501
 4226SOL    HW113577   0.860   1.162   2.576
 4226SOL    HW213578   0.982   1.117   2.477
 4227SOL     OW13579   3.983   4.942   6.721
 4227SOL    HW113580   4.044   4.867   6.698
 4227SOL    HW213581   4.015   4.988   6.804
 4228SOL     OW13582   0.806   3.555   4.360
 4228SOL    HW113583   0.718   3.602   4.353
 4228SOL    HW213584   0.795   3.460   4.331
 4229SOL     OW13585   4.698   4.893   5.284
 4229SOL    HW113586   4.780   4.912   5.231
 4229SOL    HW213587   4.724   4.866   5.377
 4230SOL     OW13588   1.770   0.502   4.098
 4230SOL    HW113589   1.784   0.599   4.120
 4230SOL    HW213590   1.689   0.493   4.039
 4231SOL     OW13591   5.636   6.424   4.668
 4231SOL    HW113592   5.638   6.518   4.701
 4231SOL    HW213593   5.550   6.381   4.694
 4232SOL     OW13594   0.486   4.720   2.719
 4232SOL    HW113595   0.428   4.796   2.749
 4232SOL    HW213596   0.582   4.742   2.737
 4233SOL     OW13597   0.187   0.238   0.349
 4233SOL    HW113598   0.127   0.307   0.391
 4233SOL    HW213599   0.150   0.212   0.260
 4234SOL     OW13600   2.074   0.320   6.103
 4234SOL    HW113601   2.128   0.237   6.089
 4234SOL    HW213602   2.129   0.389   6.149
 4235SOL     OW13603   5.315   4.136   5.702
 4235SOL    HW113604   5.373   4.163   5.779
 4235SOL    HW213605   5.339   4.044   5.673
 4236SOL     OW13606   0.507   3.548   3.309
 4236SOL    HW113607   0.596   3.509   3.288
 4236SOL    HW213608   0.519   3.639   3.348
 4237SOL     OW13609   6.677   5.319   2.959
 4237SOL    HW113610   6.753   5.315   2.894
 4237SOL    HW213611   6.628   5.231   2.959
 4238SOL     OW13612   3.264   4.877   2.455
 4238SOL    HW113613   3.183   4.864   2.512
 4238SOL    HW213614   3.346   4.854   2.507
 4239SOL     OW13615   5.352   1.728   3.454
 4239SOL    HW113616   5.301   1.732   3.540
 4239SOL    HW213617   5.380   1.821   3.428
 4240SOL     OW13618   2.594   0.074   0.155
 4240SOL    HW113619   2.613   6.999   0.147
 4240SOL    HW213620   2.597   0.101   0.251
 4241SOL     OW13621   6.161   0.540   1.203
 4241SOL    HW113622   6.123   0.525   1.294
 4241SOL    HW213623   6.088   0.571   1.141
 4242SOL     OW13624   2.258   0.571   3.321
 4242SOL    HW113625   2.268   0.477   3.354
 4242SOL    HW213626   2.167   0.606   3.347
 4243SOL     OW13627   6.309   3.998   3.544
 4243SOL    HW113628   6.284   3.935   3.470
 4243SOL    HW213629   6.252   4.080   3.538
 4244SOL     OW13630   5.440   4.831   1.523
 4244SOL    HW113631   5.493   4.779   1.590
 4244SOL    HW213632   5.501   4.893   1.474
 4245SOL     OW13633   6.106   0.742   6.166
 4245SOL    HW113634   6.107   0.822   6.106
 4245SOL    HW213635   6.030   0.682   6.140
 4246SOL     OW13636   5.924   3.202   3.204
 4246SOL    HW113637   5.875   3.170   3.285
 4246SOL    HW213638   5.965   3.291   3.223
 4247SOL     OW13639   2.331   4.947   3.419
 4247SOL    HW113640   2.278   4.889   3.357
 4247SOL    HW213641   2.328   5.042   3.387
 4248SOL     OW13642   1.779   1.141   4.019
 4248SOL    HW113643   1.815   1.209   3.955
 4248SOL    HW213644   1.691   1.108   3.987
 4249SOL     OW13645   4.968   1.209   4.123
 4249SOL    HW113646   5.062   1.238   4.111
 4249SOL    HW213647   4.933   1.171   4.037
 4250SOL     OW13648   6.287   6.095   4.518
 4250SOL    HW113649   6.357   6.038   4.561
 4250SOL    HW213650   6.330   6.177   4.481
 4251SOL     OW13651   5.843   3.421   0.926
 4251SOL    HW113652   5.838   3.378   1.016
 4251SOL    HW213653   5.927   3.475   0.919
 4252SOL     OW13654   5.902   6.079   6.189
 4252SOL    HW113655   5.838   6.128   6.131
 4252SOL    HW213656   5.855   6.045   6.271
 4253SOL     OW13657   3.270   6.754   1.186
 4253SOL    HW113658   3.259   6.840   1.236
 4253SOL    HW213659   3.188   6.736   1.132
 4254SOL     OW13660   1.831   3.378   2.090
 4254SOL    HW113661   1.776   3.450   2.133
 4254SOL    HW213662   1.772   3.304   2.060
 4255SOL     OW13663   6.627   4.136   3.919
 4255SOL    HW113664   6.640   4.048   3.874
 4255SOL    HW213665   6.658   4.210   3.859
 4256SOL     OW13666   1.267   5.959   1.127
 4256SOL    HW113667   1.190   5.971   1.189
 4256SOL    HW213668   1.349   5.935   1.180
 4257SOL     OW13669   3.654   1.356   4.647
 4257SOL    HW113670   3.607   1.432   4.694
 4257SOL    HW213671   3.615   1.345   4.556
 4258SOL     OW13672   3.319   6.003   0.571
 4258SOL    HW113673   3.310   6.062   0.652
 4258SOL    HW213674   3.362   6.055   0.497
 4259SOL     OW13675   1.367   7.020   1.011
 4259SOL    HW113676   1.466   0.007   1.015
 4259SOL    HW213677   1.324   0.087   1.016
 4260SOL     OW13678   5.794   0.286   3.185
 4260SOL    HW113679   5.794   0.314   3.281
 4260SOL    HW213680   5.877   0.233   3.166
 4261SOL     OW13681   2.112   0.489   2.628
 4261SOL    HW113682   2.185   0.553   2.604
 4261SOL    HW213683   2.118   0.408   2.571
 4262SOL     OW13684   0.567   3.725   6.328
 4262SOL    HW113685   0.618   3.767   6.253
 4262SOL    HW213686   0.566   3.625   6.316
 4263SOL     OW13687   2.627   0.524   3.438
 4263SOL    HW113688   2.558   0.586   3.403
 4263SOL    HW213689   2.673   0.478   3.362
 4264SOL     OW13690   6.708   2.706   4.802
 4264SOL    HW113691   6.647   2.627   4.811
 4264SOL    HW213692   6.772   2.689   4.727
 4265SOL     OW13693   3.977   1.415   0.781
 4265SOL    HW113694   3.898   1.382   0.832
 4265SOL    HW213695   3.969   1.387   0.685
 4266SOL     OW13696   1.958   6.537   6.451
 4266SOL    HW113697   1.931   6.505   6.361
 4266SOL    HW213698   2.040   6.489   6.481
 4267SOL     OW13699   2.120   3.819   4.584
 4267SOL    HW113700   2.201   3.865   4.622
 4267SOL    HW213701   2.102   3.736   4.637
 4268SOL     OW13702   1.217   5.748   6.547
 4268SOL    HW113703   1.236   5.651   6.532
 4268SOL    HW213704   1.294   5.790   6.595
 4269SOL     OW13705   2.956   0.111   2.643
 4269SOL    HW113706   2.901   0.041   2.596
 4269SOL    HW213707   2.963   0.191   2.584
 4270SOL     OW13708   4.143   3.514   2.763
 4270SOL    HW113709   4.117   3.426   2.802
 4270SOL    HW213710   4.215   3.556   2.819
 4271SOL     OW13711   6.775   0.610   0.500
 4271SOL    HW113712   6.849   0.674   0.480
 4271SOL    HW213713   6.754   0.557   0.417
 4272SOL     OW13714   6.730   2.391   4.566
 4272SOL    HW113715   6.788   2.399   4.648
 4272SOL    HW213716   6.749   2.303   4.522
 4273SOL     OW13717   4.421   6.639   4.495
 4273SOL    HW113718   4.467   6.599   4.416
 4273SOL    HW213719   4.407   6.568   4.564
 4274SOL     OW13720   1.639   0.074   1.698
 4274SOL    HW113721   1.581   0.047   1.774
 4274SOL    HW213722   1.703   0.000   1.676
 4275SOL     OW13723   6.791   2.202   4.038
 4275SOL    HW113724   6.704   2.248   4.054
 4275SOL    HW213725   6.777   2.103   4.036
 4276SOL     OW13726   2.641   5.288   3.862
 4276SOL    HW113727   2.639   5.385   3.889
 4276SOL    HW213728   2.732   5.251   3.880
 4277SOL     OW13729   6.292   4.939   3.141
 4277SOL    HW113730   6.337   4.851   3.121
 4277SOL    HW213731   6.326   5.009   3.078
 4278SOL     OW13732   0.292   0.155   4.817
 4278SOL    HW113733   0.365   0.222   4.827
 4278SOL    HW213734   0.330   0.069   4.784
 4279SOL     OW13735   2.701   1.328   3.513
 4279SOL    HW113736   2.798   1.333   3.491
 4279SOL    HW213737   2.666   1.237   3.492
 4280SOL     OW13738   5.755   6.786   5.645
 4280SOL    HW113739   5.745   6.872   5.594
 4280SOL    HW213740   5.688   6.785   5.720
 4281SOL     OW13741   6.071   5.006   3.280
 4281SOL    HW113742   6.063   4.973   3.374
 4281SOL    HW213743   6.145   4.958   3.233
 4282SOL     OW13744   3.107   4.030   0.159
 4282SOL    HW113745   3.070   4.119   0.182
 4282SOL    HW213746   3.037   3.960   0.172
 4283SOL     OW13747   2.478   0.745   3.272
 4283SOL    HW113748   2.463   0.831   3.322
 4283SOL    HW213749   2.399   0.685   3.283
 4284SOL     OW13750   3.548   4.010   1.340
 4284SOL    HW113751   3.583   3.930   1.291
 4284SOL    HW213752   3.457   3.990   1.376
 4285SOL     OW13753   2.460   0.836   5.733
 4285SOL    HW113754   2.391   0.899   5.697
 4285SOL    HW213755   2.509   0.793   5.656
 4286SOL     OW13756   5.416   6.737   6.128
 4286SOL    HW113757   5.427   6.638   6.127
 4286SOL    HW213758   5.495   6.780   6.172
 4287SOL     OW13759   4.937   0.632   6.150
 4287SOL    HW113760   5.011   0.610   6.213
 4287SOL    HW213761   4.875   0.554   6.142
 4288SOL     OW13762   0.646   5.472   3.671
 4288SOL    HW113763   0.672   5.438   3.761
 4288SOL    HW213764   0.728   5.501   3.621
 4289SOL     OW13765   0.136   2.724   5.556
 4289SOL    HW113766   0.210   2.666   5.520
 4289SOL    HW213767   0.124   2.803   5.497
 4290SOL     OW13768   1.264   6.091   4.420
 4290SOL    HW113769   1.270   6.028   4.498
 4290SOL    HW213770   1.356   6.121   4.394
 4291SOL     OW13771   4.578   3.573   7.015
 4291SOL    HW113772   4.535   3.513   0.060
 4291SOL    HW213773   4.513   3.593   6.942
 4292SOL     OW13774   6.753   2.992   0.039
 4292SOL    HW113775   6.754   2.934   0.120
 4292SOL    HW213776   6.811   3.072   0.054
 4293SOL     OW13777   3.164   3.612   6.939
 4293SOL    HW113778   3.246   3.664   6.915
 4293SOL    HW213779   3.083   3.661   6.906
 4294SOL     OW13780   1.897   1.322   6.786
 4294SOL    HW113781   1.831   1.270   6.838
 4294SOL    HW213782   1.853   1.402   6.745
 4295SOL     OW13783   4.685   5.801   4.863
 4295SOL    HW113784   4.633   5.845   4.936
 4295SOL    HW213785   4.761   5.861   4.835
 4296SOL     OW13786   3.366   6.880   7.016
 4296SOL    HW113787   3.377   6.838   0.083
 4296SOL    HW213788   3.335   6.975   0.004
 4297SOL     OW13789   5.966   0.197   1.870
 4297SOL    HW113790   5.915   0.149   1.942
 4297SOL    HW213791   5.943   0.295   1.874
 4298SOL     OW13792   3.836   5.667   0.863
 4298SOL    HW113793   3.924   5.635   0.897
 4298SOL    HW213794   3.777   5.589   0.845
 4299SOL     OW13795   1.820   2.671   6.703
 4299SOL    HW113796   1.839   2.714   6.791
 4299SOL    HW213797   1.735   2.618   6.708
 4300SOL     OW13798   2.669   6.784   0.766
 4300SOL    HW113799   2.571   6.781   0.745
 4300SOL    HW213800   2.696   6.878   0.786
 4301SOL     OW13801   5.020   0.207   1.615
 4301SOL    HW113802   5.035   0.283   1.553
 4301SOL    HW213803   5.019   0.240   1.709
 4302SOL     OW13804   0.027   6.951   6.215
 4302SOL    HW113805   0.118   6.966   6.255
 4302SOL    HW213806   6.985   7.017   6.253
 4303SOL     OW13807   6.970   4.386   4.183
 4303SOL    HW113808   6.983   4.460   4.248
 4303SOL    HW213809   6.873   4.360   4.181
 4304SOL     OW13810   3.091   3.011   2.386
 4304SOL    HW113811   3.122   2.916   2.391
 4304SOL    HW213812   3.098   3.043   2.292
 4305SOL     OW13813   1.088   6.966   5.572
 4305SOL    HW113814   1.080   6.905   5.650
 4305SOL    HW213815   1.179   7.009   5.573
 4306SOL     OW13816   4.437   5.080   4.268
 4306SOL    HW113817   4.454   5.000   4.324
 4306SOL    HW213818   4.342   5.079   4.236
 4307SOL     OW13819   6.182   4.020   5.105
 4307SOL    HW113820   6.244   3.950   5.141
 4307SOL    HW213821   6.154   4.081   5.180
 4308SOL     OW13822   6.238   5.580   1.646
 4308SOL    HW113823   6.264   5.484   1.653
 4308SOL    HW213824   6.217   5.601   1.551
 4309SOL     OW13825   0.998   1.349   1.370
 4309SOL    HW113826   0.909   1.394   1.364
 4309SOL    HW213827   0.995   1.262   1.321
 4310SOL     OW13828   1.033   2.323   1.797
 4310SOL    HW113829   1.049   2.260   1.873
 4310SOL    HW213830   1.071   2.284   1.713
 4311SOL     OW13831   0.469   6.219   2.276
 4311SOL    HW113832   0.512   6.289   2.334
 4311SOL    HW213833   0.421   6.153   2.333
 4312SOL     OW13834   1.388   5.833   2.202
 4312SOL    HW113835   1.292   5.825   2.175
 4312SOL    HW213836   1.440   5.879   2.130
 4313SOL     OW13837   5.217   2.168   1.062
 4313SOL    HW113838   5.276   2.208   0.991
 4313SOL    HW213839   5.130   2.141   1.021
 4314SOL     OW13840   5.328   1.900   4.919
 4314SOL    HW113841   5.406   1.914   4.859
 4314SOL    HW213842   5.338   1.814   4.969
 4315SOL     OW13843   2.571   0.832   3.777
 4315SOL    HW113844   2.516   0.781   3.843
 4315SOL    HW213845   2.513   0.894   3.725
 4316SOL     OW13846   5.013   0.767   1.723
 4316SOL    HW113847   5.050   0.840   1.666
 4316SOL    HW213848   4.913   0.767   1.715
 4317SOL     OW13849   5.541   2.255   5.399
 4317SOL    HW113850   5.473   2.256   5.327
 4317SOL    HW213851   5.632   2.271   5.360
 4318SOL     OW13852   0.888   1.772   5.016
 4318SOL    HW113853   0.858   1.859   4.977
 4318SOL    HW213854   0.820   1.741   5.082
 4319SOL     OW13855   1.646   1.818   0.943
 4319SOL    HW113856   1.620   1.886   1.011
 4319SOL    HW213857   1.718   1.855   0.885
 4320SOL     OW13858   3.866   5.149   0.819
 4320SOL    HW113859   3.944   5.137   0.880
 4320SOL    HW213860   3.781   5.144   0.871
 4321SOL     OW13861   0.114   4.733   4.727
 4321SOL    HW113862   0.094   4.635   4.735
 4321SOL    HW213863   0.165   4.750   4.643
 4322SOL     OW13864   6.546   2.878   6.859
 4322SOL    HW113865   6.578   2.815   6.788
 4322SOL    HW213866   6.624   2.911   6.912
 4323SOL     OW13867   4.463   4.168   0.596
 4323SOL    HW113868   4.413   4.219   0.525
 4323SOL    HW213869   4.418   4.080   0.612
 4324SOL     OW13870   5.505   4.761   5.753
 4324SOL    HW113871   5.534   4.798   5.842
 4324SOL    HW213872   5.581   4.768   5.689
 4325SOL     OW13873   2.810   1.466   1.753
 4325SOL    HW113874   2.903   1.487   1.784
 4325SOL    HW213875   2.751   1.452   1.832
 4326SOL     OW13876   4.750   4.508   1.877
 4326SOL    HW113877   4.671   4.521   1.937
 4326SOL    HW213878   4.770   4.594   1.830
 4327SOL     OW13879   5.940   5.588   1.668
 4327SOL    HW113880   5.994   5.521   1.617
 4327SOL    HW213881   5.863   5.541   1.712
 4328SOL     OW13882   4.823   4.487   5.731
 4328SOL    HW113883   4.777   4.575   5.744
 4328SOL    HW213884   4.890   4.473   5.803
 4329SOL     OW13885   4.841   2.776   6.044
 4329SOL    HW113886   4.786   2.700   6.078
 4329SOL    HW213887   4.901   2.809   6.117
 4330SOL     OW13888   1.755   6.419   4.646
 4330SOL    HW113889   1.790   6.462   4.563
 4330SOL    HW213890   1.811   6.340   4.670
 4331SOL     OW13891   5.935   1.243   2.321
 4331SOL    HW113892   5.930   1.271   2.417
 4331SOL    HW213893   6.029   1.252   2.288
 4332SOL     OW13894   5.223   3.202   2.766
 4332SOL    HW113895   5.135   3.176   2.806
 4332SOL    HW213896   5.285   3.124   2.769
 4333SOL     OW13897   4.701   1.637   5.566
 4333SOL    HW113898   4.685   1.674   5.474
 4333SOL    HW213899   4.696   1.710   5.633
 4334SOL     OW13900   2.214   2.726   2.731
 4334SOL    HW113901   2.235   2.823   2.714
 4334SOL    HW213902   2.128   2.719   2.782
 4335SOL     OW13903   3.605   3.341   2.055
 4335SOL    HW113904   3.612   3.415   2.122
 4335SOL    HW213905   3.528   3.358   1.994
 4336SOL     OW13906   2.799   6.546   5.867
 4336SOL    HW113907   2.824   6.591   5.953
 4336SOL    HW213908   2.836   6.599   5.790
 4337SOL     OW13909   1.464   4.238   0.829
 4337SOL    HW113910   1.387   4.301   0.820
 4337SOL    HW213911   1.535   4.280   0.886
 4338SOL     OW13912   6.187   6.541   5.872
 4338SOL    HW113913   6.137   6.583   5.797
 4338SOL    HW213914   6.284   6.561   5.863
 4339SOL     OW13915   4.350   2.756   6.305
 4339SOL    HW113916   4.411   2.835   6.297
 4339SOL    HW213917   4.262   2.777   6.263
 4340SOL     OW13918   6.691   3.620   1.523
 4340SOL    HW113919   6.596   3.607   1.551
 4340SOL    HW213920   6.751   3.577   1.590
 4341SOL     OW13921   1.181   5.246   1.691
 4341SOL    HW113922   1.238   5.239   1.609
 4341SOL    HW213923   1.161   5.155   1.725
 4342SOL     OW13924   5.326   4.085   2.860
 4342SOL    HW113925   5.231   4.053   2.859
 4342SOL    HW213926   5.360   4.084   2.954
 4343SOL     OW13927   2.887   5.989   4.757
 4343SOL    HW113928   2.863   5.962   4.664
 4343SOL    HW213929   2.984   6.014   4.760
 4344SOL     OW13930   0.933   3.913   2.884
 4344SOL    HW113931   0.849   3.959   2.914
 4344SOL    HW213932   0.978   3.969   2.814
 4345SOL     OW13933   4.109   3.695   4.321
 4345SOL    HW113934   4.098   3.748   4.237
 4345SOL    HW213935   4.065   3.743   4.397
 4346SOL     OW13936   2.172   3.586   2.910
 4346SOL    HW113937   2.126   3.590   2.821
 4346SOL    HW213938   2.218   3.498   2.920
 4347SOL     OW13939   5.325   0.119   2.987
 4347SOL    HW113940   5.384   0.166   3.052
 4347SOL    HW213941   5.378   0.047   2.940
 4348SOL     OW13942   0.026   5.465   4.146
 4348SOL    HW113943   0.053   5.485   4.052
 4348SOL    HW213944   0.014   5.366   4.156
 4349SOL     OW13945   6.273   2.119   3.091
 4349SOL    HW113946   6.239   2.112   3.185
 4349SOL    HW213947   6.207   2.169   3.035
 4350SOL     OW13948   3.805   1.830   4.050
 4350SOL    HW113949   3.755   1.910   4.019
 4350SOL    HW213950   3.893   1.858   4.088
 4351SOL     OW13951   1.309   6.073   1.421
 4351SOL    HW113952   1.358   6.112   1.500
 4351SOL    HW213953   1.275   6.147   1.363
 4352SOL     OW13954   6.006   3.955   2.742
 4352SOL    HW113955   5.922   3.907   2.764
 4352SOL    HW213956   6.085   3.900   2.770
 4353SOL     OW13957   3.569   2.991   6.532
 4353SOL    HW113958   3.508   2.964   6.607
 4353SOL    HW213959   3.635   3.059   6.566
 4354SOL     OW13960   2.183   0.952   6.619
 4354SOL    HW113961   2.120   0.890   6.572
 4354SOL    HW213962   2.180   1.042   6.576
 4355SOL     OW13963   2.469   0.006   2.379
 4355SOL    HW113964   2.436   0.098   2.360
 4355SOL    HW213965   2.406   6.984   2.444
 4356SOL     OW13966   5.075   3.516   6.720
 4356SOL    HW113967   4.993   3.464   6.694
 4356SOL    HW213968   5.090   3.506   6.818
 4357SOL     OW13969   6.882   1.083   1.564
 4357SOL    HW113970   6.831   1.121   1.641
 4357SOL    HW213971   6.962   1.033   1.597
 4358SOL     OW13972   6.644   1.034   1.046
 4358SOL    HW113973   6.547   1.027   1.071
 4358SOL    HW213974   6.686   0.944   1.054
 4359SOL     OW13975   1.350   1.264   6.956
 4359SOL    HW113976   1.315   1.285   6.864
 4359SOL    HW213977   1.449   1.254   6.952
 4360SOL     OW13978   0.792   3.623   3.734
 4360SOL    HW113979   0.768   3.571   3.652
 4360SOL    HW213980   0.756   3.576   3.815
 4361SOL     OW13981   2.293   3.993   1.896
 4361SOL    HW113982   2.242   3.907   1.904
 4361SOL    HW213983   2.361   3.985   1.823
 4362SOL     OW13984   6.689   5.500   3.544
 4362SOL    HW113985   6.622   5.534   3.609
 4362SOL    HW213986   6.736   5.421   3.582
 4363SOL     OW13987   4.638   2.361   0.752
 4363SOL    HW113988   4.583   2.287   0.714
 4363SOL    HW213989   4.708   2.322   0.813
 4364SOL     OW13990   3.089   3.972   3.563
 4364SOL    HW113991   3.160   3.978   3.633
 4364SOL    HW213992   3.132   3.961   3.473
 4365SOL     OW13993   2.930   0.604   2.163
 4365SOL    HW113994   2.998   0.538   2.195
 4365SOL    HW213995   2.839   0.570   2.183
 4366SOL     OW13996   5.949   0.076   6.317
 4366SOL    HW113997   5.855   0.087   6.287
 4366SOL    HW213998   5.951   0.021   6.401
 4367SOL     OW13999   2.548   4.908   4.117
 4367SOL    HW114000   2.605   4.832   4.150
 4367SOL    HW214001   2.523   4.893   4.022
 4368SOL     OW14002   3.787   5.468   1.390
 4368SOL    HW114003   3.706   5.527   1.384
 4368SOL    HW214004   3.867   5.519   1.359
 4369SOL     OW14005   4.660   4.853   2.885
 4369SOL    HW114006   4.588   4.841   2.954
 4369SOL    HW214007   4.640   4.934   2.831
 4370SOL     OW14008   3.694   4.576   1.601
 4370SOL    HW114009   3.749   4.657   1.580
 4370SOL    HW214010   3.627   4.599   1.671
 4371SOL     OW14011   1.618   1.808   2.468
 4371SOL    HW114012   1.655   1.896   2.496
 4371SOL    HW214013   1.686   1.737   2.483
 4372SOL     OW14014   2.403   2.383   4.469
 4372SOL    HW114015   2.485   2.374   4.413
 4372SOL    HW214016   2.400   2.309   4.536
 4373SOL     OW14017   4.426   0.900   6.958
 4373SOL    HW114018   4.332   0.867   6.959
 4373SOL    HW214019   4.477   0.851   6.886
 4374SOL     OW14020   0.741   1.666   1.245
 4374SOL    HW114021   0.784   1.721   1.174
 4374SOL    HW214022   0.772   1.697   1.335
 4375SOL     OW14023   4.254   5.897   3.039
 4375SOL    HW114024   4.299   5.958   3.105
 4375SOL    HW214025   4.313   5.819   3.020
 4376SOL     OW14026   6.068   0.052   2.850
 4376SOL    HW114027   6.007   7.000   2.872
 4376SOL    HW214028   6.160   0.016   2.831
 4377SOL     OW14029   5.691   5.760   6.818
 4377SOL    HW114030   5.780   5.800   6.796
 4377SOL    HW214031   5.656   5.802   6.902
 4378SOL     OW14032   1.661   3.063   2.828
 4378SOL    HW114033   1.577   3.114   2.807
 4378SOL    HW214034   1.722   3.066   2.749
 4379SOL     OW14035   2.373   2.078   2.082
 4379SOL    HW114036   2.405   1.984   2.068
 4379SOL    HW214037   2.381   2.102   2.179
 4380SOL     OW14038   1.548   6.453   3.626
 4380SOL    HW114039   1.520   6.396   3.549
 4380SOL    HW214040   1.493   6.431   3.706
 4381SOL     OW14041   2.350   4.253   5.245
 4381SOL    HW114042   2.379   4.159   5.227
 4381SOL    HW214043   2.431   4.311   5.260
 4382SOL     OW14044   6.184   3.463   6.200
 4382SOL    HW114045   6.087   3.486   6.191
 4382SOL    HW214046   6.233   3.496   6.120
 4383SOL     OW14047   0.827   2.832   5.772
 4383SOL    HW114048   0.760   2.866   5.706
 4383SOL    HW214049   0.787   2.834   5.864
 4384SOL     OW14050   5.300   1.671   6.535
 4384SOL    HW114051   5.206   1.643   6.555
 4384SOL    HW214052   5.322   1.647   6.441
 4385SOL     OW14053   6.438   3.118   5.197
 4385SOL    HW114054   6.352   3.132   5.245
 4385SOL    HW214055   6.480   3.207   5.175
 4386SOL     OW14056   2.086   3.882   6.545
 4386SOL    HW114057   2.061   3.857   6.639
 4386SOL    HW214058   2.116   3.978   6.544
 4387SOL     OW14059   6.949   1.215   1.979
 4387SOL    HW114060   6.985   1.198   2.071
 4387SOL    HW214061   0.001   1.209   1.913
 4388SOL     OW14062   5.158   1.010   6.473
 4388SOL    HW114063   5.147   1.044   6.567
 4388SOL    HW214064   5.204   1.079   6.418
 4389SOL     OW14065   6.387   2.804   0.792
 4389SOL    HW114066   6.436   2.721   0.819
 4389SOL    HW214067   6.288   2.786   0.793
 4390SOL     OW14068   3.774   1.420   1.937
 4390SOL    HW114069   3.705   1.448   1.871
 4390SOL    HW214070   3.865   1.439   1.900
 4391SOL     OW14071   1.468   5.805   6.065
 4391SOL    HW114072   1.437   5.828   6.158
 4391SOL    HW214073   1.564   5.778   6.069
 4392SOL     OW14074   6.612   3.410   5.688
 4392SOL    HW114075   6.650   3.317   5.690
 4392SOL    HW214076   6.624   3.448   5.596
 4393SOL     OW14077   5.414   6.964   2.783
 4393SOL    HW114078   5.433   6.873   2.746
 4393SOL    HW214079   5.346   7.009   2.726
 4394SOL     OW14080   5.536   5.917   2.738
 4394SOL    HW114081   5.628   5.946   2.712
 4394SOL    HW214082   5.538   5.879   2.830
 4395SOL     OW14083   3.921   0.648   1.780
 4395SOL    HW114084   3.927   0.549   1.788
 4395SOL    HW214085   3.852   0.672   1.711
 4396SOL     OW14086   2.588   2.389   4.059
 4396SOL    HW114087   2.497   2.420   4.089
 4396SOL    HW214088   2.603   2.415   3.964
 4397SOL     OW14089   0.056   1.179   4.631
 4397SOL    HW114090   0.155   1.187   4.643
 4397SOL    HW214091   0.016   1.132   4.709
 4398SOL     OW14092   0.675   4.968   4.957
 4398SOL    HW114093   0.605   5.021   5.005
 4398SOL    HW214094   0.669   4.986   4.859
 4399SOL     OW14095   1.648   1.225   1.722
 4399SOL    HW114096   1.714   1.165   1.677
 4399SOL    HW214097   1.670   1.321   1.700
 4400SOL     OW14098   2.871   6.961   5.351
 4400SOL    HW114099   2.900   7.007   5.267
 4400SOL    HW214100   2.808   6.887   5.328
 4401SOL     OW14101   5.017   0.288   6.532
 4401SOL    HW114102   4.980   0.237   6.454
 4401SOL    HW214103   4.993   0.240   6.617
 4402SOL     OW14104   2.633   6.552   1.330
 4402SOL    HW114105   2.554   6.492   1.344
 4402SOL    HW214106   2.717   6.499   1.339
 4403SOL     OW14107   0.779   6.778   3.590
 4403SOL    HW114108   0.763   6.873   3.561
 4403SOL    HW214109   0.829   6.729   3.519
 4404SOL     OW14110   0.330   4.186   5.534
 4404SOL    HW114111   0.319   4.088   5.553
 4404SOL    HW214112   0.407   4.199   5.471
 4405SOL     OW14113   2.100   4.430   1.187
 4405SOL    HW114114   2.094   4.444   1.088
 4405SOL    HW214115   2.159   4.350   1.206
 4406SOL     OW14116   0.067   4.259   0.281
 4406SOL    HW114117   0.150   4.312   0.267
 4406SOL    HW214118   0.089   4.161   0.286
 4407SOL     OW14119   0.169   4.190   0.666
 4407SOL    HW114120   0.190   4.099   0.630
 4407SOL    HW214121   0.243   4.220   0.726
 4408SOL     OW14122   3.603   0.823   1.379
 4408SOL    HW114123   3.656   0.880   1.317
 4408SOL    HW214124   3.596   0.731   1.342
 4409SOL     OW14125   4.638   6.705   1.596
 4409SOL    HW114126   4.677   6.630   1.649
 4409SOL    HW214127   4.711   6.765   1.563
 4410SOL     OW14128   1.429   5.757   0.169
 4410SOL    HW114129   1.501   5.759   0.100
 4410SOL    HW214130   1.391   5.664   0.175
 4411SOL     OW14131   3.157   3.424   3.689
 4411SOL    HW114132   3.169   3.375   3.775
 4411SOL    HW214133   3.087   3.495   3.701
 4412SOL     OW14134   3.692   0.382   4.538
 4412SOL    HW114135   3.662   0.470   4.501
 4412SOL    HW214136   3.784   0.361   4.505
 4413SOL     OW14137   5.294   5.646   4.642
 4413SOL    HW114138   5.224   5.601   4.698
 4413SOL    HW214139   5.339   5.578   4.584
 4414SOL     OW14140   3.853   4.788   1.528
 4414SOL    HW114141   3.939   4.777   1.479
 4414SOL    HW214142   3.795   4.853   1.479
 4415SOL     OW14143   3.943   3.541   6.549
 4415SOL    HW114144   3.858   3.502   6.513
 4415SOL    HW214145   4.005   3.467   6.574
 4416SOL     OW14146   2.501   0.206   4.248
 4416SOL    HW114147   2.429   0.204   4.318
 4416SOL    HW214148   2.588   0.227   4.291
 4417SOL     OW14149   5.823   4.460   3.438
 4417SOL    HW114150   5.758   4.420   3.373
 4417SOL    HW214151   5.857   4.547   3.402
 4418SOL     OW14152   5.697   1.312   2.827
 4418SOL    HW114153   5.685   1.246   2.753
 4418SOL    HW214154   5.630   1.295   2.899
 4419SOL     OW14155   5.843   5.759   0.578
 4419SOL    HW114156   5.752   5.725   0.554
 4419SOL    HW214157   5.851   5.768   0.677
 4420SOL     OW14158   4.909   1.478   1.524
 4420SOL    HW114159   4.988   1.539   1.512
 4420SOL    HW214160   4.922   1.396   1.467
 4421SOL     OW14161   1.778   1.349   4.454
 4421SOL    HW114162   1.813   1.280   4.391
 4421SOL    HW214163   1.807   1.326   4.547
 4422SOL     OW14164   2.842   4.192   5.739
 4422SOL    HW114165   2.908   4.119   5.719
 4422SOL    HW214166   2.858   4.268   5.676
 4423SOL     OW14167   1.161   2.693   5.535
 4423SOL    HW114168   1.074   2.727   5.500
 4423SOL    HW214169   1.223   2.769   5.553
 4424SOL     OW14170   5.400   0.215   4.533
 4424SOL    HW114171   5.488   0.169   4.535
 4424SOL    HW214172   5.330   0.155   4.572
 4425SOL     OW14173   3.206   5.352   6.855
 4425SOL    HW114174   3.151   5.275   6.887
 4425SOL    HW214175   3.172   5.436   6.896
 4426SOL     OW14176   0.204   1.499   4.890
 4426SOL    HW114177   0.125   1.469   4.943
 4426SOL    HW214178   0.278   1.432   4.899
 4427SOL     OW14179   0.176   5.894   2.208
 4427SOL    HW114180   0.213   5.937   2.290
 4427SOL    HW214181   0.105   5.828   2.234
 4428SOL     OW14182   3.301   5.971   1.712
 4428SOL    HW114183   3.348   5.983   1.799
 4428SOL    HW214184   3.209   6.009   1.718
 4429SOL     OW14185   2.993   0.439   2.969
 4429SOL    HW114186   3.003   0.451   2.870
 4429SOL    HW214187   2.957   0.523   3.009
 4430SOL     OW14188   4.969   3.687   4.850
 4430SOL    HW114189   4.979   3.776   4.894
 4430SOL    HW214190   4.896   3.636   4.896
 4431SOL     OW14191   2.178   0.795   2.045
 4431SOL    HW114192   2.091   0.744   2.050
 4431SOL    HW214193   2.190   0.849   2.128
 4432SOL     OW14194   4.116   3.451   4.216
 4432SOL    HW114195   4.107   3.470   4.118
 4432SOL    HW214196   4.125   3.538   4.266
 4433SOL     OW14197   5.469   0.500   5.051
 4433SOL    HW114198   5.455   0.455   4.963
 4433SOL    HW214199   5.495   0.595   5.036
 4434SOL     OW14200   3.980   1.906   3.597
 4434SOL    HW114201   3.906   1.848   3.564
 4434SOL    HW214202   3.990   1.894   3.696
 4435SOL     OW14203   4.242   3.943   1.343
 4435SOL    HW114204   4.294   3.886   1.278
 4435SOL    HW214205   4.290   4.030   1.355
 4436SOL     OW14206   3.517   1.699   1.128
 4436SOL    HW114207   3.496   1.678   1.224
 4436SOL    HW214208   3.448   1.658   1.069
 4437SOL     OW14209   5.796   1.461   3.820
 4437SOL    HW114210   5.758   1.494   3.906
 4437SOL    HW214211   5.833   1.538   3.768
 4438SOL     OW14212   5.052   0.623   0.797
 4438SOL    HW114213   4.965   0.656   0.760
 4438SOL    HW214214   5.128   0.673   0.756
 4439SOL     OW14215   0.438   5.709   1.145
 4439SOL    HW114216   0.353   5.661   1.165
 4439SOL    HW214217   0.441   5.731   1.047
 4440SOL     OW14218   2.270   5.023   0.653
 4440SOL    HW114219   2.176   4.993   0.668
 4440SOL    HW214220   2.278   5.120   0.676
 4441SOL     OW14221   6.576   1.869   2.792
 4441SOL    HW114222   6.550   1.924   2.872
 4441SOL    HW214223   6.495   1.821   2.758
 4442SOL     OW14224   2.688   5.850   5.017
 4442SOL    HW114225   2.614   5.910   4.987
 4442SOL    HW214226   2.739   5.818   4.937
 4443SOL     OW14227   6.996   2.608   0.672
 4443SOL    HW114228   6.976   2.510   0.668
 4443SOL    HW214229   0.072   2.621   0.676
 4444SOL     OW14230   3.826   4.927   6.079
 4444SOL    HW114231   3.798   5.010   6.126
 4444SOL    HW214232   3.813   4.937   5.981
 4445SOL     OW14233   6.789   0.778   1.295
 4445SOL    HW114234   6.806   0.775   1.197
 4445SOL    HW214235   6.742   0.863   1.318
 4446SOL     OW14236   5.712   1.335   1.883
 4446SOL    HW114237   5.725   1.409   1.816
 4446SOL    HW214238   5.800   1.310   1.923
 4447SOL     OW14239   5.662   4.288   6.618
 4447SOL    HW114240   5.646   4.198   6.577
 4447SOL    HW214241   5.643   4.359   6.550
 4448SOL     OW14242   2.952   3.759   1.335
 4448SOL    HW114243   2.917   3.674   1.297
 4448SOL    HW214244   2.950   3.830   1.264
 4449SOL     OW14245   5.048   0.635   5.705
 4449SOL    HW114246   5.042   0.616   5.803
 4449SOL    HW214247   4.956   0.644   5.667
 4450SOL     OW14248   3.737   3.304   4.120
 4450SOL    HW114249   3.777   3.312   4.029
 4450SOL    HW214250   3.762   3.215   4.159
 4451SOL     OW14251   5.829   3.834   4.387
 4451SOL    HW114252   5.928   3.839   4.376
 4451SOL    HW214253   5.786   3.827   4.296
 4452SOL     OW14254   5.207   6.547   4.076
 4452SOL    HW114255   5.125   6.496   4.104
 4452SOL    HW214256   5.278   6.537   4.145
 4453SOL     OW14257   0.229   2.882   1.510
 4453SOL    HW114258   0.244   2.911   1.604
 4453SOL    HW214259   0.220   2.963   1.451
 4454SOL     OW14260   0.268   1.826   6.654
 4454SOL    HW114261   0.231   1.909   6.611
 4454SOL    HW214262   0.312   1.770   6.584
 4455SOL     OW14263   3.479   6.301   6.285
 4455SOL    HW114264   3.574   6.280   6.307
 4455SOL    HW214265   3.464   6.292   6.187
 4456SOL     OW14266   3.296   5.076   1.988
 4456SOL    HW114267   3.292   4.982   1.954
 4456SOL    HW214268   3.378   5.121   1.954
 4457SOL     OW14269   4.516   2.140   0.866
 4457SOL    HW114270   4.477   2.124   0.956
 4457SOL    HW214271   4.514   2.056   0.813
 4458SOL     OW14272   1.324   3.491   6.528
 4458SOL    HW114273   1.423   3.495   6.547
 4458SOL    HW214274   1.274   3.537   6.602
 4459SOL     OW14275   4.826   0.654   4.297
 4459SOL    HW114276   4.743   0.634   4.349
 4459SOL    HW214277   4.802   0.683   4.204
 4460SOL     OW14278   3.030   3.090   5.666
 4460SOL    HW114279   3.074   3.072   5.579
 4460SOL    HW214280   3.049   3.183   5.696
 4461SOL     OW14281   1.795   0.944   2.142
 4461SOL    HW114282   1.699   0.923   2.123
 4461SOL    HW214283   1.826   0.889   2.219
 4462SOL     OW14284   6.244   4.141   2.273
 4462SOL    HW114285   6.293   4.101   2.350
 4462SOL    HW214286   6.294   4.219   2.237
 4463SOL     OW14287   4.908   2.850   6.701
 4463SOL    HW114288   4.934   2.928   6.757
 4463SOL    HW214289   4.846   2.880   6.628
 4464SOL     OW14290   0.069   4.952   0.690
 4464SOL    HW114291   0.036   5.039   0.727
 4464SOL    HW214292   0.010   4.923   0.614
 4465SOL     OW14293   2.601   5.490   2.130
 4465SOL    HW114294   2.536   5.524   2.062
 4465SOL    HW214295   2.690   5.477   2.087
 4466SOL     OW14296   2.287   1.539   3.418
 4466SOL    HW114297   2.380   1.523   3.384
 4466SOL    HW214298   2.221   1.499   3.355
 4467SOL     OW14299   2.229   6.936   2.899
 4467SOL    HW114300   2.207   6.980   2.987
 4467SOL    HW214301   2.153   6.877   2.872
 4468SOL     OW14302   1.842   2.653   1.335
 4468SOL    HW114303   1.864   2.634   1.431
 4468SOL    HW214304   1.758   2.604   1.310
 4469SOL     OW14305   4.240   0.187   1.092
 4469SOL    HW114306   4.239   0.173   1.191
 4469SOL    HW214307   4.288   0.111   1.048
 4470SOL     OW14308   5.972   2.607   2.069
 4470SOL    HW114309   6.063   2.601   2.109
 4470SOL    HW214310   5.963   2.693   2.019
 4471SOL     OW14311   0.104   1.626   6.438
 4471SOL    HW114312   0.195   1.599   6.469
 4471SOL    HW214313   0.035   1.567   6.480
 4472SOL     OW14314   1.772   2.997   4.140
 4472SOL    HW114315   1.841   2.966   4.204
 4472SOL    HW214316   1.805   2.983   4.046
 4473SOL     OW14317   6.955   2.595   4.193
 4473SOL    HW114318   6.913   2.628   4.108
 4473SOL    HW214319   0.028   2.575   4.178
 4474SOL     OW14320   3.475   0.904   1.592
 4474SOL    HW114321   3.376   0.905   1.588
 4474SOL    HW214322   3.513   0.933   1.504
 4475SOL     OW14323   1.672   4.025   2.779
 4475SOL    HW114324   1.771   4.014   2.787
 4475SOL    HW214325   1.637   4.076   2.858
 4476SOL     OW14326   4.305   6.774   4.145
 4476SOL    HW114327   4.362   6.841   4.097
 4476SOL    HW214328   4.242   6.821   4.206
 4477SOL     OW14329   1.380   0.276   5.735
 4477SOL    HW114330   1.322   0.337   5.682
 4477SOL    HW214331   1.474   0.311   5.736
 4478SOL     OW14332   3.598   6.631   2.625
 4478SOL    HW114333   3.675   6.606   2.685
 4478SOL    HW214334   3.612   6.591   2.535
 4479SOL     OW14335   1.524   0.777   1.527
 4479SOL    HW114336   1.490   0.867   1.496
 4479SOL    HW214337   1.573   0.788   1.613
 4480SOL     OW14338   2.435   3.195   5.895
 4480SOL    HW114339   2.497   3.271   5.913
 4480SOL    HW214340   2.464   3.115   5.948
 4481SOL     OW14341   2.419   6.217   5.497
 4481SOL    HW114342   2.441   6.180   5.587
 4481SOL    HW214343   2.498   6.208   5.437
 4482SOL     OW14344   1.216   4.578   4.248
 4482SOL    HW114345   1.172   4.656   4.205
 4482SOL    HW214346   1.239   4.510   4.178
 4483SOL     OW14347   4.957   3.691   2.104
 4483SOL    HW114348   4.941   3.738   2.018
 4483SOL    HW214349   4.918   3.744   2.179
 4484SOL     OW14350   3.591   2.878   5.873
 4484SOL    HW114351   3.501   2.850   5.839
 4484SOL    HW214352   3.603   2.845   5.967
 4485SOL     OW14353   5.009   2.132   4.931
 4485SOL    HW114354   4.964   2.043   4.932
 4485SOL    HW214355   5.074   2.137   5.007
 4486SOL     OW14356   5.276   4.794   4.698
 4486SOL    HW114357   5.271   4.723   4.768
 4486SOL    HW214358   5.337   4.763   4.625
 4487SOL     OW14359   2.636   2.645   6.153
 4487SOL    HW114360   2.609   2.729   6.201
 4487SOL    HW214361   2.724   2.613   6.188
 4488SOL     OW14362   6.437   3.273   5.860
 4488SOL    HW114363   6.469   3.287   5.954
 4488SOL    HW214364   6.458   3.355   5.806
 4489SOL     OW14365   6.176   5.502   4.807
 4489SOL    HW114366   6.271   5.488   4.778
 4489SOL    HW214367   6.158   5.600   4.814
 4490SOL     OW14368   6.440   2.630   3.114
 4490SOL    HW114369   6.365   2.659   3.172
 4490SOL    HW214370   6.412   2.550   3.060
 4491SOL     OW14371   0.017   2.547   4.787
 4491SOL    HW114372   6.994   2.624   4.743
 4491SOL    HW214373   6.972   2.487   4.830
 4492SOL     OW14374   5.625   4.296   1.992
 4492SOL    HW114375   5.672   4.209   1.978
 4492SOL    HW214376   5.609   4.309   2.090
 4493SOL     OW14377   5.079   6.143   5.379
 4493SOL    HW114378   5.124   6.096   5.303
 4493SOL    HW214379   5.113   6.107   5.466
 4494SOL     OW14380   6.787   1.342   5.370
 4494SOL    HW114381   6.843   1.282   5.428
 4494SOL    HW214382   6.702   1.295   5.346
 4495SOL     OW14383   4.133   6.195   4.607
 4495SOL    HW114384   4.095   6.288   4.603
 4495SOL    HW214385   4.061   6.129   4.588
 4496SOL     OW14386   5.722   5.438   0.820
 4496SOL    HW114387   5.647   5.395   0.768
 4496SOL    HW214388   5.763   5.370   0.881
 4497SOL     OW14389   4.942   0.733   6.861
 4497SOL    HW114390   4.863   0.682   6.896
 4497SOL    HW214391   4.912   0.820   6.822
 4498SOL     OW14392   6.707   3.563   6.527
 4498SOL    HW114393   6.648   3.512   6.465
 4498SOL    HW214394   6.768   3.623   6.474
 4499SOL     OW14395   6.762   3.352   4.006
 4499SOL    HW114396   6.853   3.393   4.000
 4499SOL    HW214397   6.734   3.348   4.101
 4500SOL     OW14398   2.962   3.889   3.780
 4500SOL    HW114399   2.972   3.914   3.684
 4500SOL    HW214400   2.968   3.971   3.837
 4501SOL     OW14401   0.355   3.511   4.709
 4501SOL    HW114402   0.312   3.601   4.709
 4501SOL    HW214403   0.285   3.440   4.712
 4502SOL     OW14404   1.184   2.756   6.503
 4502SOL    HW114405   1.221   2.813   6.429
 4502SOL    HW214406   1.188   2.807   6.589
 4503SOL     OW14407   3.447   6.821   2.052
 4503SOL    HW114408   3.424   6.918   2.057
 4503SOL    HW214409   3.392   6.778   1.980
 4504SOL     OW14410   6.359   1.395   5.234
 4504SOL    HW114411   6.348   1.474   5.174
 4504SOL    HW214412   6.270   1.363   5.265
 4505SOL     OW14413   6.053   5.616   2.378
 4505SOL    HW114414   6.053   5.699   2.433
 4505SOL    HW214415   5.961   5.579   2.372
 4506SOL     OW14416   4.259   1.972   3.517
 4506SOL    HW114417   4.258   2.053   3.459
 4506SOL    HW214418   4.166   1.947   3.543
 4507SOL     OW14419   5.482   5.156   2.286
 4507SOL    HW114420   5.533   5.217   2.227
 4507SOL    HW214421   5.543   5.118   2.356
 4508SOL     OW14422   0.466   4.444   5.893
 4508SOL    HW114423   0.421   4.529   5.865
 4508SOL    HW214424   0.497   4.452   5.987
 4509SOL     OW14425   4.947   2.572   2.355
 4509SOL    HW114426   4.962   2.558   2.453
 4509SOL    HW214427   4.879   2.506   2.322
 4510SOL     OW14428   4.386   1.022   4.544
 4510SOL    HW114429   4.394   1.119   4.568
 4510SOL    HW214430   4.305   0.983   4.588
 4511SOL     OW14431   0.039   3.231   6.761
 4511SOL    HW114432   0.081   3.190   6.680
 4511SOL    HW214433   0.025   3.161   6.831
 4512SOL     OW14434   2.351   0.188   5.064
 4512SOL    HW114435   2.327   0.183   5.161
 4512SOL    HW214436   2.305   0.113   5.016
 4513SOL     OW14437   6.082   5.716   0.461
 4513SOL    HW114438   6.086   5.753   0.368
 4513SOL    HW214439   6.013   5.766   0.513
 4514SOL     OW14440   4.714   1.447   6.263
 4514SOL    HW114441   4.697   1.358   6.221
 4514SOL    HW214442   4.701   1.441   6.362
 4515SOL     OW14443   0.096   2.570   5.776
 4515SOL    HW114444   0.032   2.494   5.762
 4515SOL    HW214445   0.100   2.625   5.692
 4516SOL     OW14446   1.298   0.452   6.999
 4516SOL    HW114447   1.316   0.397   0.058
 4516SOL    HW214448   1.220   0.512   7.016
 4517SOL     OW14449   3.218   1.013   6.864
 4517SOL    HW114450   3.131   1.048   6.827
 4517SOL    HW214451   3.234   0.921   6.827
 4518SOL     OW14452   6.978   0.611   3.034
 4518SOL    HW114453   6.953   0.697   2.989
 4518SOL    HW214454   6.898   0.574   3.081
 4519SOL     OW14455   5.928   0.459   1.854
 4519SOL    HW114456   5.983   0.529   1.899
 4519SOL    HW214457   5.839   0.497   1.829
 4520SOL     OW14458   4.554   5.676   4.583
 4520SOL    HW114459   4.530   5.764   4.624
 4520SOL    HW214460   4.531   5.678   4.485
 4521SOL     OW14461   5.924   2.179   4.005
 4521SOL    HW114462   5.870   2.210   4.083
 4521SOL    HW214463   5.983   2.103   4.034
 4522SOL     OW14464   6.128   7.003   3.335
 4522SOL    HW114465   6.202   6.948   3.295
 4522SOL    HW214466   6.167   0.065   3.371
 4523SOL     OW14467   1.629   4.443   0.438
 4523SOL    HW114468   1.675   4.520   0.483
 4523SOL    HW214469   1.584   4.475   0.355
 4524SOL     OW14470   5.863   2.493   3.720
 4524SOL    HW114471   5.885   2.397   3.702
 4524SOL    HW214472   5.766   2.501   3.745
 4525SOL     OW14473   4.861   1.272   3.384
 4525SOL    HW114474   4.783   1.327   3.356
 4525SOL    HW214475   4.912   1.242   3.303
 4526SOL     OW14476   5.979   0.362   1.581
 4526SOL    HW114477   6.024   0.440   1.537
 4526SOL    HW214478   5.923   0.394   1.657
 4527SOL     OW14479   4.112   1.174   3.602
 4527SOL    HW114480   4.163   1.218   3.676
 4527SOL    HW214481   4.164   1.096   3.568
 4528SOL     OW14482   4.743   0.134   0.277
 4528SOL    HW114483   4.830   0.097   0.246
 4528SOL    HW214484   4.678   0.135   0.201
 4529SOL     OW14485   3.357   1.388   5.290
 4529SOL    HW114486   3.306   1.466   5.255
 4529SOL    HW214487   3.455   1.404   5.280
 4530SOL     OW14488   1.196   3.352   6.328
 4530SOL    HW114489   1.252   3.382   6.405
 4530SOL    HW214490   1.137   3.277   6.357
 4531SOL     OW14491   0.356   3.592   4.260
 4531SOL    HW114492   0.298   3.603   4.341
 4531SOL    HW214493   0.305   3.619   4.178
 4532SOL     OW14494   5.799   2.143   3.377
 4532SOL    HW114495   5.776   2.053   3.414
 4532SOL    HW214496   5.724   2.175   3.320
 4533SOL     OW14497   1.726   0.558   2.087
 4533SOL    HW114498   1.675   0.555   2.173
 4533SOL    HW214499   1.699   0.482   2.029
 4534SOL     OW14500   4.564   4.438   4.591
 4534SOL    HW114501   4.574   4.365   4.658
 4534SOL    HW214502   4.626   4.513   4.614
 4535SOL     OW14503   5.067   1.333   2.350
 4535SOL    HW114504   5.146   1.383   2.384
 4535SOL    HW214505   4.990   1.395   2.337
 4536SOL     OW14506   4.000   1.295   3.934
 4536SOL    HW114507   3.965   1.203   3.920
 4536SOL    HW214508   3.944   1.342   4.002
 4537SOL     OW14509   3.578   2.803   6.125
 4537SOL    HW114510   3.546   2.868   6.193
 4537SOL    HW214511   3.583   2.711   6.165
 4538SOL     OW14512   2.175   0.171   4.164
 4538SOL    HW114513   2.127   0.259   4.164
 4538SOL    HW214514   2.218   0.157   4.254
 4539SOL     OW14515   2.257   0.564   4.762
 4539SOL    HW114516   2.241   0.650   4.713
 4539SOL    HW214517   2.172   0.511   4.765
 4540SOL     OW14518   2.930   3.145   5.091
 4540SOL    HW114519   2.877   3.091   5.156
 4540SOL    HW214520   2.878   3.153   5.005
 4541SOL     OW14521   6.010   1.444   1.090
 4541SOL    HW114522   6.073   1.381   1.044
 4541SOL    HW214523   5.927   1.395   1.115
 4542SOL     OW14524   6.378   0.897   3.287
 4542SOL    HW114525   6.424   0.823   3.337
 4542SOL    HW214526   6.446   0.959   3.249
 4543SOL     OW14527   4.610   1.861   1.437
 4543SOL    HW114528   4.668   1.848   1.357
 4543SOL    HW214529   4.643   1.941   1.489
 4544SOL     OW14530   2.898   6.248   6.095
 4544SOL    HW114531   2.987   6.243   6.050
 4544SOL    HW214532   2.887   6.338   6.136
 4545SOL     OW14533   5.016   3.955   4.898
 4545SOL    HW114534   5.099   4.010   4.899
 4545SOL    HW214535   4.939   4.010   4.865
 4546SOL     OW14536   2.213   1.161   6.409
 4546SOL    HW114537   2.167   1.231   6.355
 4546SOL    HW214538   2.311   1.178   6.409
 4547SOL     OW14539   5.948   2.571   3.321
 4547SOL    HW114540   5.878   2.573   3.393
 4547SOL    HW214541   5.911   2.612   3.238
 4548SOL     OW14542   1.144   4.176   4.665
 4548SOL    HW114543   1.052   4.160   4.700
 4548SOL    HW214544   1.194   4.234   4.730
 4549SOL     OW14545   5.625   4.326   2.282
 4549SOL    HW114546   5.697   4.356   2.343
 4549SOL    HW214547   5.574   4.405   2.248
 4550SOL     OW14548   1.536   5.839   3.304
 4550SOL    HW114549   1.494   5.794   3.225
 4550SOL    HW214550   1.522   5.938   3.297
 4551SOL     OW14551   6.297   1.782   5.962
 4551SOL    HW114552   6.211   1.789   6.013
 4551SOL    HW214553   6.361   1.723   6.013
 4552SOL     OW14554   6.424   2.802   1.109
 4552SOL    HW114555   6.511   2.779   1.154
 4552SOL    HW214556   6.443   2.853   1.025
 4553SOL     OW14557   3.872   4.287   6.493
 4553SOL    HW114558   3.946   4.319   6.552
 4553SOL    HW214559   3.870   4.341   6.409
 4554SOL     OW14560   4.948   0.089   1.348
 4554SOL    HW114561   5.026   0.120   1.403
 4554SOL    HW214562   4.896   0.168   1.317
 4555SOL     OW14563   3.395   1.423   5.775
 4555SOL    HW114564   3.423   1.330   5.797
 4555SOL    HW214565   3.344   1.423   5.689
 4556SOL     OW14566   4.359   2.395   4.160
 4556SOL    HW114567   4.316   2.477   4.200
 4556SOL    HW214568   4.331   2.315   4.212
 4557SOL     OW14569   5.084   6.600   4.759
 4557SOL    HW114570   5.075   6.533   4.833
 4557SOL    HW214571   5.064   6.691   4.794
 4558SOL     OW14572   0.821   4.201   5.077
 4558SOL    HW114573   0.724   4.227   5.080
 4558SOL    HW214574   0.877   4.280   5.103
 4559SOL     OW14575   0.604   3.859   1.990
 4559SOL    HW114576   0.538   3.813   1.931
 4559SOL    HW214577   0.681   3.797   2.008
 4560SOL     OW14578   5.551   5.061   2.705
 4560SOL    HW114579   5.533   5.156   2.679
 4560SOL    HW214580   5.582   5.057   2.800
 4561SOL     OW14581   2.674   0.833   1.597
 4561SOL    HW114582   2.675   0.829   1.697
 4561SOL    HW214583   2.613   0.906   1.568
 4562SOL     OW14584   3.377   6.427   4.897
 4562SOL    HW114585   3.312   6.500   4.919
 4562SOL    HW214586   3.358   6.348   4.955
 4563SOL     OW14587   0.708   3.924   0.861
 4563SOL    HW114588   0.683   3.860   0.788
 4563SOL    HW214589   0.698   4.018   0.828
 4564SOL     OW14590   6.930   7.016   0.625
 4564SOL    HW114591   6.996   0.046   0.678
 4564SOL    HW214592   6.928   6.922   0.658
 4565SOL     OW14593   0.041   0.941   5.608
 4565SOL    HW114594   0.055   0.925   5.511
 4565SOL    HW214595   0.062   1.036   5.630
 4566SOL     OW14596   6.400   1.856   0.619
 4566SOL    HW114597   6.397   1.822   0.713
 4566SOL    HW214598   6.390   1.956   0.620
 4567SOL     OW14599   0.048   0.610   0.038
 4567SOL    HW114600   0.075   0.706   0.053
 4567SOL    HW214601   0.116   0.550   0.081
 4568SOL     OW14602   1.634   4.257   5.964
 4568SOL    HW114603   1.691   4.221   6.038
 4568SOL    HW214604   1.667   4.221   5.877
 4569SOL     OW14605   2.173   1.238   3.499
 4569SOL    HW114606   2.251   1.284   3.542
 4569SOL    HW214607   2.147   1.159   3.555
 4570SOL     OW14608   0.969   6.327   3.330
 4570SOL    HW114609   0.990   6.233   3.302
 4570SOL    HW214610   1.046   6.364   3.382
 4571SOL     OW14611   4.253   3.108   5.961
 4571SOL    HW114612   4.306   3.190   5.940
 4571SOL    HW214613   4.206   3.120   6.049
 4572SOL     OW14614   0.975   6.590   6.959
 4572SOL    HW114615   1.060   6.636   6.987
 4572SOL    HW214616   0.962   6.508   7.015
 4573SOL     OW14617   6.299   6.698   0.604
 4573SOL    HW114618   6.380   6.754   0.587
 4573SOL    HW214619   6.238   6.746   0.668
 4574SOL     OW14620   6.555   4.072   1.059
 4574SOL    HW114621   6.555   4.124   1.145
 4574SOL    HW214622   6.479   4.104   1.002
 4575SOL     OW14623   5.686   1.786   6.491
 4575SOL    HW114624   5.611   1.845   6.522
 4575SOL    HW214625   5.660   1.743   6.405
 4576SOL     OW14626   2.574   6.246   6.223
 4576SOL    HW114627   2.656   6.193   6.202
 4576SOL    HW214628   2.496   6.210   6.171
 4577SOL     OW14629   0.911   1.778   4.601
 4577SOL    HW114630   0.952   1.689   4.580
 4577SOL    HW214631   0.974   1.833   4.655
 4578SOL     OW14632   0.948   3.506   4.958
 4578SOL    HW114633   1.046   3.523   4.970
 4578SOL    HW214634   0.897   3.589   4.977
 4579SOL     OW14635   4.668   2.302   3.502
 4579SOL    HW114636   4.577   2.332   3.532
 4579SOL    HW214637   4.676   2.311   3.403
 4580SOL     OW14638   4.643   4.744   0.039
 4580SOL    HW114639   4.679   4.769   0.129
 4580SOL    HW214640   4.652   4.822   7.000
 4581SOL     OW14641   2.511   4.816   2.841
 4581SOL    HW114642   2.562   4.731   2.856
 4581SOL    HW214643   2.569   4.881   2.792
 4582SOL     OW14644   5.939   6.209   4.429
 4582SOL    HW114645   5.922   6.291   4.485
 4582SOL    HW214646   5.920   6.127   4.483
 4583SOL     OW14647   2.323   1.837   5.397
 4583SOL    HW114648   2.409   1.888   5.399
 4583SOL    HW214649   2.255   1.884   5.453
 4584SOL     OW14650   0.045   5.570   5.778
 4584SOL    HW114651   7.016   5.614   5.704
 4584SOL    HW214652   0.139   5.604   5.779
 4585SOL     OW14653   2.579   0.006   3.180
 4585SOL    HW114654   2.513   0.071   3.143
 4585SOL    HW214655   2.609   6.967   3.107
 4586SOL     OW14656   3.171   4.530   0.408
 4586SOL    HW114657   3.187   4.603   0.474
 4586SOL    HW214658   3.167   4.569   0.316
 4587SOL     OW14659   4.073   3.840   2.033
 4587SOL    HW114660   4.072   3.868   2.129
 4587SOL    HW214661   4.068   3.740   2.028
 4588SOL     OW14662   4.033   3.837   4.862
 4588SOL    HW114663   3.935   3.823   4.852
 4588SOL    HW214664   4.053   3.867   4.955
 4589SOL     OW14665   5.707   1.132   2.623
 4589SOL    HW114666   5.629   1.148   2.561
 4589SOL    HW214667   5.790   1.168   2.581
 4590SOL     OW14668   4.790   5.770   0.271
 4590SOL    HW114669   4.773   5.801   0.364
 4590SOL    HW214670   4.817   5.849   0.215
 4591SOL     OW14671   0.826   6.455   4.771
 4591SOL    HW114672   0.858   6.492   4.684
 4591SOL    HW214673   0.726   6.444   4.768
 4592SOL     OW14674   3.325   1.457   1.619
 4592SOL    HW114675   3.280   1.544   1.639
 4592SOL    HW214676   3.406   1.446   1.677
 4593SOL     OW14677   4.525   5.572   3.661
 4593SOL    HW114678   4.531   5.671   3.668
 4593SOL    HW214679   4.471   5.536   3.738
 4594SOL     OW14680   3.225   0.648   1.573
 4594SOL    HW114681   3.325   0.642   1.567
 4594SOL    HW214682   3.199   0.741   1.596
 4595SOL     OW14683   3.979   2.181   6.577
 4595SOL    HW114684   4.064   2.172   6.630
 4595SOL    HW214685   3.920   2.248   6.619
 4596SOL     OW14686   5.919   6.875   2.866
 4596SOL    HW114687   5.821   6.893   2.862
 4596SOL    HW214688   5.941   6.797   2.806
 4597SOL     OW14689   4.568   4.172   6.735
 4597SOL    HW114690   4.523   4.252   6.697
 4597SOL    HW214691   4.662   4.166   6.701
 4598SOL     OW14692   1.842   5.547   0.247
 4598SOL    HW114693   1.771   5.494   0.200
 4598SOL    HW214694   1.880   5.615   0.184
 4599SOL     OW14695   0.530   5.471   0.229
 4599SOL    HW114696   0.487   5.434   0.310
 4599SOL    HW214697   0.554   5.396   0.166
 4600SOL     OW14698   0.952   4.650   5.379
 4600SOL    HW114699   0.881   4.711   5.345
 4600SOL    HW214700   0.971   4.670   5.475
 4601SOL     OW14701   1.803   0.446   6.147
 4601SOL    HW114702   1.750   0.404   6.220
 4601SOL    HW214703   1.889   0.396   6.135
 4602SOL     OW14704   0.876   5.579   1.311
 4602SOL    HW114705   0.782   5.607   1.288
 4602SOL    HW214706   0.880   5.480   1.320
 4603SOL     OW14707   2.941   6.109   0.643
 4603SOL    HW114708   2.942   6.195   0.695
 4603SOL    HW214709   2.923   6.033   0.705
 4604SOL     OW14710   4.789   0.469   1.827
 4604SOL    HW114711   4.783   0.553   1.773
 4604SOL    HW214712   4.708   0.413   1.810
 4605SOL     OW14713   3.537   0.835   3.580
 4605SOL    HW114714   3.607   0.772   3.546
 4605SOL    HW214715   3.566   0.874   3.668
 4606SOL     OW14716   0.916   0.263   1.638
 4606SOL    HW114717   0.839   0.303   1.588
 4606SOL    HW214718   0.921   0.165   1.619
 4607SOL     OW14719   2.347   2.331   0.694
 4607SOL    HW114720   2.277   2.365   0.631
 4607SOL    HW214721   2.352   2.391   0.774
 4608SOL     OW14722   0.928   6.228   3.713
 4608SOL    HW114723   0.928   6.323   3.742
 4608SOL    HW214724   0.846   6.209   3.659
 4609SOL     OW14725   4.523   5.017   6.339
 4609SOL    HW114726   4.490   5.029   6.245
 4609SOL    HW214727   4.451   5.044   6.403
 4610SOL     OW14728   5.114   2.923   0.913
 4610SOL    HW114729   5.095   3.008   0.961
 4610SOL    HW214730   5.061   2.920   0.828
 4611SOL     OW14731   6.922   6.281   5.807
 4611SOL    HW114732   6.841   6.252   5.755
 4611SOL    HW214733   7.003   6.238   5.769
 4612SOL     OW14734   1.085   5.894   6.969
 4612SOL    HW114735   1.132   5.903   0.034
 4612SOL    HW214736   0.987   5.884   6.984
 4613SOL     OW14737   2.205   6.222   2.318
 4613SOL    HW114738   2.305   6.227   2.323
 4613SOL    HW214739   2.176   6.127   2.312
 4614SOL     OW14740   6.900   3.593   4.439
 4614SOL    HW114741   6.929   3.652   4.364
 4614SOL    HW214742   6.800   3.599   4.450
 4615SOL     OW14743   1.599   0.646   0.366
 4615SOL    HW114744   1.624   0.742   0.359
 4615SOL    HW214745   1.635   0.608   0.451
 4616SOL     OW14746   6.197   0.813   5.819
 4616SOL    HW114747   6.121   0.868   5.853
 4616SOL    HW214748   6.215   0.836   5.724
 4617SOL     OW14749   0.383   2.504   2.472
 4617SOL    HW114750   0.318   2.579   2.457
 4617SOL    HW214751   0.377   2.440   2.396
 4618SOL     OW14752   1.936   3.022   4.971
 4618SOL    HW114753   1.998   3.092   5.007
 4618SOL    HW214754   1.965   2.997   4.878
 4619SOL     OW14755   3.230   6.288   3.020
 4619SOL    HW114756   3.314   6.296   3.072
 4619SOL    HW214757   3.247   6.233   2.937
 4620SOL     OW14758   2.576   4.818   0.358
 4620SOL    HW114759   2.629   4.883   0.303
 4620SOL    HW214760   2.569   4.731   0.308
 4621SOL     OW14761   5.472   1.249   2.433
 4621SOL    HW114762   5.432   1.168   2.390
 4621SOL    HW214763   5.539   1.290   2.372
 4622SOL     OW14764   2.346   4.456   0.209
 4622SOL    HW114765   2.305   4.421   0.124
 4622SOL    HW214766   2.396   4.382   0.254
 4623SOL     OW14767   5.896   6.657   0.658
 4623SOL    HW114768   5.923   6.678   0.752
 4623SOL    HW214769   5.880   6.743   0.608
 4624SOL     OW14770   5.523   0.273   3.108
 4624SOL    HW114771   5.622   0.284   3.116
 4624SOL    HW214772   5.478   0.355   3.143
 4625SOL     OW14773   1.469   3.851   0.610
 4625SOL    HW114774   1.517   3.914   0.672
 4625SOL    HW214775   1.371   3.854   0.631
 4626SOL     OW14776   5.210   5.493   2.133
 4626SOL    HW114777   5.308   5.510   2.121
 4626SOL    HW214778   5.178   5.428   2.065
 4627SOL     OW14779   2.826   4.751   4.208
 4627SOL    HW114780   2.888   4.787   4.277
 4627SOL    HW214781   2.747   4.709   4.253
 4628SOL     OW14782   6.222   4.568   3.995
 4628SOL    HW114783   6.240   4.502   3.922
 4628SOL    HW214784   6.250   4.659   3.966
 4629SOL     OW14785   2.087   5.212   5.866
 4629SOL    HW114786   2.133   5.131   5.903
 4629SOL    HW214787   2.110   5.223   5.770
 4630SOL     OW14788   3.929   5.333   2.372
 4630SOL    HW114789   3.904   5.419   2.418
 4630SOL    HW214790   4.022   5.307   2.399
 4631SOL     OW14791   2.039   6.382   3.098
 4631SOL    HW114792   1.999   6.325   3.026
 4631SOL    HW214793   2.060   6.473   3.061
 4632SOL     OW14794   3.577   5.227   2.793
 4632SOL    HW114795   3.540   5.192   2.879
 4632SOL    HW214796   3.675   5.244   2.803
 4633SOL     OW14797   5.407   1.459   4.140
 4633SOL    HW114798   5.394   1.549   4.099
 4633SOL    HW214799   5.429   1.469   4.238
 4634SOL     OW14800   2.874   5.077   5.678
 4634SOL    HW114801   2.897   4.981   5.662
 4634SOL    HW214802   2.799   5.082   5.744
 4635SOL     OW14803   5.654   3.572   1.267
 4635SOL    HW114804   5.613   3.648   1.318
 4635SOL    HW214805   5.642   3.586   1.169
 4636SOL     OW14806   2.487   5.113   0.154
 4636SOL    HW114807   2.416   5.184   0.148
 4636SOL    HW214808   2.455   5.030   0.108
 4637SOL     OW14809   0.705   6.723   0.257
 4637SOL    HW114810   0.737   6.631   0.281
 4637SOL    HW214811   0.764   6.791   0.302
 4638SOL     OW14812   5.125   2.938   0.089
 4638SOL    HW114813   5.085   2.859   0.041
 4638SOL    HW214814   5.159   3.003   0.022
 4639SOL     OW14815   2.751   4.177   5.335
 4639SOL    HW114816   2.750   4.078   5.321
 4639SOL    HW214817   2.843   4.206   5.363
 4640SOL     OW14818   5.014   4.553   3.470
 4640SOL    HW114819   5.060   4.640   3.453
 4640SOL    HW214820   4.915   4.568   3.479
 4641SOL     OW14821   1.956   6.546   4.866
 4641SOL    HW114822   2.040   6.503   4.900
 4641SOL    HW214823   1.891   6.557   4.941
 4642SOL     OW14824   0.241   5.341   3.866
 4642SOL    HW114825   0.330   5.305   3.895
 4642SOL    HW214826   0.255   5.425   3.812
 4643SOL     OW14827   5.814   3.076   1.377
 4643SOL    HW114828   5.893   3.135   1.357
 4643SOL    HW214829   5.735   3.108   1.325
 4644SOL     OW14830   0.044   4.823   5.065
 4644SOL    HW114831   0.133   4.786   5.041
 4644SOL    HW214832   7.019   4.759   5.125
 4645SOL     OW14833   0.539   1.455   4.466
 4645SOL    HW114834   0.489   1.368   4.464
 4645SOL    HW214835   0.637   1.437   4.472
 4646SOL     OW14836   2.253   5.458   3.846
 4646SOL    HW114837   2.287   5.380   3.792
 4646SOL    HW214838   2.312   5.472   3.925
 4647SOL     OW14839   1.534   1.120   3.896
 4647SOL    HW114840   1.512   1.125   3.799
 4647SOL    HW214841   1.489   1.040   3.936
 4648SOL     OW14842   4.516   1.132   2.274
 4648SOL    HW114843   4.534   1.141   2.372
 4648SOL    HW214844   4.426   1.093   2.259
 4649SOL     OW14845   5.357   0.046   6.265
 4649SOL    HW114846   5.272   0.007   6.229
 4649SOL    HW214847   5.430   7.001   6.259
 4650SOL     OW14848   4.592   5.467   3.206
 4650SOL    HW114849   4.565   5.457   3.110
 4650SOL    HW214850   4.573   5.560   3.236
 4651SOL     OW14851   6.708   1.741   0.543
 4651SOL    HW114852   6.704   1.652   0.497
 4651SOL    HW214853   6.636   1.800   0.506
 4652SOL     OW14854   6.951   0.451   4.383
 4652SOL    HW114855   6.953   0.548   4.407
 4652SOL    HW214856   6.865   0.430   4.336
 4653SOL     OW14857   5.798   4.946   0.099
 4653SOL    HW114858   5.828   4.854   0.124
 4653SOL    HW214859   5.851   5.014   0.151
 4654SOL     OW14860   0.823   6.514   0.392
 4654SOL    HW114861   0.847   6.594   0.447
 4654SOL    HW214862   0.901   6.452   0.388
 4655SOL     OW14863   6.234   4.425   1.724
 4655SOL    HW114864   6.147   4.382   1.700
 4655SOL    HW214865   6.216   4.508   1.777
 4656SOL     OW14866   1.015   0.530   3.928
 4656SOL    HW114867   0.954   0.451   3.932
 4656SOL    HW214868   0.968   0.611   3.964
 4657SOL     OW14869   5.247   5.916   1.338
 4657SOL    HW114870   5.266   5.920   1.436
 4657SOL    HW214871   5.332   5.908   1.287
 4658SOL     OW14872   3.940   0.644   2.655
 4658SOL    HW114873   3.988   0.614   2.738
 4658SOL    HW214874   3.853   0.686   2.681
 4659SOL     OW14875   3.136   4.426   5.285
 4659SOL    HW114876   3.072   4.473   5.224
 4659SOL    HW214877   3.089   4.350   5.330
 4660SOL     OW14878   1.092   4.490   5.600
 4660SOL    HW114879   1.151   4.409   5.602
 4660SOL    HW214880   1.149   4.572   5.593
 4661SOL     OW14881   3.783   3.923   5.466
 4661SOL    HW114882   3.790   3.980   5.548
 4661SOL    HW214883   3.866   3.934   5.411
 4662SOL     OW14884   3.783   6.848   5.290
 4662SOL    HW114885   3.698   6.837   5.342
 4662SOL    HW214886   3.776   6.928   5.231
 4663SOL     OW14887   0.659   1.457   2.520
 4663SOL    HW114888   0.651   1.433   2.424
 4663SOL    HW214889   0.642   1.555   2.531
 4664SOL     OW14890   1.241   1.502   0.743
 4664SOL    HW114891   1.258   1.592   0.705
 4664SOL    HW214892   1.327   1.453   0.754
 4665SOL     OW14893   3.748   6.994   0.299
 4665SOL    HW114894   3.747   0.071   0.303
 4665SOL    HW214895   3.750   6.957   0.392
 4666SOL     OW14896   1.275   2.142   0.915
 4666SOL    HW114897   1.287   2.043   0.913
 4666SOL    HW214898   1.179   2.165   0.902
 4667SOL     OW14899   5.972   3.780   2.245
 4667SOL    HW114900   5.948   3.819   2.334
 4667SOL    HW214901   5.892   3.781   2.186
 4668SOL     OW14902   5.151   1.842   2.835
 4668SOL    HW114903   5.153   1.772   2.763
 4668SOL    HW214904   5.056   1.868   2.854
 4669SOL     OW14905   4.659   6.232   6.868
 4669SOL    HW114906   4.722   6.256   6.794
 4669SOL    HW214907   4.565   6.248   6.838
 4670SOL     OW14908   2.967   2.167   5.169
 4670SOL    HW114909   3.051   2.200   5.127
 4670SOL    HW214910   2.960   2.204   5.262
 4671SOL     OW14911   6.795   3.134   2.298
 4671SOL    HW114912   6.860   3.067   2.263
 4671SOL    HW214913   6.726   3.089   2.354
 4672SOL     OW14914   2.952   4.780   6.303
 4672SOL    HW114915   2.930   4.825   6.389
 4672SOL    HW214916   3.051   4.787   6.287
 4673SOL     OW14917   5.168   6.605   1.589
 4673SOL    HW114918   5.162   6.683   1.527
 4673SOL    HW214919   5.237   6.623   1.659
 4674SOL     OW14920   4.944   0.093   6.348
 4674SOL    HW114921   5.002   0.020   6.311
 4674SOL    HW214922   4.859   0.053   6.382
 4675SOL     OW14923   0.659   1.176   6.378
 4675SOL    HW114924   0.570   1.213   6.405
 4675SOL    HW214925   0.731   1.225   6.427
 4676SOL     OW14926   6.844   6.126   3.658
 4676SOL    HW114927   6.866   6.092   3.750
 4676SOL    HW214928   6.800   6.215   3.665
 4677SOL     OW14929   2.994   0.979   0.025
 4677SOL    HW114930   3.087   1.014   0.011
 4677SOL    HW214931   2.935   1.013   6.975
 4678SOL     OW14932   2.142   4.784   3.265
 4678SOL    HW114933   2.108   4.723   3.336
 4678SOL    HW214934   2.128   4.742   3.175
 4679SOL     OW14935   3.524   0.453   0.701
 4679SOL    HW114936   3.599   0.387   0.690
 4679SOL    HW214937   3.437   0.404   0.696
 4680SOL     OW14938   2.980   1.710   6.736
 4680SOL    HW114939   2.910   1.699   6.665
 4680SOL    HW214940   3.036   1.790   6.715
 4681SOL     OW14941   5.029   5.100   6.776
 4681SOL    HW114942   5.058   5.148   6.859
 4681SOL    HW214943   4.980   5.017   6.801
 4682SOL     OW14944   4.777   4.398   5.477
 4682SOL    HW114945   4.682   4.416   5.452
 4682SOL    HW214946   4.798   4.445   5.563
 4683SOL     OW14947   4.946   5.115   2.276
 4683SOL    HW114948   4.890   5.033   2.288
 4683SOL    HW214949   4.987   5.114   2.185
 4684SOL     OW14950   5.758   0.498   5.332
 4684SOL    HW114951   5.665   0.510   5.365
 4684SOL    HW214952   5.765   0.532   5.238
 4685SOL     OW14953   1.192   5.345   5.469
 4685SOL    HW114954   1.122   5.370   5.536
 4685SOL    HW214955   1.279   5.386   5.495
 4686SOL     OW14956   4.330   4.896   0.092
 4686SOL    HW114957   4.404   4.855   0.038
 4686SOL    HW214958   4.340   4.868   0.188
 4687SOL     OW14959   5.434   3.396   4.470
 4687SOL    HW114960   5.355   3.429   4.523
 4687SOL    HW214961   5.406   3.380   4.376
 4688SOL     OW14962   5.743   4.141   5.051
 4688SOL    HW114963   5.697   4.148   5.140
 4688SOL    HW214964   5.772   4.047   5.036
 4689SOL     OW14965   4.806   0.637   0.224
 4689SOL    HW114966   4.721   0.689   0.232
 4689SOL    HW214967   4.881   0.689   0.265
 4690SOL     OW14968   1.195   0.122   0.011
 4690SOL    HW114969   1.164   0.140   6.940
 4690SOL    HW214970   1.233   0.205   0.050
 4691SOL     OW14971   2.939   4.663   1.101
 4691SOL    HW114972   2.989   4.674   1.187
 4691SOL    HW214973   2.994   4.611   1.037
 4692SOL     OW14974   5.700   5.451   1.785
 4692SOL    HW114975   5.612   5.437   1.832
 4692SOL    HW214976   5.774   5.423   1.846
 4693SOL     OW14977   1.560   2.105   3.470
 4693SOL    HW114978   1.461   2.117   3.468
 4693SOL    HW214979   1.594   2.122   3.563
 4694SOL     OW14980   1.664   0.906   0.360
 4694SOL    HW114981   1.758   0.938   0.354
 4694SOL    HW214982   1.606   0.962   0.301
 4695SOL     OW14983   0.808   4.299   2.405
 4695SOL    HW114984   0.823   4.263   2.313
 4695SOL    HW214985   0.868   4.378   2.421
 4696SOL     OW14986   0.101   3.974   0.294
 4696SOL    HW114987   0.029   3.930   0.347
 4696SOL    HW214988   0.109   3.929   0.205
 4697SOL     OW14989   1.541   3.461   1.163
 4697SOL    HW114990   1.519   3.502   1.074
 4697SOL    HW214991   1.632   3.419   1.159
 4698SOL     OW14992   4.466   5.882   2.650
 4698SOL    HW114993   4.463   5.842   2.558
 4698SOL    HW214994   4.376   5.917   2.675
 4699SOL     OW14995   1.333   6.686   2.319
 4699SOL    HW114996   1.387   6.770   2.326
 4699SOL    HW214997   1.289   6.682   2.229
 4700SOL     OW14998   0.007   1.070   2.974
 4700SOL    HW114999   6.937   1.033   2.976
 4700SOL    HW215000   0.067   1.005   2.927
 4701SOL     OW15001   2.342   1.920   0.290
 4701SOL    HW115002   2.386   1.853   0.350
 4701SOL    HW215003   2.380   2.011   0.307
 4702SOL     OW15004   5.017   4.656   0.056
 4702SOL    HW115005   5.021   4.558   0.072
 4702SOL    HW215006   5.091   4.683   7.016
 4703SOL     OW15007   0.250   1.650   2.607
 4703SOL    HW115008   0.334   1.674   2.657
 4703SOL    HW215009   0.206   1.733   2.574
 4704SOL     OW15010   6.801   6.462   6.634
 4704SOL    HW115011   6.776   6.496   6.725
 4704SOL    HW215012   6.806   6.538   6.570
 4705SOL     OW15013   4.024   2.878   1.417
 4705SOL    HW115014   4.061   2.824   1.493
 4705SOL    HW215015   4.056   2.972   1.424
 4706SOL     OW15016   2.569   0.031   1.022
 4706SOL    HW115017   2.493   0.091   0.998
 4706SOL    HW215018   2.636   0.032   0.948
 4707SOL     OW15019   1.114   6.637   0.602
 4707SOL    HW115020   1.125   6.564   0.669
 4707SOL    HW215021   1.190   6.634   0.537
 4708SOL     OW15022   1.638   2.175   6.147
 4708SOL    HW115023   1.634   2.077   6.168
 4708SOL    HW215024   1.691   2.189   6.063
 4709SOL     OW15025   4.499   5.860   5.357
 4709SOL    HW115026   4.525   5.853   5.261
 4709SOL    HW215027   4.424   5.797   5.376
 4710SOL     OW15028   4.512   0.216   5.925
 4710SOL    HW115029   4.509   0.308   5.964
 4710SOL    HW215030   4.458   0.154   5.981
 4711SOL     OW15031   5.979   1.336   1.564
 4711SOL    HW115032   6.012   1.307   1.475
 4711SOL    HW215033   5.913   1.410   1.553
 4712SOL     OW15034   3.348   4.595   6.793
 4712SOL    HW115035   3.396   4.527   6.738
 4712SOL    HW215036   3.292   4.652   6.733
 4713SOL     OW15037   3.479   3.886   0.736
 4713SOL    HW115038   3.563   3.936   0.758
 4713SOL    HW215039   3.493   3.834   0.652
 4714SOL     OW15040   0.931   1.882   6.103
 4714SOL    HW115041   0.942   1.963   6.045
 4714SOL    HW215042   0.950   1.907   6.198
 4715SOL     OW15043   6.189   3.476   2.006
 4715SOL    HW115044   6.141   3.410   2.064
 4715SOL    HW215045   6.124   3.519   1.944
 4716SOL     OW15046   4.195   6.611   6.025
 4716SOL    HW115047   4.109   6.622   6.075
 4716SOL    HW215048   4.272   6.624   6.087
 4717SOL     OW15049   0.435   6.052   3.857
 4717SOL    HW115050   0.358   6.104   3.895
 4717SOL    HW215051   0.403   5.961   3.831
 4718SOL     OW15052   5.834   2.509   1.348
 4718SOL    HW115053   5.793   2.596   1.374
 4718SOL    HW215054   5.850   2.508   1.249
 4719SOL     OW15055   4.765   3.206   1.715
 4719SOL    HW115056   4.735   3.141   1.785
 4719SOL    HW215057   4.746   3.299   1.746
 4720SOL     OW15058   2.011   5.177   6.334
 4720SOL    HW115059   1.993   5.116   6.257
 4720SOL    HW215060   1.955   5.149   6.412
 4721SOL     OW15061   6.287   1.858   2.445
 4721SOL    HW115062   6.246   1.773   2.411
 4721SOL    HW215063   6.356   1.891   2.381
 4722SOL     OW15064   1.199   6.220   6.611
 4722SOL    HW115065   1.156   6.145   6.560
 4722SOL    HW215066   1.224   6.189   6.702
 4723SOL     OW15067   2.873   2.954   5.928
 4723SOL    HW115068   2.971   2.932   5.923
 4723SOL    HW215069   2.822   2.893   5.867
 4724SOL     OW15070   6.046   6.825   3.545
 4724SOL    HW115071   6.123   6.809   3.607
 4724SOL    HW215072   6.071   6.895   3.478
 4725SOL     OW15073   6.803   5.018   0.880
 4725SOL    HW115074   6.873   5.037   0.949
 4725SOL    HW215075   6.826   5.066   0.795
 4726SOL     OW15076   1.002   3.137   6.308
 4726SOL    HW115077   0.986   3.125   6.210
 4726SOL    HW215078   0.916   3.160   6.353
 4727SOL     OW15079   1.213   6.309   1.304
 4727SOL    HW115080   1.256   6.349   1.385
 4727SOL    HW215081   1.128   6.358   1.283
 4728SOL     OW15082   5.801   1.510   1.406
 4728SOL    HW115083   5.819   1.604   1.378
 4728SOL    HW215084   5.785   1.454   1.324
 4729SOL     OW15085   3.968   1.691   0.511
 4729SOL    HW115086   4.020   1.676   0.595
 4729SOL    HW215087   3.924   1.781   0.515
 4730SOL     OW15088   3.469   6.044   5.852
 4730SOL    HW115089   3.380   6.030   5.897
 4730SOL    HW215090   3.528   6.097   5.913
 4731SOL     OW15091   3.297   0.341   0.005
 4731SOL    HW115092   3.212   0.385   7.001
 4731SOL    HW215093   3.374   0.391   6.989
 4732SOL     OW15094   1.853   4.366   5.436
 4732SOL    HW115095   1.763   4.377   5.394
 4732SOL    HW215096   1.893   4.279   5.407
 4733SOL     OW15097   1.607   4.474   3.746
 4733SOL    HW115098   1.698   4.515   3.749
 4733SOL    HW215099   1.544   4.530   3.799
 4734SOL     OW15100   4.238   3.652   7.010
 4734SOL    HW115101   4.173   3.690   0.053
 4734SOL    HW215102   4.280   3.726   6.958
 4735SOL     OW15103   6.952   5.148   4.333
 4735SOL    HW115104   6.926   5.053   4.320
 4735SOL    HW215105   0.027   5.159   4.315
 4736SOL     OW15106   6.151   1.595   5.768
 4736SOL    HW115107   6.070   1.639   5.728
 4736SOL    HW215108   6.176   1.515   5.713
 4737SOL     OW15109   2.849   4.374   1.603
 4737SOL    HW115110   2.785   4.437   1.559
 4737SOL    HW215111   2.872   4.408   1.694
 4738SOL     OW15112   1.468   6.091   3.202
 4738SOL    HW115113   1.430   6.182   3.217
 4738SOL    HW215114   1.553   6.099   3.149
 4739SOL     OW15115   4.755   1.594   2.707
 4739SOL    HW115116   4.755   1.615   2.805
 4739SOL    HW215117   4.828   1.646   2.662
 4740SOL     OW15118   0.344   1.993   1.031
 4740SOL    HW115119   0.261   1.971   1.083
 4740SOL    HW215120   0.412   1.921   1.045
 4741SOL     OW15121   5.617   3.731   0.632
 4741SOL    HW115122   5.568   3.662   0.579
 4741SOL    HW215123   5.715   3.712   0.629
 4742SOL     OW15124   3.297   6.956   6.508
 4742SOL    HW115125   3.262   6.864   6.528
 4742SOL    HW215126   3.232   7.005   6.450
 4743SOL     OW15127   1.892   3.497   5.059
 4743SOL    HW115128   1.984   3.501   5.019
 4743SOL    HW215129   1.870   3.402   5.082
 4744SOL     OW15130   2.507   4.269   6.255
 4744SOL    HW115131   2.419   4.277   6.208
 4744SOL    HW215132   2.576   4.321   6.205
 4745SOL     OW15133   3.131   5.206   6.005
 4745SOL    HW115134   3.133   5.119   6.054
 4745SOL    HW215135   3.225   5.236   5.987
 4746SOL     OW15136   5.652   6.151   2.469
 4746SOL    HW115137   5.694   6.060   2.472
 4746SOL    HW215138   5.590   6.162   2.546
 4747SOL     OW15139   2.045   4.096   6.287
 4747SOL    HW115140   2.013   4.007   6.256
 4747SOL    HW215141   2.121   4.084   6.352
 4748SOL     OW15142   0.910   4.839   0.430
 4748SOL    HW115143   0.898   4.885   0.518
 4748SOL    HW215144   0.995   4.787   0.430
 4749SOL     OW15145   2.948   6.584   5.279
 4749SOL    HW115146   2.937   6.551   5.372
 4749SOL    HW215147   2.872   6.645   5.256
 4750SOL     OW15148   0.482   4.202   3.696
 4750SOL    HW115149   0.395   4.206   3.647
 4750SOL    HW215150   0.523   4.111   3.684
 4751SOL     OW15151   3.386   2.034   1.483
 4751SOL    HW115152   3.341   2.095   1.419
 4751SOL    HW215153   3.483   2.027   1.460
 4752SOL     OW15154   3.460   1.130   6.455
 4752SOL    HW115155   3.543   1.187   6.453
 4752SOL    HW215156   3.390   1.171   6.397
 4753SOL     OW15157   5.150   0.005   4.016
 4753SOL    HW115158   5.174   7.000   3.923
 4753SOL    HW215159   5.233   0.010   4.072
 4754SOL     OW15160   5.833   0.128   4.735
 4754SOL    HW115161   5.787   0.165   4.815
 4754SOL    HW215162   5.846   0.029   4.747
 4755SOL     OW15163   2.174   0.689   0.907
 4755SOL    HW115164   2.180   0.590   0.895
 4755SOL    HW215165   2.228   0.717   0.986
 4756SOL     OW15166   6.059   3.030   0.987
 4756SOL    HW115167   6.084   3.116   0.943
 4756SOL    HW215168   6.104   3.023   1.076
 4757SOL     OW15169   2.056   2.011   1.096
 4757SOL    HW115170   2.149   2.039   1.071
 4757SOL    HW215171   2.042   1.916   1.069
 4758SOL     OW15172   2.552   0.070   4.038
 4758SOL    HW115173   2.476   0.009   4.017
 4758SOL    HW215174   2.529   0.125   4.119
 4759SOL     OW15175   5.905   5.014   4.953
 4759SOL    HW115176   5.886   4.989   4.859
 4759SOL    HW215177   6.002   4.999   4.973
 4760SOL     OW15178   2.153   1.900   0.654
 4760SOL    HW115179   2.123   1.921   0.561
 4760SOL    HW215180   2.227   1.963   0.681
 4761SOL     OW15181   0.467   6.181   6.941
 4761SOL    HW115182   0.414   6.180   6.857
 4761SOL    HW215183   0.408   6.204   7.018
 4762SOL     OW15184   1.082   5.891   2.201
 4762SOL    HW115185   1.110   5.819   2.264
 4762SOL    HW215186   1.108   5.980   2.239
 4763SOL     OW15187   6.421   6.464   3.521
 4763SOL    HW115188   6.387   6.375   3.549
 4763SOL    HW215189   6.347   6.531   3.526
 4764SOL     OW15190   4.948   3.819   4.619
 4764SOL    HW115191   5.041   3.837   4.585
 4764SOL    HW215192   4.954   3.779   4.711
 4765SOL     OW15193   4.394   0.673   3.724
 4765SOL    HW115194   4.434   0.677   3.632
 4765SOL    HW215195   4.435   0.596   3.774
 4766SOL     OW15196   5.315   5.591   4.017
 4766SOL    HW115197   5.268   5.626   3.936
 4766SOL    HW215198   5.287   5.645   4.097
 4767SOL     OW15199   3.451   5.169   5.521
 4767SOL    HW115200   3.527   5.125   5.473
 4767SOL    HW215201   3.366   5.157   5.469
 4768SOL     OW15202   4.450   1.633   5.929
 4768SOL    HW115203   4.428   1.721   5.889
 4768SOL    HW215204   4.476   1.646   6.025
 4769SOL     OW15205   5.143   3.668   0.112
 4769SOL    HW115206   5.157   3.753   0.062
 4769SOL    HW215207   5.151   3.591   0.049
 4770SOL     OW15208   1.095   0.665   4.476
 4770SOL    HW115209   1.166   0.654   4.545
 4770SOL    HW215210   1.012   0.619   4.506
 4771SOL     OW15211   3.362   5.739   4.952
 4771SOL    HW115212   3.354   5.641   4.933
 4771SOL    HW215213   3.318   5.760   5.040
 4772SOL     OW15214   3.511   4.516   1.298
 4772SOL    HW115215   3.585   4.582   1.285
 4772SOL    HW215216   3.487   4.475   1.210
 4773SOL     OW15217   6.812   5.547   3.995
 4773SOL    HW115218   6.800   5.453   4.024
 4773SOL    HW215219   6.730   5.577   3.946
 4774SOL     OW15220   1.316   3.381   2.247
 4774SOL    HW115221   1.408   3.345   2.239
 4774SOL    HW215222   1.304   3.423   2.338
 4775SOL     OW15223   4.938   6.155   2.461
 4775SOL    HW115224   4.917   6.213   2.539
 4775SOL    HW215225   4.857   6.147   2.402
 4776SOL     OW15226   1.209   6.563   5.550
 4776SOL    HW115227   1.113   6.583   5.568
 4776SOL    HW215228   1.223   6.553   5.451
 4777SOL     OW15229   2.236   4.834   1.072
 4777SOL    HW115230   2.215   4.763   1.140
 4777SOL    HW215231   2.269   4.790   0.988
 4778SOL     OW15232   6.529   2.302   3.463
 4778SOL    HW115233   6.450   2.360   3.483
 4778SOL    HW215234   6.498   2.218   3.418
 4779SOL     OW15235   6.414   6.414   2.882
 4779SOL    HW115236   6.386   6.441   2.789
 4779SOL    HW215237   6.465   6.489   2.924
 4780SOL     OW15238   5.343   1.148   6.912
 4780SOL    HW115239   5.337   1.106   7.002
 4780SOL    HW215240   5.438   1.149   6.881
 4781SOL     OW15241   2.849   5.284   2.036
 4781SOL    HW115242   2.945   5.261   2.022
 4781SOL    HW215243   2.814   5.333   1.956
 4782SOL     OW15244   4.565   5.600   0.280
 4782SOL    HW115245   4.566   5.562   0.188
 4782SOL    HW215246   4.644   5.660   0.292
 4783SOL     OW15247   4.413   4.090   0.203
 4783SOL    HW115248   4.513   4.101   0.199
 4783SOL    HW215249   4.377   4.142   0.280
 4784SOL     OW15250   6.070   3.982   6.968
 4784SOL    HW115251   6.038   4.076   6.954
 4784SOL    HW215252   6.008   3.919   6.922
 4785SOL     OW15253   0.709   6.620   1.930
 4785SOL    HW115254   0.750   6.659   1.848
 4785SOL    HW215255   0.781   6.584   1.990
 4786SOL     OW15256   2.347   1.418   0.322
 4786SOL    HW115257   2.418   1.487   0.313
 4786SOL    HW215258   2.332   1.398   0.419
 4787SOL     OW15259   4.176   1.364   2.383
 4787SOL    HW115260   4.259   1.354   2.437
 4787SOL    HW215261   4.125   1.278   2.384
 4788SOL     OW15262   0.476   5.767   5.237
 4788SOL    HW115263   0.531   5.796   5.316
 4788SOL    HW215264   0.536   5.750   5.159
 4789SOL     OW15265   5.158   1.303   0.783
 4789SOL    HW115266   5.219   1.323   0.706
 4789SOL    HW215267   5.209   1.261   0.857
 4790SOL     OW15268   6.020   2.155   5.419
 4790SOL    HW115269   5.944   2.195   5.369
 4790SOL    HW215270   6.090   2.225   5.434
 4791SOL     OW15271   6.799   2.920   1.862
 4791SOL    HW115272   6.716   2.878   1.824
 4791SOL    HW215273   6.790   3.020   1.858
 4792SOL     OW15274   1.687   4.116   3.171
 4792SOL    HW115275   1.713   4.148   3.262
 4792SOL    HW215276   1.705   4.188   3.104
 4793SOL     OW15277   2.074   2.860   5.698
 4793SOL    HW115278   2.053   2.931   5.766
 4793SOL    HW215279   2.160   2.882   5.652
 4794SOL     OW15280   4.497   0.553   3.237
 4794SOL    HW115281   4.474   0.588   3.146
 4794SOL    HW215282   4.475   0.456   3.242
 4795SOL     OW15283   5.601   2.538   3.781
 4795SOL    HW115284   5.526   2.509   3.720
 4795SOL    HW215285   5.563   2.572   3.867
 4796SOL     OW15286   5.048   1.714   4.944
 4796SOL    HW115287   5.095   1.761   4.869
 4796SOL    HW215288   4.984   1.648   4.906
 4797SOL     OW15289   1.353   6.149   5.384
 4797SOL    HW115290   1.399   6.220   5.330
 4797SOL    HW215291   1.315   6.189   5.467
 4798SOL     OW15292   0.207   3.736   4.806
 4798SOL    HW115293   0.108   3.719   4.812
 4798SOL    HW215294   0.223   3.821   4.755
 4799SOL     OW15295   5.130   2.014   6.902
 4799SOL    HW115296   5.212   2.066   6.878
 4799SOL    HW215297   5.053   2.043   6.844
 4800SOL     OW15298   3.451   2.973   6.291
 4800SOL    HW115299   3.477   3.004   6.382
 4800SOL    HW215300   3.372   2.912   6.297
 4801SOL     OW15301   2.803   2.490   6.389
 4801SOL    HW115302   2.738   2.415   6.399
 4801SOL    HW215303   2.776   2.566   6.449
 4802SOL     OW15304   1.218   6.703   2.061
 4802SOL    HW115305   1.201   6.623   2.003
 4802SOL    HW215306   1.156   6.777   2.035
 4803SOL     OW15307   0.345   5.466   0.830
 4803SOL    HW115308   0.381   5.536   0.768
 4803SOL    HW215309   0.353   5.376   0.787
 4804SOL     OW15310   5.357   5.834   0.546
 4804SOL    HW115311   5.309   5.754   0.509
 4804SOL    HW215312   5.387   5.893   0.471
 4805SOL     OW15313   5.426   1.922   2.446
 4805SOL    HW115314   5.430   1.849   2.514
 4805SOL    HW215315   5.508   1.979   2.453
 4806SOL     OW15316   1.310   4.660   2.833
 4806SOL    HW115317   1.250   4.721   2.781
 4806SOL    HW215318   1.274   4.650   2.926
 4807SOL     OW15319   0.644   5.067   0.508
 4807SOL    HW115320   0.588   5.034   0.433
 4807SOL    HW215321   0.602   5.150   0.546
 4808SOL     OW15322   5.696   4.258   0.137
 4808SOL    HW115323   5.637   4.236   0.059
 4808SOL    HW215324   5.643   4.251   0.222
 4809SOL     OW15325   3.842   4.187   0.029
 4809SOL    HW115326   3.777   4.159   0.100
 4809SOL    HW215327   3.931   4.146   0.047
 4810SOL     OW15328   1.567   4.679   2.337
 4810SOL    HW115329   1.616   4.663   2.423
 4810SOL    HW215330   1.542   4.776   2.331
 4811SOL     OW15331   2.598   3.919   1.707
 4811SOL    HW115332   2.547   3.835   1.688
 4811SOL    HW215333   2.672   3.899   1.771
 4812SOL     OW15334   6.764   5.348   3.211
 4812SOL    HW115335   6.743   5.357   3.114
 4812SOL    HW215336   6.793   5.437   3.247
 4813SOL     OW15337   5.216   2.708   1.324
 4813SOL    HW115338   5.216   2.703   1.424
 4813SOL    HW215339   5.310   2.716   1.291
 4814SOL     OW15340   6.759   3.628   1.091
 4814SOL    HW115341   6.722   3.655   1.002
 4814SOL    HW215342   6.778   3.710   1.145
 4815SOL     OW15343   5.437   4.333   2.837
 4815SOL    HW115344   5.414   4.238   2.815
 4815SOL    HW215345   5.519   4.335   2.894
 4816SOL     OW15346   2.229   4.747   0.810
 4816SOL    HW115347   2.166   4.748   0.733
 4816SOL    HW215348   2.320   4.778   0.780
 4817SOL     OW15349   0.588   2.044   6.119
 4817SOL    HW115350   0.655   2.035   6.193
 4817SOL    HW215351   0.627   2.009   6.034
 4818SOL     OW15352   1.357   6.365   3.862
 4818SOL    HW115353   1.302   6.379   3.780
 4818SOL    HW215354   1.300   6.379   3.943
 4819SOL     OW15355   1.575   1.910   0.350
 4819SOL    HW115356   1.481   1.927   0.323
 4819SOL    HW215357   1.636   1.922   0.271
 4820SOL     OW15358   5.929   2.199   2.195
 4820SOL    HW115359   5.942   2.239   2.286
 4820SOL    HW215360   5.865   2.123   2.201
 4821SOL     OW15361   1.090   6.669   2.464
 4821SOL    HW115362   1.167   6.666   2.401
 4821SOL    HW215363   1.067   6.764   2.484
 4822SOL     OW15364   1.852   2.603   4.987
 4822SOL    HW115365   1.859   2.587   5.085
 4822SOL    HW215366   1.761   2.640   4.966
 4823SOL     OW15367   1.586   1.029   4.644
 4823SOL    HW115368   1.510   0.987   4.595
 4823SOL    HW215369   1.673   1.000   4.603
 4824SOL     OW15370   4.962   2.270   4.677
 4824SOL    HW115371   4.971   2.233   4.770
 4824SOL    HW215372   4.876   2.238   4.637
 4825SOL     OW15373   1.848   3.310   4.771
 4825SOL    HW115374   1.756   3.277   4.788
 4825SOL    HW215375   1.908   3.281   4.846
 4826SOL     OW15376   5.584   1.505   6.982
 4826SOL    HW115377   5.486   1.505   7.004
 4826SOL    HW215378   5.622   1.414   6.997
 4827SOL     OW15379   6.203   1.577   0.869
 4827SOL    HW115380   6.118   1.560   0.818
 4827SOL    HW215381   6.253   1.491   0.879
 4828SOL     OW15382   5.061   2.669   1.081
 4828SOL    HW115383   5.062   2.749   1.022
 4828SOL    HW215384   5.119   2.685   1.161
 4829SOL     OW15385   3.598   6.255   5.990
 4829SOL    HW115386   3.697   6.261   6.001
 4829SOL    HW215387   3.567   6.327   5.928
 4830SOL     OW15388   4.074   6.549   4.364
 4830SOL    HW115389   4.047   6.528   4.270
 4830SOL    HW215390   4.162   6.506   4.384
 4831SOL     OW15391   0.849   4.262   6.240
 4831SOL    HW115392   0.818   4.208   6.318
 4831SOL    HW215393   0.803   4.231   6.157
 4832SOL     OW15394   3.930   3.023   3.892
 4832SOL    HW115395   3.971   3.079   3.963
 4832SOL    HW215396   3.948   3.064   3.802
 4833SOL     OW15397   4.678   2.208   2.637
 4833SOL    HW115398   4.671   2.220   2.736
 4833SOL    HW215399   4.592   2.235   2.594
 4834SOL     OW15400   3.346   6.457   0.480
 4834SOL    HW115401   3.404   6.516   0.536
 4834SOL    HW215402   3.270   6.424   0.535
 4835SOL     OW15403   5.698   1.685   0.165
 4835SOL    HW115404   5.717   1.763   0.106
 4835SOL    HW215405   5.658   1.611   0.111
 4836SOL     OW15406   5.020   2.484   5.069
 4836SOL    HW115407   5.103   2.482   5.124
 4836SOL    HW215408   5.045   2.496   4.973
 4837SOL     OW15409   6.955   3.982   3.002
 4837SOL    HW115410   6.925   4.063   3.053
 4837SOL    HW215411   0.004   4.007   2.938
 4838SOL     OW15412   1.166   5.390   0.383
 4838SOL    HW115413   1.157   5.489   0.390
 4838SOL    HW215414   1.078   5.351   0.355
 4839SOL     OW15415   1.837   3.406   0.220
 4839SOL    HW115416   1.831   3.323   0.276
 4839SOL    HW215417   1.801   3.484   0.270
 4840SOL     OW15418   6.349   4.283   6.809
 4840SOL    HW115419   6.437   4.295   6.854
 4840SOL    HW215420   6.316   4.189   6.825
 4841SOL     OW15421   2.324   5.121   2.109
 4841SOL    HW115422   2.311   5.137   2.207
 4841SOL    HW215423   2.412   5.075   2.094
 4842SOL     OW15424   3.575   5.175   2.006
 4842SOL    HW115425   3.535   5.229   1.932
 4842SOL    HW215426   3.633   5.234   2.062
 4843SOL     OW15427   6.853   3.555   1.735
 4843SOL    HW115428   6.939   3.564   1.685
 4843SOL    HW215429   6.842   3.633   1.796
 4844SOL     OW15430   0.813   3.534   6.711
 4844SOL    HW115431   0.739   3.594   6.740
 4844SOL    HW215432   0.854   3.570   6.626
 4845SOL     OW15433   4.907   5.399   6.783
 4845SOL    HW115434   4.824   5.445   6.752
 4845SOL    HW215435   4.898   5.300   6.771
 4846SOL     OW15436   6.508   2.411   3.734
 4846SOL    HW115437   6.448   2.437   3.658
 4846SOL    HW215438   6.599   2.450   3.719
 4847SOL     OW15439   2.312   0.173   6.603
 4847SOL    HW115440   2.254   0.098   6.574
 4847SOL    HW215441   2.372   0.201   6.528
 4848SOL     OW15442   1.440   1.422   4.506
 4848SOL    HW115443   1.534   1.390   4.519
 4848SOL    HW215444   1.441   1.513   4.466
 4849SOL     OW15445   0.918   6.161   6.718
 4849SOL    HW115446   0.838   6.182   6.774
 4849SOL    HW215447   0.998   6.208   6.755
 4850SOL     OW15448   4.163   1.055   1.859
 4850SOL    HW115449   4.066   1.060   1.882
 4850SOL    HW215450   4.177   0.985   1.789
 4851SOL     OW15451   3.467   6.559   6.031
 4851SOL    HW115452   3.397   6.579   6.098
 4851SOL    HW215453   3.433   6.490   5.966
 4852SOL     OW15454   2.237   5.768   4.962
 4852SOL    HW115455   2.270   5.697   5.024
 4852SOL    HW215456   2.201   5.726   4.879
 4853SOL     OW15457   3.321   1.108   3.226
 4853SOL    HW115458   3.340   1.041   3.298
 4853SOL    HW215459   3.222   1.115   3.213
 4854SOL     OW15460   4.572   6.149   1.463
 4854SOL    HW115461   4.487   6.203   1.466
 4854SOL    HW215462   4.552   6.054   1.484
 4855SOL     OW15463   5.968   2.572   4.141
 4855SOL    HW115464   6.048   2.521   4.174
 4855SOL    HW215465   5.886   2.536   4.184
 4856SOL     OW15466   1.598   3.304   3.464
 4856SOL    HW115467   1.506   3.344   3.470
 4856SOL    HW215468   1.648   3.347   3.389
 4857SOL     OW15469   3.330   2.089   3.968
 4857SOL    HW115470   3.268   2.166   3.981
 4857SOL    HW215471   3.383   2.074   4.051
 4858SOL     OW15472   0.138   0.586   4.919
 4858SOL    HW115473   0.143   0.589   4.820
 4858SOL    HW215474   0.166   0.495   4.951
 4859SOL     OW15475   1.036   6.068   3.284
 4859SOL    HW115476   1.124   6.031   3.256
 4859SOL    HW215477   1.010   6.030   3.372
 4860SOL     OW15478   4.463   4.585   0.904
 4860SOL    HW115479   4.364   4.602   0.911
 4860SOL    HW215480   4.493   4.602   0.811
 4861SOL     OW15481   5.666   5.328   0.074
 4861SOL    HW115482   5.582   5.283   0.045
 4861SOL    HW215483   5.695   5.393   0.003
 4862SOL     OW15484   2.112   4.416   5.196
 4862SOL    HW115485   2.193   4.360   5.184
 4862SOL    HW215486   2.030   4.360   5.186
 4863SOL     OW15487   5.096   3.800   1.437
 4863SOL    HW115488   5.023   3.823   1.502
 4863SOL    HW215489   5.060   3.800   1.344
 4864SOL     OW15490   3.635   1.796   2.075
 4864SOL    HW115491   3.593   1.852   2.146
 4864SOL    HW215492   3.692   1.853   2.016
 4865SOL     OW15493   2.450   6.927   4.668
 4865SOL    HW115494   2.496   7.010   4.697
 4865SOL    HW215495   2.497   6.847   4.706
 4866SOL     OW15496   6.439   4.264   0.893
 4866SOL    HW115497   6.447   4.247   0.795
 4866SOL    HW215498   6.528   4.292   0.930
 4867SOL     OW15499   4.887   5.520   2.410
 4867SOL    HW115500   4.914   5.595   2.469
 4867SOL    HW215501   4.790   5.498   2.425
 4868SOL     OW15502   0.163   5.048   2.262
 4868SOL    HW115503   0.247   4.999   2.281
 4868SOL    HW215504   0.109   4.997   2.195
 4869SOL     OW15505   0.281   1.770   1.889
 4869SOL    HW115506   0.267   1.820   1.974
 4869SOL    HW215507   0.367   1.719   1.893
 4870SOL     OW15508   0.077   6.058   1.364
 4870SOL    HW115509   0.173   6.078   1.382
 4870SOL    HW215510   0.026   6.143   1.354
 4871SOL     OW15511   0.696   1.673   4.776
 4871SOL    HW115512   0.775   1.707   4.726
 4871SOL    HW215513   0.618   1.665   4.714
 4872SOL     OW15514   6.832   5.666   4.285
 4872SOL    HW115515   6.898   5.607   4.238
 4872SOL    HW215516   6.880   5.723   4.352
 4873SOL     OW15517   6.781   4.789   3.534
 4873SOL    HW115518   6.736   4.852   3.471
 4873SOL    HW215519   6.865   4.830   3.569
 4874SOL     OW15520   5.958   3.478   3.235
 4874SOL    HW115521   5.892   3.499   3.163
 4874SOL    HW215522   5.946   3.543   3.310
 4875SOL     OW15523   5.636   3.486   1.973
 4875SOL    HW115524   5.622   3.412   1.909
 4875SOL    HW215525   5.724   3.531   1.954
 4876SOL     OW15526   5.556   1.184   4.111
 4876SOL    HW115527   5.467   1.173   4.155
 4876SOL    HW215528   5.596   1.272   4.139
 4877SOL     OW15529   0.190   1.806   0.527
 4877SOL    HW115530   0.107   1.855   0.553
 4877SOL    HW215531   0.222   1.752   0.605
 4878SOL     OW15532   6.086   0.650   3.177
 4878SOL    HW115533   6.094   0.609   3.268
 4878SOL    HW215534   5.999   0.699   3.171
 4879SOL     OW15535   4.246   5.826   3.551
 4879SOL    HW115536   4.297   5.754   3.503
 4879SOL    HW215537   4.284   5.915   3.527
 4880SOL     OW15538   6.142   3.043   6.738
 4880SOL    HW115539   6.190   2.955   6.736
 4880SOL    HW215540   6.056   3.035   6.688
 4881SOL     OW15541   1.884   0.046   6.630
 4881SOL    HW115542   1.840   0.136   6.640
 4881SOL    HW215543   1.873   7.017   6.715
 4882SOL     OW15544   5.251   1.241   4.162
 4882SOL    HW115545   5.210   1.253   4.252
 4882SOL    HW215546   5.299   1.325   4.136
 4883SOL     OW15547   4.681   5.145   2.670
 4883SOL    HW115548   4.589   5.175   2.645
 4883SOL    HW215549   4.748   5.181   2.605
 4884SOL     OW15550   3.655   0.534   1.019
 4884SOL    HW115551   3.618   0.526   0.927
 4884SOL    HW215552   3.695   0.624   1.032
 4885SOL     OW15553   2.025   6.170   2.104
 4885SOL    HW115554   1.999   6.210   2.016
 4885SOL    HW215555   2.102   6.221   2.142
 4886SOL     OW15556   6.995   6.385   0.584
 4886SOL    HW115557   0.015   6.450   0.647
 4886SOL    HW215558   0.043   6.337   0.532
 4887SOL     OW15559   0.347   0.381   3.242
 4887SOL    HW115560   0.320   0.463   3.192
 4887SOL    HW215561   0.277   0.311   3.230
 4888SOL     OW15562   1.984   6.770   4.696
 4888SOL    HW115563   1.981   6.691   4.758
 4888SOL    HW215564   2.080   6.792   4.676
 4889SOL     OW15565   6.084   0.677   6.900
 4889SOL    HW115566   5.986   0.682   6.882
 4889SOL    HW215567   6.101   0.617   6.979
 4890SOL     OW15568   0.705   1.602   5.960
 4890SOL    HW115569   0.687   1.590   6.058
 4890SOL    HW215570   0.689   1.515   5.912
 4891SOL     OW15571   1.865   5.799   0.594
 4891SOL    HW115572   1.807   5.772   0.518
 4891SOL    HW215573   1.958   5.767   0.578
 4892SOL     OW15574   2.969   5.717   1.283
 4892SOL    HW115575   3.038   5.664   1.235
 4892SOL    HW215576   3.002   5.810   1.299
 4893SOL     OW15577   0.162   4.051   1.414
 4893SOL    HW115578   0.196   3.970   1.365
 4893SOL    HW215579   0.149   4.126   1.349
 4894SOL     OW15580   2.458   2.062   2.352
 4894SOL    HW115581   2.533   2.017   2.304
 4894SOL    HW215582   2.493   2.107   2.434
 4895SOL     OW15583   0.935   5.660   2.834
 4895SOL    HW115584   0.895   5.697   2.918
 4895SOL    HW215585   0.881   5.583   2.802
 4896SOL     OW15586   2.254   5.045   1.857
 4896SOL    HW115587   2.286   5.074   1.947
 4896SOL    HW215588   2.243   5.124   1.798
 4897SOL     OW15589   2.331   4.541   5.745
 4897SOL    HW115590   2.325   4.519   5.843
 4897SOL    HW215591   2.254   4.501   5.697
 4898SOL     OW15592   4.007   1.530   4.144
 4898SOL    HW115593   3.983   1.569   4.233
 4898SOL    HW215594   3.925   1.524   4.087
 4899SOL     OW15595   6.053   5.281   3.206
 4899SOL    HW115596   6.044   5.184   3.227
 4899SOL    HW215597   6.148   5.309   3.215
 4900SOL     OW15598   2.352   5.504   5.043
 4900SOL    HW115599   2.398   5.441   5.105
 4900SOL    HW215600   2.414   5.528   4.969
 4901SOL     OW15601   3.106   6.807   5.541
 4901SOL    HW115602   3.121   6.776   5.447
 4901SOL    HW215603   3.101   6.906   5.543
 4902SOL     OW15604   2.364   2.645   4.392
 4902SOL    HW115605   2.377   2.547   4.410
 4902SOL    HW215606   2.312   2.686   4.468
 4903SOL     OW15607   3.052   6.074   6.986
 4903SOL    HW115608   2.988   6.056   0.038
 4903SOL    HW215609   3.018   6.150   6.931
 4904SOL     OW15610   1.414   0.597   4.164
 4904SOL    HW115611   1.451   0.546   4.240
 4904SOL    HW215612   1.441   0.554   4.078
 4905SOL     OW15613   4.368   1.489   2.146
 4905SOL    HW115614   4.292   1.534   2.193
 4905SOL    HW215615   4.333   1.419   2.083
 4906SOL     OW15616   4.220   1.685   6.561
 4906SOL    HW115617   4.168   1.756   6.513
 4906SOL    HW215618   4.181   1.671   6.653
 4907SOL     OW15619   4.556   5.881   1.017
 4907SOL    HW115620   4.563   5.929   0.930
 4907SOL    HW215621   4.462   5.888   1.051
 4908SOL     OW15622   4.822   4.784   6.218
 4908SOL    HW115623   4.889   4.762   6.289
 4908SOL    HW215624   4.760   4.707   6.205
 4909SOL     OW15625   6.843   0.117   4.680
 4909SOL    HW115626   6.855   0.071   4.768
 4909SOL    HW215627   6.762   0.175   4.682
 4910SOL     OW15628   5.266   6.260   4.255
 4910SOL    HW115629   5.291   6.175   4.209
 4910SOL    HW215630   5.170   6.257   4.284
 4911SOL     OW15631   0.174   3.323   5.032
 4911SOL    HW115632   0.187   3.227   5.057
 4911SOL    HW215633   0.249   3.378   5.068
 4912SOL     OW15634   5.475   2.632   1.258
 4912SOL    HW115635   5.535   2.626   1.338
 4912SOL    HW215636   5.517   2.690   1.188
 4913SOL     OW15637   3.535   3.523   3.914
 4913SOL    HW115638   3.504   3.442   3.864
 4913SOL    HW215639   3.608   3.498   3.977
 4914SOL     OW15640   3.501   6.963   4.901
 4914SOL    HW115641   3.517   6.882   4.957
 4914SOL    HW215642   3.469   6.935   4.811
 4915SOL     OW15643   4.242   0.645   4.249
 4915SOL    HW115644   4.225   0.720   4.186
 4915SOL    HW215645   4.262   0.682   4.340
 4916SOL     OW15646   2.142   1.418   4.148
 4916SOL    HW115647   2.229   1.417   4.198
 4916SOL    HW215648   2.073   1.466   4.204
 4917SOL     OW15649   1.870   4.845   0.485
 4917SOL    HW115650   1.852   4.942   0.476
 4917SOL    HW215651   1.817   4.808   0.561
 4918SOL     OW15652   3.394   6.564   2.164
 4918SOL    HW115653   3.434   6.507   2.093
 4918SOL    HW215654   3.426   6.658   2.154
 4919SOL     OW15655   2.294   2.191   6.877
 4919SOL    HW115656   2.220   2.129   6.899
 4919SOL    HW215657   2.367   2.141   6.831
 4920SOL     OW15658   4.784   0.647   5.611
 4920SOL    HW115659   4.698   0.612   5.575
 4920SOL    HW215660   4.796   0.742   5.584
 4921SOL     OW15661   2.042   4.113   0.654
 4921SOL    HW115662   1.966   4.177   0.645
 4921SOL    HW215663   2.067   4.077   0.564
 4922SOL     OW15664   1.615   3.211   4.832
 4922SOL    HW115665   1.572   3.220   4.742
 4922SOL    HW215666   1.555   3.157   4.892
 4923SOL     OW15667   3.647   1.397   0.523
 4923SOL    HW115668   3.653   1.470   0.591
 4923SOL    HW215669   3.627   1.436   0.433
 4924SOL     OW15670   2.069   2.317   5.900
 4924SOL    HW115671   2.161   2.321   5.939
 4924SOL    HW215672   2.042   2.408   5.870
 4925SOL     OW15673   5.622   6.918   2.067
 4925SOL    HW115674   5.702   6.967   2.100
 4925SOL    HW215675   5.568   6.979   2.009
 4926SOL     OW15676   5.680   2.411   7.005
 4926SOL    HW115677   5.639   2.324   6.978
 4926SOL    HW215678   5.658   2.430   0.078
 4927SOL     OW15679   3.782   3.726   4.375
 4927SOL    HW115680   3.775   3.756   4.471
 4927SOL    HW215681   3.836   3.793   4.323
 4928SOL     OW15682   6.880   0.419   6.415
 4928SOL    HW115683   6.802   0.480   6.420
 4928SOL    HW215684   6.900   0.396   6.320
 4929SOL     OW15685   1.425   4.686   5.119
 4929SOL    HW115686   1.325   4.687   5.127
 4929SOL    HW215687   1.465   4.696   5.210
 4930SOL     OW15688   4.919   1.080   2.026
 4930SOL    HW115689   4.980   1.139   2.079
 4930SOL    HW215690   4.860   1.136   1.969
 4931SOL     OW15691   6.198   0.234   1.484
 4931SOL    HW115692   6.266   0.288   1.534
 4931SOL    HW215693   6.107   0.268   1.505
 4932SOL     OW15694   2.261   2.850   1.882
 4932SOL    HW115695   2.204   2.831   1.802
 4932SOL    HW215696   2.350   2.806   1.871
 4933SOL     OW15697   2.123   0.191   3.632
 4933SOL    HW115698   2.126   0.093   3.610
 4933SOL    HW215699   2.143   0.204   3.729
 4934SOL     OW15700   1.730   4.732   3.144
 4934SOL    HW115701   1.676   4.794   3.200
 4934SOL    HW215702   1.798   4.784   3.092
 4935SOL     OW15703   1.421   1.423   6.362
 4935SOL    HW115704   1.420   1.476   6.447
 4935SOL    HW215705   1.496   1.455   6.305
 4936SOL     OW15706   1.829   4.913   1.176
 4936SOL    HW115707   1.776   4.998   1.186
 4936SOL    HW215708   1.895   4.923   1.101
 4937SOL     OW15709   6.774   2.985   6.016
 4937SOL    HW115710   6.755   2.948   6.107
 4937SOL    HW215711   6.695   2.971   5.957
 4938SOL     OW15712   2.294   5.702   6.626
 4938SOL    HW115713   2.299   5.690   6.725
 4938SOL    HW215714   2.350   5.632   6.581
 4939SOL     OW15715   0.573   1.729   3.978
 4939SOL    HW115716   0.583   1.726   4.078
 4939SOL    HW215717   0.596   1.640   3.939
 4940SOL     OW15718   0.397   1.562   5.597
 4940SOL    HW115719   0.496   1.567   5.609
 4940SOL    HW215720   0.374   1.485   5.539
 4941SOL     OW15721   4.476   2.612   5.227
 4941SOL    HW115722   4.554   2.626   5.288
 4941SOL    HW215723   4.420   2.695   5.227
 4942SOL     OW15724   5.151   3.011   5.774
 4942SOL    HW115725   5.146   3.081   5.703
 4942SOL    HW215726   5.097   3.040   5.853
 4943SOL     OW15727   5.249   4.180   6.105
 4943SOL    HW115728   5.218   4.187   6.200
 4943SOL    HW215729   5.271   4.271   6.070
 4944SOL     OW15730   2.614   4.145   1.550
 4944SOL    HW115731   2.700   4.193   1.568
 4944SOL    HW215732   2.610   4.062   1.606
 4945SOL     OW15733   1.331   6.649   4.623
 4945SOL    HW115734   1.281   6.632   4.539
 4945SOL    HW215735   1.278   6.616   4.701
 4946SOL     OW15736   0.939   5.306   6.719
 4946SOL    HW115737   1.018   5.339   6.771
 4946SOL    HW215738   0.963   5.222   6.671
 4947SOL     OW15739   2.152   0.317   0.628
 4947SOL    HW115740   2.116   0.392   0.572
 4947SOL    HW215741   2.087   0.295   0.700
 4948SOL     OW15742   2.223   2.588   3.173
 4948SOL    HW115743   2.157   2.587   3.098
 4948SOL    HW215744   2.199   2.517   3.239
 4949SOL     OW15745   6.240   4.785   5.570
 4949SOL    HW115746   6.314   4.736   5.615
 4949SOL    HW215747   6.226   4.873   5.615
 4950SOL     OW15748   2.079   4.847   4.694
 4950SOL    HW115749   2.093   4.767   4.754
 4950SOL    HW215750   1.982   4.872   4.695
 4951SOL     OW15751   6.064   1.272   4.199
 4951SOL    HW115752   6.050   1.368   4.225
 4951SOL    HW215753   5.976   1.232   4.173
 4952SOL     OW15754   6.877   0.111   6.383
 4952SOL    HW115755   6.884   0.115   6.483
 4952SOL    HW215756   6.867   0.204   6.347
 4953SOL     OW15757   1.891   7.022   3.376
 4953SOL    HW115758   1.844   0.080   3.414
 4953SOL    HW215759   1.903   0.011   3.278
 4954SOL     OW15760   2.850   3.296   6.986
 4954SOL    HW115761   2.828   3.212   6.937
 4954SOL    HW215762   2.860   3.371   6.920
 4955SOL     OW15763   3.426   6.458   0.101
 4955SOL    HW115764   3.355   6.436   0.168
 4955SOL    HW215765   3.474   6.541   0.129
 4956SOL     OW15766   2.553   0.121   5.673
 4956SOL    HW115767   2.550   0.220   5.659
 4956SOL    HW215768   2.470   0.080   5.636
 4957SOL     OW15769   5.894   2.331   1.950
 4957SOL    HW115770   5.911   2.430   1.951
 4957SOL    HW215771   5.885   2.298   2.044
 4958SOL     OW15772   0.836   5.185   5.602
 4958SOL    HW115773   0.908   5.250   5.627
 4958SOL    HW215774   0.877   5.107   5.555
 4959SOL     OW15775   6.172   2.149   0.899
 4959SOL    HW115776   6.257   2.153   0.951
 4959SOL    HW215777   6.135   2.055   0.902
 4960SOL     OW15778   3.693   4.910   3.798
 4960SOL    HW115779   3.780   4.886   3.756
 4960SOL    HW215780   3.620   4.901   3.730
 4961SOL     OW15781   3.976   0.927   5.334
 4961SOL    HW115782   4.070   0.905   5.306
 4961SOL    HW215783   3.966   1.026   5.343
 4962SOL     OW15784   5.582   2.820   0.201
 4962SOL    HW115785   5.581   2.919   0.207
 4962SOL    HW215786   5.676   2.787   0.198
 4963SOL     OW15787   0.532   6.775   0.542
 4963SOL    HW115788   0.603   6.766   0.471
 4963SOL    HW215789   0.568   6.742   0.629
 4964SOL     OW15790   2.843   6.879   4.534
 4964SOL    HW115791   2.903   6.806   4.568
 4964SOL    HW215792   2.847   6.881   4.435
 4965SOL     OW15793   0.496   0.620   2.065
 4965SOL    HW115794   0.404   0.597   2.096
 4965SOL    HW215795   0.537   0.687   2.128
 4966SOL     OW15796   2.702   6.731   5.379
 4966SOL    HW115797   2.635   6.713   5.307
 4966SOL    HW215798   2.659   6.717   5.468
 4967SOL     OW15799   3.736   4.877   5.128
 4967SOL    HW115800   3.699   4.887   5.036
 4967SOL    HW215801   3.832   4.905   5.129
 4968SOL     OW15802   0.533   1.203   3.377
 4968SOL    HW115803   0.479   1.133   3.422
 4968SOL    HW215804   0.545   1.179   3.280
 4969SOL     OW15805   1.978   5.541   3.034
 4969SOL    HW115806   1.957   5.618   3.094
 4969SOL    HW215807   2.053   5.566   2.973
 4970SOL     OW15808   2.470   2.331   2.023
 4970SOL    HW115809   2.426   2.242   2.033
 4970SOL    HW215810   2.542   2.341   2.093
 4971SOL     OW15811   5.640   5.491   3.201
 4971SOL    HW115812   5.601   5.576   3.235
 4971SOL    HW215813   5.710   5.459   3.265
 4972SOL     OW15814   0.792   3.640   1.147
 4972SOL    HW115815   0.809   3.564   1.209
 4972SOL    HW215816   0.839   3.722   1.181
 4973SOL     OW15817   1.141   0.054   2.018
 4973SOL    HW115818   1.138   7.008   1.945
 4973SOL    HW215819   1.201   0.129   1.991
 4974SOL     OW15820   6.954   4.251   1.193
 4974SOL    HW115821   6.864   4.274   1.155
 4974SOL    HW215822   6.955   4.271   1.291
 4975SOL     OW15823   6.080   4.251   5.845
 4975SOL    HW115824   6.180   4.252   5.845
 4975SOL    HW215825   6.047   4.299   5.926
 4976SOL     OW15826   2.474   1.929   4.178
 4976SOL    HW115827   2.391   1.878   4.200
 4976SOL    HW215828   2.498   1.914   4.082
 4977SOL     OW15829   4.338   4.172   6.935
 4977SOL    HW115830   4.372   4.165   0.006
 4977SOL    HW215831   4.416   4.182   6.872
 4978SOL     OW15832   6.422   4.627   5.144
 4978SOL    HW115833   6.435   4.687   5.066
 4978SOL    HW215834   6.352   4.666   5.205
 4979SOL     OW15835   6.702   6.752   6.239
 4979SOL    HW115836   6.693   6.850   6.225
 4979SOL    HW215837   6.627   6.705   6.191
 4980SOL     OW15838   5.041   6.220   3.147
 4980SOL    HW115839   4.996   6.283   3.083
 4980SOL    HW215840   5.102   6.159   3.097
 4981SOL     OW15841   4.257   4.926   0.955
 4981SOL    HW115842   4.271   4.974   0.868
 4981SOL    HW215843   4.167   4.950   0.992
 4982SOL     OW15844   2.980   0.759   5.275
 4982SOL    HW115845   3.063   0.812   5.295
 4982SOL    HW215846   3.003   0.680   5.219
 4983SOL     OW15847   6.047   3.981   5.683
 4983SOL    HW115848   6.061   4.078   5.701
 4983SOL    HW215849   6.032   3.967   5.585
 4984SOL     OW15850   5.201   4.509   2.903
 4984SOL    HW115851   5.120   4.476   2.854
 4984SOL    HW215852   5.283   4.468   2.863
 4985SOL     OW15853   5.299   0.433   3.579
 4985SOL    HW115854   5.277   0.509   3.518
 4985SOL    HW215855   5.316   0.351   3.524
 4986SOL     OW15856   7.009   4.617   1.262
 4986SOL    HW115857   6.969   4.528   1.285
 4986SOL    HW215858   0.068   4.632   1.318
 4987SOL     OW15859   0.951   0.227   2.449
 4987SOL    HW115860   0.974   0.324   2.439
 4987SOL    HW215861   0.857   0.219   2.484
 4988SOL     OW15862   5.712   0.875   2.267
 4988SOL    HW115863   5.613   0.861   2.258
 4988SOL    HW215864   5.756   0.788   2.291
 4989SOL     OW15865   5.291   6.679   1.833
 4989SOL    HW115866   5.213   6.743   1.839
 4989SOL    HW215867   5.311   6.643   1.924
 4990SOL     OW15868   2.535   2.377   5.391
 4990SOL    HW115869   2.566   2.470   5.408
 4990SOL    HW215870   2.467   2.377   5.317
 4991SOL     OW15871   6.379   5.553   3.441
 4991SOL    HW115872   6.440   5.542   3.362
 4991SOL    HW215873   6.413   5.628   3.498
 4992SOL     OW15874   5.069   1.069   2.415
 4992SOL    HW115875   4.984   1.034   2.376
 4992SOL    HW215876   5.073   1.168   2.402
 4993SOL     OW15877   3.223   5.826   4.722
 4993SOL    HW115878   3.202   5.752   4.658
 4993SOL    HW215879   3.272   5.789   4.801
 4994SOL     OW15880   2.001   0.549   3.940
 4994SOL    HW115881   1.924   0.509   3.989
 4994SOL    HW215882   2.009   0.507   3.849
 4995SOL     OW15883   0.290   2.512   5.468
 4995SOL    HW115884   0.244   2.435   5.512
 4995SOL    HW215885   0.289   2.500   5.369
 4996SOL     OW15886   0.136   0.864   2.817
 4996SOL    HW115887   0.193   0.783   2.804
 4996SOL    HW215888   0.104   0.897   2.728
 4997SOL     OW15889   4.871   2.503   2.605
 4997SOL    HW115890   4.800   2.438   2.629
 4997SOL    HW215891   4.895   2.558   2.685
 4998SOL     OW15892   2.266   4.319   4.947
 4998SOL    HW115893   2.169   4.315   4.926
 4998SOL    HW215894   2.291   4.242   5.006
 4999SOL     OW15895   6.480   4.144   0.301
 4999SOL    HW115896   6.459   4.182   0.211
 4999SOL    HW215897   6.528   4.057   0.290
 5000SOL     OW15898   3.681   6.626   3.234
 5000SOL    HW115899   3.750   6.631   3.163
 5000SOL    HW215900   3.598   6.673   3.204
 5001SOL     OW15901   0.118   4.351   1.653
 5001SOL    HW115902   0.074   4.423   1.707
 5001SOL    HW215903   0.055   4.274   1.644
 5002SOL     OW15904   0.196   3.066   2.155
 5002SOL    HW115905   0.275   3.005   2.160
 5002SOL    HW215906   0.196   3.114   2.068
 5003SOL     OW15907   2.889   5.628   2.584
 5003SOL    HW115908   2.881   5.674   2.672
 5003SOL    HW215909   2.880   5.529   2.597
 5004SOL     OW15910   2.686   5.091   5.859
 5004SOL    HW115911   2.623   5.149   5.806
 5004SOL    HW215912   2.685   5.120   5.955
 5005SOL     OW15913   3.129   2.931   1.023
 5005SOL    HW115914   3.086   2.868   0.958
 5005SOL    HW215915   3.169   3.008   0.973
 5006SOL     OW15916   5.042   0.419   0.993
 5006SOL    HW115917   5.076   0.479   0.920
 5006SOL    HW215918   4.947   0.394   0.973
 5007SOL     OW15919   0.932   6.831   0.386
 5007SOL    HW115920   1.015   6.860   0.339
 5007SOL    HW215921   0.941   6.846   0.484
 5008SOL     OW15922   5.686   6.668   1.975
 5008SOL    HW115923   5.673   6.763   2.006
 5008SOL    HW215924   5.654   6.606   2.046
 5009SOL     OW15925   0.498   0.555   1.064
 5009SOL    HW115926   0.412   0.519   1.099
 5009SOL    HW215927   0.500   0.548   0.964
 5010SOL     OW15928   3.939   3.083   2.303
 5010SOL    HW115929   3.954   3.096   2.401
 5010SOL    HW215930   4.004   3.139   2.252
 5011SOL     OW15931   1.614   4.087   2.491
 5011SOL    HW115932   1.638   4.076   2.588
 5011SOL    HW215933   1.698   4.092   2.437
 5012SOL     OW15934   5.969   4.296   6.542
 5012SOL    HW115935   5.913   4.249   6.474
 5012SOL    HW215936   6.049   4.336   6.498
 5013SOL     OW15937   4.891   0.972   0.224
 5013SOL    HW115938   4.835   0.997   0.145
 5013SOL    HW215939   4.831   0.957   0.303
 5014SOL     OW15940   6.548   4.639   0.904
 5014SOL    HW115941   6.569   4.657   0.808
 5014SOL    HW215942   6.604   4.699   0.962
 5015SOL     OW15943   4.681   1.847   4.307
 5015SOL    HW115944   4.668   1.836   4.208
 5015SOL    HW215945   4.599   1.818   4.355
 5016SOL     OW15946   1.636   2.839   0.223
 5016SOL    HW115947   1.567   2.788   0.171
 5016SOL    HW215948   1.614   2.835   0.320
 5017SOL     OW15949   1.784   2.953   0.909
 5017SOL    HW115950   1.768   2.854   0.915
 5017SOL    HW215951   1.797   2.991   1.000
 5018SOL     OW15952   0.417   3.859   2.211
 5018SOL    HW115953   0.456   3.897   2.295
 5018SOL    HW215954   0.478   3.880   2.134
 5019SOL     OW15955   1.234   4.901   6.056
 5019SOL    HW115956   1.329   4.875   6.068
 5019SOL    HW215957   1.214   4.983   6.111
 5020SOL     OW15958   5.475   0.470   6.531
 5020SOL    HW115959   5.413   0.409   6.580
 5020SOL    HW215960   5.532   0.519   6.596
 5021SOL     OW15961   0.748   1.341   0.045
 5021SOL    HW115962   0.825   1.289   0.083
 5021SOL    HW215963   0.768   1.368   6.974
 5022SOL     OW15964   1.049   1.212   0.386
 5022SOL    HW115965   1.067   1.117   0.410
 5022SOL    HW215966   1.024   1.263   0.468
 5023SOL     OW15967   6.841   2.937   1.375
 5023SOL    HW115968   6.887   2.949   1.287
 5023SOL    HW215969   6.904   2.897   1.441
 5024SOL     OW15970   6.240   5.281   1.584
 5024SOL    HW115971   6.232   5.185   1.558
 5024SOL    HW215972   6.169   5.335   1.539
 5025SOL     OW15973   2.980   1.875   2.332
 5025SOL    HW115974   2.965   1.960   2.282
 5025SOL    HW215975   3.005   1.802   2.268
 5026SOL     OW15976   6.221   6.094   5.749
 5026SOL    HW115977   6.146   6.122   5.689
 5026SOL    HW215978   6.229   6.160   5.824
 5027SOL     OW15979   6.743   6.703   1.793
 5027SOL    HW115980   6.833   6.747   1.794
 5027SOL    HW215981   6.742   6.628   1.859
 5028SOL     OW15982   0.133   1.881   2.535
 5028SOL    HW115983   0.156   1.971   2.499
 5028SOL    HW215984   0.037   1.860   2.514
 5029SOL     OW15985   6.527   2.503   1.992
 5029SOL    HW115986   6.586   2.490   2.071
 5029SOL    HW215987   6.435   2.473   2.013
 5030SOL     OW15988   0.279   6.889   0.524
 5030SOL    HW115989   0.267   6.937   0.611
 5030SOL    HW215990   0.370   6.849   0.520
 5031SOL     OW15991   5.707   7.019   5.485
 5031SOL    HW115992   5.635   0.055   5.448
 5031SOL    HW215993   5.796   0.033   5.461
 5032SOL     OW15994   2.018   2.174   0.627
 5032SOL    HW115995   2.017   2.114   0.707
 5032SOL    HW215996   2.000   2.268   0.656
 5033SOL     OW15997   1.746   0.235   5.450
 5033SOL    HW115998   1.777   0.327   5.475
 5033SOL    HW215999   1.787   0.168   5.512
 5034SOL     OW16000   5.946   0.615   3.669
 5034SOL    HW116001   5.902   0.702   3.647
 5034SOL    HW216002   5.910   0.581   3.756
 5035SOL     OW16003   1.164   3.979   0.278
 5035SOL    HW116004   1.104   4.058   0.295
 5035SOL    HW216005   1.138   3.936   0.192
 5036SOL     OW16006   0.670   4.672   6.637
 5036SOL    HW116007   0.705   4.722   6.557
 5036SOL    HW216008   0.700   4.577   6.632
 5037SOL     OW16009   4.745   4.182   2.624
 5037SOL    HW116010   4.731   4.085   2.604
 5037SOL    HW216011   4.822   4.217   2.570
 5038SOL     OW16012   2.904   4.165   6.007
 5038SOL    HW116013   2.859   4.176   5.918
 5038SOL    HW216014   2.924   4.255   6.045
 5039SOL     OW16015   3.212   4.607   5.468
 5039SOL    HW116016   3.194   4.543   5.393
 5039SOL    HW216017   3.266   4.561   5.539
 5040SOL     OW16018   1.770   5.788   5.644
 5040SOL    HW116019   1.676   5.809   5.670
 5040SOL    HW216020   1.793   5.837   5.560
 5041SOL     OW16021   1.897   1.268   2.684
 5041SOL    HW116022   1.902   1.343   2.751
 5041SOL    HW216023   1.853   1.301   2.601
 5042SOL     OW16024   6.826   2.748   0.220
 5042SOL    HW116025   6.896   2.727   0.289
 5042SOL    HW216026   6.823   2.674   0.152
 5043SOL     OW16027   3.676   0.322   6.053
 5043SOL    HW116028   3.635   0.399   6.004
 5043SOL    HW216029   3.664   0.238   6.000
 5044SOL     OW16030   0.703   6.433   0.039
 5044SOL    HW116031   0.765   6.357   0.061
 5044SOL    HW216032   0.627   6.435   0.103
 5045SOL     OW16033   5.271   0.734   6.706
 5045SOL    HW116034   5.218   0.655   6.676
 5045SOL    HW216035   5.337   0.759   6.635
 5046SOL     OW16036   3.369   4.060   2.843
 5046SOL    HW116037   3.468   4.075   2.851
 5046SOL    HW216038   3.340   4.078   2.749
 5047SOL     OW16039   0.545   3.987   2.404
 5047SOL    HW116040   0.601   3.993   2.486
 5047SOL    HW216041   0.522   4.079   2.372
 5048SOL     OW16042   0.515   1.391   2.055
 5048SOL    HW116043   0.465   1.477   2.047
 5048SOL    HW216044   0.450   1.315   2.055
 5049SOL     OW16045   5.781   2.273   6.022
 5049SOL    HW116046   5.721   2.305   5.948
 5049SOL    HW216047   5.874   2.306   6.005
 5050SOL     OW16048   1.241   1.484   1.308
 5050SOL    HW116049   1.306   1.418   1.344
 5050SOL    HW216050   1.149   1.460   1.337
 5051SOL     OW16051   4.943   4.960   1.011
 5051SOL    HW116052   4.937   5.029   0.939
 5051SOL    HW216053   4.870   4.975   1.077
 5052SOL     OW16054   2.762   0.723   6.554
 5052SOL    HW116055   2.727   0.762   6.639
 5052SOL    HW216056   2.743   0.785   6.478
 5053SOL     OW16057   2.416   4.391   2.918
 5053SOL    HW116058   2.395   4.322   2.987
 5053SOL    HW216059   2.400   4.353   2.827
 5054SOL     OW16060   3.518   5.468   5.269
 5054SOL    HW116061   3.457   5.544   5.245
 5054SOL    HW216062   3.553   5.426   5.185
 5055SOL     OW16063   1.489   1.642   5.454
 5055SOL    HW116064   1.546   1.725   5.451
 5055SOL    HW216065   1.494   1.595   5.366
 5056SOL     OW16066   6.498   4.159   0.007
 5056SOL    HW116067   6.442   4.097   6.974
 5056SOL    HW216068   6.594   4.152   7.002
 5057SOL     OW16069   0.204   6.104   3.996
 5057SOL    HW116070   0.185   6.190   4.043
 5057SOL    HW216071   0.159   6.029   4.045
 5058SOL     OW16072   3.227   3.039   5.478
 5058SOL    HW116073   3.286   3.119   5.471
 5058SOL    HW216074   3.191   3.016   5.388
 5059SOL     OW16075   6.100   1.744   3.853
 5059SOL    HW116076   6.176   1.682   3.870
 5059SOL    HW216077   6.124   1.836   3.884
 5060SOL     OW16078   0.638   1.914   5.889
 5060SOL    HW116079   0.543   1.894   5.913
 5060SOL    HW216080   0.693   1.832   5.902
 5061SOL     OW16081   4.202   3.214   1.915
 5061SOL    HW116082   4.220   3.254   2.005
 5061SOL    HW216083   4.133   3.142   1.924
 5062SOL     OW16084   5.195   0.936   2.866
 5062SOL    HW116085   5.171   0.938   2.769
 5062SOL    HW216086   5.284   0.980   2.879
 5063SOL     OW16087   1.313   7.006   2.428
 5063SOL    HW116088   1.298   6.980   2.524
 5063SOL    HW216089   1.225   0.005   2.386
 5064SOL     OW16090   5.251   4.086   1.886
 5064SOL    HW116091   5.312   4.008   1.876
 5064SOL    HW216092   5.277   4.158   1.821
 5065SOL     OW16093   1.695   1.568   3.697
 5065SOL    HW116094   1.682   1.660   3.661
 5065SOL    HW216095   1.606   1.528   3.720
 5066SOL     OW16096   4.337   4.777   1.865
 5066SOL    HW116097   4.394   4.699   1.840
 5066SOL    HW216098   4.249   4.771   1.817
 5067SOL     OW16099   4.724   0.731   1.711
 5067SOL    HW116100   4.688   0.666   1.643
 5067SOL    HW216101   4.649   0.789   1.744
 5068SOL     OW16102   2.699   4.804   6.732
 5068SOL    HW116103   2.773   4.838   6.675
 5068SOL    HW216104   2.612   4.812   6.682
 5069SOL     OW16105   2.552   3.230   5.651
 5069SOL    HW116106   2.478   3.195   5.708
 5069SOL    HW216107   2.526   3.225   5.554
 5070SOL     OW16108   4.412   4.963   3.648
 5070SOL    HW116109   4.475   4.907   3.593
 5070SOL    HW216110   4.457   5.049   3.673
 5071SOL     OW16111   4.009   2.034   3.041
 5071SOL    HW116112   3.937   2.032   3.110
 5071SOL    HW216113   3.967   2.047   2.951
 5072SOL     OW16114   1.245   0.134   1.716
 5072SOL    HW116115   1.259   0.194   1.794
 5072SOL    HW216116   1.150   0.142   1.684
 5073SOL     OW16117   0.256   5.830   1.343
 5073SOL    HW116118   0.326   5.827   1.271
 5073SOL    HW216119   0.172   5.869   1.307
 5074SOL     OW16120   3.430   2.953   1.325
 5074SOL    HW116121   3.527   2.974   1.315
 5074SOL    HW216122   3.419   2.855   1.341
 5075SOL     OW16123   1.288   2.050   6.546
 5075SOL    HW116124   1.250   2.131   6.501
 5075SOL    HW216125   1.371   2.075   6.596
 5076SOL     OW16126   4.526   0.446   0.491
 5076SOL    HW116127   4.462   0.477   0.561
 5076SOL    HW216128   4.525   0.509   0.413
 5077SOL     OW16129   2.040   4.502   5.646
 5077SOL    HW116130   2.072   4.408   5.633
 5077SOL    HW216131   1.942   4.507   5.625
 5078SOL     OW16132   0.700   1.179   3.881
 5078SOL    HW116133   0.791   1.198   3.920
 5078SOL    HW216134   0.709   1.112   3.808
 5079SOL     OW16135   2.200   3.232   5.531
 5079SOL    HW116136   2.230   3.144   5.567
 5079SOL    HW216137   2.244   3.249   5.443
 5080SOL     OW16138   5.738   6.898   6.498
 5080SOL    HW116139   5.832   6.869   6.482
 5080SOL    HW216140   5.732   6.941   6.589
 5081SOL     OW16141   3.063   3.057   4.338
 5081SOL    HW116142   2.970   3.024   4.324
 5081SOL    HW216143   3.110   3.064   4.250
 5082SOL     OW16144   4.896   5.386   0.599
 5082SOL    HW116145   4.874   5.463   0.659
 5082SOL    HW216146   4.964   5.327   0.643
 5083SOL     OW16147   2.475   6.241   2.379
 5083SOL    HW116148   2.527   6.322   2.353
 5083SOL    HW216149   2.528   6.159   2.356
 5084SOL     OW16150   0.343   4.324   3.922
 5084SOL    HW116151   0.426   4.279   3.889
 5084SOL    HW216152   0.321   4.402   3.863
 5085SOL     OW16153   5.630   3.091   6.593
 5085SOL    HW116154   5.595   3.005   6.556
 5085SOL    HW216155   5.709   3.072   6.652
 5086SOL     OW16156   1.170   5.640   3.013
 5086SOL    HW116157   1.088   5.622   2.960
 5086SOL    HW216158   1.235   5.565   3.002
 5087SOL     OW16159   1.812   5.281   2.572
 5087SOL    HW116160   1.804   5.366   2.624
 5087SOL    HW216161   1.862   5.213   2.626
 5088SOL     OW16162   6.199   1.126   4.773
 5088SOL    HW116163   6.148   1.042   4.753
 5088SOL    HW216164   6.200   1.185   4.692
 5089SOL     OW16165   5.101   4.387   4.397
 5089SOL    HW116166   5.160   4.309   4.376
 5089SOL    HW216167   5.056   4.372   4.485
 5090SOL     OW16168   1.957   4.147   2.694
 5090SOL    HW116169   2.008   4.063   2.676
 5090SOL    HW216170   1.989   4.187   2.780
 5091SOL     OW16171   0.599   0.826   2.267
 5091SOL    HW116172   0.614   0.922   2.287
 5091SOL    HW216173   0.528   0.790   2.327
 5092SOL     OW16174   3.356   3.767   1.915
 5092SOL    HW116175   3.347   3.718   1.828
 5092SOL    HW216176   3.436   3.828   1.911
 5093SOL     OW16177   2.738   1.470   1.265
 5093SOL    HW116178   2.695   1.505   1.349
 5093SOL    HW216179   2.689   1.388   1.235
 5094SOL     OW16180   2.418   5.412   6.255
 5094SOL    HW116181   2.430   5.394   6.157
 5094SOL    HW216182   2.466   5.496   6.279
 5095SOL     OW16183   5.780   2.282   4.211
 5095SOL    HW116184   5.747   2.241   4.296
 5095SOL    HW216185   5.704   2.287   4.145
 5096SOL     OW16186   3.736   4.792   0.736
 5096SOL    HW116187   3.789   4.845   0.669
 5096SOL    HW216188   3.793   4.719   0.773
 5097SOL     OW16189   1.573   0.801   6.517
 5097SOL    HW116190   1.514   0.818   6.596
 5097SOL    HW216191   1.553   0.710   6.481
 5098SOL     OW16192   2.302   0.390   1.990
 5098SOL    HW116193   2.292   0.458   1.918
 5098SOL    HW216194   2.328   0.302   1.950
 5099SOL     OW16195   0.652   6.412   6.547
 5099SOL    HW116196   0.657   6.379   6.641
 5099SOL    HW216197   0.574   6.370   6.501
 5100SOL     OW16198   3.603   5.112   5.051
 5100SOL    HW116199   3.668   5.123   5.126
 5100SOL    HW216200   3.529   5.178   5.061
 5101SOL     OW16201   5.297   6.734   0.128
 5101SOL    HW116202   5.255   6.777   0.208
 5101SOL    HW216203   5.334   6.804   0.068
 5102SOL     OW16204   5.089   6.892   4.362
 5102SOL    HW116205   5.158   6.963   4.346
 5102SOL    HW216206   5.040   6.874   4.277
 5103SOL     OW16207   6.895   1.458   4.137
 5103SOL    HW116208   6.842   1.474   4.220
 5103SOL    HW216209   6.992   1.472   4.155
 5104SOL     OW16210   1.792   6.892   2.810
 5104SOL    HW116211   1.863   6.823   2.822
 5104SOL    HW216212   1.720   6.878   2.878
 5105SOL     OW16213   3.440   2.907   0.421
 5105SOL    HW116214   3.525   2.865   0.390
 5105SOL    HW216215   3.444   3.006   0.402
 5106SOL     OW16216   4.057   1.229   0.311
 5106SOL    HW116217   4.084   1.143   0.353
 5106SOL    HW216218   4.018   1.289   0.380
 5107SOL     OW16219   3.232   0.812   0.396
 5107SOL    HW116220   3.135   0.796   0.376
 5107SOL    HW216221   3.273   0.727   0.430
 5108SOL     OW16222   3.071   3.049   4.814
 5108SOL    HW116223   3.152   3.009   4.856
 5108SOL    HW216224   2.990   2.996   4.840
 5109SOL     OW16225   1.096   0.485   0.670
 5109SOL    HW116226   1.124   0.410   0.731
 5109SOL    HW216227   1.172   0.549   0.658
 5110SOL     OW16228   0.135   0.211   6.105
 5110SOL    HW116229   0.120   0.310   6.109
 5110SOL    HW216230   0.055   0.167   6.065
 5111SOL     OW16231   1.934   1.022   5.238
 5111SOL    HW116232   2.021   1.002   5.193
 5111SOL    HW216233   1.895   1.105   5.199
 5112SOL     OW16234   1.344   0.418   2.973
 5112SOL    HW116235   1.262   0.465   2.941
 5112SOL    HW216236   1.422   0.481   2.969
 5113SOL     OW16237   2.254   7.000   0.950
 5113SOL    HW116238   2.199   6.982   0.869
 5113SOL    HW216239   2.261   6.917   1.005
 5114SOL     OW16240   2.878   1.142   0.224
 5114SOL    HW116241   2.941   1.207   0.266
 5114SOL    HW216242   2.930   1.080   0.165
 5115SOL     OW16243   2.348   5.197   4.616
 5115SOL    HW116244   2.257   5.191   4.657
 5115SOL    HW216245   2.396   5.110   4.627
 5116SOL     OW16246   6.401   0.160   6.436
 5116SOL    HW116247   6.306   0.189   6.448
 5116SOL    HW216248   6.449   0.226   6.377
 5117SOL     OW16249   2.576   4.584   4.650
 5117SOL    HW116250   2.656   4.539   4.610
 5117SOL    HW216251   2.505   4.516   4.667
 5118SOL     OW16252   5.028   0.508   0.110
 5118SOL    HW116253   5.104   0.568   0.137
 5118SOL    HW216254   4.941   0.551   0.134
 5119SOL     OW16255   5.396   0.854   1.840
 5119SOL    HW116256   5.383   0.921   1.913
 5119SOL    HW216257   5.330   0.871   1.767
 5120SOL     OW16258   4.161   1.305   4.218
 5120SOL    HW116259   4.217   1.245   4.162
 5120SOL    HW216260   4.120   1.376   4.161
 5121SOL     OW16261   2.982   2.001   6.967
 5121SOL    HW116262   3.048   1.928   6.984
 5121SOL    HW216263   3.030   2.089   6.964
 5122SOL     OW16264   3.248   6.728   2.523
 5122SOL    HW116265   3.343   6.755   2.505
 5122SOL    HW216266   3.206   6.793   2.585
 5123SOL     OW16267   4.574   1.904   5.090
 5123SOL    HW116268   4.483   1.914   5.129
 5123SOL    HW216269   4.636   1.970   5.134
 5124SOL     OW16270   3.243   5.060   5.354
 5124SOL    HW116271   3.253   5.028   5.259
 5124SOL    HW216272   3.240   4.981   5.415
 5125SOL     OW16273   6.304   3.113   4.213
 5125SOL    HW116274   6.243   3.077   4.284
 5125SOL    HW216275   6.294   3.060   4.129
 5126SOL     OW16276   6.615   5.193   5.269
 5126SOL    HW116277   6.552   5.128   5.227
 5126SOL    HW216278   6.705   5.149   5.281
 5127SOL     OW16279   0.774   3.764   6.948
 5127SOL    HW116280   0.692   3.762   6.892
 5127SOL    HW216281   0.749   3.780   0.021
 5128SOL     OW16282   6.694   0.599   6.526
 5128SOL    HW116283   6.662   0.540   6.601
 5128SOL    HW216284   6.679   0.695   6.551
 5129SOL     OW16285   5.279   0.691   2.972
 5129SOL    HW116286   5.244   0.777   2.933
 5129SOL    HW216287   5.213   0.618   2.956
 5130SOL     OW16288   1.700   5.424   3.825
 5130SOL    HW116289   1.621   5.394   3.772
 5130SOL    HW216290   1.784   5.390   3.782
 5131SOL     OW16291   2.721   5.373   3.517
 5131SOL    HW116292   2.788   5.389   3.445
 5131SOL    HW216293   2.757   5.304   3.581
 5132SOL     OW16294   3.134   2.297   5.829
 5132SOL    HW116295   3.233   2.284   5.836
 5132SOL    HW216296   3.103   2.271   5.738
 5133SOL     OW16297   1.621   5.431   0.008
 5133SOL    HW116298   1.687   5.423   6.956
 5133SOL    HW216299   1.529   5.413   6.997
 5134SOL     OW16300   6.472   0.997   2.350
 5134SOL    HW116301   6.508   1.072   2.294
 5134SOL    HW216302   6.547   0.940   2.383
 5135SOL     OW16303   5.189   3.533   4.580
 5135SOL    HW116304   5.190   3.631   4.598
 5135SOL    HW216305   5.141   3.486   4.655
 5136SOL     OW16306   5.576   0.658   6.692
 5136SOL    HW116307   5.522   0.685   6.772
 5136SOL    HW216308   5.604   0.741   6.642
 5137SOL     OW16309   4.758   3.588   5.683
 5137SOL    HW116310   4.729   3.594   5.588
 5137SOL    HW216311   4.748   3.678   5.727
 5138SOL     OW16312   3.620   2.807   4.679
 5138SOL    HW116313   3.530   2.783   4.717
 5138SOL    HW216314   3.666   2.870   4.741
 5139SOL     OW16315   0.880   0.254   3.960
 5139SOL    HW116316   0.857   0.159   3.983
 5139SOL    HW216317   0.820   0.315   4.011
 5140SOL     OW16318   3.918   2.135   5.314
 5140SOL    HW116319   3.884   2.081   5.392
 5140SOL    HW216320   3.866   2.220   5.309
 5141SOL     OW16321   6.591   3.796   0.682
 5141SOL    HW116322   6.633   3.818   0.770
 5141SOL    HW216323   6.539   3.875   0.649
 5142SOL     OW16324   5.345   6.153   3.425
 5142SOL    HW116325   5.441   6.164   3.400
 5142SOL    HW216326   5.335   6.073   3.485
 5143SOL     OW16327   6.654   4.283   4.170
 5143SOL    HW116328   6.568   4.334   4.158
 5143SOL    HW216329   6.684   4.247   4.082
 5144SOL     OW16330   1.334   4.899   5.401
 5144SOL    HW116331   1.403   4.937   5.463
 5144SOL    HW216332   1.282   4.974   5.360
 5145SOL     OW16333   3.778   5.954   6.560
 5145SOL    HW116334   3.815   5.864   6.539
 5145SOL    HW216335   3.679   5.947   6.574
 5146SOL     OW16336   3.387   3.307   4.854
 5146SOL    HW116337   3.428   3.392   4.820
 5146SOL    HW216338   3.407   3.297   4.952
 5147SOL     OW16339   6.626   5.764   3.364
 5147SOL    HW116340   6.706   5.705   3.358
 5147SOL    HW216341   6.645   5.840   3.425
 5148SOL     OW16342   0.102   1.179   1.739
 5148SOL    HW116343   0.162   1.118   1.688
 5148SOL    HW216344   0.044   1.230   1.676
 5149SOL     OW16345   6.526   5.587   3.731
 5149SOL    HW116346   6.482   5.671   3.701
 5149SOL    HW216347   6.545   5.592   3.829
 5150SOL     OW16348   2.422   5.603   3.263
 5150SOL    HW116349   2.361   5.683   3.268
 5150SOL    HW216350   2.426   5.558   3.352
 5151SOL     OW16351   6.901   3.959   2.356
 5151SOL    HW116352   6.998   3.981   2.365
 5151SOL    HW216353   6.888   3.860   2.355
 5152SOL     OW16354   1.342   5.517   0.201
 5152SOL    HW116355   1.390   5.441   0.246
 5152SOL    HW216356   1.246   5.518   0.231
 5153SOL     OW16357   0.749   2.202   0.243
 5153SOL    HW116358   0.653   2.176   0.247
 5153SOL    HW216359   0.782   2.224   0.335
 5154SOL     OW16360   0.923   2.847   6.274
 5154SOL    HW116361   1.012   2.843   6.319
 5154SOL    HW216362   0.935   2.830   6.176
 5155SOL     OW16363   4.062   6.464   2.285
 5155SOL    HW116364   4.158   6.445   2.303
 5155SOL    HW216365   4.050   6.563   2.273
 5156SOL     OW16366   5.553   4.862   5.992
 5156SOL    HW116367   5.573   4.794   6.063
 5156SOL    HW216368   5.491   4.931   6.030
 5157SOL     OW16369   3.197   1.854   3.260
 5157SOL    HW116370   3.186   1.930   3.195
 5157SOL    HW216371   3.294   1.843   3.282
 5158SOL     OW16372   3.490   1.945   0.988
 5158SOL    HW116373   3.506   2.039   1.018
 5158SOL    HW216374   3.510   1.882   1.064
 5159SOL     OW16375   5.790   3.571   5.951
 5159SOL    HW116376   5.850   3.633   5.900
 5159SOL    HW216377   5.730   3.523   5.888
 5160SOL     OW16378   0.500   5.081   3.002
 5160SOL    HW116379   0.456   5.167   3.030
 5160SOL    HW216380   0.432   5.022   2.959
 5161SOL     OW16381   1.706   3.615   0.347
 5161SOL    HW116382   1.713   3.624   0.447
 5161SOL    HW216383   1.614   3.640   0.318
 5162SOL     OW16384   0.998   6.058   2.721
 5162SOL    HW116385   1.057   6.099   2.652
 5162SOL    HW216386   1.021   5.962   2.733
 5163SOL     OW16387   2.915   6.674   0.828
 5163SOL    HW116388   2.830   6.719   0.800
 5163SOL    HW216389   2.955   6.724   0.905
 5164SOL     OW16390   3.722   2.319   0.109
 5164SOL    HW116391   3.742   2.415   0.131
 5164SOL    HW216392   3.708   2.268   0.194
 5165SOL     OW16393   0.526   4.000   5.859
 5165SOL    HW116394   0.605   3.939   5.862
 5165SOL    HW216395   0.444   3.947   5.836
 5166SOL     OW16396   1.449   5.746   2.462
 5166SOL    HW116397   1.549   5.736   2.463
 5166SOL    HW216398   1.419   5.777   2.372
 5167SOL     OW16399   6.622   5.061   5.669
 5167SOL    HW116400   6.720   5.077   5.675
 5167SOL    HW216401   6.578   5.138   5.623
 5168SOL     OW16402   5.330   3.519   1.618
 5168SOL    HW116403   5.276   3.574   1.681
 5168SOL    HW216404   5.276   3.500   1.536
 5169SOL     OW16405   4.068   1.872   4.120
 5169SOL    HW116406   4.112   1.785   4.139
 5169SOL    HW216407   4.111   1.915   4.041
 5170SOL     OW16408   1.293   3.863   4.875
 5170SOL    HW116409   1.267   3.847   4.780
 5170SOL    HW216410   1.320   3.959   4.887
 5171SOL     OW16411   0.816   3.846   5.552
 5171SOL    HW116412   0.897   3.890   5.512
 5171SOL    HW216413   0.783   3.774   5.490
 5172SOL     OW16414   1.601   3.375   2.491
 5172SOL    HW116415   1.549   3.303   2.537
 5172SOL    HW216416   1.627   3.445   2.556
 5173SOL     OW16417   5.116   5.218   4.782
 5173SOL    HW116418   5.091   5.197   4.687
 5173SOL    HW216419   5.120   5.134   4.835
 5174SOL     OW16420   2.545   4.897   3.605
 5174SOL    HW116421   2.528   4.956   3.684
 5174SOL    HW216422   2.469   4.903   3.541
 5175SOL     OW16423   3.052   4.059   6.510
 5175SOL    HW116424   2.992   4.120   6.562
 5175SOL    HW216425   3.134   4.108   6.483
 5176SOL     OW16426   5.750   3.417   6.844
 5176SOL    HW116427   5.795   3.330   6.821
 5176SOL    HW216428   5.682   3.439   6.773
 5177SOL     OW16429   5.665   6.891   0.748
 5177SOL    HW116430   5.750   6.933   0.778
 5177SOL    HW216431   5.655   6.801   0.792
 5178SOL     OW16432   0.680   3.554   2.905
 5178SOL    HW116433   0.602   3.496   2.881
 5178SOL    HW216434   0.653   3.650   2.899
 5179SOL     OW16435   4.852   4.521   4.211
 5179SOL    HW116436   4.931   4.528   4.149
 5179SOL    HW216437   4.864   4.442   4.270
 5180SOL     OW16438   2.399   1.643   0.783
 5180SOL    HW116439   2.313   1.635   0.731
 5180SOL    HW216440   2.462   1.702   0.734
 5181SOL     OW16441   5.380   0.941   2.618
 5181SOL    HW116442   5.400   0.965   2.523
 5181SOL    HW216443   5.284   0.918   2.628
 5182SOL     OW16444   4.080   4.843   1.793
 5182SOL    HW116445   4.061   4.755   1.751
 5182SOL    HW216446   4.017   4.857   1.870
 5183SOL     OW16447   3.805   1.944   2.580
 5183SOL    HW116448   3.720   1.995   2.592
 5183SOL    HW216449   3.836   1.952   2.485
 5184SOL     OW16450   0.497   2.280   4.026
 5184SOL    HW116451   0.549   2.216   3.969
 5184SOL    HW216452   0.430   2.229   4.080
 5185SOL     OW16453   5.579   0.756   2.645
 5185SOL    HW116454   5.501   0.817   2.630
 5185SOL    HW216455   5.654   0.808   2.686
 5186SOL     OW16456   6.257   1.756   0.076
 5186SOL    HW116457   6.200   1.829   0.038
 5186SOL    HW216458   6.206   1.706   0.146
 5187SOL     OW16459   1.303   5.923   4.626
 5187SOL    HW116460   1.392   5.892   4.659
 5187SOL    HW216461   1.249   5.845   4.595
 5188SOL     OW16462   6.939   5.952   1.611
 5188SOL    HW116463   6.953   5.865   1.565
 5188SOL    HW216464   7.013   6.015   1.588
 5189SOL     OW16465   4.289   4.973   0.687
 5189SOL    HW116466   4.370   4.940   0.638
 5189SOL    HW216467   4.210   4.918   0.661
 5190SOL     OW16468   0.428   2.595   4.372
 5190SOL    HW116469   0.334   2.609   4.402
 5190SOL    HW216470   0.489   2.652   4.427
 5191SOL     OW16471   4.007   6.811   1.985
 5191SOL    HW116472   4.007   6.785   2.081
 5191SOL    HW216473   3.993   6.730   1.928
 5192SOL     OW16474   2.158   5.457   1.103
 5192SOL    HW116475   2.157   5.361   1.075
 5192SOL    HW216476   2.115   5.466   1.194
 5193SOL     OW16477   5.668   5.568   5.007
 5193SOL    HW116478   5.596   5.545   4.942
 5193SOL    HW216479   5.668   5.502   5.082
 5194SOL     OW16480   3.921   2.148   0.344
 5194SOL    HW116481   3.981   2.075   0.312
 5194SOL    HW216482   3.967   2.236   0.332
 5195SOL     OW16483   6.861   0.218   4.084
 5195SOL    HW116484   6.777   0.164   4.092
 5195SOL    HW216485   6.940   0.159   4.101
 5196SOL     OW16486   3.969   6.494   1.608
 5196SOL    HW116487   4.029   6.556   1.658
 5196SOL    HW216488   3.991   6.400   1.634
 5197SOL     OW16489   2.546   3.933   6.134
 5197SOL    HW116490   2.583   3.945   6.042
 5197SOL    HW216491   2.603   3.982   6.200
 5198SOL     OW16492   4.834   5.673   3.230
 5198SOL    HW116493   4.749   5.704   3.272
 5198SOL    HW216494   4.912   5.718   3.275
 5199SOL     OW16495   1.245   6.343   0.592
 5199SOL    HW116496   1.191   6.377   0.669
 5199SOL    HW216497   1.342   6.349   0.614
 5200SOL     OW16498   0.484   3.876   5.310
 5200SOL    HW116499   0.534   3.835   5.233
 5200SOL    HW216500   0.490   3.975   5.305
 5201SOL     OW16501   0.200   0.104   3.030
 5201SOL    HW116502   0.185   0.031   3.096
 5201SOL    HW216503   0.116   0.118   2.977
 5202SOL     OW16504   5.941   3.066   6.096
 5202SOL    HW116505   5.998   2.995   6.136
 5202SOL    HW216506   5.989   3.154   6.098
 5203SOL     OW16507   2.185   2.734   6.840
 5203SOL    HW116508   2.126   2.767   6.914
 5203SOL    HW216509   2.204   2.637   6.853
 5204SOL     OW16510   3.814   5.016   6.521
 5204SOL    HW116511   3.762   5.090   6.563
 5204SOL    HW216512   3.881   4.981   6.586
 5205SOL     OW16513   0.692   6.162   0.586
 5205SOL    HW116514   0.637   6.118   0.657
 5205SOL    HW216515   0.644   6.243   0.552
 5206SOL     OW16516   0.645   4.230   5.803
 5206SOL    HW116517   0.593   4.148   5.826
 5206SOL    HW216518   0.592   4.311   5.828
 5207SOL     OW16519   1.435   5.880   3.798
 5207SOL    HW116520   1.367   5.808   3.782
 5207SOL    HW216521   1.400   5.943   3.867
 5208SOL     OW16522   4.173   2.495   6.108
 5208SOL    HW116523   4.079   2.502   6.142
 5208SOL    HW216524   4.209   2.404   6.128
 5209SOL     OW16525   5.542   5.756   3.242
 5209SOL    HW116526   5.471   5.823   3.263
 5209SOL    HW216527   5.597   5.738   3.323
 5210SOL     OW16528   4.406   2.583   5.999
 5210SOL    HW116529   4.414   2.681   5.979
 5210SOL    HW216530   4.321   2.566   6.048
 5211SOL     OW16531   3.208   2.936   5.202
 5211SOL    HW116532   3.297   2.945   5.157
 5211SOL    HW216533   3.135   2.946   5.135
 5212SOL     OW16534   6.802   2.201   0.807
 5212SOL    HW116535   6.848   2.262   0.743
 5212SOL    HW216536   6.866   2.172   0.878
 5213SOL     OW16537   4.655   3.705   6.672
 5213SOL    HW116538   4.698   3.754   6.595
 5213SOL    HW216539   4.717   3.706   6.751
 5214SOL     OW16540   4.687   1.829   5.751
 5214SOL    HW116541   4.768   1.868   5.794
 5214SOL    HW216542   4.605   1.875   5.786
 5215SOL     OW16543   6.715   4.989   3.357
 5215SOL    HW116544   6.719   4.976   3.258
 5215SOL    HW216545   6.742   5.083   3.380
 5216SOL     OW16546   5.080   5.073   2.036
 5216SOL    HW116547   5.173   5.041   2.020
 5216SOL    HW216548   5.025   5.060   1.954
 5217SOL     OW16549   3.810   5.622   4.656
 5217SOL    HW116550   3.902   5.584   4.663
 5217SOL    HW216551   3.743   5.552   4.677
 5218SOL     OW16552   0.643   0.656   3.683
 5218SOL    HW116553   0.676   0.750   3.679
 5218SOL    HW216554   0.653   0.613   3.593
 5219SOL     OW16555   4.119   1.266   5.741
 5219SOL    HW116556   4.102   1.168   5.755
 5219SOL    HW216557   4.182   1.299   5.811
 5220SOL     OW16558   1.512   5.953   2.896
 5220SOL    HW116559   1.572   5.889   2.849
 5220SOL    HW216560   1.419   5.947   2.859
 5221SOL     OW16561   5.783   2.215   3.741
 5221SOL    HW116562   5.826   2.222   3.831
 5221SOL    HW216563   5.844   2.166   3.679
 5222SOL     OW16564   3.457   6.030   3.270
 5222SOL    HW116565   3.398   5.991   3.341
 5222SOL    HW216566   3.420   6.119   3.242
 5223SOL     OW16567   6.785   2.564   1.101
 5223SOL    HW116568   6.871   2.598   1.065
 5223SOL    HW216569   6.724   2.641   1.120
 5224SOL     OW16570   0.172   2.431   4.089
 5224SOL    HW116571   0.179   2.381   4.002
 5224SOL    HW216572   0.106   2.385   4.148
 5225SOL     OW16573   0.525   0.235   3.390
 5225SOL    HW116574   0.465   0.287   3.328
 5225SOL    HW216575   0.562   0.156   3.341
 5226SOL     OW16576   0.319   6.116   4.369
 5226SOL    HW116577   0.331   6.136   4.272
 5226SOL    HW216578   0.314   6.017   4.384
 5227SOL     OW16579   1.088   3.237   4.403
 5227SOL    HW116580   1.178   3.200   4.426
 5227SOL    HW216581   1.074   3.323   4.452
 5228SOL     OW16582   6.432   2.756   1.552
 5228SOL    HW116583   6.375   2.835   1.572
 5228SOL    HW216584   6.520   2.765   1.598
 5229SOL     OW16585   1.675   5.700   0.030
 5229SOL    HW116586   1.634   5.609   0.027
 5229SOL    HW216587   1.774   5.691   0.018
 5230SOL     OW16588   0.648   6.121   0.910
 5230SOL    HW116589   0.724   6.058   0.894
 5230SOL    HW216590   0.664   6.174   0.993
 5231SOL     OW16591   4.320   3.340   5.705
 5231SOL    HW116592   4.235   3.290   5.726
 5231SOL    HW216593   4.311   3.385   5.616
 5232SOL     OW16594   3.511   2.204   5.910
 5232SOL    HW116595   3.490   2.301   5.894
 5232SOL    HW216596   3.474   2.149   5.836
 5233SOL     OW16597   5.108   0.901   2.637
 5233SOL    HW116598   5.095   0.978   2.575
 5233SOL    HW216599   5.034   0.834   2.623
 5234SOL     OW16600   2.596   0.829   6.762
 5234SOL    HW116601   2.515   0.814   6.820
 5234SOL    HW216602   2.567   0.851   6.669
 5235SOL     OW16603   1.376   2.685   1.395
 5235SOL    HW116604   1.310   2.691   1.470
 5235SOL    HW216605   1.333   2.717   1.310
 5236SOL     OW16606   5.538   3.999   2.667
 5236SOL    HW116607   5.470   4.047   2.723
 5236SOL    HW216608   5.520   4.016   2.570
 5237SOL     OW16609   1.780   1.246   5.164
 5237SOL    HW116610   1.759   1.325   5.221
 5237SOL    HW216611   1.709   1.177   5.175
 5238SOL     OW16612   0.840   4.250   0.647
 5238SOL    HW116613   0.888   4.257   0.560
 5238SOL    HW216614   0.883   4.310   0.714
 5239SOL     OW16615   3.396   3.217   3.824
 5239SOL    HW116616   3.359   3.126   3.809
 5239SOL    HW216617   3.398   3.236   3.922
 5240SOL     OW16618   2.991   1.394   6.323
 5240SOL    HW116619   2.947   1.390   6.233
 5240SOL    HW216620   2.971   1.309   6.373
 5241SOL     OW16621   1.300   5.063   4.862
 5241SOL    HW116622   1.225   4.997   4.856
 5241SOL    HW216623   1.263   5.156   4.854
 5242SOL     OW16624   0.457   6.230   6.309
 5242SOL    HW116625   0.458   6.139   6.268
 5242SOL    HW216626   0.377   6.280   6.277
 5243SOL     OW16627   1.065   5.443   2.026
 5243SOL    HW116628   1.018   5.357   2.044
 5243SOL    HW216629   1.108   5.476   2.110
 5244SOL     OW16630   3.439   4.989   6.698
 5244SOL    HW116631   3.437   5.070   6.639
 5244SOL    HW216632   3.492   5.008   6.780
 5245SOL     OW16633   4.075   4.003   0.736
 5245SOL    HW116634   4.095   4.003   0.834
 5245SOL    HW216635   4.153   4.038   0.685
 5246SOL     OW16636   5.748   4.202   2.658
 5246SOL    HW116637   5.808   4.187   2.736
 5246SOL    HW216638   5.673   4.136   2.660
 5247SOL     OW16639   0.889   0.366   0.083
 5247SOL    HW116640   0.944   0.289   0.116
 5247SOL    HW216641   0.795   0.358   0.116
 5248SOL     OW16642   5.763   0.434   4.437
 5248SOL    HW116643   5.673   0.476   4.424
 5248SOL    HW216644   5.827   0.472   4.371
 5249SOL     OW16645   6.672   4.523   5.235
 5249SOL    HW116646   6.585   4.563   5.208
 5249SOL    HW216647   6.665   4.423   5.233
 5250SOL     OW16648   1.283   0.004   5.342
 5250SOL    HW116649   1.257   6.943   5.389
 5250SOL    HW216650   1.369   0.039   5.379
 5251SOL     OW16651   0.768   3.349   0.373
 5251SOL    HW116652   0.779   3.362   0.275
 5251SOL    HW216653   0.694   3.283   0.390
 5252SOL     OW16654   2.045   5.787   0.305
 5252SOL    HW116655   2.024   5.745   0.393
 5252SOL    HW216656   2.096   5.723   0.248
 5253SOL     OW16657   5.609   4.014   4.347
 5253SOL    HW116658   5.685   3.951   4.365
 5253SOL    HW216659   5.585   4.061   4.431
 5254SOL     OW16660   4.545   1.296   2.957
 5254SOL    HW116661   4.466   1.235   2.951
 5254SOL    HW216662   4.614   1.268   2.890
 5255SOL     OW16663   4.799   0.953   6.317
 5255SOL    HW116664   4.747   0.921   6.238
 5255SOL    HW216665   4.822   0.875   6.375
 5256SOL     OW16666   4.566   0.854   3.197
 5256SOL    HW116667   4.502   0.894   3.262
 5256SOL    HW216668   4.660   0.877   3.224
 5257SOL     OW16669   4.724   6.081   2.245
 5257SOL    HW116670   4.635   6.125   2.248
 5257SOL    HW216671   4.729   6.023   2.163
 5258SOL     OW16672   5.779   3.734   2.026
 5258SOL    HW116673   5.765   3.792   1.946
 5258SOL    HW216674   5.717   3.763   2.099
 5259SOL     OW16675   5.188   6.413   0.337
 5259SOL    HW116676   5.157   6.380   0.248
 5259SOL    HW216677   5.162   6.508   0.349
 5260SOL     OW16678   5.771   3.800   1.092
 5260SOL    HW116679   5.821   3.786   1.178
 5260SOL    HW216680   5.731   3.713   1.062
 5261SOL     OW16681   1.323   3.511   6.819
 5261SOL    HW116682   1.245   3.553   6.865
 5261SOL    HW216683   1.407   3.560   6.844
 5262SOL     OW16684   3.016   0.459   2.703
 5262SOL    HW116685   2.976   0.545   2.670
 5262SOL    HW216686   3.037   0.401   2.624
 5263SOL     OW16687   2.054   1.490   5.332
 5263SOL    HW116688   2.096   1.433   5.403
 5263SOL    HW216689   2.101   1.475   5.246
 5264SOL     OW16690   5.860   1.745   2.536
 5264SOL    HW116691   5.832   1.655   2.570
 5264SOL    HW216692   5.885   1.737   2.439
 5265SOL     OW16693   5.431   3.746   4.089
 5265SOL    HW116694   5.397   3.832   4.126
 5265SOL    HW216695   5.397   3.670   4.144
 5266SOL     OW16696   2.618   6.069   1.936
 5266SOL    HW116697   2.609   6.151   1.992
 5266SOL    HW216698   2.702   6.020   1.963
 5267SOL     OW16699   4.807   4.163   4.983
 5267SOL    HW116700   4.729   4.134   5.037
 5267SOL    HW216701   4.850   4.243   5.026
 5268SOL     OW16702   6.158   0.690   6.434
 5268SOL    HW116703   6.081   0.718   6.492
 5268SOL    HW216704   6.133   0.701   6.338
 5269SOL     OW16705   1.874   0.088   3.763
 5269SOL    HW116706   1.920   0.065   3.677
 5269SOL    HW216707   1.863   0.006   3.818
 5270SOL     OW16708   5.080   1.700   1.311
 5270SOL    HW116709   5.137   1.766   1.260
 5270SOL    HW216710   5.104   1.607   1.282
 5271SOL     OW16711   5.704   5.884   4.783
 5271SOL    HW116712   5.711   5.787   4.758
 5271SOL    HW216713   5.760   5.939   4.722
 5272SOL     OW16714   2.413   5.572   1.918
 5272SOL    HW116715   2.355   5.492   1.899
 5272SOL    HW216716   2.364   5.635   1.978
 5273SOL     OW16717   6.708   2.966   3.374
 5273SOL    HW116718   6.787   3.027   3.369
 5273SOL    HW216719   6.626   3.015   3.346
 5274SOL     OW16720   6.626   6.459   1.876
 5274SOL    HW116721   6.592   6.421   1.790
 5274SOL    HW216722   6.564   6.530   1.909
 5275SOL     OW16723   3.559   1.830   6.811
 5275SOL    HW116724   3.578   1.732   6.819
 5275SOL    HW216725   3.515   1.848   6.723
 5276SOL     OW16726   0.913   0.172   0.307
 5276SOL    HW116727   0.899   0.263   0.347
 5276SOL    HW216728   0.830   0.144   0.259
 5277SOL     OW16729   2.091   2.381   3.297
 5277SOL    HW116730   2.053   2.358   3.387
 5277SOL    HW216731   2.127   2.298   3.254
 5278SOL     OW16732   4.960   0.495   4.532
 5278SOL    HW116733   5.050   0.461   4.506
 5278SOL    HW216734   4.928   0.560   4.463
 5279SOL     OW16735   1.414   5.171   6.757
 5279SOL    HW116736   1.433   5.228   6.678
 5279SOL    HW216737   1.316   5.151   6.761
 5280SOL     OW16738   3.305   6.471   5.502
 5280SOL    HW116739   3.262   6.539   5.442
 5280SOL    HW216740   3.286   6.493   5.597
 5281SOL     OW16741   0.579   1.773   2.431
 5281SOL    HW116742   0.568   1.823   2.346
 5281SOL    HW216743   0.550   1.831   2.508
 5282SOL     OW16744   2.306   1.596   2.966
 5282SOL    HW116745   2.246   1.623   3.042
 5282SOL    HW216746   2.266   1.628   2.880
 5283SOL     OW16747   4.144   6.652   1.731
 5283SOL    HW116748   4.196   6.645   1.817
 5283SOL    HW216749   4.206   6.675   1.657
 5284SOL     OW16750   5.080   3.706   3.386
 5284SOL    HW116751   5.140   3.659   3.322
 5284SOL    HW216752   4.997   3.736   3.339
 5285SOL     OW16753   2.137   4.193   4.033
 5285SOL    HW116754   2.099   4.248   4.108
 5285SOL    HW216755   2.124   4.096   4.053
 5286SOL     OW16756   0.790   3.712   1.650
 5286SOL    HW116757   0.819   3.788   1.591
 5286SOL    HW216758   0.847   3.710   1.732
 5287SOL     OW16759   1.683   6.083   1.543
 5287SOL    HW116760   1.749   6.070   1.616
 5287SOL    HW216761   1.714   6.037   1.460
 5288SOL     OW16762   4.176   0.306   1.885
 5288SOL    HW116763   4.077   0.319   1.881
 5288SOL    HW216764   4.214   0.359   1.961
 5289SOL     OW16765   1.751   5.730   6.103
 5289SOL    HW116766   1.747   5.630   6.104
 5289SOL    HW216767   1.797   5.762   6.020
 5290SOL     OW16768   1.662   4.663   5.711
 5290SOL    HW116769   1.660   4.652   5.611
 5290SOL    HW216770   1.709   4.748   5.735
 5291SOL     OW16771   2.947   4.973   5.287
 5291SOL    HW116772   2.973   4.934   5.199
 5291SOL    HW216773   3.006   4.936   5.359
 5292SOL     OW16774   6.623   4.429   0.247
 5292SOL    HW116775   6.687   4.358   0.275
 5292SOL    HW216776   6.533   4.410   0.286
 5293SOL     OW16777   0.935   0.774   4.047
 5293SOL    HW116778   1.029   0.758   4.077
 5293SOL    HW216779   0.873   0.766   4.125
 5294SOL     OW16780   4.937   3.397   5.098
 5294SOL    HW116781   4.894   3.486   5.083
 5294SOL    HW216782   4.876   3.339   5.151
 5295SOL     OW16783   4.386   0.278   2.407
 5295SOL    HW116784   4.298   0.235   2.391
 5295SOL    HW216785   4.373   0.376   2.423
 5296SOL     OW16786   1.950   5.334   0.435
 5296SOL    HW116787   1.992   5.372   0.517
 5296SOL    HW216788   1.919   5.409   0.376
 5297SOL     OW16789   2.925   1.892   1.170
 5297SOL    HW116790   2.895   1.988   1.172
 5297SOL    HW216791   2.859   1.838   1.118
 5298SOL     OW16792   1.695   6.138   6.259
 5298SOL    HW116793   1.648   6.193   6.329
 5298SOL    HW216794   1.628   6.105   6.193
 5299SOL     OW16795   3.008   2.744   0.873
 5299SOL    HW116796   3.055   2.660   0.845
 5299SOL    HW216797   2.964   2.730   0.962
 5300SOL     OW16798   0.312   6.193   1.435
 5300SOL    HW116799   0.369   6.262   1.391
 5300SOL    HW216800   0.370   6.136   1.494
 5301SOL     OW16801   4.572   2.512   6.913
 5301SOL    HW116802   4.553   2.468   7.001
 5301SOL    HW216803   4.666   2.544   6.911
 5302SOL     OW16804   6.025   4.833   3.511
 5302SOL    HW116805   6.107   4.833   3.568
 5302SOL    HW216806   5.954   4.888   3.555
 5303SOL     OW16807   0.065   5.821   2.901
 5303SOL    HW116808   0.128   5.757   2.857
 5303SOL    HW216809   0.102   5.848   2.990
 5304SOL     OW16810   6.057   1.366   6.958
 5304SOL    HW116811   5.977   1.381   6.900
 5304SOL    HW216812   6.048   1.418   0.020
 5305SOL     OW16813   1.724   5.452   4.256
 5305SOL    HW116814   1.782   5.480   4.179
 5305SOL    HW216815   1.638   5.502   4.253
 5306SOL     OW16816   0.047   5.214   4.645
 5306SOL    HW116817   6.978   5.253   4.644
 5306SOL    HW216818   0.099   5.250   4.568
 5307SOL     OW16819   4.084   0.001   0.444
 5307SOL    HW116820   4.037   0.089   0.452
 5307SOL    HW216821   4.103   6.988   0.535
 5308SOL     OW16822   1.191   6.289   3.626
 5308SOL    HW116823   1.103   6.260   3.663
 5308SOL    HW216824   1.254   6.212   3.624
 5309SOL     OW16825   3.873   4.395   1.724
 5309SOL    HW116826   3.809   4.437   1.659
 5309SOL    HW216827   3.939   4.464   1.753
 5310SOL     OW16828   6.155   3.378   1.684
 5310SOL    HW116829   6.096   3.453   1.713
 5310SOL    HW216830   6.158   3.308   1.755
 5311SOL     OW16831   0.292   6.401   0.547
 5311SOL    HW116832   0.247   6.488   0.529
 5311SOL    HW216833   0.391   6.415   0.553
 5312SOL     OW16834   0.669   4.431   1.917
 5312SOL    HW116835   0.698   4.454   2.009
 5312SOL    HW216836   0.687   4.334   1.899
 5313SOL     OW16837   1.377   4.520   6.652
 5313SOL    HW116838   1.383   4.459   6.573
 5313SOL    HW216839   1.347   4.611   6.622
 5314SOL     OW16840   3.614   6.634   0.180
 5314SOL    HW116841   3.706   6.599   0.162
 5314SOL    HW216842   3.615   6.691   0.262
 5315SOL     OW16843   4.500   3.689   1.575
 5315SOL    HW116844   4.564   3.725   1.507
 5315SOL    HW216845   4.426   3.755   1.590
 5316SOL     OW16846   6.785   4.663   4.663
 5316SOL    HW116847   6.713   4.691   4.726
 5316SOL    HW216848   6.870   4.647   4.713
 5317SOL     OW16849   6.892   6.882   4.540
 5317SOL    HW116850   6.891   6.951   4.613
 5317SOL    HW216851   6.801   6.842   4.532
 5318SOL     OW16852   0.039   2.081   6.009
 5318SOL    HW116853   0.062   2.011   6.077
 5318SOL    HW216854   0.026   2.039   5.920
 5319SOL     OW16855   4.410   6.615   6.513
 5319SOL    HW116856   4.396   6.604   6.415
 5319SOL    HW216857   4.507   6.634   6.531
 5320SOL     OW16858   5.574   5.194   0.419
 5320SOL    HW116859   5.475   5.184   0.428
 5320SOL    HW216860   5.601   5.177   0.324
 5321SOL     OW16861   1.110   3.996   3.214
 5321SOL    HW116862   1.054   3.916   3.191
 5321SOL    HW216863   1.070   4.078   3.174
 5322SOL     OW16864   3.699   5.964   6.120
 5322SOL    HW116865   3.784   5.999   6.159
 5322SOL    HW216866   3.663   6.031   6.055
 5323SOL     OW16867   3.953   3.226   6.884
 5323SOL    HW116868   3.961   3.312   6.936
 5323SOL    HW216869   4.000   3.153   6.934
 5324SOL     OW16870   4.077   2.804   1.679
 5324SOL    HW116871   4.052   2.707   1.690
 5324SOL    HW216872   4.175   2.815   1.694
 5325SOL     OW16873   5.097   0.404   4.163
 5325SOL    HW116874   5.162   0.345   4.115
 5325SOL    HW216875   5.006   0.390   4.125
 5326SOL     OW16876   0.326   5.240   3.255
 5326SOL    HW116877   0.418   5.260   3.222
 5326SOL    HW216878   0.326   5.151   3.301
 5327SOL     OW16879   5.736   4.425   5.009
 5327SOL    HW116880   5.801   4.498   4.989
 5327SOL    HW216881   5.769   4.339   4.970
 5328SOL     OW16882   4.562   2.811   5.722
 5328SOL    HW116883   4.578   2.714   5.702
 5328SOL    HW216884   4.506   2.851   5.650
 5329SOL     OW16885   0.019   3.798   0.758
 5329SOL    HW116886   6.993   3.717   0.726
 5329SOL    HW216887   0.024   3.865   0.684
 5330SOL     OW16888   3.817   3.713   5.765
 5330SOL    HW116889   3.802   3.658   5.683
 5330SOL    HW216890   3.789   3.661   5.846
 5331SOL     OW16891   5.707   0.591   1.733
 5331SOL    HW116892   5.718   0.673   1.789
 5331SOL    HW216893   5.612   0.561   1.735
 5332SOL     OW16894   0.345   3.445   0.540
 5332SOL    HW116895   0.291   3.441   0.624
 5332SOL    HW216896   0.439   3.470   0.562
 5333SOL     OW16897   0.950   0.458   3.466
 5333SOL    HW116898   1.010   0.513   3.523
 5333SOL    HW216899   0.920   0.378   3.517
 5334SOL     OW16900   3.850   6.439   5.117
 5334SOL    HW116901   3.915   6.369   5.088
 5334SOL    HW216902   3.869   6.524   5.067
 5335SOL     OW16903   0.149   5.373   2.769
 5335SOL    HW116904   0.185   5.441   2.832
 5335SOL    HW216905   0.049   5.368   2.778
 5336SOL     OW16906   2.517   1.812   3.422
 5336SOL    HW116907   2.535   1.714   3.430
 5336SOL    HW216908   2.446   1.827   3.354
 5337SOL     OW16909   5.378   5.111   2.046
 5337SOL    HW116910   5.474   5.134   2.025
 5337SOL    HW216911   5.371   5.083   2.141
 5338SOL     OW16912   5.857   0.647   6.034
 5338SOL    HW116913   5.766   0.688   6.032
 5338SOL    HW216914   5.871   0.593   5.951
 5339SOL     OW16915   5.768   1.918   3.594
 5339SOL    HW116916   5.808   1.830   3.620
 5339SOL    HW216917   5.669   1.915   3.609
 5340SOL     OW16918   5.860   3.794   1.361
 5340SOL    HW116919   5.787   3.858   1.386
 5340SOL    HW216920   5.926   3.787   1.436
 5341SOL     OW16921   3.564   5.718   5.175
 5341SOL    HW116922   3.644   5.749   5.225
 5341SOL    HW216923   3.558   5.768   5.088
 5342SOL     OW16924   4.714   0.256   4.774
 5342SOL    HW116925   4.803   0.269   4.817
 5342SOL    HW216926   4.718   0.289   4.679
 5343SOL     OW16927   4.197   3.552   4.957
 5343SOL    HW116928   4.270   3.598   4.906
 5343SOL    HW216929   4.126   3.523   4.894
 5344SOL     OW16930   1.440   2.256   1.100
 5344SOL    HW116931   1.358   2.232   1.049
 5344SOL    HW216932   1.454   2.355   1.097
 5345SOL     OW16933   4.806   6.521   0.224
 5345SOL    HW116934   4.826   6.451   0.155
 5345SOL    HW216935   4.771   6.603   0.178
 5346SOL     OW16936   2.433   5.489   4.073
 5346SOL    HW116937   2.530   5.471   4.057
 5346SOL    HW216938   2.393   5.414   4.125
 5347SOL     OW16939   0.493   2.917   2.533
 5347SOL    HW116940   0.395   2.909   2.552
 5347SOL    HW216941   0.545   2.879   2.610
 5348SOL     OW16942   6.692   1.451   0.517
 5348SOL    HW116943   6.653   1.370   0.475
 5348SOL    HW216944   6.789   1.459   0.492
 5349SOL     OW16945   2.298   3.329   0.233
 5349SOL    HW116946   2.340   3.366   0.151
 5349SOL    HW216947   2.204   3.302   0.213
 5350SOL     OW16948   1.701   0.268   4.541
 5350SOL    HW116949   1.669   0.339   4.477
 5350SOL    HW216950   1.640   0.189   4.535
 5351SOL     OW16951   6.603   5.196   1.971
 5351SOL    HW116952   6.567   5.259   1.902
 5351SOL    HW216953   6.692   5.229   2.002
 5352SOL     OW16954   2.413   5.006   2.995
 5352SOL    HW116955   2.473   5.042   3.067
 5352SOL    HW216956   2.452   4.921   2.958
 5353SOL     OW16957   3.615   5.435   4.678
 5353SOL    HW116958   3.572   5.451   4.589
 5353SOL    HW216959   3.582   5.349   4.716
 5354SOL     OW16960   2.446   4.268   0.795
 5354SOL    HW116961   2.542   4.277   0.818
 5354SOL    HW216962   2.417   4.345   0.739
 5355SOL     OW16963   5.700   4.716   4.675
 5355SOL    HW116964   5.659   4.804   4.697
 5355SOL    HW216965   5.723   4.713   4.578
 5356SOL     OW16966   6.250   3.651   2.200
 5356SOL    HW116967   6.233   3.597   2.118
 5356SOL    HW216968   6.163   3.682   2.238
 5357SOL     OW16969   2.835   5.536   0.604
 5357SOL    HW116970   2.816   5.471   0.678
 5357SOL    HW216971   2.928   5.572   0.615
 5358SOL     OW16972   4.302   1.590   0.302
 5358SOL    HW116973   4.227   1.642   0.261
 5358SOL    HW216974   4.300   1.496   0.267
 5359SOL     OW16975   2.414   1.246   5.943
 5359SOL    HW116976   2.467   1.237   6.028
 5359SOL    HW216977   2.354   1.325   5.950
 5360SOL     OW16978   3.490   6.308   3.175
 5360SOL    HW116979   3.548   6.344   3.101
 5360SOL    HW216980   3.473   6.380   3.242
 5361SOL     OW16981   2.607   0.184   4.652
 5361SOL    HW116982   2.582   0.266   4.600
 5361SOL    HW216983   2.705   0.167   4.641
 5362SOL     OW16984   6.318   6.480   2.653
 5362SOL    HW116985   6.310   6.572   2.613
 5362SOL    HW216986   6.229   6.434   2.649
 5363SOL     OW16987   6.243   6.399   5.593
 5363SOL    HW116988   6.154   6.396   5.638
 5363SOL    HW216989   6.315   6.387   5.661
 5364SOL     OW16990   6.246   0.112   2.190
 5364SOL    HW116991   6.196   0.151   2.113
 5364SOL    HW216992   6.330   0.069   2.156
 5365SOL     OW16993   3.788   3.385   1.660
 5365SOL    HW116994   3.883   3.365   1.683
 5365SOL    HW216995   3.784   3.431   1.571
 5366SOL     OW16996   5.886   6.316   1.144
 5366SOL    HW116997   5.844   6.383   1.204
 5366SOL    HW216998   5.870   6.224   1.179
 5367SOL     OW16999   0.098   0.163   1.633
 5367SOL    HW117000   0.076   0.097   1.561
 5367SOL    HW217001   0.138   0.116   1.711
 5368SOL     OW17002   5.794   0.361   2.517
 5368SOL    HW117003   5.832   0.382   2.607
 5368SOL    HW217004   5.742   0.276   2.522
 5369SOL     OW17005   2.621   6.551   0.915
 5369SOL    HW117006   2.645   6.642   0.947
 5369SOL    HW217007   2.622   6.548   0.815
 5370SOL     OW17008   4.884   3.099   0.706
 5370SOL    HW117009   4.972   3.145   0.721
 5370SOL    HW217010   4.813   3.145   0.760
 5371SOL     OW17011   0.756   4.246   5.543
 5371SOL    HW117012   0.712   4.240   5.632
 5371SOL    HW217013   0.830   4.179   5.536
 5372SOL     OW17014   1.342   5.779   2.706
 5372SOL    HW117015   1.384   5.768   2.616
 5372SOL    HW217016   1.251   5.819   2.696
 5373SOL     OW17017   3.999   6.698   5.377
 5373SOL    HW117018   4.039   6.665   5.292
 5373SOL    HW217019   3.911   6.743   5.358
 5374SOL     OW17020   2.157   4.070   0.405
 5374SOL    HW117021   2.133   4.107   0.315
 5374SOL    HW217022   2.250   4.099   0.429
 5375SOL     OW17023   0.449   6.201   4.785
 5375SOL    HW117024   0.435   6.289   4.740
 5375SOL    HW217025   0.389   6.132   4.743
 5376SOL     OW17026   1.228   2.105   1.334
 5376SOL    HW117027   1.309   2.132   1.282
 5376SOL    HW217028   1.193   2.019   1.297
 5377SOL     OW17029   0.488   0.062   2.098
 5377SOL    HW117030   0.498   7.004   2.040
 5377SOL    HW217031   0.390   0.081   2.111
 5378SOL     OW17032   6.530   6.971   2.557
 5378SOL    HW117033   6.481   6.887   2.534
 5378SOL    HW217034   6.572   7.009   2.474
 5379SOL     OW17035   0.784   3.760   4.887
 5379SOL    HW117036   0.879   3.793   4.895
 5379SOL    HW217037   0.757   3.761   4.791
 5380SOL     OW17038   3.514   0.129   2.342
 5380SOL    HW117039   3.471   0.052   2.388
 5380SOL    HW217040   3.531   0.202   2.408
 5381SOL     OW17041   6.630   5.400   2.333
 5381SOL    HW117042   6.686   5.427   2.255
 5381SOL    HW217043   6.559   5.469   2.349
 5382SOL     OW17044   2.754   1.720   2.183
 5382SOL    HW117045   2.738   1.723   2.085
 5382SOL    HW217046   2.761   1.814   2.218
 5383SOL     OW17047   1.625   2.676   4.928
 5383SOL    HW117048   1.604   2.695   4.832
 5383SOL    HW217049   1.552   2.621   4.968
 5384SOL     OW17050   5.475   0.588   5.318
 5384SOL    HW117051   5.442   0.678   5.287
 5384SOL    HW217052   5.518   0.540   5.242
 5385SOL     OW17053   3.690   3.552   5.037
 5385SOL    HW117054   3.739   3.477   5.082
 5385SOL    HW217055   3.720   3.560   4.942
 5386SOL     OW17056   4.579   1.250   4.073
 5386SOL    HW117057   4.608   1.240   4.168
 5386SOL    HW217058   4.487   1.213   4.062
 5387SOL     OW17059   2.121   6.714   3.350
 5387SOL    HW117060   2.033   6.701   3.394
 5387SOL    HW217061   2.141   6.811   3.343
 5388SOL     OW17062   1.058   0.867   2.901
 5388SOL    HW117063   1.071   0.839   2.997
 5388SOL    HW217064   0.992   0.941   2.897
 5389SOL     OW17065   3.652   1.351   3.318
 5389SOL    HW117066   3.687   1.368   3.410
 5389SOL    HW217067   3.698   1.410   3.252
 5390SOL     OW17068   5.016   3.969   3.863
 5390SOL    HW117069   5.021   3.964   3.963
 5390SOL    HW217070   5.106   3.949   3.824
 5391SOL     OW17071   2.158   1.616   0.643
 5391SOL    HW117072   2.147   1.715   0.633
 5391SOL    HW217073   2.082   1.580   0.698
 5392SOL     OW17074   6.205   3.620   0.973
 5392SOL    HW117075   6.195   3.549   1.043
 5392SOL    HW217076   6.215   3.577   0.883
 5393SOL     OW17077   4.976   0.651   5.329
 5393SOL    HW117078   4.986   0.555   5.302
 5393SOL    HW217079   4.901   0.659   5.395
 5394SOL     OW17080   0.206   5.582   1.032
 5394SOL    HW117081   0.276   5.539   0.975
 5394SOL    HW217082   0.174   5.666   0.987
 5395SOL     OW17083   4.695   0.806   1.007
 5395SOL    HW117084   4.636   0.833   1.083
 5395SOL    HW217085   4.785   0.780   1.043
 5396SOL     OW17086   5.776   4.837   1.180
 5396SOL    HW117087   5.875   4.846   1.175
 5396SOL    HW217088   5.751   4.781   1.259
 5397SOL     OW17089   0.094   2.535   1.497
 5397SOL    HW117090   0.044   2.610   1.542
 5397SOL    HW217091   0.094   2.550   1.398
 5398SOL     OW17092   2.917   2.239   3.771
 5398SOL    HW117093   2.912   2.234   3.870
 5398SOL    HW217094   2.998   2.290   3.744
 5399SOL     OW17095   2.624   6.400   6.989
 5399SOL    HW117096   2.663   6.454   0.041
 5399SOL    HW217097   2.646   6.304   7.003
 5400SOL     OW17098   3.214   3.348   6.545
 5400SOL    HW117099   3.188   3.442   6.563
 5400SOL    HW217100   3.160   3.286   6.602
 5401SOL     OW17101   6.274   4.583   2.841
 5401SOL    HW117102   6.358   4.543   2.806
 5401SOL    HW217103   6.196   4.525   2.817
 5402SOL     OW17104   2.526   5.877   1.623
 5402SOL    HW117105   2.612   5.924   1.643
 5402SOL    HW217106   2.464   5.939   1.575
 5403SOL     OW17107   5.095   3.796   5.934
 5403SOL    HW117108   5.190   3.771   5.915
 5403SOL    HW217109   5.037   3.716   5.925
 5404SOL     OW17110   0.821   0.665   2.250
 5404SOL    HW117111   0.749   0.733   2.247
 5404SOL    HW217112   0.909   0.708   2.228
 5405SOL     OW17113   5.374   5.612   0.150
 5405SOL    HW117114   5.311   5.686   0.124
 5405SOL    HW217115   5.367   5.538   0.083
 5406SOL     OW17116   1.616   0.307   5.219
 5406SOL    HW117117   1.539   0.354   5.263
 5406SOL    HW217118   1.686   0.286   5.287
 5407SOL     OW17119   3.072   1.851   0.915
 5407SOL    HW117120   3.053   1.905   0.997
 5407SOL    HW217121   3.120   1.908   0.847
 5408SOL     OW17122   4.189   0.167   5.323
 5408SOL    HW117123   4.116   0.107   5.355
 5408SOL    HW217124   4.232   0.128   5.242
 5409SOL     OW17125   6.602   1.632   3.173
 5409SOL    HW117126   6.549   1.580   3.107
 5409SOL    HW217127   6.676   1.680   3.127
 5410SOL     OW17128   1.130   2.567   6.270
 5410SOL    HW117129   1.192   2.612   6.334
 5410SOL    HW217130   1.156   2.471   6.260
 5411SOL     OW17131   5.883   5.541   5.833
 5411SOL    HW117132   5.967   5.505   5.873
 5411SOL    HW217133   5.896   5.552   5.734
 5412SOL     OW17134   3.646   1.309   0.026
 5412SOL    HW117135   3.584   1.307   0.105
 5412SOL    HW217136   3.734   1.269   0.052
 5413SOL     OW17137   6.940   0.862   0.514
 5413SOL    HW117138   6.901   0.893   0.601
 5413SOL    HW217139   6.902   0.918   0.440
 5414SOL     OW17140   6.137   4.436   4.819
 5414SOL    HW117141   6.094   4.364   4.872
 5414SOL    HW217142   6.164   4.401   4.729
 5415SOL     OW17143   1.641   6.477   1.989
 5415SOL    HW117144   1.740   6.488   1.993
 5415SOL    HW217145   1.602   6.545   1.927
 5416SOL     OW17146   3.306   5.037   5.804
 5416SOL    HW117147   3.360   5.043   5.721
 5416SOL    HW217148   3.238   5.111   5.805
 5417SOL     OW17149   4.314   6.492   4.940
 5417SOL    HW117150   4.318   6.392   4.938
 5417SOL    HW217151   4.232   6.521   4.990
 5418SOL     OW17152   5.096   0.242   4.660
 5418SOL    HW117153   5.075   0.150   4.629
 5418SOL    HW217154   5.105   0.303   4.581
 5419SOL     OW17155   3.353   5.201   0.324
 5419SOL    HW117156   3.409   5.277   0.355
 5419SOL    HW217157   3.281   5.183   0.391
 5420SOL     OW17158   1.984   2.396   1.298
 5420SOL    HW117159   2.048   2.472   1.291
 5420SOL    HW217160   2.014   2.333   1.369
 5421SOL     OW17161   2.912   5.164   3.096
 5421SOL    HW117162   2.931   5.085   3.155
 5421SOL    HW217163   2.814   5.185   3.100
 5422SOL     OW17164   0.363   5.474   4.226
 5422SOL    HW117165   0.409   5.391   4.258
 5422SOL    HW217166   0.359   5.474   4.126
 5423SOL     OW17167   5.965   4.408   0.674
 5423SOL    HW117168   5.893   4.461   0.628
 5423SOL    HW217169   6.054   4.435   0.637
 5424SOL     OW17170   5.654   3.714   4.561
 5424SOL    HW117171   5.715   3.751   4.491
 5424SOL    HW217172   5.640   3.783   4.632
 5425SOL     OW17173   5.236   2.298   4.622
 5425SOL    HW117174   5.137   2.309   4.620
 5425SOL    HW217175   5.262   2.215   4.572
 5426SOL     OW17176   6.092   5.876   2.799
 5426SOL    HW117177   6.107   5.953   2.861
 5426SOL    HW217178   6.176   5.821   2.795
 5427SOL     OW17179   5.676   4.025   0.606
 5427SOL    HW117180   5.765   4.035   0.562
 5427SOL    HW217181   5.652   3.929   0.615
 5428SOL     OW17182   6.020   6.819   2.521
 5428SOL    HW117183   6.044   6.757   2.596
 5428SOL    HW217184   6.006   6.765   2.438
 5429SOL     OW17185   2.174   0.952   6.232
 5429SOL    HW117186   2.258   0.898   6.227
 5429SOL    HW217187   2.174   1.007   6.315
 5430SOL     OW17188   2.328   2.389   5.961
 5430SOL    HW117189   2.384   2.402   5.879
 5430SOL    HW217190   2.343   2.466   6.024
 5431SOL     OW17191   3.477   4.082   6.191
 5431SOL    HW117192   3.444   4.015   6.124
 5431SOL    HW217193   3.402   4.141   6.219
 5432SOL     OW17194   3.430   5.375   6.711
 5432SOL    HW117195   3.394   5.444   6.649
 5432SOL    HW217196   3.368   5.363   6.788
 5433SOL     OW17197   0.545   0.685   2.791
 5433SOL    HW117198   0.450   0.675   2.763
 5433SOL    HW217199   0.605   0.652   2.717
 5434SOL     OW17200   3.891   0.704   4.462
 5434SOL    HW117201   3.950   0.644   4.516
 5434SOL    HW217202   3.920   0.799   4.476
 5435SOL     OW17203   5.892   2.384   1.112
 5435SOL    HW117204   5.976   2.338   1.140
 5435SOL    HW217205   5.844   2.329   1.044
 5436SOL     OW17206   5.926   4.563   4.057
 5436SOL    HW117207   6.024   4.560   4.035
 5436SOL    HW217208   5.911   4.522   4.147
 5437SOL     OW17209   2.938   5.558   5.716
 5437SOL    HW117210   2.896   5.645   5.742
 5437SOL    HW217211   3.006   5.574   5.644
 5438SOL     OW17212   6.213   3.180   1.918
 5438SOL    HW117213   6.196   3.185   2.017
 5438SOL    HW217214   6.312   3.182   1.901
 5439SOL     OW17215   0.409   2.394   0.188
 5439SOL    HW117216   0.464   2.446   0.122
 5439SOL    HW217217   0.333   2.350   0.140
 5440SOL     OW17218   6.686   6.823   3.572
 5440SOL    HW117219   6.744   6.884   3.626
 5440SOL    HW217220   6.665   6.867   3.485
 5441SOL     OW17221   4.707   2.591   3.405
 5441SOL    HW117222   4.776   2.520   3.391
 5441SOL    HW217223   4.671   2.583   3.498
 5442SOL     OW17224   3.789   6.861   2.735
 5442SOL    HW117225   3.693   6.835   2.726
 5442SOL    HW217226   3.795   6.951   2.778
 5443SOL     OW17227   3.732   5.612   3.688
 5443SOL    HW117228   3.800   5.542   3.712
 5443SOL    HW217229   3.703   5.599   3.593
 5444SOL     OW17230   0.323   0.487   3.546
 5444SOL    HW117231   0.331   0.429   3.465
 5444SOL    HW217232   0.329   0.583   3.518
 5445SOL     OW17233   6.234   3.733   3.916
 5445SOL    HW117234   6.273   3.825   3.914
 5445SOL    HW217235   6.156   3.729   3.853
 5446SOL     OW17236   5.774   5.252   5.055
 5446SOL    HW117237   5.742   5.278   5.146
 5446SOL    HW217238   5.708   5.188   5.014
 5447SOL     OW17239   1.269   1.781   0.676
 5447SOL    HW117240   1.334   1.812   0.745
 5447SOL    HW217241   1.184   1.834   0.684
 5448SOL     OW17242   5.460   4.968   4.221
 5448SOL    HW117243   5.475   5.059   4.183
 5448SOL    HW217244   5.434   4.975   4.317
 5449SOL     OW17245   1.733   1.352   1.255
 5449SOL    HW117246   1.634   1.345   1.239
 5449SOL    HW217247   1.765   1.441   1.224
 5450SOL     OW17248   2.880   0.227   0.967
 5450SOL    HW117249   2.908   0.225   1.063
 5450SOL    HW217250   2.828   0.311   0.949
 5451SOL     OW17251   2.406   6.506   3.645
 5451SOL    HW117252   2.387   6.447   3.566
 5451SOL    HW217253   2.460   6.584   3.615
 5452SOL     OW17254   2.515   4.013   6.787
 5452SOL    HW117255   2.533   4.106   6.821
 5452SOL    HW217256   2.442   4.016   6.719
 5453SOL     OW17257   4.947   4.325   2.519
 5453SOL    HW117258   4.947   4.415   2.477
 5453SOL    HW217259   5.039   4.302   2.549
 5454SOL     OW17260   4.849   5.993   0.120
 5454SOL    HW117261   4.903   5.968   0.040
 5454SOL    HW217262   4.774   6.053   0.093
 5455SOL     OW17263   0.293   2.725   2.996
 5455SOL    HW117264   0.342   2.795   2.944
 5455SOL    HW217265   0.261   2.765   3.082
 5456SOL     OW17266   3.202   0.059   0.043
 5456SOL    HW117267   3.103   0.052   0.054
 5456SOL    HW217268   3.229   0.155   0.047
 5457SOL     OW17269   6.227   1.912   1.379
 5457SOL    HW117270   6.153   1.970   1.344
 5457SOL    HW217271   6.309   1.924   1.323
 5458SOL     OW17272   0.480   5.060   0.255
 5458SOL    HW117273   0.394   5.082   0.303
 5458SOL    HW217274   0.490   5.122   0.177
 5459SOL     OW17275   3.336   3.868   5.713
 5459SOL    HW117276   3.426   3.904   5.738
 5459SOL    HW217277   3.270   3.943   5.712
 5460SOL     OW17278   3.371   6.776   3.036
 5460SOL    HW117279   3.364   6.715   2.957
 5460SOL    HW217280   3.280   6.790   3.075
 5461SOL     OW17281   0.510   0.563   4.985
 5461SOL    HW117282   0.504   0.525   4.893
 5461SOL    HW217283   0.436   0.528   5.042
 5462SOL     OW17284   5.567   6.481   6.905
 5462SOL    HW117285   5.543   6.403   6.963
 5462SOL    HW217286   5.651   6.523   6.939
 5463SOL     OW17287   0.443   1.499   0.008
 5463SOL    HW117288   0.535   1.495   0.047
 5463SOL    HW217289   0.438   1.574   6.965
 5464SOL     OW17290   6.234   0.339   4.980
 5464SOL    HW117291   6.217   0.383   4.892
 5464SOL    HW217292   6.321   0.289   4.976
 5465SOL     OW17293   5.103   1.247   4.403
 5465SOL    HW117294   5.146   1.261   4.492
 5465SOL    HW217295   5.098   1.149   4.384
 5466SOL     OW17296   5.153   3.149   5.539
 5466SOL    HW117297   5.089   3.224   5.531
 5466SOL    HW217298   5.118   3.069   5.490
 5467SOL     OW17299   5.323   3.668   3.711
 5467SOL    HW117300   5.250   3.616   3.668
 5467SOL    HW217301   5.370   3.611   3.778
 5468SOL     OW17302   6.617   2.049   4.575
 5468SOL    HW117303   6.691   2.070   4.638
 5468SOL    HW217304   6.639   2.086   4.484
 5469SOL     OW17305   2.969   6.447   5.547
 5469SOL    HW117306   2.877   6.459   5.586
 5469SOL    HW217307   3.036   6.449   5.621
 5470SOL     OW17308   3.610   5.612   3.409
 5470SOL    HW117309   3.535   5.557   3.374
 5470SOL    HW217310   3.591   5.709   3.391
 5471SOL     OW17311   6.445   0.439   3.725
 5471SOL    HW117312   6.415   0.415   3.633
 5471SOL    HW217313   6.385   0.510   3.763
 5472SOL     OW17314   3.134   3.791   6.025
 5472SOL    HW117315   3.071   3.785   5.947
 5472SOL    HW217316   3.151   3.700   6.061
 5473SOL     OW17317   1.297   3.489   1.865
 5473SOL    HW117318   1.357   3.522   1.938
 5473SOL    HW217319   1.293   3.556   1.791
 5474SOL     OW17320   0.907   4.169   4.329
 5474SOL    HW117321   0.875   4.090   4.380
 5474SOL    HW217322   0.986   4.143   4.273
 5475SOL     OW17323   1.962   2.425   0.909
 5475SOL    HW117324   2.047   2.399   0.955
 5475SOL    HW217325   1.922   2.504   0.956
 5476SOL     OW17326   2.229   4.638   5.333
 5476SOL    HW117327   2.175   4.569   5.287
 5476SOL    HW217328   2.311   4.597   5.372
 5477SOL     OW17329   2.249   4.236   2.378
 5477SOL    HW117330   2.221   4.173   2.305
 5477SOL    HW217331   2.305   4.187   2.445
 5478SOL     OW17332   3.292   6.841   5.128
 5478SOL    HW117333   3.392   6.846   5.131
 5478SOL    HW217334   3.261   6.849   5.034
 5479SOL     OW17335   5.976   1.765   5.672
 5479SOL    HW117336   6.003   1.831   5.742
 5479SOL    HW217337   5.990   1.806   5.582
 5480SOL     OW17338   5.725   6.006   4.066
 5480SOL    HW117339   5.738   6.092   4.016
 5480SOL    HW217340   5.696   5.934   4.002
 5481SOL     OW17341   4.625   0.915   4.578
 5481SOL    HW117342   4.528   0.937   4.582
 5481SOL    HW217343   4.679   0.999   4.576
 5482SOL     OW17344   3.664   4.236   1.454
 5482SOL    HW117345   3.755   4.250   1.416
 5482SOL    HW217346   3.621   4.157   1.411
 5483SOL     OW17347   6.812   2.659   5.434
 5483SOL    HW117348   6.797   2.757   5.424
 5483SOL    HW217349   6.889   2.631   5.376
 5484SOL     OW17350   4.507   0.695   3.491
 5484SOL    HW117351   4.599   0.733   3.496
 5484SOL    HW217352   4.493   0.654   3.401
 5485SOL     OW17353   4.112   0.016   4.720
 5485SOL    HW117354   4.015   0.017   4.742
 5485SOL    HW217355   4.138   6.947   4.689
 5486SOL     OW17356   2.109   5.987   5.023
 5486SOL    HW117357   2.192   6.041   5.037
 5486SOL    HW217358   2.133   5.900   4.981
 5487SOL     OW17359   5.540   3.358   6.683
 5487SOL    HW117360   5.571   3.270   6.648
 5487SOL    HW217361   5.458   3.387   6.632
 5488SOL     OW17362   5.968   0.690   1.050
 5488SOL    HW117363   5.920   0.726   1.129
 5488SOL    HW217364   5.911   0.697   0.969
 5489SOL     OW17365   0.872   3.947   1.528
 5489SOL    HW117366   0.955   3.963   1.581
 5489SOL    HW217367   0.804   4.016   1.551
 5490SOL     OW17368   2.965   6.777   1.102
 5490SOL    HW117369   3.007   6.865   1.123
 5490SOL    HW217370   2.870   6.777   1.131
 5491SOL     OW17371   1.796   4.031   1.110
 5491SOL    HW117372   1.830   4.117   1.147
 5491SOL    HW217373   1.699   4.021   1.134
 5492SOL     OW17374   0.007   2.868   5.912
 5492SOL    HW117375   0.035   2.905   5.823
 5492SOL    HW217376   6.955   2.923   5.950
 5493SOL     OW17377   3.991   3.952   3.920
 5493SOL    HW117378   3.947   4.021   3.978
 5493SOL    HW217379   4.027   3.996   3.838
 5494SOL     OW17380   6.460   3.020   6.276
 5494SOL    HW117381   6.473   3.021   6.375
 5494SOL    HW217382   6.445   3.113   6.244
 5495SOL     OW17383   3.095   1.735   0.607
 5495SOL    HW117384   3.007   1.759   0.566
 5495SOL    HW217385   3.146   1.818   0.630
 5496SOL     OW17386   3.756   0.682   3.507
 5496SOL    HW117387   3.761   0.610   3.438
 5496SOL    HW217388   3.775   0.643   3.598
 5497SOL     OW17389   0.314   2.122   4.184
 5497SOL    HW117390   0.344   2.027   4.182
 5497SOL    HW217391   0.282   2.146   4.276
 5498SOL     OW17392   6.160   6.357   1.255
 5498SOL    HW117393   6.218   6.427   1.213
 5498SOL    HW217394   6.064   6.381   1.240
 5499SOL     OW17395   0.544   0.260   4.897
 5499SOL    HW117396   0.481   0.286   4.971
 5499SOL    HW217397   0.636   0.250   4.934
 5500SOL     OW17398   0.867   0.427   0.465
 5500SOL    HW117399   0.839   0.516   0.429
 5500SOL    HW217400   0.936   0.440   0.536
 5501SOL     OW17401   3.645   0.292   0.320
 5501SOL    HW117402   3.670   0.365   0.255
 5501SOL    HW217403   3.546   0.284   0.324
 5502SOL     OW17404   5.341   3.228   0.304
 5502SOL    HW117405   5.347   3.313   0.251
 5502SOL    HW217406   5.248   3.192   0.300
 5503SOL     OW17407   0.679   5.130   1.835
 5503SOL    HW117408   0.779   5.132   1.838
 5503SOL    HW217409   0.648   5.035   1.831
 5504SOL     OW17410   3.715   1.195   4.886
 5504SOL    HW117411   3.776   1.263   4.929
 5504SOL    HW217412   3.649   1.242   4.828
 5505SOL     OW17413   1.921   5.107   4.415
 5505SOL    HW117414   1.982   5.092   4.492
 5505SOL    HW217415   1.951   5.050   4.338
 5506SOL     OW17416   1.446   2.315   6.361
 5506SOL    HW117417   1.503   2.389   6.326
 5506SOL    HW217418   1.490   2.227   6.342
 5507SOL     OW17419   3.915   1.147   4.212
 5507SOL    HW117420   4.007   1.185   4.201
 5507SOL    HW217421   3.910   1.058   4.165
 5508SOL     OW17422   2.038   0.727   6.533
 5508SOL    HW117423   1.953   0.738   6.481
 5508SOL    HW217424   2.026   0.655   6.602
 5509SOL     OW17425   6.859   6.668   6.820
 5509SOL    HW117426   6.803   6.605   6.874
 5509SOL    HW217427   6.800   6.735   6.774
 5510SOL     OW17428   4.696   5.246   6.957
 5510SOL    HW117429   4.631   5.316   6.927
 5510SOL    HW217430   4.784   5.289   6.978
 5511SOL     OW17431   1.986   1.540   4.361
 5511SOL    HW117432   1.930   1.466   4.398
 5511SOL    HW217433   2.010   1.604   4.435
 5512SOL     OW17434   5.673   2.432   1.778
 5512SOL    HW117435   5.644   2.406   1.685
 5512SOL    HW217436   5.732   2.360   1.816
 5513SOL     OW17437   4.391   4.713   6.677
 5513SOL    HW117438   4.344   4.708   6.589
 5513SOL    HW217439   4.413   4.808   6.697
 5514SOL     OW17440   4.013   6.515   4.109
 5514SOL    HW117441   4.080   6.457   4.062
 5514SOL    HW217442   3.982   6.587   4.048
 5515SOL     OW17443   0.775   5.849   1.943
 5515SOL    HW117444   0.787   5.948   1.935
 5515SOL    HW217445   0.863   5.803   1.932
 5516SOL     OW17446   1.794   4.122   6.471
 5516SOL    HW117447   1.867   4.147   6.408
 5516SOL    HW217448   1.826   4.135   6.565
 5517SOL     OW17449   2.020   3.445   1.835
 5517SOL    HW117450   2.102   3.477   1.883
 5517SOL    HW217451   1.953   3.412   1.902
 5518SOL     OW17452   6.011   6.392   6.525
 5518SOL    HW117453   6.061   6.371   6.441
 5518SOL    HW217454   5.954   6.315   6.550
 5519SOL     OW17455   5.775   3.426   3.630
 5519SOL    HW117456   5.755   3.473   3.544
 5519SOL    HW217457   5.769   3.490   3.706
 5520SOL     OW17458   6.009   6.314   2.400
 5520SOL    HW117459   6.048   6.316   2.492
 5520SOL    HW217460   5.996   6.219   2.372
 5521SOL     OW17461   5.381   5.990   1.874
 5521SOL    HW117462   5.379   6.038   1.962
 5521SOL    HW217463   5.412   5.896   1.888
 5522SOL     OW17464   0.048   5.272   0.348
 5522SOL    HW117465   0.088   5.181   0.342
 5522SOL    HW217466   0.109   5.338   0.304
 5523SOL     OW17467   3.996   0.820   1.999
 5523SOL    HW117468   3.962   0.777   1.915
 5523SOL    HW217469   4.090   0.790   2.015
 5524SOL     OW17470   5.596   0.157   5.068
 5524SOL    HW117471   5.684   0.202   5.079
 5524SOL    HW217472   5.533   0.189   5.139
 5525SOL     OW17473   0.047   1.813   1.053
 5525SOL    HW117474   0.066   1.732   1.108
 5525SOL    HW217475   0.026   1.786   0.959
 5526SOL     OW17476   4.869   5.420   3.318
 5526SOL    HW117477   4.831   5.508   3.291
 5526SOL    HW217478   4.845   5.351   3.250
 5527SOL     OW17479   5.055   3.297   3.910
 5527SOL    HW117480   5.153   3.285   3.927
 5527SOL    HW217481   5.003   3.261   3.988
 5528SOL     OW17482   1.492   1.224   6.617
 5528SOL    HW117483   1.536   1.270   6.540
 5528SOL    HW217484   1.463   1.292   6.684
 5529SOL     OW17485   3.093   0.321   3.402
 5529SOL    HW117486   3.059   0.298   3.310
 5529SOL    HW217487   3.193   0.317   3.403
 5530SOL     OW17488   5.780   2.144   1.783
 5530SOL    HW117489   5.699   2.101   1.824
 5530SOL    HW217490   5.835   2.188   1.854
 5531SOL     OW17491   3.321   3.474   2.149
 5531SOL    HW117492   3.236   3.491   2.199
 5531SOL    HW217493   3.398   3.511   2.199
 5532SOL     OW17494   1.764   3.082   0.688
 5532SOL    HW117495   1.758   3.035   0.776
 5532SOL    HW217496   1.711   3.032   0.619
 5533SOL     OW17497   3.731   1.527   3.122
 5533SOL    HW117498   3.683   1.538   3.035
 5533SOL    HW217499   3.750   1.617   3.161
 5534SOL     OW17500   0.358   0.963   6.448
 5534SOL    HW117501   0.267   1.004   6.440
 5534SOL    HW217502   0.402   0.997   6.531
 5535SOL     OW17503   0.061   2.729   3.380
 5535SOL    HW117504   0.051   2.678   3.294
 5535SOL    HW217505   7.000   2.718   3.434
 5536SOL     OW17506   3.214   1.247   4.171
 5536SOL    HW117507   3.239   1.253   4.268
 5536SOL    HW217508   3.211   1.338   4.131
 5537SOL     OW17509   3.229   0.333   2.441
 5537SOL    HW117510   3.130   0.343   2.437
 5537SOL    HW217511   3.268   0.344   2.350
 5538SOL     OW17512   2.502   6.312   5.862
 5538SOL    HW117513   2.472   6.217   5.858
 5538SOL    HW217514   2.602   6.315   5.875
 5539SOL     OW17515   1.361   3.086   1.371
 5539SOL    HW117516   1.324   3.003   1.412
 5539SOL    HW217517   1.426   3.129   1.435
 5540SOL     OW17518   5.089   4.417   3.857
 5540SOL    HW117519   5.162   4.426   3.925
 5540SOL    HW217520   5.018   4.356   3.892
 5541SOL     OW17521   6.014   0.233   6.104
 5541SOL    HW117522   6.112   0.252   6.102
 5541SOL    HW217523   5.993   0.172   6.179
 5542SOL     OW17524   5.620   3.877   6.126
 5542SOL    HW117525   5.649   3.796   6.076
 5542SOL    HW217526   5.521   3.887   6.120
 5543SOL     OW17527   3.843   4.992   5.437
 5543SOL    HW117528   3.926   5.027   5.480
 5543SOL    HW217529   3.789   4.941   5.504
 5544SOL     OW17530   4.846   5.837   6.279
 5544SOL    HW117531   4.935   5.864   6.316
 5544SOL    HW217532   4.780   5.912   6.292
 5545SOL     OW17533   3.672   1.158   1.622
 5545SOL    HW117534   3.738   1.171   1.549
 5545SOL    HW217535   3.700   1.080   1.679
 5546SOL     OW17536   0.660   5.012   4.656
 5546SOL    HW117537   0.669   4.919   4.618
 5546SOL    HW217538   0.751   5.053   4.665
 5547SOL     OW17539   2.173   6.964   5.355
 5547SOL    HW117540   2.135   0.026   5.315
 5547SOL    HW217541   2.103   6.920   5.411
 5548SOL     OW17542   5.519   2.994   5.188
 5548SOL    HW117543   5.530   2.934   5.267
 5548SOL    HW217544   5.607   3.004   5.141
 5549SOL     OW17545   4.493   3.799   6.408
 5549SOL    HW117546   4.423   3.817   6.339
 5549SOL    HW217547   4.550   3.722   6.379
 5550SOL     OW17548   2.408   4.859   1.698
 5550SOL    HW117549   2.504   4.885   1.712
 5550SOL    HW217550   2.352   4.898   1.771
 5551SOL     OW17551   2.332   0.925   3.688
 5551SOL    HW117552   2.305   0.828   3.682
 5551SOL    HW217553   2.250   0.982   3.691
 5552SOL     OW17554   6.798   0.617   0.101
 5552SOL    HW117555   6.775   0.545   0.166
 5552SOL    HW217556   6.896   0.612   0.079
 5553SOL     OW17557   4.792   6.758   0.028
 5553SOL    HW117558   4.747   6.843   7.023
 5553SOL    HW217559   4.777   6.687   6.982
 5554SOL     OW17560   4.022   1.404   5.301
 5554SOL    HW117561   4.004   1.434   5.395
 5554SOL    HW217562   4.113   1.432   5.273
 5555SOL     OW17563   1.307   4.542   4.523
 5555SOL    HW117564   1.251   4.564   4.444
 5555SOL    HW217565   1.377   4.475   4.497
 5556SOL     OW17566   6.979   2.118   3.867
 5556SOL    HW117567   6.974   2.123   3.768
 5556SOL    HW217568   6.895   2.156   3.907
 5557SOL     OW17569   3.380   6.588   2.816
 5557SOL    HW117570   3.414   6.536   2.738
 5557SOL    HW217571   3.295   6.547   2.850
 5558SOL     OW17572   5.308   3.446   6.570
 5558SOL    HW117573   5.325   3.534   6.526
 5558SOL    HW217574   5.225   3.452   6.626
 5559SOL     OW17575   3.122   6.850   1.979
 5559SOL    HW117576   3.033   6.837   1.934
 5559SOL    HW217577   3.108   6.860   2.077
 5560SOL     OW17578   0.913   6.715   3.339
 5560SOL    HW117579   0.847   6.708   3.264
 5560SOL    HW217580   1.005   6.726   3.301
 5561SOL     OW17581   1.997   2.846   4.268
 5561SOL    HW117582   2.005   2.866   4.171
 5561SOL    HW217583   2.049   2.763   4.290
 5562SOL     OW17584   3.007   2.493   6.787
 5562SOL    HW117585   3.003   2.396   6.764
 5562SOL    HW217586   3.102   2.523   6.783
 5563SOL     OW17587   4.624   6.348   2.723
 5563SOL    HW117588   4.713   6.372   2.685
 5563SOL    HW217589   4.595   6.260   2.686
 5564SOL     OW17590   4.667   1.268   1.573
 5564SOL    HW117591   4.682   1.337   1.643
 5564SOL    HW217592   4.744   1.267   1.509
 5565SOL     OW17593   5.092   1.725   6.865
 5565SOL    HW117594   4.998   1.714   6.898
 5565SOL    HW217595   5.112   1.823   6.856
 5566SOL     OW17596   1.565   5.766   0.669
 5566SOL    HW117597   1.655   5.800   0.643
 5566SOL    HW217598   1.501   5.781   0.593
 5567SOL     OW17599   0.395   4.665   2.206
 5567SOL    HW117600   0.389   4.742   2.142
 5567SOL    HW217601   0.323   4.599   2.186
 5568SOL     OW17602   4.630   2.340   2.900
 5568SOL    HW117603   4.532   2.336   2.921
 5568SOL    HW217604   4.664   2.432   2.919
 5569SOL     OW17605   2.682   1.161   1.733
 5569SOL    HW117606   2.771   1.201   1.711
 5569SOL    HW217607   2.653   1.103   1.657
 5570SOL     OW17608   5.569   5.066   4.993
 5570SOL    HW117609   5.516   5.138   5.039
 5570SOL    HW217610   5.553   4.979   5.040
 5571SOL     OW17611   0.473   6.544   0.251
 5571SOL    HW117612   0.374   6.542   0.238
 5571SOL    HW217613   0.513   6.618   0.197
 5572SOL     OW17614   1.757   2.885   5.111
 5572SOL    HW117615   1.699   2.826   5.055
 5572SOL    HW217616   1.818   2.937   5.052
 5573SOL     OW17617   2.057   3.321   0.077
 5573SOL    HW117618   1.972   3.338   0.127
 5573SOL    HW217619   2.083   3.404   0.028
 5574SOL     OW17620   6.313   1.548   3.924
 5574SOL    HW117621   6.386   1.609   3.893
 5574SOL    HW217622   6.337   1.511   4.014
 5575SOL     OW17623   0.290   1.379   1.839
 5575SOL    HW117624   0.214   1.326   1.802
 5575SOL    HW217625   0.350   1.408   1.765
 5576SOL     OW17626   0.579   6.323   1.713
 5576SOL    HW117627   0.658   6.307   1.772
 5576SOL    HW217628   0.495   6.301   1.764
 5577SOL     OW17629   3.048   2.401   6.241
 5577SOL    HW117630   2.967   2.419   6.297
 5577SOL    HW217631   3.025   2.411   6.144
 5578SOL     OW17632   4.268   3.831   0.369
 5578SOL    HW117633   4.317   3.777   0.437
 5578SOL    HW217634   4.333   3.865   0.300
 5579SOL     OW17635   6.399   3.833   6.296
 5579SOL    HW117636   6.423   3.852   6.201
 5579SOL    HW217637   6.342   3.908   6.332
 5580SOL     OW17638   4.780   2.009   6.211
 5580SOL    HW117639   4.779   2.071   6.133
 5580SOL    HW217640   4.722   1.930   6.192
 5581SOL     OW17641   2.328   6.651   1.614
 5581SOL    HW117642   2.373   6.693   1.535
 5581SOL    HW217643   2.335   6.711   1.693
 5582SOL     OW17644   3.896   3.322   3.393
 5582SOL    HW117645   3.992   3.315   3.419
 5582SOL    HW217646   3.869   3.418   3.392
 5583SOL     OW17647   4.342   0.169   2.665
 5583SOL    HW117648   4.381   0.216   2.586
 5583SOL    HW217649   4.250   0.203   2.681
 5584SOL     OW17650   5.461   3.835   4.915
 5584SOL    HW117651   5.522   3.874   4.846
 5584SOL    HW217652   5.514   3.815   4.998
 5585SOL     OW17653   4.452   0.131   4.219
 5585SOL    HW117654   4.399   0.071   4.159
 5585SOL    HW217655   4.416   0.224   4.212
 5586SOL     OW17656   1.024   2.189   6.235
 5586SOL    HW117657   1.072   2.129   6.171
 5586SOL    HW217658   1.085   2.214   6.310
 5587SOL     OW17659   4.826   6.536   2.406
 5587SOL    HW117660   4.881   6.509   2.327
 5587SOL    HW217661   4.784   6.625   2.388
 5588SOL     OW17662   1.342   6.728   3.629
 5588SOL    HW117663   1.435   6.711   3.596
 5588SOL    HW217664   1.312   6.819   3.601
 5589SOL     OW17665   5.924   3.040   6.538
 5589SOL    HW117666   5.871   2.959   6.562
 5589SOL    HW217667   5.991   3.017   6.468
 5590SOL     OW17668   0.358   5.706   3.157
 5590SOL    HW117669   0.361   5.674   3.252
 5590SOL    HW217670   0.448   5.741   3.131
 5591SOL     OW17671   6.130   1.091   6.563
 5591SOL    HW117672   6.047   1.053   6.523
 5591SOL    HW217673   6.120   1.190   6.574
 5592SOL     OW17674   2.076   4.471   2.825
 5592SOL    HW117675   2.152   4.445   2.765
 5592SOL    HW217676   2.112   4.522   2.903
 5593SOL     OW17677   6.707   2.001   6.033
 5593SOL    HW117678   6.764   1.922   6.052
 5593SOL    HW217679   6.628   2.001   6.094
 5594SOL     OW17680   2.630   1.553   6.821
 5594SOL    HW117681   2.549   1.534   6.876
 5594SOL    HW217682   2.602   1.593   6.733
 5595SOL     OW17683   6.323   0.852   5.123
 5595SOL    HW117684   6.331   0.777   5.058
 5595SOL    HW217685   6.380   0.929   5.092
 5596SOL     OW17686   4.973   0.601   2.226
 5596SOL    HW117687   4.940   0.641   2.141
 5596SOL    HW217688   4.897   0.590   2.290
 5597SOL     OW17689   5.414   2.315   5.182
 5597SOL    HW117690   5.499   2.298   5.131
 5597SOL    HW217691   5.340   2.261   5.142
 5598SOL     OW17692   4.882   2.282   3.700
 5598SOL    HW117693   4.877   2.344   3.778
 5598SOL    HW217694   4.790   2.255   3.672
 5599SOL     OW17695   6.699   3.374   2.207
 5599SOL    HW117696   6.620   3.415   2.253
 5599SOL    HW217697   6.723   3.288   2.252
 5600SOL     OW17698   1.821   0.264   2.591
 5600SOL    HW117699   1.851   0.297   2.681
 5600SOL    HW217700   1.741   0.315   2.562
 5601SOL     OW17701   4.519   2.154   6.243
 5601SOL    HW117702   4.518   2.094   6.323
 5601SOL    HW217703   4.585   2.227   6.258
 5602SOL     OW17704   0.304   0.671   2.696
 5602SOL    HW117705   0.254   0.595   2.737
 5602SOL    HW217706   0.337   0.644   2.606
 5603SOL     OW17707   5.111   2.460   5.492
 5603SOL    HW117708   5.014   2.441   5.479
 5603SOL    HW217709   5.154   2.472   5.402
 5604SOL     OW17710   0.716   2.055   4.707
 5604SOL    HW117711   0.665   2.007   4.779
 5604SOL    HW217712   0.651   2.096   4.643
 5605SOL     OW17713   1.628   6.771   4.934
 5605SOL    HW117714   1.700   6.834   4.905
 5605SOL    HW217715   1.540   6.800   4.896
 5606SOL     OW17716   4.155   0.682   0.258
 5606SOL    HW117717   4.123   0.677   0.163
 5606SOL    HW217718   4.246   0.641   0.265
 5607SOL     OW17719   5.214   2.079   3.873
 5607SOL    HW117720   5.190   2.114   3.783
 5607SOL    HW217721   5.288   2.134   3.912
 5608SOL     OW17722   5.854   1.362   3.382
 5608SOL    HW117723   5.891   1.448   3.419
 5608SOL    HW217724   5.926   1.315   3.331
 5609SOL     OW17725   4.994   5.566   0.430
 5609SOL    HW117726   4.943   5.498   0.483
 5609SOL    HW217727   4.939   5.649   0.419
 5610SOL     OW17728   6.284   3.821   1.405
 5610SOL    HW117729   6.282   3.832   1.305
 5610SOL    HW217730   6.315   3.907   1.447
 5611SOL     OW17731   0.891   5.567   2.371
 5611SOL    HW117732   0.813   5.630   2.377
 5611SOL    HW217733   0.878   5.505   2.293
 5612SOL     OW17734   3.239   2.939   0.719
 5612SOL    HW117735   3.290   2.876   0.778
 5612SOL    HW217736   3.256   2.915   0.624
 5613SOL     OW17737   6.804   4.947   5.316
 5613SOL    HW117738   6.733   4.897   5.366
 5613SOL    HW217739   6.875   4.883   5.286
 5614SOL     OW17740   5.786   2.899   5.070
 5614SOL    HW117741   5.809   2.835   5.144
 5614SOL    HW217742   5.869   2.923   5.019
 5615SOL     OW17743   0.293   1.237   3.056
 5615SOL    HW117744   0.199   1.261   3.034
 5615SOL    HW217745   0.294   1.173   3.133
 5616SOL     OW17746   2.249   2.762   5.071
 5616SOL    HW117747   2.305   2.679   5.081
 5616SOL    HW217748   2.308   2.842   5.073
 5617SOL     OW17749   1.702   3.616   4.868
 5617SOL    HW117750   1.751   3.533   4.844
 5617SOL    HW217751   1.768   3.690   4.882
 5618SOL     OW17752   0.058   5.035   3.341
 5618SOL    HW117753   0.145   5.029   3.390
 5618SOL    HW217754   0.007   5.115   3.374
 5619SOL     OW17755   3.557   3.551   3.291
 5619SOL    HW117756   3.656   3.563   3.301
 5619SOL    HW217757   3.530   3.462   3.327
 5620SOL     OW17758   5.104   3.766   6.489
 5620SOL    HW117759   5.177   3.697   6.488
 5620SOL    HW217760   5.097   3.807   6.398
 5621SOL     OW17761   1.278   3.264   6.041
 5621SOL    HW117762   1.287   3.305   6.132
 5621SOL    HW217763   1.354   3.293   5.984
 5622SOL     OW17764   4.787   6.590   5.734
 5622SOL    HW117765   4.869   6.620   5.785
 5622SOL    HW217766   4.726   6.668   5.721
 5623SOL     OW17767   4.712   6.052   5.097
 5623SOL    HW117768   4.760   5.976   5.140
 5623SOL    HW217769   4.777   6.106   5.043
 5624SOL     OW17770   0.715   5.405   3.933
 5624SOL    HW117771   0.776   5.346   3.986
 5624SOL    HW217772   0.737   5.501   3.951
 5625SOL     OW17773   0.173   4.984   5.306
 5625SOL    HW117774   0.184   4.933   5.221
 5625SOL    HW217775   0.219   4.936   5.380
 5626SOL     OW17776   2.615   5.900   4.294
 5626SOL    HW117777   2.542   5.934   4.235
 5626SOL    HW217778   2.601   5.802   4.310
 5627SOL     OW17779   6.861   5.568   5.993
 5627SOL    HW117780   6.772   5.612   5.981
 5627SOL    HW217781   6.910   5.568   5.906
 5628SOL     OW17782   2.579   2.550   1.291
 5628SOL    HW117783   2.639   2.525   1.366
 5628SOL    HW217784   2.531   2.635   1.313
 5629SOL     OW17785   4.948   2.593   1.601
 5629SOL    HW117786   5.006   2.624   1.677
 5629SOL    HW217787   4.943   2.665   1.531
 5630SOL     OW17788   1.649   3.874   6.488
 5630SOL    HW117789   1.703   3.958   6.491
 5630SOL    HW217790   1.679   3.818   6.410
 5631SOL     OW17791   5.524   1.355   1.053
 5631SOL    HW117792   5.480   1.444   1.068
 5631SOL    HW217793   5.576   1.357   0.968
 5632SOL     OW17794   4.734   2.048   5.219
 5632SOL    HW117795   4.733   2.027   5.317
 5632SOL    HW217796   4.787   2.132   5.203
 5633SOL     OW17797   6.398   5.004   4.588
 5633SOL    HW117798   6.333   5.019   4.513
 5633SOL    HW217799   6.438   4.913   4.580
 5634SOL     OW17800   2.182   4.860   3.874
 5634SOL    HW117801   2.263   4.804   3.891
 5634SOL    HW217802   2.196   4.952   3.910
 5635SOL     OW17803   2.342   6.132   6.633
 5635SOL    HW117804   2.284   6.052   6.619
 5635SOL    HW217805   2.317   6.176   6.719
 5636SOL     OW17806   6.010   0.838   5.313
 5636SOL    HW117807   6.103   0.818   5.346
 5636SOL    HW217808   5.944   0.790   5.370
 5637SOL     OW17809   4.297   7.010   3.562
 5637SOL    HW117810   4.294   6.910   3.556
 5637SOL    HW217811   4.218   0.025   3.515
 5638SOL     OW17812   6.431   5.154   1.059
 5638SOL    HW117813   6.461   5.062   1.085
 5638SOL    HW217814   6.454   5.169   0.962
 5639SOL     OW17815   2.401   0.670   1.360
 5639SOL    HW117816   2.420   0.716   1.274
 5639SOL    HW217817   2.371   0.577   1.342
 5640SOL     OW17818   3.063   0.132   2.003
 5640SOL    HW117819   3.005   0.162   1.928
 5640SOL    HW217820   3.080   0.034   1.995
 5641SOL     OW17821   0.241   4.889   5.964
 5641SOL    HW117822   0.271   4.951   5.892
 5641SOL    HW217823   0.161   4.928   6.011
 5642SOL     OW17824   1.031   5.125   5.104
 5642SOL    HW117825   1.029   5.099   5.200
 5642SOL    HW217826   1.096   5.200   5.090
 5643SOL     OW17827   3.688   0.898   4.306
 5643SOL    HW117828   3.752   0.916   4.231
 5643SOL    HW217829   3.705   0.807   4.343
 5644SOL     OW17830   3.720   0.467   3.708
 5644SOL    HW117831   3.692   0.530   3.781
 5644SOL    HW217832   3.738   0.377   3.748
 5645SOL     OW17833   6.268   4.115   3.075
 5645SOL    HW117834   6.257   4.017   3.087
 5645SOL    HW217835   6.251   4.161   3.162
 5646SOL     OW17836   2.152   5.746   3.595
 5646SOL    HW117837   2.113   5.655   3.607
 5646SOL    HW217838   2.166   5.764   3.498
 5647SOL     OW17839   6.294   6.502   0.368
 5647SOL    HW117840   6.393   6.515   0.374
 5647SOL    HW217841   6.250   6.557   0.439
 5648SOL     OW17842   2.153   1.247   2.553
 5648SOL    HW117843   2.216   1.278   2.623
 5648SOL    HW217844   2.059   1.270   2.580
 5649SOL     OW17845   0.306   6.640   5.549
 5649SOL    HW117846   0.298   6.554   5.499
 5649SOL    HW217847   0.336   6.713   5.487
 5650SOL     OW17848   0.494   5.838   0.876
 5650SOL    HW117849   0.469   5.926   0.916
 5650SOL    HW217850   0.515   5.849   0.779
 5651SOL     OW17851   0.497   1.261   1.504
 5651SOL    HW117852   0.464   1.270   1.410
 5651SOL    HW217853   0.568   1.191   1.507
 5652SOL     OW17854   5.847   6.458   2.612
 5652SOL    HW117855   5.749   6.471   2.601
 5652SOL    HW217856   5.887   6.430   2.525
 5653SOL     OW17857   0.212   6.114   6.499
 5653SOL    HW117858   0.258   6.025   6.494
 5653SOL    HW217859   0.257   6.178   6.436
 5654SOL     OW17860   6.346   6.761   5.614
 5654SOL    HW117861   6.421   6.828   5.608
 5654SOL    HW217862   6.268   6.795   5.562
 5655SOL     OW17863   0.989   3.215   4.956
 5655SOL    HW117864   0.996   3.314   4.946
 5655SOL    HW217865   0.963   3.174   4.869
 5656SOL     OW17866   1.124   3.108   0.450
 5656SOL    HW117867   1.095   3.145   0.361
 5656SOL    HW217868   1.140   3.183   0.514
 5657SOL     OW17869   5.747   0.492   0.705
 5657SOL    HW117870   5.687   0.455   0.634
 5657SOL    HW217871   5.753   0.427   0.781
 5658SOL     OW17872   3.226   5.520   5.593
 5658SOL    HW117873   3.202   5.455   5.664
 5658SOL    HW217874   3.206   5.480   5.503
 5659SOL     OW17875   3.935   3.850   3.504
 5659SOL    HW117876   3.986   3.783   3.558
 5659SOL    HW217877   3.906   3.925   3.563
 5660SOL     OW17878   5.473   0.254   5.561
 5660SOL    HW117879   5.406   0.302   5.617
 5660SOL    HW217880   5.459   0.276   5.465
 5661SOL     OW17881   0.586   4.142   5.344
 5661SOL    HW117882   0.605   4.177   5.253
 5661SOL    HW217883   0.648   4.184   5.410
 5662SOL     OW17884   2.693   5.531   3.246
 5662SOL    HW117885   2.599   5.562   3.234
 5662SOL    HW217886   2.695   5.431   3.248
 5663SOL     OW17887   2.357   3.142   6.729
 5663SOL    HW117888   2.392   3.122   6.821
 5663SOL    HW217889   2.270   3.095   6.716
 5664SOL     OW17890   6.709   4.320   4.931
 5664SOL    HW117891   6.772   4.313   4.854
 5664SOL    HW217892   6.760   4.310   5.017
 5665SOL     OW17893   1.418   1.796   6.651
 5665SOL    HW117894   1.358   1.861   6.605
 5665SOL    HW217895   1.500   1.844   6.684
 5666SOL     OW17896   6.202   5.954   1.115
 5666SOL    HW117897   6.269   5.926   1.046
 5666SOL    HW217898   6.112   5.959   1.073
 5667SOL     OW17899   1.441   4.653   3.893
 5667SOL    HW117900   1.435   4.690   3.985
 5667SOL    HW217901   1.374   4.697   3.834
 5668SOL     OW17902   4.840   1.927   4.829
 5668SOL    HW117903   4.812   1.839   4.868
 5668SOL    HW217904   4.861   1.915   4.732
 5669SOL     OW17905   0.968   2.650   6.926
 5669SOL    HW117906   1.001   2.676   7.017
 5669SOL    HW217907   0.979   2.727   6.863
 5670SOL     OW17908   0.162   2.650   3.741
 5670SOL    HW117909   0.228   2.713   3.781
 5670SOL    HW217910   0.196   2.618   3.652
 5671SOL     OW17911   0.733   6.196   6.281
 5671SOL    HW117912   0.635   6.210   6.293
 5671SOL    HW217913   0.763   6.116   6.334
 5672SOL     OW17914   4.060   4.412   6.657
 5672SOL    HW117915   4.083   4.505   6.629
 5672SOL    HW217916   3.983   4.415   6.722
 5673SOL     OW17917   0.800   6.340   1.434
 5673SOL    HW117918   0.807   6.263   1.498
 5673SOL    HW217919   0.729   6.403   1.466
 5674SOL     OW17920   6.552   4.668   4.069
 5674SOL    HW117921   6.471   4.669   4.126
 5674SOL    HW217922   6.602   4.754   4.079
 5675SOL     OW17923   4.805   2.429   5.793
 5675SOL    HW117924   4.788   2.396   5.886
 5675SOL    HW217925   4.822   2.351   5.732
 5676SOL     OW17926   1.871   2.353   2.140
 5676SOL    HW117927   1.915   2.386   2.223
 5676SOL    HW217928   1.777   2.386   2.136
 5677SOL     OW17929   0.715   2.187   3.002
 5677SOL    HW117930   0.709   2.136   2.916
 5677SOL    HW217931   0.675   2.132   3.076
 5678SOL     OW17932   3.470   6.320   2.692
 5678SOL    HW117933   3.451   6.260   2.770
 5678SOL    HW217934   3.384   6.345   2.647
 5679SOL     OW17935   1.249   0.879   3.717
 5679SOL    HW117936   1.280   0.884   3.812
 5679SOL    HW217937   1.159   0.922   3.709
 5680SOL     OW17938   1.338   5.836   0.460
 5680SOL    HW117939   1.377   5.795   0.378
 5680SOL    HW217940   1.387   5.920   0.483
 5681SOL     OW17941   0.336   3.571   6.839
 5681SOL    HW117942   0.338   3.635   6.916
 5681SOL    HW217943   0.335   3.477   6.875
 5682SOL     OW17944   2.342   4.480   5.998
 5682SOL    HW117945   2.246   4.506   6.002
 5682SOL    HW217946   2.399   4.556   6.029
 5683SOL     OW17947   3.442   1.049   0.345
 5683SOL    HW117948   3.381   0.971   0.364
 5683SOL    HW217949   3.521   1.017   0.293
 5684SOL     OW17950   3.288   2.921   4.884
 5684SOL    HW117951   3.370   2.936   4.939
 5684SOL    HW217952   3.312   2.918   4.787
 5685SOL     OW17953   1.846   3.051   2.631
 5685SOL    HW117954   1.905   2.986   2.582
 5685SOL    HW217955   1.826   3.129   2.573
 5686SOL     OW17956   2.691   6.845   6.267
 5686SOL    HW117957   2.640   6.927   6.294
 5686SOL    HW217958   2.631   6.765   6.274
 5687SOL     OW17959   0.971   4.452   5.833
 5687SOL    HW117960   1.029   4.512   5.888
 5687SOL    HW217961   0.987   4.470   5.736
 5688SOL     OW17962   6.813   1.658   0.165
 5688SOL    HW117963   6.904   1.698   0.156
 5688SOL    HW217964   6.782   1.625   0.076
 5689SOL     OW17965   4.167   0.330   0.532
 5689SOL    HW117966   4.155   0.429   0.526
 5689SOL    HW217967   4.178   0.304   0.628
 5690SOL     OW17968   2.436   5.921   0.703
 5690SOL    HW117969   2.340   5.948   0.703
 5690SOL    HW217970   2.462   5.891   0.612
 5691SOL     OW17971   2.818   5.878   1.993
 5691SOL    HW117972   2.883   5.854   2.064
 5691SOL    HW217973   2.757   5.801   1.975
 5692SOL     OW17974   6.870   3.390   6.143
 5692SOL    HW117975   6.906   3.452   6.073
 5692SOL    HW217976   6.945   3.363   6.204
 5693SOL     OW17977   5.874   2.572   2.341
 5693SOL    HW117978   5.776   2.578   2.357
 5693SOL    HW217979   5.891   2.545   2.246
 5694SOL     OW17980   1.196   2.248   3.913
 5694SOL    HW117981   1.106   2.274   3.949
 5694SOL    HW217982   1.265   2.308   3.952
 5695SOL     OW17983   1.495   2.754   3.478
 5695SOL    HW117984   1.571   2.758   3.414
 5695SOL    HW217985   1.497   2.834   3.538
 5696SOL     OW17986   1.699   0.539   3.430
 5696SOL    HW117987   1.640   0.505   3.356
 5696SOL    HW217988   1.681   0.636   3.445
 5697SOL     OW17989   5.961   2.782   1.615
 5697SOL    HW117990   5.959   2.817   1.522
 5697SOL    HW217991   5.947   2.683   1.613
 5698SOL     OW17992   0.789   3.270   2.885
 5698SOL    HW117993   0.803   3.369   2.881
 5698SOL    HW217994   0.692   3.250   2.882
 5699SOL     OW17995   6.372   2.470   2.635
 5699SOL    HW117996   6.320   2.464   2.550
 5699SOL    HW217997   6.460   2.423   2.624
 5700SOL     OW17998   0.066   6.750   4.035
 5700SOL    HW117999   0.087   6.768   4.131
 5700SOL    HW218000   0.122   6.675   4.001
 5701SOL     OW18001   1.433   6.572   3.116
 5701SOL    HW118002   1.479   6.504   3.059
 5701SOL    HW218003   1.417   6.655   3.062
 5702SOL     OW18004   1.920   6.897   5.871
 5702SOL    HW118005   1.956   6.819   5.820
 5702SOL    HW218006   1.963   6.901   5.961
 5703SOL     OW18007   5.799   4.759   1.748
 5703SOL    HW118008   5.892   4.737   1.719
 5703SOL    HW218009   5.769   4.843   1.702
 5704SOL     OW18010   4.227   5.626   2.165
 5704SOL    HW118011   4.149   5.687   2.182
 5704SOL    HW218012   4.260   5.589   2.252
 5705SOL     OW18013   4.884   0.869   1.406
 5705SOL    HW118014   4.804   0.902   1.457
 5705SOL    HW218015   4.966   0.916   1.439
 5706SOL     OW18016   0.585   2.556   0.018
 5706SOL    HW118017   0.654   2.562   0.090
 5706SOL    HW218018   0.564   2.648   7.007
 5707SOL     OW18019   0.001   6.970   0.386
 5707SOL    HW118020   0.101   6.970   0.393
 5707SOL    HW218021   6.985   6.992   0.475
 5708SOL     OW18022   5.382   6.219   1.253
 5708SOL    HW118023   5.421   6.126   1.253
 5708SOL    HW218024   5.283   6.213   1.252
 5709SOL     OW18025   1.787   0.270   3.454
 5709SOL    HW118026   1.713   0.335   3.438
 5709SOL    HW218027   1.857   0.312   3.512
 5710SOL     OW18028   2.400   3.037   6.354
 5710SOL    HW118029   2.314   3.088   6.361
 5710SOL    HW218030   2.465   3.071   6.421
 5711SOL     OW18031   5.020   1.329   2.737
 5711SOL    HW118032   4.933   1.314   2.691
 5711SOL    HW218033   5.090   1.269   2.697
 5712SOL     OW18034   1.027   5.676   5.841
 5712SOL    HW118035   1.052   5.611   5.913
 5712SOL    HW218036   1.086   5.662   5.762
 5713SOL     OW18037   1.971   2.270   1.552
 5713SOL    HW118038   2.042   2.257   1.621
 5713SOL    HW218039   1.893   2.319   1.593
 5714SOL     OW18040   0.651   5.635   6.283
 5714SOL    HW118041   0.739   5.657   6.241
 5714SOL    HW218042   0.644   5.681   6.371
 5715SOL     OW18043   1.193   6.375   2.925
 5715SOL    HW118044   1.266   6.419   2.977
 5715SOL    HW218045   1.232   6.301   2.869
 5716SOL     OW18046   1.507   4.545   0.210
 5716SOL    HW118047   1.495   4.643   0.228
 5716SOL    HW218048   1.550   4.532   0.121
 5717SOL     OW18049   1.824   5.983   0.800
 5717SOL    HW118050   1.858   5.918   0.732
 5717SOL    HW218051   1.834   5.945   0.892
 5718SOL     OW18052   1.148   3.716   6.134
 5718SOL    HW118053   1.180   3.668   6.053
 5718SOL    HW218054   1.081   3.659   6.182
 5719SOL     OW18055   2.472   1.215   6.422
 5719SOL    HW118056   2.521   1.154   6.360
 5719SOL    HW218057   2.524   1.300   6.433
 5720SOL     OW18058   1.209   5.175   4.415
 5720SOL    HW118059   1.269   5.255   4.412
 5720SOL    HW218060   1.256   5.099   4.460
 5721SOL     OW18061   0.410   3.763   0.736
 5721SOL    HW118062   0.445   3.670   0.747
 5721SOL    HW218063   0.402   3.807   0.825
 5722SOL     OW18064   6.471   1.609   5.426
 5722SOL    HW118065   6.528   1.631   5.347
 5722SOL    HW218066   6.375   1.620   5.402
 5723SOL     OW18067   4.648   3.413   6.653
 5723SOL    HW118068   4.627   3.507   6.680
 5723SOL    HW218069   4.613   3.350   6.722
 5724SOL     OW18070   4.266   2.755   5.372
 5724SOL    HW118071   4.264   2.724   5.467
 5724SOL    HW218072   4.234   2.681   5.312
 5725SOL     OW18073   6.245   5.898   4.040
 5725SOL    HW118074   6.148   5.913   4.057
 5725SOL    HW218075   6.297   5.919   4.123
 5726SOL     OW18076   6.638   4.127   4.375
 5726SOL    HW118077   6.551   4.141   4.423
 5726SOL    HW218078   6.649   4.196   4.304
 5727SOL     OW18079   0.971   2.666   3.741
 5727SOL    HW118080   0.961   2.637   3.646
 5727SOL    HW218081   1.048   2.617   3.782
 5728SOL     OW18082   4.128   1.724   6.822
 5728SOL    HW118083   4.040   1.677   6.829
 5728SOL    HW218084   4.122   1.812   6.868
 5729SOL     OW18085   1.032   1.422   0.572
 5729SOL    HW118086   1.110   1.433   0.634
 5729SOL    HW218087   1.031   1.497   0.506
 5730SOL     OW18088   4.394   5.323   5.516
 5730SOL    HW118089   4.379   5.421   5.529
 5730SOL    HW218090   4.492   5.305   5.506
 5731SOL     OW18091   1.698   6.483   3.884
 5731SOL    HW118092   1.642   6.549   3.935
 5731SOL    HW218093   1.672   6.487   3.787
 5732SOL     OW18094   6.991   5.095   5.432
 5732SOL    HW118095   0.045   5.065   5.375
 5732SOL    HW218096   6.906   5.060   5.394
 5733SOL     OW18097   3.929   0.379   5.671
 5733SOL    HW118098   3.962   0.393   5.578
 5733SOL    HW218099   3.885   0.462   5.704
 5734SOL     OW18100   1.505   5.835   5.754
 5734SOL    HW118101   1.529   5.860   5.848
 5734SOL    HW218102   1.409   5.857   5.737
 5735SOL     OW18103   3.888   1.673   2.616
 5735SOL    HW118104   3.827   1.623   2.554
 5735SOL    HW218105   3.882   1.771   2.598
 5736SOL     OW18106   6.624   4.464   1.187
 5736SOL    HW118107   6.540   4.510   1.159
 5736SOL    HW218108   6.657   4.504   1.273
 5737SOL     OW18109   4.644   5.485   6.718
 5737SOL    HW118110   4.643   5.423   6.639
 5737SOL    HW218111   4.552   5.521   6.732
 5738SOL     OW18112   3.120   2.193   6.410
 5738SOL    HW118113   3.218   2.204   6.422
 5738SOL    HW218114   3.090   2.245   6.330
 5739SOL     OW18115   0.906   6.858   5.386
 5739SOL    HW118116   0.976   6.872   5.456
 5739SOL    HW218117   0.895   6.941   5.332
 5740SOL     OW18118   3.876   3.602   0.880
 5740SOL    HW118119   3.932   3.646   0.811
 5740SOL    HW218120   3.795   3.562   0.837
 5741SOL     OW18121   6.318   3.990   4.769
 5741SOL    HW118122   6.407   3.986   4.724
 5741SOL    HW218123   6.331   4.012   4.866
 5742SOL     OW18124   4.662   6.766   2.469
 5742SOL    HW118125   4.603   6.769   2.550
 5742SOL    HW218126   4.607   6.784   2.387
 5743SOL     OW18127   2.429   5.466   5.525
 5743SOL    HW118128   2.462   5.379   5.489
 5743SOL    HW218129   2.493   5.539   5.502
 5744SOL     OW18130   4.704   1.353   0.802
 5744SOL    HW118131   4.755   1.283   0.752
 5744SOL    HW218132   4.761   1.435   0.810
 5745SOL     OW18133   2.117   1.407   3.872
 5745SOL    HW118134   2.149   1.402   3.966
 5745SOL    HW218135   2.018   1.418   3.871
 5746SOL     OW18136   5.094   6.866   1.695
 5746SOL    HW118137   5.026   6.848   1.624
 5746SOL    HW218138   5.152   6.943   1.667
 5747SOL     OW18139   0.728   4.926   2.162
 5747SOL    HW118140   0.641   4.952   2.122
 5747SOL    HW218141   0.799   4.927   2.092
 5748SOL     OW18142   1.213   0.238   0.998
 5748SOL    HW118143   1.174   0.284   1.078
 5748SOL    HW218144   1.145   0.238   0.924
 5749SOL     OW18145   1.187   6.216   4.752
 5749SOL    HW118146   1.246   6.148   4.709
 5749SOL    HW218147   1.097   6.216   4.707
 5750SOL     OW18148   6.563   6.351   5.005
 5750SOL    HW118149   6.602   6.261   5.025
 5750SOL    HW218150   6.466   6.342   4.986
 5751SOL     OW18151   2.213   3.106   4.854
 5751SOL    HW118152   2.271   3.071   4.927
 5751SOL    HW218153   2.241   3.066   4.767
 5752SOL     OW18154   6.356   0.219   0.632
 5752SOL    HW118155   6.425   0.189   0.698
 5752SOL    HW218156   6.398   0.282   0.566
 5753SOL     OW18157   3.897   3.463   4.432
 5753SOL    HW118158   3.934   3.394   4.370
 5753SOL    HW218159   3.902   3.553   4.388
 5754SOL     OW18160   0.227   5.278   1.580
 5754SOL    HW118161   0.240   5.354   1.644
 5754SOL    HW218162   0.172   5.309   1.502
 5755SOL     OW18163   2.550   2.412   6.692
 5755SOL    HW118164   2.638   2.366   6.698
 5755SOL    HW218165   2.491   2.363   6.628
 5756SOL     OW18166   6.315   0.428   3.477
 5756SOL    HW118167   6.244   0.487   3.439
 5756SOL    HW218168   6.276   0.338   3.495
 5757SOL     OW18169   0.380   6.243   3.226
 5757SOL    HW118170   0.332   6.164   3.188
 5757SOL    HW218171   0.317   6.320   3.233
 5758SOL     OW18172   2.512   0.991   4.821
 5758SOL    HW118173   2.577   1.057   4.859
 5758SOL    HW218174   2.563   0.912   4.785
 5759SOL     OW18175   4.873   0.958   6.715
 5759SOL    HW118176   4.972   0.946   6.724
 5759SOL    HW218177   4.855   1.035   6.653
 5760SOL     OW18178   6.614   3.278   0.896
 5760SOL    HW118179   6.651   3.345   0.832
 5760SOL    HW218180   6.632   3.186   0.862
 5761SOL     OW18181   6.013   5.604   6.462
 5761SOL    HW118182   6.072   5.602   6.382
 5761SOL    HW218183   5.985   5.511   6.485
 5762SOL     OW18184   5.185   4.143   0.647
 5762SOL    HW118185   5.239   4.214   0.600
 5762SOL    HW218186   5.198   4.056   0.601
 5763SOL     OW18187   6.325   6.424   0.678
 5763SOL    HW118188   6.305   6.519   0.656
 5763SOL    HW218189   6.347   6.415   0.775
 5764SOL     OW18190   5.226   5.041   5.462
 5764SOL    HW118191   5.319   5.012   5.441
 5764SOL    HW218192   5.228   5.107   5.538
 5765SOL     OW18193   6.330   2.639   0.372
 5765SOL    HW118194   6.331   2.540   0.364
 5765SOL    HW218195   6.257   2.667   0.435
 5766SOL     OW18196   1.849   1.524   6.610
 5766SOL    HW118197   1.758   1.559   6.632
 5766SOL    HW218198   1.888   1.577   6.535
 5767SOL     OW18199   1.255   0.943   0.690
 5767SOL    HW118200   1.348   0.947   0.654
 5767SOL    HW218201   1.248   0.999   0.772
 5768SOL     OW18202   1.342   6.059   3.997
 5768SOL    HW118203   1.244   6.078   3.995
 5768SOL    HW218204   1.391   6.143   4.021
 5769SOL     OW18205   2.780   6.244   4.827
 5769SOL    HW118206   2.693   6.217   4.868
 5769SOL    HW218207   2.830   6.161   4.800
 5770SOL     OW18208   6.428   6.040   0.063
 5770SOL    HW118209   6.377   6.111   0.111
 5770SOL    HW218210   6.428   6.060   6.987
 5771SOL     OW18211   1.465   0.289   4.219
 5771SOL    HW118212   1.373   0.259   4.193
 5771SOL    HW218213   1.533   0.230   4.175
 5772SOL     OW18214   5.332   1.901   1.489
 5772SOL    HW118215   5.420   1.857   1.471
 5772SOL    HW218216   5.281   1.910   1.403
 5773SOL     OW18217   4.139   0.550   2.857
 5773SOL    HW118218   4.084   0.493   2.919
 5773SOL    HW218219   4.149   0.641   2.897
 5774SOL     OW18220   2.620   6.192   3.482
 5774SOL    HW118221   2.693   6.254   3.453
 5774SOL    HW218222   2.531   6.232   3.458
 5775SOL     OW18223   1.732   0.486   2.356
 5775SOL    HW118224   1.774   0.531   2.435
 5775SOL    HW218225   1.658   0.427   2.387
 5776SOL     OW18226   7.019   0.710   4.425
 5776SOL    HW118227   6.963   0.783   4.464
 5776SOL    HW218228   0.009   0.726   4.327
 5777SOL     OW18229   6.649   0.206   4.944
 5777SOL    HW118230   6.649   0.191   5.043
 5777SOL    HW218231   6.709   0.283   4.923
 5778SOL     OW18232   1.731   0.975   1.626
 5778SOL    HW118233   1.752   0.914   1.703
 5778SOL    HW218234   1.795   0.956   1.551
 5779SOL     OW18235   4.427   3.237   0.940
 5779SOL    HW118236   4.347   3.195   0.898
 5779SOL    HW218237   4.455   3.185   1.021
 5780SOL     OW18238   6.151   5.850   3.769
 5780SOL    HW118239   6.053   5.834   3.760
 5780SOL    HW218240   6.172   5.882   3.861
 5781SOL     OW18241   6.800   4.383   4.636
 5781SOL    HW118242   6.715   4.343   4.603
 5781SOL    HW218243   6.785   4.479   4.660
 5782SOL     OW18244   1.070   1.648   0.372
 5782SOL    HW118245   1.143   1.657   0.305
 5782SOL    HW218246   1.055   1.737   0.416
 5783SOL     OW18247   2.438   0.555   1.673
 5783SOL    HW118248   2.352   0.589   1.711
 5783SOL    HW218249   2.488   0.630   1.631
 5784SOL     OW18250   6.781   5.755   0.009
 5784SOL    HW118251   6.716   5.771   6.958
 5784SOL    HW218252   6.731   5.744   0.095
 5785SOL     OW18253   1.890   1.853   0.782
 5785SOL    HW118254   1.984   1.873   0.755
 5785SOL    HW218255   1.827   1.891   0.714
 5786SOL     OW18256   0.603   3.534   0.526
 5786SOL    HW118257   0.658   3.613   0.553
 5786SOL    HW218258   0.663   3.462   0.489
 5787SOL     OW18259   3.918   1.368   5.057
 5787SOL    HW118260   3.956   1.358   5.148
 5787SOL    HW218261   3.830   1.416   5.063
 5788SOL     OW18262   2.955   1.831   1.554
 5788SOL    HW118263   3.035   1.780   1.525
 5788SOL    HW218264   2.970   1.929   1.537
 5789SOL     OW18265   2.793   4.271   0.210
 5789SOL    HW118266   2.884   4.286   0.248
 5789SOL    HW218267   2.789   4.182   0.165
 5790SOL     OW18268   0.411   4.466   4.985
 5790SOL    HW118269   0.451   4.557   5.001
 5790SOL    HW218270   0.326   4.476   4.933
 5791SOL     OW18271   3.081   1.518   2.582
 5791SOL    HW118272   3.133   1.579   2.642
 5791SOL    HW218273   2.986   1.548   2.578
 5792SOL     OW18274   5.963   3.000   2.569
 5792SOL    HW118275   5.964   3.088   2.522
 5792SOL    HW218276   6.001   2.930   2.509
 5793SOL     OW18277   5.303   0.783   3.635
 5793SOL    HW118278   5.241   0.848   3.680
 5793SOL    HW218279   5.254   0.735   3.563
 5794SOL     OW18280   1.940   0.924   0.272
 5794SOL    HW118281   1.938   0.874   0.358
 5794SOL    HW218282   1.887   0.874   0.203
 5795SOL     OW18283   6.605   0.063   6.585
 5795SOL    HW118284   6.529   0.077   6.521
 5795SOL    HW218285   6.571   0.068   6.679
 5796SOL     OW18286   4.901   1.273   6.100
 5796SOL    HW118287   4.927   1.180   6.125
 5796SOL    HW218288   4.820   1.271   6.042
 5797SOL     OW18289   4.607   2.387   0.127
 5797SOL    HW118290   4.617   2.407   0.224
 5797SOL    HW218291   4.580   2.291   0.115
 5798SOL     OW18292   0.644   5.558   4.337
 5798SOL    HW118293   0.660   5.514   4.425
 5798SOL    HW218294   0.550   5.539   4.307
 5799SOL     OW18295   0.646   0.885   3.400
 5799SOL    HW118296   0.666   0.979   3.426
 5799SOL    HW218297   0.547   0.873   3.392
 5800SOL     OW18298   6.325   6.404   1.807
 5800SOL    HW118299   6.367   6.323   1.849
 5800SOL    HW218300   6.226   6.400   1.820
 5801SOL     OW18301   1.648   2.881   3.271
 5801SOL    HW118302   1.666   2.787   3.243
 5801SOL    HW218303   1.727   2.938   3.247
 5802SOL     OW18304   0.309   3.550   2.620
 5802SOL    HW118305   0.232   3.613   2.617
 5802SOL    HW218306   0.389   3.591   2.575
 5803SOL     OW18307   2.097   5.160   1.601
 5803SOL    HW118308   2.089   5.063   1.579
 5803SOL    HW218309   2.100   5.213   1.516
 5804SOL     OW18310   0.326   5.017   3.408
 5804SOL    HW118311   0.336   4.937   3.349
 5804SOL    HW218312   0.328   4.989   3.504
 5805SOL     OW18313   2.225   3.264   0.492
 5805SOL    HW118314   2.184   3.345   0.533
 5805SOL    HW218315   2.285   3.291   0.416
 5806SOL     OW18316   6.810   5.110   4.853
 5806SOL    HW118317   6.742   5.177   4.882
 5806SOL    HW218318   6.855   5.142   4.770
 5807SOL     OW18319   0.901   3.989   0.575
 5807SOL    HW118320   0.930   4.000   0.480
 5807SOL    HW218321   0.862   4.075   0.608
 5808SOL     OW18322   6.190   5.160   4.072
 5808SOL    HW118323   6.117   5.179   4.138
 5808SOL    HW218324   6.195   5.233   4.005
 5809SOL     OW18325   6.800   2.417   4.878
 5809SOL    HW118326   6.822   2.382   4.969
 5809SOL    HW218327   6.703   2.405   4.860
 5810SOL     OW18328   4.389   1.628   5.233
 5810SOL    HW118329   4.487   1.635   5.252
 5810SOL    HW218330   4.365   1.533   5.215
 5811SOL     OW18331   3.398   0.524   5.042
 5811SOL    HW118332   3.476   0.501   4.984
 5811SOL    HW218333   3.401   0.622   5.064
 5812SOL     OW18334   6.061   2.904   5.028
 5812SOL    HW118335   6.025   2.972   4.964
 5812SOL    HW218336   6.160   2.893   5.013
 5813SOL     OW18337   1.641   1.546   1.602
 5813SOL    HW118338   1.710   1.606   1.642
 5813SOL    HW218339   1.629   1.569   1.505
 5814SOL     OW18340   5.971   4.127   2.372
 5814SOL    HW118341   5.974   4.191   2.449
 5814SOL    HW218342   6.060   4.124   2.327
 5815SOL     OW18343   4.208   1.387   4.474
 5815SOL    HW118344   4.184   1.483   4.490
 5815SOL    HW218345   4.188   1.363   4.379
 5816SOL     OW18346   4.983   4.458   0.735
 5816SOL    HW118347   5.062   4.450   0.674
 5816SOL    HW218348   4.904   4.415   0.691
 5817SOL     OW18349   5.846   4.379   5.749
 5817SOL    HW118350   5.917   4.441   5.715
 5817SOL    HW218351   5.886   4.313   5.811
 5818SOL     OW18352   6.710   5.578   5.302
 5818SOL    HW118353   6.715   5.676   5.283
 5818SOL    HW218354   6.802   5.543   5.316
 5819SOL     OW18355   3.697   0.074   6.687
 5819SOL    HW118356   3.731   0.122   6.768
 5819SOL    HW218357   3.603   0.045   6.702
 5820SOL     OW18358   4.753   4.585   3.447
 5820SOL    HW118359   4.673   4.536   3.412
 5820SOL    HW218360   4.723   4.656   3.510
 5821SOL     OW18361   0.188   0.130   2.090
 5821SOL    HW118362   0.247   0.208   2.068
 5821SOL    HW218363   0.096   0.163   2.114
 5822SOL     OW18364   1.194   2.471   1.507
 5822SOL    HW118365   1.149   2.388   1.540
 5822SOL    HW218366   1.167   2.549   1.564
 5823SOL     OW18367   2.924   0.319   4.843
 5823SOL    HW118368   2.887   0.402   4.884
 5823SOL    HW218369   2.857   0.246   4.849
 5824SOL     OW18370   6.863   5.573   2.434
 5824SOL    HW118371   6.952   5.546   2.471
 5824SOL    HW218372   6.792   5.515   2.474
 5825SOL     OW18373   6.888   0.889   5.006
 5825SOL    HW118374   6.890   0.944   5.089
 5825SOL    HW218375   6.981   0.860   4.983
 5826SOL     OW18376   0.320   5.082   5.790
 5826SOL    HW118377   0.255   5.154   5.763
 5826SOL    HW218378   0.375   5.115   5.867
 5827SOL     OW18379   2.018   4.260   4.891
 5827SOL    HW118380   2.002   4.192   4.819
 5827SOL    HW218381   1.939   4.262   4.952
 5828SOL     OW18382   5.973   1.836   1.535
 5828SOL    HW118383   6.063   1.796   1.516
 5828SOL    HW218384   5.983   1.935   1.544
 5829SOL     OW18385   1.081   0.588   3.659
 5829SOL    HW118386   1.045   0.575   3.752
 5829SOL    HW218387   1.165   0.642   3.664
 5830SOL     OW18388   4.875   6.309   6.092
 5830SOL    HW118389   4.881   6.256   6.008
 5830SOL    HW218390   4.783   6.347   6.101
 5831SOL     OW18391   1.374   1.249   5.379
 5831SOL    HW118392   1.451   1.187   5.387
 5831SOL    HW218393   1.295   1.211   5.426
 5832SOL     OW18394   3.001   4.773   6.858
 5832SOL    HW118395   2.907   4.767   6.825
 5832SOL    HW218396   3.058   4.817   6.789
 5833SOL     OW18397   3.604   4.164   4.898
 5833SOL    HW118398   3.576   4.249   4.943
 5833SOL    HW218399   3.543   4.146   4.821
 5834SOL     OW18400   0.170   2.557   0.240
 5834SOL    HW118401   0.202   2.619   0.169
 5834SOL    HW218402   0.181   2.463   0.210
 5835SOL     OW18403   5.556   3.271   3.257
 5835SOL    HW118404   5.635   3.212   3.274
 5835SOL    HW218405   5.484   3.250   3.323
 5836SOL     OW18406   2.672   6.983   1.821
 5836SOL    HW118407   2.652   6.972   1.723
 5836SOL    HW218408   2.659   6.896   1.868
 5837SOL     OW18409   3.495   3.985   6.982
 5837SOL    HW118410   3.403   4.011   7.010
 5837SOL    HW218411   3.533   4.055   6.923
 5838SOL     OW18412   2.521   1.912   0.648
 5838SOL    HW118413   2.451   1.980   0.672
 5838SOL    HW218414   2.612   1.951   0.664
 5839SOL     OW18415   0.833   1.724   2.322
 5839SOL    HW118416   0.743   1.702   2.360
 5839SOL    HW218417   0.831   1.817   2.284
 5840SOL     OW18418   0.862   4.725   6.854
 5840SOL    HW118419   0.777   4.709   6.802
 5840SOL    HW218420   0.905   4.637   6.875
 5841SOL     OW18421   5.099   1.800   2.183
 5841SOL    HW118422   5.125   1.857   2.261
 5841SOL    HW218423   5.108   1.853   2.098
 5842SOL     OW18424   5.146   3.427   1.440
 5842SOL    HW118425   5.078   3.353   1.442
 5842SOL    HW218426   5.157   3.459   1.346
 5843SOL     OW18427   1.299   3.851   2.802
 5843SOL    HW118428   1.273   3.923   2.738
 5843SOL    HW218429   1.375   3.798   2.764
 5844SOL     OW18430   1.920   6.146   5.834
 5844SOL    HW118431   1.902   6.199   5.752
 5844SOL    HW218432   1.884   6.195   5.914
 5845SOL     OW18433   0.380   0.204   2.446
 5845SOL    HW118434   0.395   0.107   2.463
 5845SOL    HW218435   0.400   0.256   2.529
 5846SOL     OW18436   5.736   3.171   5.523
 5846SOL    HW118437   5.705   3.091   5.472
 5846SOL    HW218438   5.779   3.235   5.459
 5847SOL     OW18439   3.115   2.178   1.835
 5847SOL    HW118440   3.214   2.193   1.832
 5847SOL    HW218441   3.070   2.258   1.875
 5848SOL     OW18442   1.207   5.256   2.634
 5848SOL    HW118443   1.273   5.186   2.606
 5848SOL    HW218444   1.256   5.338   2.662
 5849SOL     OW18445   1.044   0.652   5.738
 5849SOL    HW118446   1.058   0.751   5.736
 5849SOL    HW218447   0.969   0.628   5.676
 5850SOL     OW18448   6.602   3.953   1.890
 5850SOL    HW118449   6.691   3.911   1.910
 5850SOL    HW218450   6.531   3.906   1.942
 5851SOL     OW18451   5.172   3.347   3.066
 5851SOL    HW118452   5.259   3.299   3.053
 5851SOL    HW218453   5.132   3.368   2.977
 5852SOL     OW18454   5.484   6.550   3.463
 5852SOL    HW118455   5.515   6.488   3.392
 5852SOL    HW218456   5.478   6.643   3.427
 5853SOL     OW18457   3.319   5.669   4.430
 5853SOL    HW118458   3.400   5.672   4.489
 5853SOL    HW218459   3.315   5.580   4.385
 5854SOL     OW18460   4.325   4.104   6.211
 5854SOL    HW118461   4.246   4.106   6.273
 5854SOL    HW218462   4.379   4.187   6.224
 5855SOL     OW18463   0.701   1.416   4.874
 5855SOL    HW118464   0.739   1.370   4.794
 5855SOL    HW218465   0.712   1.515   4.865
 5856SOL     OW18466   1.785   5.816   3.974
 5856SOL    HW118467   1.742   5.741   4.024
 5856SOL    HW218468   1.723   5.895   3.972
 5857SOL     OW18469   6.044   2.596   6.096
 5857SOL    HW118470   6.036   2.535   6.017
 5857SOL    HW218471   5.965   2.583   6.156
 5858SOL     OW18472   2.674   2.157   3.168
 5858SOL    HW118473   2.601   2.223   3.183
 5858SOL    HW218474   2.635   2.065   3.166
 5859SOL     OW18475   6.066   6.398   1.923
 5859SOL    HW118476   6.038   6.400   2.019
 5859SOL    HW218477   5.995   6.439   1.866
 5860SOL     OW18478   0.563   3.451   2.044
 5860SOL    HW118479   0.527   3.450   2.137
 5860SOL    HW218480   0.489   3.439   1.979
 5861SOL     OW18481   4.662   1.523   4.320
 5861SOL    HW118482   4.639   1.547   4.226
 5861SOL    HW218483   4.749   1.474   4.322
 5862SOL     OW18484   6.340   5.572   0.981
 5862SOL    HW118485   6.413   5.640   0.976
 5862SOL    HW218486   6.360   5.507   1.055
 5863SOL     OW18487   3.248   2.015   5.131
 5863SOL    HW118488   3.308   2.067   5.191
 5863SOL    HW218489   3.198   2.078   5.071
 5864SOL     OW18490   4.009   3.875   2.328
 5864SOL    HW118491   3.954   3.939   2.380
 5864SOL    HW218492   4.057   3.813   2.390
 5865SOL     OW18493   6.003   6.952   5.031
 5865SOL    HW118494   5.947   6.901   5.097
 5865SOL    HW218495   5.994   0.027   5.048
 5866SOL     OW18496   4.040   4.516   0.564
 5866SOL    HW118497   4.057   4.457   0.643
 5866SOL    HW218498   4.011   4.460   0.486
 5867SOL     OW18499   2.352   3.080   1.239
 5867SOL    HW118500   2.369   3.140   1.161
 5867SOL    HW218501   2.424   3.010   1.243
 5868SOL     OW18502   0.821   1.493   5.379
 5868SOL    HW118503   0.906   1.443   5.395
 5868SOL    HW218504   0.774   1.509   5.466
 5869SOL     OW18505   1.814   6.421   3.531
 5869SOL    HW118506   1.737   6.387   3.584
 5869SOL    HW218507   1.782   6.453   3.442
 5870SOL     OW18508   4.394   6.440   4.679
 5870SOL    HW118509   4.400   6.343   4.656
 5870SOL    HW218510   4.330   6.452   4.755
 5871SOL     OW18511   3.414   3.328   1.351
 5871SOL    HW118512   3.371   3.240   1.370
 5871SOL    HW218513   3.463   3.359   1.433
 5872SOL     OW18514   4.423   5.727   1.272
 5872SOL    HW118515   4.504   5.726   1.213
 5872SOL    HW218516   4.352   5.783   1.229
 5873SOL     OW18517   3.449   1.637   1.943
 5873SOL    HW118518   3.517   1.698   1.984
 5873SOL    HW218519   3.433   1.664   1.848
 5874SOL     OW18520   3.424   4.412   6.346
 5874SOL    HW118521   3.330   4.445   6.347
 5874SOL    HW218522   3.456   4.406   6.251
 5875SOL     OW18523   4.425   1.176   6.975
 5875SOL    HW118524   4.429   1.076   6.966
 5875SOL    HW218525   4.373   1.214   6.899
 5876SOL     OW18526   3.798   3.068   0.523
 5876SOL    HW118527   3.847   3.154   0.534
 5876SOL    HW218528   3.811   3.035   0.429
 5877SOL     OW18529   0.557   0.510   1.354
 5877SOL    HW118530   0.506   0.526   1.270
 5877SOL    HW218531   0.493   0.505   1.431
 5878SOL     OW18532   6.012   5.336   3.863
 5878SOL    HW118533   6.054   5.421   3.895
 5878SOL    HW218534   5.950   5.301   3.933
 5879SOL     OW18535   1.612   4.145   6.930
 5879SOL    HW118536   1.566   4.061   6.957
 5879SOL    HW218537   1.549   4.203   6.878
 5880SOL     OW18538   4.667   4.573   6.172
 5880SOL    HW118539   4.646   4.497   6.235
 5880SOL    HW218540   4.588   4.589   6.113
 5881SOL     OW18541   0.662   0.093   2.331
 5881SOL    HW118542   0.598   0.067   2.258
 5881SOL    HW218543   0.659   0.025   2.404
 5882SOL     OW18544   0.355   5.870   0.392
 5882SOL    HW118545   0.351   5.814   0.309
 5882SOL    HW218546   0.310   5.958   0.375
 5883SOL     OW18547   0.620   1.517   6.422
 5883SOL    HW118548   0.617   1.576   6.341
 5883SOL    HW218549   0.714   1.490   6.440
 5884SOL     OW18550   4.490   1.331   4.456
 5884SOL    HW118551   4.555   1.393   4.412
 5884SOL    HW218552   4.400   1.343   4.416
 5885SOL     OW18553   0.489   6.517   2.081
 5885SOL    HW118554   0.533   6.495   1.994
 5885SOL    HW218555   0.532   6.465   2.155
 5886SOL     OW18556   0.218   2.218   3.912
 5886SOL    HW118557   0.127   2.176   3.911
 5886SOL    HW218558   0.265   2.193   3.996
 5887SOL     OW18559   2.743   2.123   1.965
 5887SOL    HW118560   2.773   2.206   2.011
 5887SOL    HW218561   2.822   2.080   1.921
 5888SOL     OW18562   2.248   0.937   1.126
 5888SOL    HW118563   2.342   0.906   1.106
 5888SOL    HW218564   2.218   0.896   1.212
 5889SOL     OW18565   0.353   0.477   0.393
 5889SOL    HW118566   0.371   0.382   0.368
 5889SOL    HW218567   0.284   0.479   0.466
 5890SOL     OW18568   2.488   1.124   3.097
 5890SOL    HW118569   2.420   1.092   3.162
 5890SOL    HW218570   2.494   1.224   3.101
 5891SOL     OW18571   3.131   3.236   6.768
 5891SOL    HW118572   3.207   3.256   6.830
 5891SOL    HW218573   3.107   3.139   6.774
 5892SOL     OW18574   0.938   5.003   2.652
 5892SOL    HW118575   0.854   4.955   2.675
 5892SOL    HW218576   1.014   4.939   2.649
 5893SOL     OW18577   2.003   4.143   3.764
 5893SOL    HW118578   2.044   4.181   3.846
 5893SOL    HW218579   2.061   4.070   3.728
 5894SOL     OW18580   0.044   5.894   4.177
 5894SOL    HW118581   7.009   5.852   4.107
 5894SOL    HW218582   0.075   5.824   4.241
 5895SOL     OW18583   5.218   2.965   3.963
 5895SOL    HW118584   5.139   2.905   3.958
 5895SOL    HW218585   5.302   2.910   3.957
 5896SOL     OW18586   3.265   0.763   1.257
 5896SOL    HW118587   3.352   0.713   1.260
 5896SOL    HW218588   3.219   0.754   1.346
 5897SOL     OW18589   4.376   6.728   1.560
 5897SOL    HW118590   4.473   6.726   1.585
 5897SOL    HW218591   4.367   6.748   1.463
 5898SOL     OW18592   2.830   0.204   4.160
 5898SOL    HW118593   2.778   0.118   4.158
 5898SOL    HW218594   2.871   0.220   4.071
 5899SOL     OW18595   6.392   5.209   0.034
 5899SOL    HW118596   6.469   5.216   0.097
 5899SOL    HW218597   6.319   5.270   0.063
 5900SOL     OW18598   6.332   5.155   3.497
 5900SOL    HW118599   6.302   5.185   3.406
 5900SOL    HW218600   6.342   5.235   3.556
 5901SOL     OW18601   2.179   1.135   0.499
 5901SOL    HW118602   2.192   1.062   0.565
 5901SOL    HW218603   2.235   1.214   0.525
 5902SOL     OW18604   5.651   2.222   5.059
 5902SOL    HW118605   5.663   2.133   5.103
 5902SOL    HW218606   5.594   2.212   4.978
 5903SOL     OW18607   4.831   3.716   6.911
 5903SOL    HW118608   4.903   3.730   6.979
 5903SOL    HW218609   4.769   3.645   6.943
 5904SOL     OW18610   1.418   4.485   1.036
 5904SOL    HW118611   1.378   4.516   1.123
 5904SOL    HW218612   1.443   4.564   0.981
 5905SOL     OW18613   6.127   7.010   3.879
 5905SOL    HW118614   6.146   6.938   3.946
 5905SOL    HW218615   6.193   7.005   3.804
 5906SOL     OW18616   3.763   1.805   3.486
 5906SOL    HW118617   3.728   1.880   3.430
 5906SOL    HW218618   3.699   1.728   3.484
 5907SOL     OW18619   0.963   5.493   0.051
 5907SOL    HW118620   0.953   5.409   0.103
 5907SOL    HW218621   1.032   5.480   7.002
 5908SOL     OW18622   0.233   3.002   0.176
 5908SOL    HW118623   0.173   3.072   0.214
 5908SOL    HW218624   0.300   2.974   0.245
 5909SOL     OW18625   6.758   4.932   0.415
 5909SOL    HW118626   6.785   5.028   0.412
 5909SOL    HW218627   6.840   4.875   0.419
 5910SOL     OW18628   0.849   4.228   3.415
 5910SOL    HW118629   0.911   4.231   3.494
 5910SOL    HW218630   0.759   4.262   3.441
 5911SOL     OW18631   6.761   5.220   6.357
 5911SOL    HW118632   6.794   5.166   6.434
 5911SOL    HW218633   6.805   5.188   6.273
 5912SOL     OW18634   6.008   2.397   6.720
 5912SOL    HW118635   5.992   2.421   6.625
 5912SOL    HW218636   6.050   2.475   6.767
 5913SOL     OW18637   5.175   3.085   6.248
 5913SOL    HW118638   5.239   3.074   6.172
 5913SOL    HW218639   5.222   3.127   6.326
 5914SOL     OW18640   1.699   4.929   6.775
 5914SOL    HW118641   1.615   4.970   6.811
 5914SOL    HW218642   1.699   4.936   6.675
 5915SOL     OW18643   5.136   5.422   1.265
 5915SOL    HW118644   5.173   5.514   1.260
 5915SOL    HW218645   5.051   5.418   1.212
 5916SOL     OW18646   4.203   5.736   4.485
 5916SOL    HW118647   4.253   5.663   4.439
 5916SOL    HW218648   4.243   5.752   4.575
 5917SOL     OW18649   3.174   3.583   4.190
 5917SOL    HW118650   3.268   3.548   4.196
 5917SOL    HW218651   3.116   3.512   4.150
 5918SOL     OW18652   1.744   3.724   5.930
 5918SOL    HW118653   1.645   3.715   5.919
 5918SOL    HW218654   1.776   3.808   5.886
 5919SOL     OW18655   3.872   3.345   1.971
 5919SOL    HW118656   3.907   3.256   1.941
 5919SOL    HW218657   3.775   3.336   1.994
 5920SOL     OW18658   4.265   0.668   6.868
 5920SOL    HW118659   4.251   0.698   6.774
 5920SOL    HW218660   4.209   0.723   6.930
 5921SOL     OW18661   3.606   5.398   6.005
 5921SOL    HW118662   3.642   5.486   6.036
 5921SOL    HW218663   3.622   5.329   6.075
 5922SOL     OW18664   6.527   5.322   2.662
 5922SOL    HW118665   6.499   5.416   2.645
 5922SOL    HW218666   6.627   5.316   2.659
 5923SOL     OW18667   5.589   1.198   1.559
 5923SOL    HW118668   5.543   1.167   1.642
 5923SOL    HW218669   5.521   1.236   1.496
 5924SOL     OW18670   6.998   1.202   3.580
 5924SOL    HW118671   6.961   1.127   3.525
 5924SOL    HW218672   0.074   1.208   3.568
 5925SOL     OW18673   3.946   5.347   1.593
 5925SOL    HW118674   3.887   5.381   1.519
 5925SOL    HW218675   3.932   5.249   1.604
 5926SOL     OW18676   4.196   5.552   1.248
 5926SOL    HW118677   4.115   5.604   1.276
 5926SOL    HW218678   4.276   5.612   1.249
 5927SOL     OW18679   1.302   4.115   2.657
 5927SOL    HW118680   1.220   4.140   2.710
 5927SOL    HW218681   1.359   4.196   2.645
 5928SOL     OW18682   3.147   0.279   0.894
 5928SOL    HW118683   3.052   0.248   0.894
 5928SOL    HW218684   3.167   0.326   0.807
 5929SOL     OW18685   0.568   6.825   6.686
 5929SOL    HW118686   0.626   6.748   6.662
 5929SOL    HW218687   0.568   6.837   6.785
 5930SOL     OW18688   6.504   3.167   3.368
 5930SOL    HW118689   6.421   3.201   3.323
 5930SOL    HW218690   6.507   3.201   3.462
 5931SOL     OW18691   6.934   5.837   3.186
 5931SOL    HW118692   6.850   5.881   3.153
 5931SOL    HW218693   6.911   5.775   3.260
 5932SOL     OW18694   2.415   0.271   0.619
 5932SOL    HW118695   2.318   0.293   0.605
 5932SOL    HW218696   2.464   0.354   0.647
 5933SOL     OW18697   0.074   6.137   3.510
 5933SOL    HW118698   0.068   6.150   3.411
 5933SOL    HW218699   7.005   6.139   3.549
 5934SOL     OW18700   3.699   2.880   3.953
 5934SOL    HW118701   3.711   2.838   4.043
 5934SOL    HW218702   3.781   2.931   3.928
 5935SOL     OW18703   4.596   4.276   6.314
 5935SOL    HW118704   4.626   4.329   6.393
 5935SOL    HW218705   4.576   4.182   6.342
 5936SOL     OW18706   3.530   3.014   1.025
 5936SOL    HW118707   3.558   3.103   1.062
 5936SOL    HW218708   3.498   3.026   0.931
 5937SOL     OW18709   0.936   4.430   2.976
 5937SOL    HW118710   0.840   4.407   2.959
 5937SOL    HW218711   0.943   4.486   3.058
 5938SOL     OW18712   0.761   5.050   3.628
 5938SOL    HW118713   0.674   5.090   3.599
 5938SOL    HW218714   0.797   4.992   3.555
 5939SOL     OW18715   2.513   6.638   3.267
 5939SOL    HW118716   2.453   6.718   3.269
 5939SOL    HW218717   2.586   6.648   3.335
 5940SOL     OW18718   4.526   5.498   0.825
 5940SOL    HW118719   4.454   5.544   0.772
 5940SOL    HW218720   4.490   5.413   0.862
 5941SOL     OW18721   5.912   3.469   2.146
 5941SOL    HW118722   5.845   3.447   2.216
 5941SOL    HW218723   5.920   3.569   2.138
 5942SOL     OW18724   4.906   3.251   0.485
 5942SOL    HW118725   4.937   3.214   0.573
 5942SOL    HW218726   4.973   3.228   0.414
 5943SOL     OW18727   3.757   4.971   0.319
 5943SOL    HW118728   3.703   4.887   0.327
 5943SOL    HW218729   3.785   5.001   0.410
 5944SOL     OW18730   6.362   3.145   1.361
 5944SOL    HW118731   6.457   3.116   1.369
 5944SOL    HW218732   6.352   3.239   1.396
 5945SOL     OW18733   6.073   5.307   5.448
 5945SOL    HW118734   6.131   5.234   5.485
 5945SOL    HW218735   6.057   5.291   5.351
 5946SOL     OW18736   3.787   3.195   6.399
 5946SOL    HW118737   3.822   3.130   6.332
 5946SOL    HW218738   3.816   3.168   6.491
 5947SOL     OW18739   4.012   3.601   1.951
 5947SOL    HW118740   3.953   3.522   1.969
 5947SOL    HW218741   4.049   3.595   1.858
 5948SOL     OW18742   4.643   5.141   3.632
 5948SOL    HW118743   4.717   5.099   3.579
 5948SOL    HW218744   4.656   5.241   3.633
 5949SOL     OW18745   4.891   3.893   1.616
 5949SOL    HW118746   4.940   3.909   1.702
 5949SOL    HW218747   4.820   3.962   1.605
 5950SOL     OW18748   4.525   2.047   5.994
 5950SOL    HW118749   4.612   2.088   5.969
 5950SOL    HW218750   4.490   2.091   6.077
 5951SOL     OW18751   0.927   5.872   3.790
 5951SOL    HW118752   0.835   5.906   3.808
 5951SOL    HW218753   0.978   5.869   3.876
 5952SOL     OW18754   5.612   4.728   3.863
 5952SOL    HW118755   5.580   4.652   3.919
 5952SOL    HW218756   5.694   4.768   3.904
 5953SOL     OW18757   6.393   3.139   5.633
 5953SOL    HW118758   6.384   3.184   5.722
 5953SOL    HW218759   6.304   3.100   5.606
 5954SOL     OW18760   0.115   4.318   6.187
 5954SOL    HW118761   0.135   4.309   6.285
 5954SOL    HW218762   0.024   4.283   6.168
 5955SOL     OW18763   5.209   6.087   2.979
 5955SOL    HW118764   5.174   6.003   2.937
 5955SOL    HW218765   5.185   6.165   2.920
 5956SOL     OW18766   4.666   1.273   5.950
 5956SOL    HW118767   4.675   1.355   5.895
 5956SOL    HW218768   4.594   1.215   5.912
 5957SOL     OW18769   4.224   0.679   5.108
 5957SOL    HW118770   4.257   0.589   5.135
 5957SOL    HW218771   4.286   0.717   5.039
 5958SOL     OW18772   5.708   6.845   3.079
 5958SOL    HW118773   5.733   6.922   3.021
 5958SOL    HW218774   5.752   6.855   3.169
 5959SOL     OW18775   4.091   2.403   5.401
 5959SOL    HW118776   3.995   2.387   5.381
 5959SOL    HW218777   4.122   2.485   5.353
 5960SOL     OW18778   3.553   5.178   4.785
 5960SOL    HW118779   3.579   5.097   4.733
 5960SOL    HW218780   3.584   5.169   4.879
 5961SOL     OW18781   5.355   1.472   2.922
 5961SOL    HW118782   5.356   1.426   2.833
 5961SOL    HW218783   5.262   1.471   2.960
 5962SOL     OW18784   5.543   6.610   0.551
 5962SOL    HW118785   5.507   6.551   0.623
 5962SOL    HW218786   5.627   6.571   0.514
 5963SOL     OW18787   3.772   3.548   5.528
 5963SOL    HW118788   3.740   3.573   5.437
 5963SOL    HW218789   3.831   3.467   5.522
 5964SOL     OW18790   0.644   5.344   5.077
 5964SOL    HW118791   0.601   5.255   5.093
 5964SOL    HW218792   0.578   5.406   5.034
 5965SOL     OW18793   1.457   2.241   6.688
 5965SOL    HW118794   1.475   2.285   6.600
 5965SOL    HW218795   1.365   2.266   6.719
 5966SOL     OW18796   3.221   6.061   5.414
 5966SOL    HW118797   3.293   6.109   5.465
 5966SOL    HW218798   3.176   5.995   5.474
 5967SOL     OW18799   4.180   6.821   6.524
 5967SOL    HW118800   4.219   6.730   6.508
 5967SOL    HW218801   4.085   6.822   6.492
 5968SOL     OW18802   4.562   1.665   1.016
 5968SOL    HW118803   4.622   1.596   1.056
 5968SOL    HW218804   4.467   1.639   1.032
 5969SOL     OW18805   0.401   6.567   6.349
 5969SOL    HW118806   0.393   6.533   6.256
 5969SOL    HW218807   0.346   6.650   6.359
 5970SOL     OW18808   0.223   4.384   2.394
 5970SOL    HW118809   0.224   4.406   2.296
 5970SOL    HW218810   0.159   4.445   2.441
 5971SOL     OW18811   1.554   0.852   2.431
 5971SOL    HW118812   1.475   0.894   2.476
 5971SOL    HW218813   1.534   0.755   2.412
 5972SOL     OW18814   5.452   5.205   0.012
 5972SOL    HW118815   5.380   5.137   0.024
 5972SOL    HW218816   5.415   5.285   6.987
 5973SOL     OW18817   1.978   3.552   2.701
 5973SOL    HW118818   1.978   3.611   2.620
 5973SOL    HW218819   1.887   3.511   2.712
 5974SOL     OW18820   5.522   5.144   6.633
 5974SOL    HW118821   5.545   5.075   6.563
 5974SOL    HW218822   5.603   5.197   6.655
 5975SOL     OW18823   3.548   1.149   0.590
 5975SOL    HW118824   3.558   1.247   0.573
 5975SOL    HW218825   3.513   1.105   0.508
 5976SOL     OW18826   3.340   3.268   5.768
 5976SOL    HW118827   3.404   3.270   5.845
 5976SOL    HW218828   3.253   3.308   5.797
 5977SOL     OW18829   2.729   5.445   6.626
 5977SOL    HW118830   2.774   5.368   6.672
 5977SOL    HW218831   2.790   5.480   6.554
 5978SOL     OW18832   5.049   5.520   3.066
 5978SOL    HW118833   5.137   5.565   3.051
 5978SOL    HW218834   4.982   5.587   3.097
 5979SOL     OW18835   5.739   0.611   3.110
 5979SOL    HW118836   5.667   0.575   3.170
 5979SOL    HW218837   5.774   0.696   3.148
 5980SOL     OW18838   3.670   4.111   1.116
 5980SOL    HW118839   3.599   4.096   1.185
 5980SOL    HW218840   3.760   4.098   1.158
 5981SOL     OW18841   5.578   2.367   1.517
 5981SOL    HW118842   5.647   2.407   1.457
 5981SOL    HW218843   5.513   2.313   1.463
 5982SOL     OW18844   6.958   3.327   2.136
 5982SOL    HW118845   6.978   3.269   2.215
 5982SOL    HW218846   6.868   3.370   2.149
 5983SOL     OW18847   0.868   1.962   3.871
 5983SOL    HW118848   0.929   1.997   3.800
 5983SOL    HW218849   0.923   1.923   3.945
 5984SOL     OW18850   6.543   5.729   3.979
 5984SOL    HW118851   6.470   5.796   3.966
 5984SOL    HW218852   6.571   5.728   4.075
 5985SOL     OW18853   6.967   2.881   4.293
 5985SOL    HW118854   0.026   2.933   4.270
 5985SOL    HW218855   6.909   2.872   4.212
 5986SOL     OW18856   3.265   3.700   4.738
 5986SOL    HW118857   3.303   3.614   4.771
 5986SOL    HW218858   3.165   3.693   4.736
 5987SOL     OW18859   4.740   0.315   4.501
 5987SOL    HW118860   4.778   0.230   4.465
 5987SOL    HW218861   4.815   0.376   4.529
 5988SOL     OW18862   4.640   6.872   5.645
 5988SOL    HW118863   4.629   6.964   5.605
 5988SOL    HW218864   4.592   6.805   5.588
 5989SOL     OW18865   2.523   6.714   6.617
 5989SOL    HW118866   2.562   6.627   6.644
 5989SOL    HW218867   2.450   6.698   6.551
 5990SOL     OW18868   3.669   4.481   0.157
 5990SOL    HW118869   3.599   4.410   0.158
 5990SOL    HW218870   3.683   4.512   0.063
 5991SOL     OW18871   3.370   4.814   6.979
 5991SOL    HW118872   3.391   4.745   0.026
 5991SOL    HW218873   3.366   4.770   6.889
 5992SOL     OW18874   3.758   6.847   2.341
 5992SOL    HW118875   3.768   6.942   2.310
 5992SOL    HW218876   3.691   6.844   2.415
 5993SOL     OW18877   3.166   5.927   6.758
 5993SOL    HW118878   3.119   5.972   6.834
 5993SOL    HW218879   3.185   5.994   6.686
 5994SOL     OW18880   5.605   2.548   2.366
 5994SOL    HW118881   5.607   2.502   2.277
 5994SOL    HW218882   5.510   2.553   2.398
 5995SOL     OW18883   5.178   4.378   3.156
 5995SOL    HW118884   5.078   4.378   3.169
 5995SOL    HW218885   5.201   4.421   3.069
 5996SOL     OW18886   1.107   6.455   0.803
 5996SOL    HW118887   1.018   6.440   0.845
 5996SOL    HW218888   1.176   6.469   0.874
 5997SOL     OW18889   0.686   5.650   2.583
 5997SOL    HW118890   0.717   5.556   2.598
 5997SOL    HW218891   0.718   5.707   2.659
 5998SOL     OW18892   5.662   1.519   3.256
 5998SOL    HW118893   5.719   1.463   3.316
 5998SOL    HW218894   5.709   1.605   3.237
 5999SOL     OW18895   1.628   1.562   2.657
 5999SOL    HW118896   1.682   1.532   2.579
 5999SOL    HW218897   1.534   1.580   2.628
 6000SOL     OW18898   4.580   6.815   0.890
 6000SOL    HW118899   4.664   6.765   0.912
 6000SOL    HW218900   4.503   6.750   0.888
 6001SOL     OW18901   1.073   3.621   6.889
 6001SOL    HW118902   1.074   3.671   6.803
 6001SOL    HW218903   0.980   3.589   6.907
 6002SOL     OW18904   6.269   0.006   0.977
 6002SOL    HW118905   6.235   0.072   1.045
 6002SOL    HW218906   6.361   0.033   0.948
 6003SOL     OW18907   6.446   2.461   4.326
 6003SOL    HW118908   6.514   2.426   4.390
 6003SOL    HW218909   6.355   2.453   4.367
 6004SOL     OW18910   0.435   3.440   2.884
 6004SOL    HW118911   0.379   3.474   2.961
 6004SOL    HW218912   0.393   3.469   2.798
 6005SOL     OW18913   5.045   5.549   4.461
 6005SOL    HW118914   5.122   5.565   4.523
 6005SOL    HW218915   4.963   5.531   4.514
 6006SOL     OW18916   2.630   0.949   5.960
 6006SOL    HW118917   2.552   0.935   5.898
 6006SOL    HW218918   2.597   0.981   6.048
 6007SOL     OW18919   5.033   3.612   5.613
 6007SOL    HW118920   4.943   3.610   5.657
 6007SOL    HW218921   5.074   3.703   5.624
 6008SOL     OW18922   2.067   4.512   6.051
 6008SOL    HW118923   2.003   4.518   6.127
 6008SOL    HW218924   2.027   4.456   5.978
 6009SOL     OW18925   3.450   0.532   3.607
 6009SOL    HW118926   3.540   0.515   3.646
 6009SOL    HW218927   3.460   0.570   3.515
 6010SOL     OW18928   1.620   4.557   4.251
 6010SOL    HW118929   1.716   4.583   4.249
 6010SOL    HW218930   1.564   4.631   4.214
 6011SOL     OW18931   4.875   3.486   2.380
 6011SOL    HW118932   4.844   3.412   2.320
 6011SOL    HW218933   4.805   3.557   2.384
 6012SOL     OW18934   5.136   1.361   0.073
 6012SOL    HW118935   5.116   1.353   6.998
 6012SOL    HW218936   5.061   1.320   0.125
 6013SOL     OW18937   4.725   2.031   3.093
 6013SOL    HW118938   4.648   1.979   3.130
 6013SOL    HW218939   4.750   2.104   3.157
 6014SOL     OW18940   3.914   3.732   1.323
 6014SOL    HW118941   3.922   3.775   1.233
 6014SOL    HW218942   3.997   3.681   1.343
 6015SOL     OW18943   5.345   2.976   4.251
 6015SOL    HW118944   5.334   2.993   4.153
 6015SOL    HW218945   5.405   3.045   4.291
 6016SOL     OW18946   6.447   2.177   5.957
 6016SOL    HW118947   6.503   2.123   6.019
 6016SOL    HW218948   6.370   2.122   5.925
 6017SOL     OW18949   6.699   4.264   2.898
 6017SOL    HW118950   6.706   4.253   2.998
 6017SOL    HW218951   6.603   4.269   2.872
 6018SOL     OW18952   3.365   0.628   6.472
 6018SOL    HW118953   3.330   0.570   6.545
 6018SOL    HW218954   3.335   0.593   6.383
 6019SOL     OW18955   0.037   2.002   4.239
 6019SOL    HW118956   0.094   1.985   4.319
 6019SOL    HW218957   0.062   1.938   4.166
 6020SOL     OW18958   1.066   4.794   0.767
 6020SOL    HW118959   1.017   4.876   0.740
 6020SOL    HW218960   1.157   4.819   0.800
 6021SOL     OW18961   4.715   0.564   2.385
 6021SOL    HW118962   4.704   0.664   2.387
 6021SOL    HW218963   4.663   0.523   2.460
 6022SOL     OW18964   4.089   2.275   4.089
 6022SOL    HW118965   4.145   2.239   4.164
 6022SOL    HW218966   4.147   2.327   4.027
 6023SOL     OW18967   6.247   0.148   2.476
 6023SOL    HW118968   6.165   0.155   2.533
 6023SOL    HW218969   6.221   0.126   2.382
 6024SOL     OW18970   1.210   5.129   3.541
 6024SOL    HW118971   1.232   5.099   3.634
 6024SOL    HW218972   1.245   5.061   3.476
 6025SOL     OW18973   3.560   1.549   2.896
 6025SOL    HW118974   3.504   1.600   2.962
 6025SOL    HW218975   3.558   1.595   2.807
 6026SOL     OW18976   0.094   4.229   5.375
 6026SOL    HW118977   0.077   4.192   5.466
 6026SOL    HW218978   0.143   4.162   5.319
 6027SOL     OW18979   1.349   4.348   6.868
 6027SOL    HW118980   1.360   4.425   6.805
 6027SOL    HW218981   1.334   4.264   6.815
 6028SOL     OW18982   0.375   4.881   6.439
 6028SOL    HW118983   0.400   4.860   6.345
 6028SOL    HW218984   0.414   4.970   6.465
 6029SOL     OW18985   2.421   6.222   5.183
 6029SOL    HW118986   2.400   6.216   5.280
 6029SOL    HW218987   2.472   6.141   5.155
 6030SOL     OW18988   3.404   5.968   3.013
 6030SOL    HW118989   3.470   6.006   3.079
 6030SOL    HW218990   3.388   5.872   3.034
 6031SOL     OW18991   3.144   5.499   3.358
 6031SOL    HW118992   3.083   5.420   3.368
 6031SOL    HW218993   3.102   5.565   3.296
 6032SOL     OW18994   2.594   4.582   2.947
 6032SOL    HW118995   2.527   4.508   2.945
 6032SOL    HW218996   2.624   4.599   3.041
 6033SOL     OW18997   3.082   1.734   3.011
 6033SOL    HW118998   3.149   1.697   2.947
 6033SOL    HW218999   3.119   1.734   3.103
 6034SOL     OW19000   0.950   4.939   4.923
 6034SOL    HW119001   0.850   4.940   4.921
 6034SOL    HW219002   0.982   4.996   4.999
 6035SOL     OW19003   6.821   0.854   2.559
 6035SOL    HW119004   6.742   0.888   2.610
 6035SOL    HW219005   6.821   0.754   2.560
 6036SOL     OW19006   6.028   5.516   3.577
 6036SOL    HW119007   6.095   5.451   3.612
 6036SOL    HW219008   6.076   5.588   3.526
 6037SOL     OW19009   4.201   5.158   6.467
 6037SOL    HW119010   4.170   5.068   6.436
 6037SOL    HW219011   4.144   5.189   6.543
 6038SOL     OW19012   1.569   2.341   5.879
 6038SOL    HW119013   1.660   2.310   5.908
 6038SOL    HW219014   1.558   2.325   5.781
 6039SOL     OW19015   3.050   3.615   2.387
 6039SOL    HW119016   3.024   3.692   2.446
 6039SOL    HW219017   3.128   3.568   2.427
 6040SOL     OW19018   0.775   2.139   6.542
 6040SOL    HW119019   0.699   2.075   6.554
 6040SOL    HW219020   0.761   2.193   6.458
 6041SOL     OW19021   2.308   0.245   5.333
 6041SOL    HW119022   2.375   0.318   5.325
 6041SOL    HW219023   2.251   0.260   5.414
 6042SOL     OW19024   5.430   5.442   1.887
 6042SOL    HW119025   5.378   5.361   1.911
 6042SOL    HW219026   5.393   5.481   1.802
 6043SOL     OW19027   0.755   4.758   5.656
 6043SOL    HW119028   0.703   4.680   5.620
 6043SOL    HW219029   0.695   4.839   5.659
 6044SOL     OW19030   1.114   1.844   1.999
 6044SOL    HW119031   1.126   1.755   1.956
 6044SOL    HW219032   1.172   1.851   2.080
 6045SOL     OW19033   6.305   4.788   2.456
 6045SOL    HW119034   6.396   4.819   2.430
 6045SOL    HW219035   6.264   4.738   2.380
 6046SOL     OW19036   3.779   2.250   0.787
 6046SOL    HW119037   3.768   2.244   0.688
 6046SOL    HW219038   3.874   2.273   0.809
 6047SOL     OW19039   5.292   2.275   1.810
 6047SOL    HW119040   5.308   2.356   1.754
 6047SOL    HW219041   5.246   2.301   1.895
 6048SOL     OW19042   4.515   5.588   4.895
 6048SOL    HW119043   4.587   5.644   4.936
 6048SOL    HW219044   4.466   5.641   4.826
 6049SOL     OW19045   5.926   4.096   6.337
 6049SOL    HW119046   5.983   4.127   6.262
 6049SOL    HW219047   5.932   3.996   6.345
 6050SOL     OW19048   3.391   6.212   4.361
 6050SOL    HW119049   3.325   6.276   4.322
 6050SOL    HW219050   3.367   6.119   4.334
 6051SOL     OW19051   2.736   0.887   4.302
 6051SOL    HW119052   2.748   0.793   4.270
 6051SOL    HW219053   2.762   0.951   4.230
 6052SOL     OW19054   6.406   0.569   0.897
 6052SOL    HW119055   6.367   0.492   0.947
 6052SOL    HW219056   6.334   0.617   0.847
 6053SOL     OW19057   4.690   1.554   6.527
 6053SOL    HW119058   4.609   1.612   6.526
 6053SOL    HW219059   4.767   1.603   6.485
 6054SOL     OW19060   2.803   3.367   0.832
 6054SOL    HW119061   2.786   3.271   0.807
 6054SOL    HW219062   2.728   3.424   0.799
 6055SOL     OW19063   4.785   0.955   5.248
 6055SOL    HW119064   4.728   1.015   5.192
 6055SOL    HW219065   4.814   0.876   5.193
 6056SOL     OW19066   4.722   2.788   4.633
 6056SOL    HW119067   4.762   2.877   4.607
 6056SOL    HW219068   4.667   2.799   4.715
 6057SOL     OW19069   5.326   2.678   3.574
 6057SOL    HW119070   5.306   2.665   3.672
 6057SOL    HW219071   5.259   2.628   3.520
 6058SOL     OW19072   4.691   3.235   0.857
 6058SOL    HW119073   4.744   3.205   0.937
 6058SOL    HW219074   4.597   3.255   0.886
 6059SOL     OW19075   5.183   5.351   5.176
 6059SOL    HW119076   5.104   5.379   5.230
 6059SOL    HW219077   5.228   5.431   5.138
 6060SOL     OW19078   2.585   4.447   6.464
 6060SOL    HW119079   2.534   4.370   6.426
 6060SOL    HW219080   2.538   4.532   6.442
 6061SOL     OW19081   3.313   2.192   1.254
 6061SOL    HW119082   3.402   2.195   1.208
 6061SOL    HW219083   3.292   2.282   1.291
 6062SOL     OW19084   2.354   1.793   5.075
 6062SOL    HW119085   2.426   1.724   5.075
 6062SOL    HW219086   2.265   1.747   5.078
 6063SOL     OW19087   3.298   1.738   6.248
 6063SOL    HW119088   3.244   1.811   6.289
 6063SOL    HW219089   3.388   1.774   6.222
 6064SOL     OW19090   1.788   5.839   1.091
 6064SOL    HW119091   1.887   5.825   1.095
 6064SOL    HW219092   1.749   5.779   1.021
 6065SOL     OW19093   6.734   0.038   1.955
 6065SOL    HW119094   6.735   0.115   2.018
 6065SOL    HW219095   6.796   6.990   1.987
 6066SOL     OW19096   5.262   1.734   6.067
 6066SOL    HW119097   5.204   1.679   6.007
 6066SOL    HW219098   5.308   1.804   6.013
 6067SOL     OW19099   5.655   1.718   5.615
 6067SOL    HW119100   5.583   1.692   5.680
 6067SOL    HW219101   5.725   1.771   5.663
 6068SOL     OW19102   5.584   2.894   4.602
 6068SOL    HW119103   5.565   2.991   4.609
 6068SOL    HW219104   5.569   2.850   4.690
 6069SOL     OW19105   6.927   2.979   4.551
 6069SOL    HW119106   7.001   3.007   4.613
 6069SOL    HW219107   6.966   2.953   4.463
 6070SOL     OW19108   2.263   2.912   0.645
 6070SOL    HW119109   2.306   2.919   0.555
 6070SOL    HW219110   2.320   2.958   0.713
 6071SOL     OW19111   6.143   5.316   4.517
 6071SOL    HW119112   6.090   5.331   4.433
 6071SOL    HW219113   6.091   5.348   4.596
 6072SOL     OW19114   0.732   0.455   1.787
 6072SOL    HW119115   0.716   0.401   1.704
 6072SOL    HW219116   0.670   0.425   1.859
 6073SOL     OW19117   6.249   3.914   0.450
 6073SOL    HW119118   6.258   4.003   0.404
 6073SOL    HW219119   6.207   3.848   0.387
 6074SOL     OW19120   1.378   6.528   4.182
 6074SOL    HW119121   1.308   6.463   4.152
 6074SOL    HW219122   1.443   6.481   4.242
 6075SOL     OW19123   6.617   1.506   6.661
 6075SOL    HW119124   6.609   1.407   6.660
 6075SOL    HW219125   6.531   1.547   6.630
 6076SOL     OW19126   2.236   5.641   4.480
 6076SOL    HW119127   2.180   5.653   4.398
 6076SOL    HW219128   2.333   5.642   4.456
 6077SOL     OW19129   5.758   5.803   1.645
 6077SOL    HW119130   5.807   5.890   1.638
 6077SOL    HW219131   5.823   5.728   1.652
 6078SOL     OW19132   3.845   4.992   0.598
 6078SOL    HW119133   3.856   5.053   0.676
 6078SOL    HW219134   3.906   5.021   0.524
 6079SOL     OW19135   4.127   2.998   6.477
 6079SOL    HW119136   4.094   2.904   6.473
 6079SOL    HW219137   4.167   3.024   6.389
 6080SOL     OW19138   6.749   1.223   1.768
 6080SOL    HW119139   6.715   1.315   1.751
 6080SOL    HW219140   6.807   1.223   1.850
 6081SOL     OW19141   6.023   3.522   5.649
 6081SOL    HW119142   6.061   3.443   5.601
 6081SOL    HW219143   5.941   3.495   5.698
 6082SOL     OW19144   2.110   1.922   3.587
 6082SOL    HW119145   2.195   1.869   3.594
 6082SOL    HW219146   2.062   1.896   3.503
 6083SOL     OW19147   0.163   4.789   6.779
 6083SOL    HW119148   0.077   4.778   6.830
 6083SOL    HW219149   0.150   4.758   6.685
 6084SOL     OW19150   0.521   6.471   3.552
 6084SOL    HW119151   0.617   6.465   3.525
 6084SOL    HW219152   0.490   6.382   3.586
 6085SOL     OW19153   0.904   4.419   0.406
 6085SOL    HW119154   0.986   4.453   0.360
 6085SOL    HW219155   0.893   4.466   0.494
 6086SOL     OW19156   3.625   1.294   6.255
 6086SOL    HW119157   3.533   1.329   6.274
 6086SOL    HW219158   3.692   1.367   6.267
 6087SOL     OW19159   4.205   5.421   0.772
 6087SOL    HW119160   4.244   5.506   0.738
 6087SOL    HW219161   4.234   5.345   0.713
 6088SOL     OW19162   6.126   5.616   3.994
 6088SOL    HW119163   6.153   5.712   3.994
 6088SOL    HW219164   6.059   5.600   4.067
 6089SOL     OW19165   6.497   3.526   0.387
 6089SOL    HW119166   6.472   3.449   0.446
 6089SOL    HW219167   6.415   3.562   0.342
 6090SOL     OW19168   2.184   6.072   5.840
 6090SOL    HW119169   2.221   6.070   5.747
 6090SOL    HW219170   2.089   6.103   5.837
 6091SOL     OW19171   1.423   1.384   1.486
 6091SOL    HW119172   1.370   1.362   1.567
 6091SOL    HW219173   1.516   1.411   1.513
 6092SOL     OW19174   3.840   6.776   3.047
 6092SOL    HW119175   3.933   6.788   3.012
 6092SOL    HW219176   3.782   6.851   3.016
 6093SOL     OW19177   1.931   3.150   2.869
 6093SOL    HW119178   1.977   3.062   2.861
 6093SOL    HW219179   1.834   3.139   2.846
 6094SOL     OW19180   3.668   0.708   1.666
 6094SOL    HW119181   3.622   0.780   1.614
 6094SOL    HW219182   3.600   0.651   1.713
 6095SOL     OW19183   4.640   3.281   0.502
 6095SOL    HW119184   4.611   3.316   0.413
 6095SOL    HW219185   4.736   3.252   0.497
 6096SOL     OW19186   6.679   0.526   3.750
 6096SOL    HW119187   6.708   0.558   3.660
 6096SOL    HW219188   6.594   0.473   3.741
 6097SOL     OW19189   2.370   6.787   1.884
 6097SOL    HW119190   2.464   6.781   1.918
 6097SOL    HW219191   2.325   6.867   1.925
 6098SOL     OW19192   1.297   2.303   5.953
 6098SOL    HW119193   1.260   2.281   5.862
 6098SOL    HW219194   1.396   2.307   5.948
 6099SOL     OW19195   6.522   6.235   0.647
 6099SOL    HW119196   6.448   6.300   0.667
 6099SOL    HW219197   6.497   6.144   0.680
 6100SOL     OW19198   4.441   3.795   0.155
 6100SOL    HW119199   4.463   3.700   0.135
 6100SOL    HW219200   4.484   3.854   0.086
 6101SOL     OW19201   6.358   2.053   4.672
 6101SOL    HW119202   6.453   2.049   4.641
 6101SOL    HW219203   6.308   2.118   4.616
 6102SOL     OW19204   3.188   6.651   3.382
 6102SOL    HW119205   3.264   6.586   3.392
 6102SOL    HW219206   3.112   6.622   3.440
 6103SOL     OW19207   6.758   3.007   2.550
 6103SOL    HW119208   6.850   3.043   2.563
 6103SOL    HW219209   6.733   2.951   2.629
 6104SOL     OW19210   6.109   1.301   5.262
 6104SOL    HW119211   6.109   1.245   5.345
 6104SOL    HW219212   6.098   1.243   5.182
 6105SOL     OW19213   2.133   0.171   5.560
 6105SOL    HW119214   2.207   0.106   5.580
 6105SOL    HW219215   2.048   0.137   5.601
 6106SOL     OW19216   2.446   4.211   5.681
 6106SOL    HW119217   2.482   4.151   5.610
 6106SOL    HW219218   2.371   4.265   5.645
 6107SOL     OW19219   2.414   4.568   4.987
 6107SOL    HW119220   2.492   4.605   5.038
 6107SOL    HW219221   2.394   4.476   5.019
 6108SOL     OW19222   0.363   2.269   2.313
 6108SOL    HW119223   0.277   2.242   2.355
 6108SOL    HW219224   0.418   2.188   2.293
 6109SOL     OW19225   5.174   2.750   5.705
 6109SOL    HW119226   5.150   2.847   5.708
 6109SOL    HW219227   5.097   2.695   5.738
 6110SOL     OW19228   4.285   3.264   0.518
 6110SOL    HW119229   4.349   3.315   0.575
 6110SOL    HW219230   4.270   3.314   0.432
 6111SOL     OW19231   2.096   4.307   2.146
 6111SOL    HW119232   2.185   4.265   2.125
 6111SOL    HW219233   2.058   4.347   2.063
 6112SOL     OW19234   3.946   0.079   2.504
 6112SOL    HW119235   4.016   0.113   2.441
 6112SOL    HW219236   3.967   7.008   2.530
 6113SOL     OW19237   1.894   1.303   6.483
 6113SOL    HW119238   1.886   1.385   6.539
 6113SOL    HW219239   1.904   1.222   6.542
 6114SOL     OW19240   5.314   5.642   1.188
 6114SOL    HW119241   5.367   5.618   1.106
 6114SOL    HW219242   5.238   5.701   1.163
 6115SOL     OW19243   4.533   0.379   3.743
 6115SOL    HW119244   4.597   0.390   3.819
 6115SOL    HW219245   4.514   0.281   3.730
 6116SOL     OW19246   2.907   6.932   0.304
 6116SOL    HW119247   2.908   7.014   0.247
 6116SOL    HW219248   2.834   6.870   0.273
 6117SOL     OW19249   0.503   0.957   5.366
 6117SOL    HW119250   0.468   0.998   5.450
 6117SOL    HW219251   0.562   0.880   5.389
 6118SOL     OW19252   6.660   0.433   2.460
 6118SOL    HW119253   6.685   0.379   2.380
 6118SOL    HW219254   6.578   0.394   2.502
 6119SOL     OW19255   1.504   3.418   5.883
 6119SOL    HW119256   1.524   3.385   5.791
 6119SOL    HW219257   1.579   3.391   5.945
 6120SOL     OW19258   3.763   6.816   4.713
 6120SOL    HW119259   3.842   6.759   4.692
 6120SOL    HW219260   3.790   6.912   4.711
 6121SOL     OW19261   0.694   2.949   5.538
 6121SOL    HW119262   0.733   3.022   5.481
 6121SOL    HW219263   0.604   2.924   5.503
 6122SOL     OW19264   4.102   6.622   0.980
 6122SOL    HW119265   4.062   6.713   0.993
 6122SOL    HW219266   4.039   6.565   0.926
 6123SOL     OW19267   6.088   0.346   6.769
 6123SOL    HW119268   6.121   0.412   6.701
 6123SOL    HW219269   6.109   0.253   6.738
 6124SOL     OW19270   1.935   0.824   6.212
 6124SOL    HW119271   2.015   0.883   6.221
 6124SOL    HW219272   1.862   0.857   6.272
 6125SOL     OW19273   1.048   5.630   0.303
 6125SOL    HW119274   1.055   5.720   0.346
 6125SOL    HW219275   1.030   5.641   0.206
 6126SOL     OW19276   0.512   0.187   3.847
 6126SOL    HW119277   0.513   0.286   3.859
 6126SOL    HW219278   0.439   0.147   3.902
 6127SOL     OW19279   3.921   0.206   1.586
 6127SOL    HW119280   3.977   0.124   1.584
 6127SOL    HW219281   3.944   0.264   1.507
 6128SOL     OW19282   6.934   2.954   6.793
 6128SOL    HW119283   6.853   2.916   6.839
 6128SOL    HW219284   7.009   2.959   6.858
 6129SOL     OW19285   6.181   3.830   3.391
 6129SOL    HW119286   6.088   3.806   3.361
 6129SOL    HW219287   6.246   3.763   3.354
 6130SOL     OW19288   6.081   2.260   3.601
 6130SOL    HW119289   6.163   2.281   3.654
 6130SOL    HW219290   6.062   2.162   3.606
 6131SOL     OW19291   6.640   0.755   4.941
 6131SOL    HW119292   6.607   0.762   5.035
 6131SOL    HW219293   6.721   0.812   4.930
 6132SOL     OW19294   4.730   1.452   0.388
 6132SOL    HW119295   4.692   1.501   0.310
 6132SOL    HW219296   4.657   1.400   0.433
 6133SOL     OW19297   1.361   2.494   2.722
 6133SOL    HW119298   1.403   2.502   2.812
 6133SOL    HW219299   1.262   2.497   2.731
 6134SOL     OW19300   3.835   4.441   6.249
 6134SOL    HW119301   3.764   4.371   6.245
 6134SOL    HW219302   3.866   4.461   6.156
 6135SOL     OW19303   0.884   0.311   2.170
 6135SOL    HW119304   0.886   0.280   2.265
 6135SOL    HW219305   0.791   0.337   2.145
 6136SOL     OW19306   0.781   2.403   2.783
 6136SOL    HW119307   0.695   2.445   2.753
 6136SOL    HW219308   0.832   2.369   2.704
 6137SOL     OW19309   6.062   2.676   3.732
 6137SOL    HW119310   6.040   2.751   3.671
 6137SOL    HW219311   5.992   2.604   3.725
 6138SOL     OW19312   4.383   6.102   3.198
 6138SOL    HW119313   4.410   6.105   3.294
 6138SOL    HW219314   4.338   6.188   3.173
 6139SOL     OW19315   1.212   1.738   5.796
 6139SOL    HW119316   1.175   1.699   5.880
 6139SOL    HW219317   1.279   1.809   5.819
 6140SOL     OW19318   0.426   6.375   1.264
 6140SOL    HW119319   0.418   6.474   1.273
 6140SOL    HW219320   0.502   6.353   1.202
 6141SOL     OW19321   6.385   5.567   5.892
 6141SOL    HW119322   6.342   5.582   5.803
 6141SOL    HW219323   6.457   5.635   5.907
 6142SOL     OW19324   0.929   5.615   1.051
 6142SOL    HW119325   0.843   5.621   1.001
 6142SOL    HW219326   0.910   5.614   1.149
 6143SOL     OW19327   6.827   4.165   0.763
 6143SOL    HW119328   6.784   4.246   0.802
 6143SOL    HW219329   6.795   4.152   0.669
 6144SOL     OW19330   6.172   4.283   3.262
 6144SOL    HW119331   6.138   4.325   3.178
 6144SOL    HW219332   6.094   4.252   3.317
 6145SOL     OW19333   4.386   5.382   3.489
 6145SOL    HW119334   4.302   5.419   3.529
 6145SOL    HW219335   4.463   5.440   3.515
 6146SOL     OW19336   2.906   6.513   3.990
 6146SOL    HW119337   2.952   6.425   3.973
 6146SOL    HW219338   2.828   6.522   3.928
 6147SOL     OW19339   1.311   3.465   4.649
 6147SOL    HW119340   1.242   3.515   4.596
 6147SOL    HW219341   1.395   3.518   4.653
 6148SOL     OW19342   6.751   0.433   4.184
 6148SOL    HW119343   6.681   0.468   4.122
 6148SOL    HW219344   6.797   0.355   4.141
 6149SOL     OW19345   3.471   5.369   1.207
 6149SOL    HW119346   3.475   5.432   1.285
 6149SOL    HW219347   3.439   5.418   1.126
 6150SOL     OW19348   4.648   5.006   6.870
 6150SOL    HW119349   4.727   4.961   6.829
 6150SOL    HW219350   4.676   5.093   6.909
 6151SOL     OW19351   5.716   4.796   5.552
 6151SOL    HW119352   5.740   4.729   5.482
 6151SOL    HW219353   5.799   4.839   5.587
 6152SOL     OW19354   6.891   5.719   4.972
 6152SOL    HW119355   6.887   5.621   4.953
 6152SOL    HW219356   6.942   5.734   5.058
 6153SOL     OW19357   5.766   3.690   1.698
 6153SOL    HW119358   5.680   3.687   1.749
 6153SOL    HW219359   5.778   3.781   1.660
 6154SOL     OW19360   6.066   2.221   2.466
 6154SOL    HW119361   6.025   2.132   2.450
 6154SOL    HW219362   6.071   2.239   2.564
 6155SOL     OW19363   2.083   2.173   4.595
 6155SOL    HW119364   2.127   2.140   4.512
 6155SOL    HW219365   2.038   2.098   4.642
 6156SOL     OW19366   4.109   4.547   1.752
 6156SOL    HW119367   4.193   4.532   1.803
 6156SOL    HW219368   4.130   4.584   1.662
 6157SOL     OW19369   1.261   0.928   4.014
 6157SOL    HW119370   1.207   0.867   4.072
 6157SOL    HW219371   1.311   0.993   4.071
 6158SOL     OW19372   4.551   1.221   6.318
 6158SOL    HW119373   4.556   1.142   6.257
 6158SOL    HW219374   4.469   1.274   6.297
 6159SOL     OW19375   4.928   2.765   1.366
 6159SOL    HW119376   5.018   2.759   1.322
 6159SOL    HW219377   4.891   2.857   1.354
 6160SOL     OW19378   5.213   0.573   6.352
 6160SOL    HW119379   5.263   0.490   6.329
 6160SOL    HW219380   5.163   0.560   6.437
 6161SOL     OW19381   5.235   1.603   4.537
 6161SOL    HW119382   5.197   1.683   4.582
 6161SOL    HW219383   5.191   1.591   4.448
 6162SOL     OW19384   1.686   6.753   3.253
 6162SOL    HW119385   1.741   6.675   3.224
 6162SOL    HW219386   1.641   6.732   3.340
 6163SOL     OW19387   6.466   6.173   1.069
 6163SOL    HW119388   6.488   6.180   1.166
 6163SOL    HW219389   6.394   6.106   1.055
 6164SOL     OW19390   3.362   2.611   1.691
 6164SOL    HW119391   3.303   2.651   1.621
 6164SOL    HW219392   3.400   2.685   1.748
 6165SOL     OW19393   4.509   0.783   6.452
 6165SOL    HW119394   4.607   0.791   6.469
 6165SOL    HW219395   4.492   0.771   6.355
 6166SOL     OW19396   4.565   1.298   6.661
 6166SOL    HW119397   4.470   1.301   6.630
 6166SOL    HW219398   4.614   1.378   6.626
 6167SOL     OW19399   1.034   4.363   3.992
 6167SOL    HW119400   0.960   4.429   3.983
 6167SOL    HW219401   1.085   4.359   3.906
 6168SOL     OW19402   0.692   3.516   0.893
 6168SOL    HW119403   0.731   3.532   0.984
 6168SOL    HW219404   0.766   3.505   0.827
 6169SOL     OW19405   1.526   2.725   1.163
 6169SOL    HW119406   1.539   2.820   1.136
 6169SOL    HW219407   1.490   2.721   1.256
 6170SOL     OW19408   1.065   3.943   5.239
 6170SOL    HW119409   0.975   3.902   5.224
 6170SOL    HW219410   1.054   4.030   5.287
 6171SOL     OW19411   0.955   2.818   0.552
 6171SOL    HW119412   1.027   2.881   0.579
 6171SOL    HW219413   0.977   2.726   0.584
 6172SOL     OW19414   2.191   2.714   2.116
 6172SOL    HW119415   2.172   2.812   2.120
 6172SOL    HW219416   2.267   2.697   2.053
 6173SOL     OW19417   0.040   5.579   2.027
 6173SOL    HW119418   0.041   5.502   2.090
 6173SOL    HW219419   7.018   5.657   2.070
 6174SOL     OW19420   4.566   5.841   3.695
 6174SOL    HW119421   4.596   5.916   3.635
 6174SOL    HW219422   4.630   5.833   3.772
 6175SOL     OW19423   3.851   0.186   3.001
 6175SOL    HW119424   3.816   0.279   3.011
 6175SOL    HW219425   3.926   0.171   3.065
 6176SOL     OW19426   5.053   4.708   5.513
 6176SOL    HW119427   5.052   4.667   5.421
 6176SOL    HW219428   5.146   4.706   5.549
 6177SOL     OW19429   5.339   1.284   1.465
 6177SOL    HW119430   5.369   1.379   1.462
 6177SOL    HW219431   5.276   1.271   1.542
 6178SOL     OW19432   4.974   4.722   2.041
 6178SOL    HW119433   5.052   4.660   2.048
 6178SOL    HW219434   4.935   4.718   1.950
 6179SOL     OW19435   6.668   4.478   3.912
 6179SOL    HW119436   6.734   4.528   3.856
 6179SOL    HW219437   6.618   4.543   3.970
 6180SOL     OW19438   2.457   4.247   0.342
 6180SOL    HW119439   2.458   4.222   0.438
 6180SOL    HW219440   2.496   4.172   0.287
 6181SOL     OW19441   4.541   6.691   6.025
 6181SOL    HW119442   4.619   6.751   6.006
 6181SOL    HW219443   4.459   6.731   5.987
 6182SOL     OW19444   4.891   3.022   4.882
 6182SOL    HW119445   4.810   2.981   4.922
 6182SOL    HW219446   4.967   2.957   4.887
 6183SOL     OW19447   1.503   2.481   3.589
 6183SOL    HW119448   1.480   2.577   3.572
 6183SOL    HW219449   1.570   2.476   3.664
 6184SOL     OW19450   2.653   6.115   7.016
 6184SOL    HW119451   2.620   6.055   6.943
 6184SOL    HW219452   2.721   6.066   0.048
 6185SOL     OW19453   0.183   4.057   6.566
 6185SOL    HW119454   0.179   4.154   6.541
 6185SOL    HW219455   0.273   4.020   6.544
 6186SOL     OW19456   6.561   1.232   0.433
 6186SOL    HW119457   6.531   1.167   0.503
 6186SOL    HW219458   6.533   1.199   0.343
 6187SOL     OW19459   5.308   4.412   4.054
 6187SOL    HW119460   5.338   4.336   4.112
 6187SOL    HW219461   5.384   4.441   3.996
 6188SOL     OW19462   1.613   2.008   6.745
 6188SOL    HW119463   1.587   2.093   6.699
 6188SOL    HW219464   1.711   2.011   6.766
 6189SOL     OW19465   4.453   4.631   2.523
 6189SOL    HW119466   4.361   4.653   2.493
 6189SOL    HW219467   4.463   4.531   2.529
 6190SOL     OW19468   0.548   3.880   5.582
 6190SOL    HW119469   0.512   3.895   5.490
 6190SOL    HW219470   0.644   3.908   5.585
 6191SOL     OW19471   2.914   2.733   6.681
 6191SOL    HW119472   2.816   2.743   6.699
 6191SOL    HW219473   2.942   2.639   6.700
 6192SOL     OW19474   2.790   2.086   5.676
 6192SOL    HW119475   2.753   2.147   5.606
 6192SOL    HW219476   2.868   2.036   5.638
 6193SOL     OW19477   4.766   6.016   1.785
 6193SOL    HW119478   4.826   5.953   1.737
 6193SOL    HW219479   4.785   6.013   1.883
 6194SOL     OW19480   0.111   0.880   6.842
 6194SOL    HW119481   0.197   0.918   6.878
 6194SOL    HW219482   0.116   0.875   6.743
 6195SOL     OW19483   4.510   5.952   4.562
 6195SOL    HW119484   4.464   5.944   4.473
 6195SOL    HW219485   4.555   6.041   4.568
 6196SOL     OW19486   6.101   3.793   1.640
 6196SOL    HW119487   6.147   3.820   1.556
 6196SOL    HW219488   6.085   3.874   1.697
 6197SOL     OW19489   3.674   5.441   0.856
 6197SOL    HW119490   3.718   5.413   0.771
 6197SOL    HW219491   3.709   5.387   0.932
 6198SOL     OW19492   4.025   6.909   1.057
 6198SOL    HW119493   4.015   6.894   1.156
 6198SOL    HW219494   4.119   6.937   1.038
 6199SOL     OW19495   0.735   0.661   0.415
 6199SOL    HW119496   0.768   0.669   0.509
 6199SOL    HW219497   0.637   0.680   0.411
 6200SOL     OW19498   1.227   1.199   5.767
 6200SOL    HW119499   1.288   1.276   5.782
 6200SOL    HW219500   1.233   1.169   5.672
 6201SOL     OW19501   0.987   3.966   6.028
 6201SOL    HW119502   0.968   4.060   5.999
 6201SOL    HW219503   1.049   3.967   6.106
 6202SOL     OW19504   4.893   1.235   1.122
 6202SOL    HW119505   4.886   1.158   1.059
 6202SOL    HW219506   4.930   1.314   1.074
 6203SOL     OW19507   6.461   5.640   2.328
 6203SOL    HW119508   6.472   5.729   2.282
 6203SOL    HW219509   6.413   5.577   2.267
 6204SOL     OW19510   0.243   5.857   4.451
 6204SOL    HW119511   0.241   5.773   4.396
 6204SOL    HW219512   0.150   5.878   4.482
 6205SOL     OW19513   6.563   5.528   1.652
 6205SOL    HW119514   6.492   5.599   1.645
 6205SOL    HW219515   6.650   5.571   1.677
 6206SOL     OW19516   5.931   1.939   2.876
 6206SOL    HW119517   5.896   1.850   2.903
 6206SOL    HW219518   5.961   1.936   2.780
 6207SOL     OW19519   1.909   5.470   5.096
 6207SOL    HW119520   1.823   5.431   5.063
 6207SOL    HW219521   1.891   5.561   5.134
 6208SOL     OW19522   3.882   2.642   5.546
 6208SOL    HW119523   3.820   2.650   5.468
 6208SOL    HW219524   3.867   2.718   5.609
 6209SOL     OW19525   3.528   5.874   6.955
 6209SOL    HW119526   3.461   5.938   6.994
 6209SOL    HW219527   3.616   5.885   7.001
 6210SOL     OW19528   4.829   3.786   3.269
 6210SOL    HW119529   4.813   3.728   3.189
 6210SOL    HW219530   4.788   3.876   3.254
 6211SOL     OW19531   2.612   6.517   6.278
 6211SOL    HW119532   2.697   6.489   6.323
 6211SOL    HW219533   2.565   6.437   6.242
 6212SOL     OW19534   2.709   4.771   4.819
 6212SOL    HW119535   2.748   4.727   4.900
 6212SOL    HW219536   2.634   4.715   4.783
 6213SOL     OW19537   5.424   0.387   0.212
 6213SOL    HW119538   5.502   0.334   0.245
 6213SOL    HW219539   5.350   0.324   0.186
 6214SOL     OW19540   5.601   5.766   5.206
 6214SOL    HW119541   5.543   5.827   5.152
 6214SOL    HW219542   5.635   5.692   5.148
 6215SOL     OW19543   3.591   2.286   6.910
 6215SOL    HW119544   3.508   2.235   6.932
 6215SOL    HW219545   3.648   2.293   6.992
 6216SOL     OW19546   6.018   2.189   2.979
 6216SOL    HW119547   6.023   2.213   3.076
 6216SOL    HW219548   5.983   2.095   2.970
 6217SOL     OW19549   0.979   3.520   2.202
 6217SOL    HW119550   1.054   3.550   2.262
 6217SOL    HW219551   1.016   3.464   2.128
 6218SOL     OW19552   3.509   6.716   6.802
 6218SOL    HW119553   3.555   6.632   6.772
 6218SOL    HW219554   3.526   6.730   6.899
 6219SOL     OW19555   0.548   1.908   4.894
 6219SOL    HW119556   0.558   1.926   4.992
 6219SOL    HW219557   0.586   1.818   4.872
 6220SOL     OW19558   2.712   1.584   5.529
 6220SOL    HW119559   2.796   1.544   5.492
 6220SOL    HW219560   2.682   1.659   5.470
 6221SOL     OW19561   5.571   6.979   0.310
 6221SOL    HW119562   5.529   0.006   0.234
 6221SOL    HW219563   5.641   6.916   0.275
 6222SOL     OW19564   1.458   7.009   1.901
 6222SOL    HW119565   1.361   6.994   1.883
 6222SOL    HW219566   1.490   6.944   1.971
 6223SOL     OW19567   2.050   5.311   3.436
 6223SOL    HW119568   2.041   5.411   3.430
 6223SOL    HW219569   1.965   5.269   3.405
 6224SOL     OW19570   4.092   1.544   5.969
 6224SOL    HW119571   4.180   1.499   5.957
 6224SOL    HW219572   4.038   1.534   5.885
 6225SOL     OW19573   3.931   2.545   6.210
 6225SOL    HW119574   3.869   2.471   6.187
 6225SOL    HW219575   3.881   2.617   6.257
 6226SOL     OW19576   0.822   1.442   4.490
 6226SOL    HW119577   0.806   1.360   4.544
 6226SOL    HW219578   0.918   1.467   4.495
 6227SOL     OW19579   3.441   4.849   5.500
 6227SOL    HW119580   3.452   4.830   5.402
 6227SOL    HW219581   3.343   4.857   5.520
 6228SOL     OW19582   0.430   2.794   2.278
 6228SOL    HW119583   0.520   2.807   2.235
 6228SOL    HW219584   0.440   2.801   2.377
 6229SOL     OW19585   0.638   2.266   4.994
 6229SOL    HW119586   0.686   2.312   5.068
 6229SOL    HW219587   0.607   2.333   4.926
 6230SOL     OW19588   0.687   2.069   4.220
 6230SOL    HW119589   0.755   2.142   4.220
 6230SOL    HW219590   0.661   2.048   4.126
 6231SOL     OW19591   6.318   5.799   0.294
 6231SOL    HW119592   6.400   5.827   0.243
 6231SOL    HW219593   6.278   5.879   0.339
 6232SOL     OW19594   6.743   1.251   0.870
 6232SOL    HW119595   6.700   1.177   0.922
 6232SOL    HW219596   6.677   1.324   0.855
 6233SOL     OW19597   6.602   3.070   1.450
 6233SOL    HW119598   6.651   2.986   1.429
 6233SOL    HW219599   6.572   3.069   1.545
 6234SOL     OW19600   6.956   6.807   5.692
 6234SOL    HW119601   6.981   6.712   5.675
 6234SOL    HW219602   6.964   6.826   5.790
 6235SOL     OW19603   0.137   0.244   1.368
 6235SOL    HW119604   0.049   0.290   1.357
 6235SOL    HW219605   0.158   0.235   1.466
 6236SOL     OW19606   0.577   4.165   0.630
 6236SOL    HW119607   0.509   4.220   0.678
 6236SOL    HW219608   0.667   4.208   0.639
 6237SOL     OW19609   3.455   7.001   6.735
 6237SOL    HW119610   3.450   6.920   6.794
 6237SOL    HW219611   3.398   6.988   6.654
 6238SOL     OW19612   5.086   5.884   2.780
 6238SOL    HW119613   5.048   5.808   2.832
 6238SOL    HW219614   5.173   5.856   2.738
 6239SOL     OW19615   3.564   1.544   1.419
 6239SOL    HW119616   3.488   1.606   1.438
 6239SOL    HW219617   3.528   1.452   1.402
 6240SOL     OW19618   3.048   3.656   5.025
 6240SOL    HW119619   3.052   3.629   4.929
 6240SOL    HW219620   2.999   3.586   5.077
 6241SOL     OW19621   3.572   0.782   2.319
 6241SOL    HW119622   3.587   0.880   2.334
 6241SOL    HW219623   3.638   0.729   2.372
 6242SOL     OW19624   4.063   6.810   2.880
 6242SOL    HW119625   4.098   6.903   2.864
 6242SOL    HW219626   4.077   6.755   2.798
 6243SOL     OW19627   0.360   6.862   5.400
 6243SOL    HW119628   0.308   6.903   5.326
 6243SOL    HW219629   0.449   6.832   5.366
 6244SOL     OW19630   5.243   3.047   3.656
 6244SOL    HW119631   5.161   2.996   3.685
 6244SOL    HW219632   5.233   3.143   3.682
 6245SOL     OW19633   1.361   3.904   2.088
 6245SOL    HW119634   1.410   3.981   2.046
 6245SOL    HW219635   1.274   3.890   2.041
 6246SOL     OW19636   0.989   1.528   4.938
 6246SOL    HW119637   0.968   1.456   5.004
 6246SOL    HW219638   0.940   1.611   4.962
 6247SOL     OW19639   1.215   5.890   3.482
 6247SOL    HW119640   1.285   5.962   3.484
 6247SOL    HW219641   1.206   5.849   3.572
 6248SOL     OW19642   3.644   3.549   0.116
 6248SOL    HW119643   3.735   3.513   0.092
 6248SOL    HW219644   3.653   3.645   0.142
 6249SOL     OW19645   6.908   3.212   0.435
 6249SOL    HW119646   6.849   3.292   0.422
 6249SOL    HW219647   6.964   3.225   0.517
 6250SOL     OW19648   6.299   6.589   1.233
 6250SOL    HW119649   6.383   6.553   1.192
 6250SOL    HW219650   6.321   6.629   1.322
 6251SOL     OW19651   4.304   5.682   5.400
 6251SOL    HW119652   4.207   5.681   5.423
 6251SOL    HW219653   4.319   5.635   5.313
 6252SOL     OW19654   2.906   5.264   6.338
 6252SOL    HW119655   2.911   5.362   6.356
 6252SOL    HW219656   2.911   5.248   6.239
 6253SOL     OW19657   2.700   5.047   4.316
 6253SOL    HW119658   2.656   4.988   4.249
 6253SOL    HW219659   2.728   4.993   4.395
 6254SOL     OW19660   5.821   0.791   1.286
 6254SOL    HW119661   5.798   0.883   1.252
 6254SOL    HW219662   5.862   0.799   1.377
 6255SOL     OW19663   2.291   1.707   1.385
 6255SOL    HW119664   2.246   1.796   1.386
 6255SOL    HW219665   2.371   1.708   1.445
 6256SOL     OW19666   3.806   5.301   2.134
 6256SOL    HW119667   3.873   5.299   2.208
 6256SOL    HW219668   3.805   5.213   2.087
 6257SOL     OW19669   4.560   3.072   0.157
 6257SOL    HW119670   4.555   2.980   0.119
 6257SOL    HW219671   4.564   3.066   0.257
 6258SOL     OW19672   3.178   6.763   4.282
 6258SOL    HW119673   3.162   6.769   4.183
 6258SOL    HW219674   3.097   6.723   4.326
 6259SOL     OW19675   2.438   0.483   6.794
 6259SOL    HW119676   2.377   0.407   6.819
 6259SOL    HW219677   2.518   0.482   6.854
 6260SOL     OW19678   3.614   6.276   0.031
 6260SOL    HW119679   3.646   6.232   0.115
 6260SOL    HW219680   3.545   6.344   0.053
 6261SOL     OW19681   5.481   0.544   6.953
 6261SOL    HW119682   5.423   0.564   0.009
 6261SOL    HW219683   5.556   0.484   6.981
 6262SOL     OW19684   1.782   6.027   1.939
 6262SOL    HW119685   1.864   5.989   1.981
 6262SOL    HW219686   1.804   6.114   1.896
 6263SOL     OW19687   0.965   6.485   5.014
 6263SOL    HW119688   1.044   6.513   4.960
 6263SOL    HW219689   0.883   6.491   4.958
 6264SOL     OW19690   2.125   0.079   2.210
 6264SOL    HW119691   2.107   0.177   2.213
 6264SOL    HW219692   2.066   0.032   2.276
 6265SOL     OW19693   4.018   3.237   0.448
 6265SOL    HW119694   4.004   3.328   0.486
 6265SOL    HW219695   4.113   3.208   0.464
 6266SOL     OW19696   4.768   0.186   3.540
 6266SOL    HW119697   4.720   0.130   3.472
 6266SOL    HW219698   4.732   0.279   3.538
 6267SOL     OW19699   2.124   6.799   5.086
 6267SOL    HW119700   2.157   6.829   5.176
 6267SOL    HW219701   2.200   6.768   5.031
 6268SOL     OW19702   2.652   0.839   1.872
 6268SOL    HW119703   2.605   0.926   1.860
 6268SOL    HW219704   2.738   0.853   1.920
 6269SOL     OW19705   6.713   0.045   2.366
 6269SOL    HW119706   6.689   0.125   2.311
 6269SOL    HW219707   6.807   0.018   2.346
 6270SOL     OW19708   0.354   0.113   6.875
 6270SOL    HW119709   0.282   0.177   6.903
 6270SOL    HW219710   0.312   0.027   6.845
 6271SOL     OW19711   5.758   2.509   5.811
 6271SOL    HW119712   5.694   2.568   5.859
 6271SOL    HW219713   5.841   2.561   5.788
 6272SOL     OW19714   0.379   2.144   0.736
 6272SOL    HW119715   0.350   2.089   0.815
 6272SOL    HW219716   0.475   2.126   0.716
 6273SOL     OW19717   0.645   6.375   2.370
 6273SOL    HW119718   0.640   6.438   2.448
 6273SOL    HW219719   0.740   6.347   2.356
 6274SOL     OW19720   3.410   6.948   4.379
 6274SOL    HW119721   3.438   6.900   4.463
 6274SOL    HW219722   3.367   6.882   4.317
 6275SOL     OW19723   1.988   6.319   0.342
 6275SOL    HW119724   1.974   6.328   0.243
 6275SOL    HW219725   1.987   6.223   0.367
 6276SOL     OW19726   2.213   5.801   3.310
 6276SOL    HW119727   2.235   5.894   3.278
 6276SOL    HW219728   2.129   5.770   3.265
 6277SOL     OW19729   4.504   3.612   0.941
 6277SOL    HW119730   4.532   3.593   1.035
 6277SOL    HW219731   4.410   3.582   0.926
 6278SOL     OW19732   4.383   6.806   4.907
 6278SOL    HW119733   4.364   6.835   4.813
 6278SOL    HW219734   4.338   6.719   4.925
 6279SOL     OW19735   3.188   6.369   0.255
 6279SOL    HW119736   3.250   6.392   0.331
 6279SOL    HW219737   3.133   6.289   0.280
 6280SOL     OW19738   0.499   0.936   6.696
 6280SOL    HW119739   0.450   0.873   6.757
 6280SOL    HW219740   0.589   0.898   6.674
 6281SOL     OW19741   6.713   4.874   4.132
 6281SOL    HW119742   6.722   4.889   4.231
 6281SOL    HW219743   6.800   4.898   4.087
 6282SOL     OW19744   6.367   4.454   5.438
 6282SOL    HW119745   6.422   4.517   5.493
 6282SOL    HW219746   6.296   4.505   5.390
 6283SOL     OW19747   0.040   3.985   4.106
 6283SOL    HW119748   0.119   4.002   4.046
 6283SOL    HW219749   0.071   3.979   4.201
 6284SOL     OW19750   2.038   4.685   5.836
 6284SOL    HW119751   2.069   4.611   5.896
 6284SOL    HW219752   2.035   4.652   5.742
 6285SOL     OW19753   1.219   3.246   3.393
 6285SOL    HW119754   1.276   3.172   3.427
 6285SOL    HW219755   1.198   3.231   3.296
 6286SOL     OW19756   0.120   2.427   4.427
 6286SOL    HW119757   0.114   2.525   4.446
 6286SOL    HW219758   0.052   2.401   4.358
 6287SOL     OW19759   3.299   4.954   5.097
 6287SOL    HW119760   3.241   4.885   5.055
 6287SOL    HW219761   3.319   5.026   5.031
 6288SOL     OW19762   5.474   4.793   1.932
 6288SOL    HW119763   5.457   4.694   1.937
 6288SOL    HW219764   5.388   4.841   1.917
 6289SOL     OW19765   2.379   5.014   6.713
 6289SOL    HW119766   2.358   5.003   6.810
 6289SOL    HW219767   2.353   5.107   6.684
 6290SOL     OW19768   5.924   5.181   5.889
 6290SOL    HW119769   5.903   5.201   5.793
 6290SOL    HW219770   6.002   5.236   5.918
 6291SOL     OW19771   3.880   4.054   3.673
 6291SOL    HW119772   3.807   4.042   3.740
 6291SOL    HW219773   3.856   4.128   3.610
 6292SOL     OW19774   2.553   2.638   5.545
 6292SOL    HW119775   2.531   2.690   5.462
 6292SOL    HW219776   2.635   2.675   5.588
 6293SOL     OW19777   4.359   1.648   0.555
 6293SOL    HW119778   4.328   1.617   0.465
 6293SOL    HW219779   4.282   1.644   0.619
 6294SOL     OW19780   4.186   0.471   3.235
 6294SOL    HW119781   4.199   0.570   3.230
 6294SOL    HW219782   4.203   0.439   3.329
 6295SOL     OW19783   5.603   4.371   4.623
 6295SOL    HW119784   5.588   4.414   4.534
 6295SOL    HW219785   5.577   4.435   4.696
 6296SOL     OW19786   6.651   4.841   5.505
 6296SOL    HW119787   6.645   4.764   5.569
 6296SOL    HW219788   6.641   4.926   5.556
 6297SOL     OW19789   5.921   0.284   5.376
 6297SOL    HW119790   5.938   0.242   5.287
 6297SOL    HW219791   5.854   0.358   5.366
 6298SOL     OW19792   0.962   3.632   6.484
 6298SOL    HW119793   1.053   3.672   6.472
 6298SOL    HW219794   0.941   3.573   6.406
 6299SOL     OW19795   5.945   2.830   1.891
 6299SOL    HW119796   5.891   2.913   1.906
 6299SOL    HW219797   5.956   2.815   1.793
 6300SOL     OW19798   6.303   0.690   0.148
 6300SOL    HW119799   6.366   0.667   0.074
 6300SOL    HW219800   6.316   0.787   0.172
 6301SOL     OW19801   2.688   6.799   0.236
 6301SOL    HW119802   2.657   6.707   0.258
 6301SOL    HW219803   2.671   6.819   0.140
 6302SOL     OW19804   1.681   2.182   4.908
 6302SOL    HW119805   1.728   2.102   4.947
 6302SOL    HW219806   1.749   2.244   4.869
 6303SOL     OW19807   0.288   0.567   5.671
 6303SOL    HW119808   0.371   0.549   5.724
 6303SOL    HW219809   0.243   0.480   5.649
 6304SOL     OW19810   3.898   1.154   1.858
 6304SOL    HW119811   3.855   1.077   1.812
 6304SOL    HW219812   3.828   1.223   1.880
 6305SOL     OW19813   5.937   6.455   0.418
 6305SOL    HW119814   5.919   6.521   0.490
 6305SOL    HW219815   5.862   6.389   0.414
 6306SOL     OW19816   6.988   3.707   4.182
 6306SOL    HW119817   6.899   3.687   4.140
 6306SOL    HW219818   0.038   3.675   4.121
 6307SOL     OW19819   3.225   3.654   3.510
 6307SOL    HW119820   3.210   3.684   3.604
 6307SOL    HW219821   3.267   3.564   3.509
 6308SOL     OW19822   1.651   2.490   4.477
 6308SOL    HW119823   1.608   2.506   4.387
 6308SOL    HW219824   1.601   2.541   4.547
 6309SOL     OW19825   6.912   6.536   4.555
 6309SOL    HW119826   6.834   6.477   4.577
 6309SOL    HW219827   6.955   6.568   4.639
 6310SOL     OW19828   1.236   6.594   2.718
 6310SOL    HW119829   1.187   6.540   2.787
 6310SOL    HW219830   1.177   6.668   2.686
 6311SOL     OW19831   4.677   1.941   5.479
 6311SOL    HW119832   4.675   1.890   5.393
 6311SOL    HW219833   4.719   1.885   5.550
 6312SOL     OW19834   0.515   0.209   5.416
 6312SOL    HW119835   0.588   0.228   5.350
 6312SOL    HW219836   0.430   0.253   5.385
 6313SOL     OW19837   6.565   6.056   4.044
 6313SOL    HW119838   6.645   6.045   4.103
 6313SOL    HW219839   6.491   6.098   4.097
 6314SOL     OW19840   3.687   6.612   1.633
 6314SOL    HW119841   3.783   6.584   1.632
 6314SOL    HW219842   3.682   6.712   1.638
 6315SOL     OW19843   3.128   1.651   6.039
 6315SOL    HW119844   3.160   1.710   6.113
 6315SOL    HW219845   3.178   1.673   5.955
 6316SOL     OW19846   5.322   2.419   5.656
 6316SOL    HW119847   5.376   2.503   5.652
 6316SOL    HW219848   5.240   2.429   5.600
 6317SOL     OW19849   4.850   4.750   1.742
 6317SOL    HW119850   4.940   4.710   1.762
 6317SOL    HW219851   4.833   4.744   1.643
 6318SOL     OW19852   4.216   0.634   6.171
 6318SOL    HW119853   4.295   0.685   6.136
 6318SOL    HW219854   4.206   0.549   6.120
 6319SOL     OW19855   6.163   2.394   5.475
 6319SOL    HW119856   6.152   2.489   5.503
 6319SOL    HW219857   6.236   2.351   5.528
 6320SOL     OW19858   0.224   6.844   4.909
 6320SOL    HW119859   0.296   6.901   4.870
 6320SOL    HW219860   0.144   6.844   4.848
 6321SOL     OW19861   4.196   3.127   0.825
 6321SOL    HW119862   4.240   3.083   0.747
 6321SOL    HW219863   4.131   3.196   0.793
 6322SOL     OW19864   2.698   2.647   0.476
 6322SOL    HW119865   2.771   2.638   0.408
 6322SOL    HW219866   2.715   2.726   0.534
 6323SOL     OW19867   1.109   2.323   2.327
 6323SOL    HW119868   1.080   2.391   2.260
 6323SOL    HW219869   1.129   2.237   2.281
 6324SOL     OW19870   4.100   0.606   0.512
 6324SOL    HW119871   4.117   0.669   0.588
 6324SOL    HW219872   4.119   0.653   0.426
 6325SOL     OW19873   2.117   3.260   2.603
 6325SOL    HW119874   2.046   3.197   2.636
 6325SOL    HW219875   2.093   3.353   2.630
 6326SOL     OW19876   5.216   5.199   0.305
 6326SOL    HW119877   5.205   5.294   0.278
 6326SOL    HW219878   5.217   5.141   0.223
 6327SOL     OW19879   0.167   1.781   4.388
 6327SOL    HW119880   0.150   1.707   4.453
 6327SOL    HW219881   0.193   1.864   4.436
 6328SOL     OW19882   4.497   3.360   0.173
 6328SOL    HW119883   4.409   3.379   0.215
 6328SOL    HW219884   4.502   3.264   0.145
 6329SOL     OW19885   1.519   2.659   4.674
 6329SOL    HW119886   1.482   2.752   4.679
 6329SOL    HW219887   1.444   2.593   4.672
 6330SOL     OW19888   5.989   6.713   2.227
 6330SOL    HW119889   5.995   6.734   2.129
 6330SOL    HW219890   5.893   6.699   2.252
 6331SOL     OW19891   6.948   3.746   4.801
 6331SOL    HW119892   6.904   3.664   4.763
 6331SOL    HW219893   6.879   3.802   4.848
 6332SOL     OW19894   0.507   2.790   1.488
 6332SOL    HW119895   0.414   2.822   1.470
 6332SOL    HW219896   0.516   2.696   1.454
 6333SOL     OW19897   4.971   0.131   5.645
 6333SOL    HW119898   4.960   0.228   5.666
 6333SOL    HW219899   4.901   0.103   5.580
 6334SOL     OW19900   3.276   0.831   2.219
 6334SOL    HW119901   3.359   0.871   2.257
 6334SOL    HW219902   3.294   0.798   2.127
 6335SOL     OW19903   3.633   0.625   0.402
 6335SOL    HW119904   3.689   0.571   0.340
 6335SOL    HW219905   3.691   0.677   0.464
 6336SOL     OW19906   0.358   2.101   6.272
 6336SOL    HW119907   0.432   2.077   6.209
 6336SOL    HW219908   0.360   2.199   6.289
 6337SOL     OW19909   3.841   4.930   4.770
 6337SOL    HW119910   3.887   4.895   4.688
 6337SOL    HW219911   3.743   4.941   4.751
 6338SOL     OW19912   2.630   2.376   4.332
 6338SOL    HW119913   2.635   2.368   4.233
 6338SOL    HW219914   2.723   2.378   4.370
 6339SOL     OW19915   0.534   3.421   4.146
 6339SOL    HW119916   0.470   3.478   4.197
 6339SOL    HW219917   0.484   3.360   4.085
 6340SOL     OW19918   2.707   4.310   0.878
 6340SOL    HW119919   2.742   4.317   0.972
 6340SOL    HW219920   2.741   4.387   0.824
 6341SOL     OW19921   6.731   3.143   4.451
 6341SOL    HW119922   6.678   3.173   4.530
 6341SOL    HW219923   6.805   3.082   4.482
 6342SOL     OW19924   2.472   1.677   1.158
 6342SOL    HW119925   2.394   1.691   1.219
 6342SOL    HW219926   2.527   1.600   1.191
 6343SOL     OW19927   3.886   0.524   6.339
 6343SOL    HW119928   3.867   0.576   6.422
 6343SOL    HW219929   3.801   0.510   6.288
 6344SOL     OW19930   4.851   2.410   3.932
 6344SOL    HW119931   4.797   2.340   3.979
 6344SOL    HW219932   4.798   2.495   3.928
 6345SOL     OW19933   5.085   2.666   1.825
 6345SOL    HW119934   5.153   2.611   1.874
 6345SOL    HW219935   5.072   2.753   1.873
 6346SOL     OW19936   6.851   5.342   4.610
 6346SOL    HW119937   6.811   5.433   4.602
 6346SOL    HW219938   6.787   5.274   4.573
 6347SOL     OW19939   1.641   1.529   0.578
 6347SOL    HW119940   1.627   1.431   0.567
 6347SOL    HW219941   1.566   1.578   0.533
 6348SOL     OW19942   1.419   2.671   6.735
 6348SOL    HW119943   1.321   2.682   6.717
 6348SOL    HW219944   1.445   2.728   6.813
 6349SOL     OW19945   1.712   1.286   0.906
 6349SOL    HW119946   1.760   1.254   0.825
 6349SOL    HW219947   1.778   1.307   0.978
 6350SOL     OW19948   0.493   5.277   4.366
 6350SOL    HW119949   0.589   5.250   4.362
 6350SOL    HW219950   0.435   5.195   4.362
 6351SOL     OW19951   5.895   3.162   3.578
 6351SOL    HW119952   5.991   3.171   3.606
 6351SOL    HW219953   5.844   3.242   3.608
 6352SOL     OW19954   3.405   0.239   5.060
 6352SOL    HW119955   3.330   0.190   5.015
 6352SOL    HW219956   3.385   0.337   5.058
 6353SOL     OW19957   0.896   5.826   5.522
 6353SOL    HW119958   0.941   5.893   5.463
 6353SOL    HW219959   0.885   5.865   5.614
 6354SOL     OW19960   3.688   5.982   2.783
 6354SOL    HW119961   3.601   5.952   2.745
 6354SOL    HW219962   3.676   6.006   2.879
 6355SOL     OW19963   2.687   5.747   6.645
 6355SOL    HW119964   2.683   5.651   6.672
 6355SOL    HW219965   2.782   5.771   6.622
 6356SOL     OW19966   5.705   4.911   0.721
 6356SOL    HW119967   5.684   4.905   0.818
 6356SOL    HW219968   5.744   5.001   0.700
 6357SOL     OW19969   5.828   3.519   2.722
 6357SOL    HW119970   5.744   3.471   2.748
 6357SOL    HW219971   5.901   3.453   2.708
 6358SOL     OW19972   0.417   1.843   6.004
 6358SOL    HW119973   0.435   1.933   6.044
 6358SOL    HW219974   0.381   1.781   6.074
 6359SOL     OW19975   6.173   7.005   6.898
 6359SOL    HW119976   6.238   0.058   6.885
 6359SOL    HW219977   6.097   0.013   6.956
 6360SOL     OW19978   1.337   3.898   5.158
 6360SOL    HW119979   1.260   3.952   5.194
 6360SOL    HW219980   1.314   3.865   5.067
 6361SOL     OW19981   0.980   0.818   1.307
 6361SOL    HW119982   1.036   0.793   1.386
 6361SOL    HW219983   1.030   0.795   1.223
 6362SOL     OW19984   0.290   5.702   5.730
 6362SOL    HW119985   0.335   5.758   5.799
 6362SOL    HW219986   0.328   5.723   5.640
 6363SOL     OW19987   2.419   5.876   3.582
 6363SOL    HW119988   2.497   5.822   3.549
 6363SOL    HW219989   2.336   5.821   3.576
 6364SOL     OW19990   2.750   2.230   5.459
 6364SOL    HW119991   2.663   2.266   5.425
 6364SOL    HW219992   2.825   2.292   5.433
 6365SOL     OW19993   4.704   6.299   4.068
 6365SOL    HW119994   4.795   6.327   4.098
 6365SOL    HW219995   4.712   6.240   3.987
 6366SOL     OW19996   1.003   5.697   4.992
 6366SOL    HW119997   0.932   5.669   5.056
 6366SOL    HW219998   1.093   5.687   5.035
 6367SOL     OW19999   3.486   1.871   3.398
 6367SOL    HW120000   3.504   1.790   3.454
 6367SOL    HW220001   3.416   1.928   3.443
 6368SOL     OW20002   3.634   4.931   4.175
 6368SOL    HW120003   3.699   4.890   4.112
 6368SOL    HW220004   3.683   4.969   4.254
 6369SOL     OW20005   1.372   0.491   4.956
 6369SOL    HW120006   1.469   0.475   4.940
 6369SOL    HW220007   1.318   0.427   4.901
 6370SOL     OW20008   5.077   3.502   3.636
 6370SOL    HW120009   4.993   3.544   3.670
 6370SOL    HW220010   5.058   3.451   3.553
 6371SOL     OW20011   5.678   4.708   3.089
 6371SOL    HW120012   5.745   4.740   3.157
 6371SOL    HW220013   5.594   4.680   3.136
 6372SOL     OW20014   1.419   1.142   2.085
 6372SOL    HW120015   1.456   1.080   2.154
 6372SOL    HW220016   1.341   1.098   2.040
 6373SOL     OW20017   4.963   4.494   2.786
 6373SOL    HW120018   4.918   4.551   2.854
 6373SOL    HW220019   4.923   4.512   2.696
 6374SOL     OW20020   4.108   3.144   1.420
 6374SOL    HW120021   4.206   3.159   1.414
 6374SOL    HW220022   4.072   3.188   1.503
 6375SOL     OW20023   7.012   2.420   2.522
 6375SOL    HW120024   6.942   2.378   2.581
 6375SOL    HW220025   6.977   2.507   2.487
 6376SOL     OW20026   4.915   2.088   6.722
 6376SOL    HW120027   4.863   2.171   6.702
 6376SOL    HW220028   4.862   2.008   6.694
 6377SOL     OW20029   6.485   1.052   5.018
 6377SOL    HW120030   6.416   1.097   4.962
 6377SOL    HW220031   6.526   1.119   5.081
 6378SOL     OW20032   5.313   5.072   3.309
 6378SOL    HW120033   5.238   5.104   3.251
 6378SOL    HW220034   5.293   5.095   3.405
 6379SOL     OW20035   0.325   4.005   4.757
 6379SOL    HW120036   0.228   4.026   4.768
 6379SOL    HW220037   0.371   4.016   4.845
 6380SOL     OW20038   0.058   1.683   5.203
 6380SOL    HW120039   0.012   1.641   5.125
 6380SOL    HW220040   0.103   1.767   5.175
 6381SOL     OW20041   4.154   2.911   1.068
 6381SOL    HW120042   4.199   2.941   0.983
 6381SOL    HW220043   4.223   2.891   1.137
 6382SOL     OW20044   3.588   1.536   0.280
 6382SOL    HW120045   3.518   1.606   0.268
 6382SOL    HW220046   3.552   1.447   0.253
 6383SOL     OW20047   2.349   2.341   2.453
 6383SOL    HW120048   2.257   2.314   2.482
 6383SOL    HW220049   2.342   2.418   2.390
 6384SOL     OW20050   5.676   4.019   2.983
 6384SOL    HW120051   5.752   4.009   3.047
 6384SOL    HW220052   5.595   3.974   3.020
 6385SOL     OW20053   6.656   3.507   3.584
 6385SOL    HW120054   6.730   3.546   3.529
 6385SOL    HW220055   6.591   3.579   3.609
 6386SOL     OW20056   2.941   3.085   6.468
 6386SOL    HW120057   2.877   3.007   6.468
 6386SOL    HW220058   2.894   3.166   6.435
 6387SOL     OW20059   6.609   1.878   6.780
 6387SOL    HW120060   6.708   1.875   6.790
 6387SOL    HW220061   6.567   1.817   6.848
 6388SOL     OW20062   4.919   6.008   1.114
 6388SOL    HW120063   4.860   6.038   1.039
 6388SOL    HW220064   4.889   6.052   1.199
 6389SOL     OW20065   0.695   6.707   0.757
 6389SOL    HW120066   0.652   6.769   0.823
 6389SOL    HW220067   0.787   6.742   0.734
 6390SOL     OW20068   6.389   0.336   5.277
 6390SOL    HW120069   6.468   0.397   5.282
 6390SOL    HW220070   6.306   0.391   5.263
 6391SOL     OW20071   2.117   0.341   6.520
 6391SOL    HW120072   2.203   0.291   6.525
 6391SOL    HW220073   2.082   0.357   6.613
 6392SOL     OW20074   2.972   5.035   2.852
 6392SOL    HW120075   2.945   5.077   2.939
 6392SOL    HW220076   2.894   5.033   2.790
 6393SOL     OW20077   0.333   6.290   1.859
 6393SOL    HW120078   0.402   6.235   1.905
 6393SOL    HW220079   0.255   6.304   1.920
 6394SOL     OW20080   1.692   5.646   0.918
 6394SOL    HW120081   1.624   5.634   0.990
 6394SOL    HW220082   1.654   5.615   0.831
 6395SOL     OW20083   0.070   3.195   1.584
 6395SOL    HW120084   6.996   3.199   1.556
 6395SOL    HW220085   0.075   3.188   1.683
 6396SOL     OW20086   6.574   3.324   6.415
 6396SOL    HW120087   6.575   3.247   6.478
 6396SOL    HW220088   6.481   3.359   6.406
 6397SOL     OW20089   5.833   1.110   1.674
 6397SOL    HW120090   5.901   1.181   1.656
 6397SOL    HW220091   5.741   1.148   1.665
 6398SOL     OW20092   2.805   6.593   1.900
 6398SOL    HW120093   2.771   6.528   1.832
 6398SOL    HW220094   2.881   6.645   1.862
 6399SOL     OW20095   1.507   0.617   6.894
 6399SOL    HW120096   1.557   0.618   6.980
 6399SOL    HW220097   1.437   0.546   6.896
 6400SOL     OW20098   1.941   4.944   2.662
 6400SOL    HW120099   1.966   5.038   2.687
 6400SOL    HW220100   1.857   4.918   2.710
 6401SOL     OW20101   5.497   5.301   2.996
 6401SOL    HW120102   5.519   5.385   3.046
 6401SOL    HW220103   5.547   5.300   2.910
 6402SOL     OW20104   2.180   3.459   3.703
 6402SOL    HW120105   2.219   3.371   3.674
 6402SOL    HW220106   2.251   3.530   3.698
 6403SOL     OW20107   5.616   6.024   5.641
 6403SOL    HW120108   5.663   6.008   5.554
 6403SOL    HW220109   5.533   6.077   5.625
 6404SOL     OW20110   4.237   1.085   2.635
 6404SOL    HW120111   4.193   1.034   2.561
 6404SOL    HW220112   4.179   1.161   2.663
 6405SOL     OW20113   4.108   0.812   4.031
 6405SOL    HW120114   4.116   0.848   3.938
 6405SOL    HW220115   4.024   0.848   4.072
 6406SOL     OW20116   0.630   2.813   2.749
 6406SOL    HW120117   0.592   2.858   2.829
 6406SOL    HW220118   0.718   2.771   2.773
 6407SOL     OW20119   2.771   0.290   4.390
 6407SOL    HW120120   2.829   0.228   4.443
 6407SOL    HW220121   2.795   0.282   4.293
 6408SOL     OW20122   5.010   1.443   0.973
 6408SOL    HW120123   5.050   1.406   0.889
 6408SOL    HW220124   4.951   1.521   0.949
 6409SOL     OW20125   6.569   4.069   3.525
 6409SOL    HW120126   6.573   4.169   3.520
 6409SOL    HW220127   6.477   4.041   3.552
 6410SOL     OW20128   1.786   1.320   6.074
 6410SOL    HW120129   1.712   1.355   6.016
 6410SOL    HW220130   1.865   1.296   6.017
 6411SOL     OW20131   0.277   2.494   2.834
 6411SOL    HW120132   0.298   2.567   2.899
 6411SOL    HW220133   0.347   2.423   2.838
 6412SOL     OW20134   1.891   1.021   5.749
 6412SOL    HW120135   1.872   1.119   5.756
 6412SOL    HW220136   1.980   1.007   5.704
 6413SOL     OW20137   3.917   4.922   4.039
 6413SOL    HW120138   3.862   4.912   3.956
 6413SOL    HW220139   3.981   4.845   4.045
 6414SOL     OW20140   5.160   0.979   6.748
 6414SOL    HW120141   5.238   1.037   6.770
 6414SOL    HW220142   5.190   0.884   6.742
 6415SOL     OW20143   1.496   3.078   4.081
 6415SOL    HW120144   1.530   3.165   4.044
 6415SOL    HW220145   1.573   3.024   4.113
 6416SOL     OW20146   2.332   6.940   6.330
 6416SOL    HW120147   2.247   6.960   6.379
 6416SOL    HW220148   2.339   6.841   6.317
 6417SOL     OW20149   5.937   3.903   0.457
 6417SOL    HW120150   5.921   3.924   0.361
 6417SOL    HW220151   6.029   3.935   0.483
 6418SOL     OW20152   4.752   4.044   3.285
 6418SOL    HW120153   4.696   4.116   3.242
 6418SOL    HW220154   4.774   4.072   3.379
 6419SOL     OW20155   1.286   5.332   3.046
 6419SOL    HW120156   1.219   5.271   3.005
 6419SOL    HW220157   1.298   5.308   3.143
 6420SOL     OW20158   2.626   0.639   4.463
 6420SOL    HW120159   2.631   0.561   4.525
 6420SOL    HW220160   2.560   0.706   4.498
 6421SOL     OW20161   5.042   0.377   1.834
 6421SOL    HW120162   4.948   0.413   1.832
 6421SOL    HW220163   5.107   0.453   1.836
 6422SOL     OW20164   6.516   0.957   4.674
 6422SOL    HW120165   6.559   1.047   4.683
 6422SOL    HW220166   6.552   0.895   4.744
 6423SOL     OW20167   5.071   5.096   3.994
 6423SOL    HW120168   5.130   5.016   4.009
 6423SOL    HW220169   5.119   5.179   4.024
 6424SOL     OW20170   0.403   3.936   4.496
 6424SOL    HW120171   0.338   3.943   4.572
 6424SOL    HW220172   0.356   3.960   4.411
 6425SOL     OW20173   6.961   6.275   3.081
 6425SOL    HW120174   6.878   6.329   3.075
 6425SOL    HW220175   6.989   6.245   2.990
 6426SOL     OW20176   0.173   5.541   2.999
 6426SOL    HW120177   0.134   5.475   3.063
 6426SOL    HW220178   0.221   5.612   3.050
 6427SOL     OW20179   3.724   4.168   3.486
 6427SOL    HW120180   3.738   4.097   3.417
 6427SOL    HW220181   3.626   4.173   3.509
 6428SOL     OW20182   5.862   3.393   0.088
 6428SOL    HW120183   5.841   3.302   0.123
 6428SOL    HW220184   5.826   3.401   7.017
 6429SOL     OW20185   6.953   0.787   5.958
 6429SOL    HW120186   7.004   0.821   6.037
 6429SOL    HW220187   7.017   0.762   5.885
 6430SOL     OW20188   6.179   1.371   3.765
 6430SOL    HW120189   6.231   1.420   3.834
 6430SOL    HW220190   6.149   1.283   3.801
 6431SOL     OW20191   3.927   6.117   3.650
 6431SOL    HW120192   3.842   6.164   3.629
 6431SOL    HW220193   3.974   6.093   3.564
 6432SOL     OW20194   4.705   4.727   5.792
 6432SOL    HW120195   4.759   4.808   5.815
 6432SOL    HW220196   4.626   4.721   5.853
 6433SOL     OW20197   2.741   5.102   6.475
 6433SOL    HW120198   2.646   5.109   6.446
 6433SOL    HW220199   2.794   5.176   6.432
 6434SOL     OW20200   2.901   6.890   6.461
 6434SOL    HW120201   2.832   6.895   6.389
 6434SOL    HW220202   2.912   6.979   6.505
 6435SOL     OW20203   5.648   0.068   0.562
 6435SOL    HW120204   5.663   0.029   0.472
 6435SOL    HW220205   5.643   7.018   0.630
 6436SOL     OW20206   1.293   3.425   2.564
 6436SOL    HW120207   1.331   3.333   2.560
 6436SOL    HW220208   1.211   3.426   2.622
 6437SOL     OW20209   1.249   2.121   0.466
 6437SOL    HW120210   1.321   2.191   0.460
 6437SOL    HW220211   1.278   2.039   0.416
 6438SOL     OW20212   0.646   4.525   5.558
 6438SOL    HW120213   0.727   4.472   5.582
 6438SOL    HW220214   0.617   4.501   5.465
 6439SOL     OW20215   5.380   1.086   2.021
 6439SOL    HW120216   5.298   1.128   2.060
 6439SOL    HW220217   5.461   1.120   2.068
 6440SOL     OW20218   2.599   1.306   5.748
 6440SOL    HW120219   2.662   1.232   5.725
 6440SOL    HW220220   2.551   1.284   5.833
 6441SOL     OW20221   0.302   0.430   1.206
 6441SOL    HW120222   0.259   0.424   1.296
 6441SOL    HW220223   0.256   0.366   1.143
 6442SOL     OW20224   2.626   1.769   5.317
 6442SOL    HW120225   2.566   1.849   5.324
 6442SOL    HW220226   2.597   1.712   5.240
 6443SOL     OW20227   3.372   2.819   5.705
 6443SOL    HW120228   3.437   2.859   5.641
 6443SOL    HW220229   3.298   2.775   5.654
 6444SOL     OW20230   5.430   2.848   4.942
 6444SOL    HW120231   5.465   2.802   5.023
 6444SOL    HW220232   5.438   2.947   4.954
 6445SOL     OW20233   4.042   3.617   3.633
 6445SOL    HW120234   4.112   3.595   3.702
 6445SOL    HW220235   3.952   3.620   3.677
 6446SOL     OW20236   0.634   1.737   0.254
 6446SOL    HW120237   0.615   1.639   0.261
 6446SOL    HW220238   0.551   1.788   0.276
 6447SOL     OW20239   6.756   4.634   2.960
 6447SOL    HW120240   6.844   4.592   2.938
 6447SOL    HW220241   6.684   4.594   2.902
 6448SOL     OW20242   5.220   5.149   1.235
 6448SOL    HW120243   5.211   5.248   1.227
 6448SOL    HW220244   5.154   5.116   1.303
 6449SOL     OW20245   3.548   5.583   1.392
 6449SOL    HW120246   3.554   5.642   1.312
 6449SOL    HW220247   3.495   5.630   1.463
 6450SOL     OW20248   1.575   2.796   0.746
 6450SOL    HW120249   1.585   2.878   0.803
 6450SOL    HW220250   1.509   2.734   0.788
 6451SOL     OW20251   2.413   0.790   6.184
 6451SOL    HW120252   2.457   0.711   6.227
 6451SOL    HW220253   2.365   0.760   6.102
 6452SOL     OW20254   4.674   4.272   3.145
 6452SOL    HW120255   4.749   4.320   3.190
 6452SOL    HW220256   4.695   4.259   3.048
 6453SOL     OW20257   2.216   0.214   1.767
 6453SOL    HW120258   2.198   0.116   1.771
 6453SOL    HW220259   2.314   0.230   1.760
 6454SOL     OW20260   0.950   1.394   2.899
 6454SOL    HW120261   0.943   1.452   2.980
 6454SOL    HW220262   0.921   1.446   2.819
 6455SOL     OW20263   6.899   3.093   3.957
 6455SOL    HW120264   6.836   3.164   3.988
 6455SOL    HW220265   6.858   3.003   3.974
 6456SOL     OW20266   1.290   1.649   3.606
 6456SOL    HW120267   1.348   1.685   3.533
 6456SOL    HW220268   1.268   1.554   3.587
 6457SOL     OW20269   5.204   0.600   1.828
 6457SOL    HW120270   5.168   0.687   1.795
 6457SOL    HW220271   5.244   0.612   1.919
 6458SOL     OW20272   1.253   5.608   4.134
 6458SOL    HW120273   1.281   5.514   4.112
 6458SOL    HW220274   1.165   5.607   4.181
 6459SOL     OW20275   6.526   3.213   1.944
 6459SOL    HW120276   6.549   3.302   1.905
 6459SOL    HW220277   6.547   3.212   2.042
 6460SOL     OW20278   5.815   5.905   6.381
 6460SOL    HW120279   5.766   5.888   6.467
 6460SOL    HW220280   5.908   5.871   6.388
 6461SOL     OW20281   2.579   4.255   6.935
 6461SOL    HW120282   2.481   4.274   6.925
 6461SOL    HW220283   2.629   4.340   6.948
 6462SOL     OW20284   1.482   3.235   4.601
 6462SOL    HW120285   1.551   3.269   4.536
 6462SOL    HW220286   1.425   3.312   4.632
 6463SOL     OW20287   5.603   0.899   0.599
 6463SOL    HW120288   5.513   0.865   0.571
 6463SOL    HW220289   5.636   0.843   0.676
 6464SOL     OW20290   1.779   5.223   5.269
 6464SOL    HW120291   1.774   5.158   5.193
 6464SOL    HW220292   1.754   5.176   5.354
 6465SOL     OW20293   6.765   3.325   2.605
 6465SOL    HW120294   6.764   3.241   2.550
 6465SOL    HW220295   6.803   3.305   2.695
 6466SOL     OW20296   6.041   1.531   6.422
 6466SOL    HW120297   6.037   1.452   6.484
 6466SOL    HW220298   6.129   1.533   6.376
 6467SOL     OW20299   3.761   0.298   0.659
 6467SOL    HW120300   3.817   0.361   0.711
 6467SOL    HW220301   3.815   0.258   0.585
 6468SOL     OW20302   3.043   5.987   1.351
 6468SOL    HW120303   3.139   5.982   1.323
 6468SOL    HW220304   3.005   6.075   1.324
 6469SOL     OW20305   3.860   2.122   3.436
 6469SOL    HW120306   3.906   2.036   3.458
 6469SOL    HW220307   3.928   2.194   3.423
 6470SOL     OW20308   5.484   3.120   0.900
 6470SOL    HW120309   5.534   3.040   0.868
 6470SOL    HW220310   5.542   3.201   0.895
 6471SOL     OW20311   0.330   5.998   5.510
 6471SOL    HW120312   0.355   6.030   5.602
 6471SOL    HW220313   0.382   6.049   5.442
 6472SOL     OW20314   6.860   6.065   1.873
 6472SOL    HW120315   6.953   6.083   1.905
 6472SOL    HW220316   6.860   6.057   1.773
 6473SOL     OW20317   2.890   1.930   4.967
 6473SOL    HW120318   2.906   2.003   5.032
 6473SOL    HW220319   2.977   1.887   4.943
 6474SOL     OW20320   4.304   5.546   5.764
 6474SOL    HW120321   4.212   5.522   5.797
 6474SOL    HW220322   4.299   5.631   5.712
 6475SOL     OW20323   6.086   4.541   3.626
 6475SOL    HW120324   6.104   4.608   3.698
 6475SOL    HW220325   6.158   4.547   3.557
 6476SOL     OW20326   5.339   3.005   0.538
 6476SOL    HW120327   5.439   2.994   0.537
 6476SOL    HW220328   5.305   3.012   0.445
 6477SOL     OW20329   6.440   5.412   0.372
 6477SOL    HW120330   6.350   5.404   0.413
 6477SOL    HW220331   6.504   5.350   0.417
 6478SOL     OW20332   3.615   6.599   2.328
 6478SOL    HW120333   3.555   6.563   2.257
 6478SOL    HW220334   3.675   6.669   2.290
 6479SOL     OW20335   3.932   5.427   3.744
 6479SOL    HW120336   3.877   5.360   3.794
 6479SOL    HW220337   3.998   5.468   3.806
 6480SOL     OW20338   2.348   1.232   0.129
 6480SOL    HW120339   2.352   1.295   0.206
 6480SOL    HW220340   2.420   1.164   0.137
 6481SOL     OW20341   3.295   2.001   2.159
 6481SOL    HW120342   3.299   1.908   2.123
 6481SOL    HW220343   3.314   1.999   2.257
 6482SOL     OW20344   6.489   1.953   6.187
 6482SOL    HW120345   6.394   1.985   6.183
 6482SOL    HW220346   6.490   1.855   6.207
 6483SOL     OW20347   0.237   0.009   3.347
 6483SOL    HW120348   0.297   0.011   3.427
 6483SOL    HW220349   0.209   0.102   3.324
 6484SOL     OW20350   3.652   0.478   1.882
 6484SOL    HW120351   3.615   0.525   1.962
 6484SOL    HW220352   3.577   0.438   1.829
 6485SOL     OW20353   1.872   5.248   3.692
 6485SOL    HW120354   1.939   5.176   3.710
 6485SOL    HW220355   1.920   5.329   3.658
 6486SOL     OW20356   0.653   4.832   2.424
 6486SOL    HW120357   0.671   4.871   2.334
 6486SOL    HW220358   0.600   4.747   2.414
 6487SOL     OW20359   0.920   6.611   5.568
 6487SOL    HW120360   0.919   6.681   5.497
 6487SOL    HW220361   0.850   6.633   5.637
 6488SOL     OW20362   3.817   6.176   4.241
 6488SOL    HW120363   3.787   6.262   4.282
 6488SOL    HW220364   3.917   6.170   4.246
 6489SOL     OW20365   3.181   3.524   6.194
 6489SOL    HW120366   3.267   3.558   6.232
 6489SOL    HW220367   3.197   3.436   6.149
 6490SOL     OW20368   4.061   1.853   6.438
 6490SOL    HW120369   4.057   1.947   6.404
 6490SOL    HW220370   3.968   1.818   6.452
 6491SOL     OW20371   2.853   0.511   1.255
 6491SOL    HW120372   2.839   0.598   1.303
 6491SOL    HW220373   2.836   0.524   1.157
 6492SOL     OW20374   3.733   4.183   5.623
 6492SOL    HW120375   3.664   4.168   5.694
 6492SOL    HW220376   3.822   4.195   5.665
 6493SOL     OW20377   1.633   4.335   6.348
 6493SOL    HW120378   1.696   4.268   6.386
 6493SOL    HW220379   1.539   4.306   6.365
 6494SOL     OW20380   6.999   0.129   2.850
 6494SOL    HW120381   6.934   0.076   2.795
 6494SOL    HW220382   6.960   0.218   2.871
 6495SOL     OW20383   6.705   0.655   4.522
 6495SOL    HW120384   6.741   0.736   4.474
 6495SOL    HW220385   6.662   0.593   4.457
 6496SOL     OW20386   6.042   0.898   2.904
 6496SOL    HW120387   6.083   0.823   2.853
 6496SOL    HW220388   6.095   0.913   2.988
 6497SOL     OW20389   1.130   0.683   1.528
 6497SOL    HW120390   1.031   0.695   1.528
 6497SOL    HW220391   1.152   0.588   1.552
 6498SOL     OW20392   1.433   2.928   4.724
 6498SOL    HW120393   1.426   2.971   4.814
 6498SOL    HW220394   1.413   2.995   4.653
 6499SOL     OW20395   5.447   4.432   5.455
 6499SOL    HW120396   5.520   4.392   5.511
 6499SOL    HW220397   5.358   4.402   5.489
 6500SOL     OW20398   6.681   3.699   4.110
 6500SOL    HW120399   6.654   3.630   4.042
 6500SOL    HW220400   6.619   3.694   4.188
 6501SOL     OW20401   6.583   0.925   0.017
 6501SOL    HW120402   6.569   0.928   0.116
 6501SOL    HW220403   6.560   0.834   7.005
 6502SOL     OW20404   6.721   3.664   2.196
 6502SOL    HW120405   6.686   3.578   2.158
 6502SOL    HW220406   6.760   3.646   2.286
 6503SOL     OW20407   5.357   1.091   3.639
 6503SOL    HW120408   5.385   1.175   3.592
 6503SOL    HW220409   5.407   1.082   3.725
 6504SOL     OW20410   3.976   6.559   6.251
 6504SOL    HW120411   3.971   6.654   6.282
 6504SOL    HW220412   3.885   6.528   6.224
 6505SOL     OW20413   5.283   5.936   6.091
 6505SOL    HW120414   5.190   5.919   6.060
 6505SOL    HW220415   5.302   5.881   6.173
 6506SOL     OW20416   0.229   2.878   3.210
 6506SOL    HW120417   0.171   2.832   3.278
 6506SOL    HW220418   0.201   2.974   3.203
 6507SOL     OW20419   2.459   5.484   6.566
 6507SOL    HW120420   2.434   5.465   6.471
 6507SOL    HW220421   2.559   5.484   6.574
 6508SOL     OW20422   1.716   0.539   3.060
 6508SOL    HW120423   1.645   0.528   3.130
 6508SOL    HW220424   1.683   0.599   2.987
 6509SOL     OW20425   4.416   2.091   4.516
 6509SOL    HW120426   4.437   2.174   4.567
 6509SOL    HW220427   4.485   2.022   4.537
 6510SOL     OW20428   6.184   5.345   0.127
 6510SOL    HW120429   6.110   5.278   0.120
 6510SOL    HW220430   6.186   5.382   0.220
 6511SOL     OW20431   3.956   0.489   4.192
 6511SOL    HW120432   4.011   0.407   4.206
 6511SOL    HW220433   3.981   0.559   4.259
 6512SOL     OW20434   3.714   6.117   2.094
 6512SOL    HW120435   3.798   6.141   2.142
 6512SOL    HW220436   3.719   6.146   1.999
 6513SOL     OW20437   2.427   5.380   3.107
 6513SOL    HW120438   2.386   5.456   3.158
 6513SOL    HW220439   2.409   5.392   3.010
 6514SOL     OW20440   5.942   1.507   4.355
 6514SOL    HW120441   5.963   1.463   4.443
 6514SOL    HW220442   5.987   1.596   4.351
 6515SOL     OW20443   1.151   3.979   3.494
 6515SOL    HW120444   1.088   3.903   3.509
 6515SOL    HW220445   1.151   4.004   3.397
 6516SOL     OW20446   0.706   3.196   1.657
 6516SOL    HW120447   0.748   3.169   1.743
 6516SOL    HW220448   0.722   3.294   1.641
 6517SOL     OW20449   7.013   1.495   1.949
 6517SOL    HW120450   6.953   1.416   1.935
 6517SOL    HW220451   0.084   1.463   1.960
 6518SOL     OW20452   0.223   6.996   0.910
 6518SOL    HW120453   0.224   0.070   0.884
 6518SOL    HW220454   0.142   6.976   0.964
 6519SOL     OW20455   0.991   1.780   2.579
 6519SOL    HW120456   1.087   1.752   2.581
 6519SOL    HW220457   0.954   1.764   2.488
 6520SOL     OW20458   6.959   5.261   6.959
 6520SOL    HW120459   6.998   5.183   7.008
 6520SOL    HW220460   6.971   5.247   6.861
 6521SOL     OW20461   2.021   2.796   3.970
 6521SOL    HW120462   2.114   2.807   3.934
 6521SOL    HW220463   2.000   2.699   3.980
 6522SOL     OW20464   3.133   4.863   5.491
 6522SOL    HW120465   3.169   4.770   5.478
 6522SOL    HW220466   3.046   4.859   5.540
 6523SOL     OW20467   3.679   0.999   6.991
 6523SOL    HW120468   3.600   1.047   6.951
 6523SOL    HW220469   3.655   0.966   0.059
 6524SOL     OW20470   2.490   3.495   1.267
 6524SOL    HW120471   2.393   3.479   1.287
 6524SOL    HW220472   2.539   3.510   1.352
 6525SOL     OW20473   2.162   5.059   2.955
 6525SOL    HW120474   2.256   5.053   2.987
 6525SOL    HW220475   2.111   5.123   3.012
 6526SOL     OW20476   1.970   0.691   1.598
 6526SOL    HW120477   1.987   0.772   1.541
 6526SOL    HW220478   1.910   0.716   1.674
 6527SOL     OW20479   6.827   1.294   6.029
 6527SOL    HW120480   6.767   1.313   5.951
 6527SOL    HW220481   6.870   1.204   6.016
 6528SOL     OW20482   5.645   1.600   5.015
 6528SOL    HW120483   5.559   1.635   5.053
 6528SOL    HW220484   5.685   1.535   5.079
 6529SOL     OW20485   2.100   0.218   2.509
 6529SOL    HW120486   2.142   0.176   2.589
 6529SOL    HW220487   2.001   0.223   2.522
 6530SOL     OW20488   6.362   1.786   0.900
 6530SOL    HW120489   6.361   1.838   0.985
 6530SOL    HW220490   6.289   1.718   0.902
 6531SOL     OW20491   5.061   3.445   4.790
 6531SOL    HW120492   5.140   3.438   4.852
 6531SOL    HW220493   4.995   3.509   4.829
 6532SOL     OW20494   0.348   1.058   1.621
 6532SOL    HW120495   0.400   1.138   1.591
 6532SOL    HW220496   0.372   1.036   1.715
 6533SOL     OW20497   4.384   6.826   0.118
 6533SOL    HW120498   4.353   6.921   0.117
 6533SOL    HW220499   4.416   6.800   0.027
 6534SOL     OW20500   5.095   4.662   1.777
 6534SOL    HW120501   5.135   4.751   1.757
 6534SOL    HW220502   5.163   4.604   1.821
 6535SOL     OW20503   6.865   4.297   3.717
 6535SOL    HW120504   6.892   4.272   3.810
 6535SOL    HW220505   6.853   4.396   3.712
 6536SOL     OW20506   0.394   1.761   5.410
 6536SOL    HW120507   0.394   1.695   5.485
 6536SOL    HW220508   0.403   1.713   5.323
 6537SOL     OW20509   6.535   4.753   0.371
 6537SOL    HW120510   6.616   4.813   0.372
 6537SOL    HW220511   6.494   4.755   0.280
 6538SOL     OW20512   1.958   3.563   5.999
 6538SOL    HW120513   1.933   3.516   6.084
 6538SOL    HW220514   1.878   3.610   5.962
 6539SOL     OW20515   5.187   0.738   6.987
 6539SOL    HW120516   5.237   0.740   6.901
 6539SOL    HW220517   5.090   0.718   6.969
 6540SOL     OW20518   4.253   2.369   0.002
 6540SOL    HW120519   4.300   2.446   0.045
 6540SOL    HW220520   4.290   2.283   0.036
 6541SOL     OW20521   5.119   1.643   5.366
 6541SOL    HW120522   5.042   1.579   5.373
 6541SOL    HW220523   5.085   1.732   5.336
 6542SOL     OW20524   6.953   2.619   3.879
 6542SOL    HW120525   0.020   2.613   3.835
 6542SOL    HW220526   6.885   2.649   3.812
 6543SOL     OW20527   4.163   2.997   5.412
 6543SOL    HW120528   4.197   2.904   5.401
 6543SOL    HW220529   4.067   2.995   5.440
 6544SOL     OW20530   1.329   6.312   3.246
 6544SOL    HW120531   1.270   6.315   3.326
 6544SOL    HW220532   1.355   6.405   3.220
 6545SOL     OW20533   4.529   0.272   1.053
 6545SOL    HW120534   4.548   0.177   1.078
 6545SOL    HW220535   4.446   0.276   0.997
 6546SOL     OW20536   2.749   4.842   6.116
 6546SOL    HW120537   2.693   4.925   6.123
 6546SOL    HW220538   2.817   4.842   6.190
 6547SOL     OW20539   4.612   0.854   6.760
 6547SOL    HW120540   4.601   0.760   6.727
 6547SOL    HW220541   4.709   0.878   6.757
 6548SOL     OW20542   0.990   4.060   0.961
 6548SOL    HW120543   1.011   3.965   0.937
 6548SOL    HW220544   1.025   4.080   1.052
 6549SOL     OW20545   4.494   1.094   1.893
 6549SOL    HW120546   4.541   1.016   1.935
 6549SOL    HW220547   4.430   1.061   1.824
 6550SOL     OW20548   6.998   6.898   3.742
 6550SOL    HW120549   6.966   6.988   3.712
 6550SOL    HW220550   0.075   6.897   3.744
 6551SOL     OW20551   1.781   4.155   1.637
 6551SOL    HW120552   1.757   4.220   1.709
 6551SOL    HW220553   1.790   4.064   1.677
 6552SOL     OW20554   1.298   0.268   0.580
 6552SOL    HW120555   1.229   0.332   0.545
 6552SOL    HW220556   1.261   0.175   0.581
 6553SOL     OW20557   6.962   2.083   3.572
 6553SOL    HW120558   6.975   2.169   3.524
 6553SOL    HW220559   0.023   2.029   3.568
 6554SOL     OW20560   1.094   0.366   4.264
 6554SOL    HW120561   1.172   0.400   4.317
 6554SOL    HW220562   1.127   0.323   4.180
 6555SOL     OW20563   5.076   2.130   3.109
 6555SOL    HW120564   5.009   2.143   3.035
 6555SOL    HW220565   5.152   2.075   3.075
 6556SOL     OW20566   5.725   4.462   3.681
 6556SOL    HW120567   5.772   4.468   3.593
 6556SOL    HW220568   5.652   4.530   3.684
 6557SOL     OW20569   3.327   0.137   2.582
 6557SOL    HW120570   3.307   0.054   2.530
 6557SOL    HW220571   3.312   0.217   2.524
 6558SOL     OW20572   0.209   5.027   0.343
 6558SOL    HW120573   0.242   4.979   0.424
 6558SOL    HW220574   0.164   4.962   0.282
 6559SOL     OW20575   1.166   4.434   0.336
 6559SOL    HW120576   1.200   4.363   0.398
 6559SOL    HW220577   1.217   4.429   0.250
 6560SOL     OW20578   4.450   4.736   1.566
 6560SOL    HW120579   4.492   4.796   1.634
 6560SOL    HW220580   4.506   4.654   1.553
 6561SOL     OW20581   3.274   4.315   1.466
 6561SOL    HW120582   3.281   4.230   1.517
 6561SOL    HW220583   3.228   4.384   1.521
 6562SOL     OW20584   6.603   2.614   0.860
 6562SOL    HW120585   6.680   2.594   0.921
 6562SOL    HW220586   6.638   2.655   0.776
 6563SOL     OW20587   5.166   5.314   6.384
 6563SOL    HW120588   5.261   5.344   6.383
 6563SOL    HW220589   5.153   5.243   6.315
 6564SOL     OW20590   6.974   3.538   2.859
 6564SOL    HW120591   0.003   3.489   2.789
 6564SOL    HW220592   0.007   3.545   2.942
 6565SOL     OW20593   5.365   1.657   2.590
 6565SOL    HW120594   5.281   1.664   2.644
 6565SOL    HW220595   5.442   1.695   2.642
 6566SOL     OW20596   3.693   6.092   1.811
 6566SOL    HW120597   3.791   6.108   1.799
 6566SOL    HW220598   3.670   5.999   1.781
 6567SOL     OW20599   4.799   1.031   2.285
 6567SOL    HW120600   4.709   1.073   2.282
 6567SOL    HW220601   4.843   1.039   2.196
 6568SOL     OW20602   3.292   1.612   4.344
 6568SOL    HW120603   3.259   1.518   4.352
 6568SOL    HW220604   3.237   1.661   4.277
 6569SOL     OW20605   2.583   3.408   0.424
 6569SOL    HW120606   2.594   3.313   0.396
 6569SOL    HW220607   2.659   3.462   0.387
 6570SOL     OW20608   3.356   0.586   2.331
 6570SOL    HW120609   3.273   0.558   2.379
 6570SOL    HW220610   3.343   0.677   2.293
 6571SOL     OW20611   3.230   5.067   1.654
 6571SOL    HW120612   3.316   5.017   1.642
 6571SOL    HW220613   3.215   5.085   1.751
 6572SOL     OW20614   6.446   4.404   4.631
 6572SOL    HW120615   6.478   4.451   4.713
 6572SOL    HW220616   6.407   4.471   4.568
 6573SOL     OW20617   0.922   1.502   2.144
 6573SOL    HW120618   0.907   1.582   2.201
 6573SOL    HW220619   0.977   1.528   2.064
 6574SOL     OW20620   2.263   5.713   2.275
 6574SOL    HW120621   2.350   5.693   2.319
 6574SOL    HW220622   2.279   5.733   2.178
 6575SOL     OW20623   0.457   6.753   3.608
 6575SOL    HW120624   0.441   6.658   3.581
 6575SOL    HW220625   0.553   6.766   3.630
 6576SOL     OW20626   2.051   5.991   6.954
 6576SOL    HW120627   1.989   5.960   6.881
 6576SOL    HW220628   2.112   6.062   6.918
 6577SOL     OW20629   0.691   1.747   3.492
 6577SOL    HW120630   0.739   1.737   3.579
 6577SOL    HW220631   0.696   1.842   3.462
 6578SOL     OW20632   0.911   6.152   2.966
 6578SOL    HW120633   0.926   6.251   2.970
 6578SOL    HW220634   0.936   6.119   2.875
 6579SOL     OW20635   0.468   3.283   3.880
 6579SOL    HW120636   0.416   3.210   3.836
 6579SOL    HW220637   0.477   3.360   3.816
 6580SOL     OW20638   0.758   1.719   0.669
 6580SOL    HW120639   0.672   1.732   0.718
 6580SOL    HW220640   0.827   1.683   0.731
 6581SOL     OW20641   2.514   0.561   0.357
 6581SOL    HW120642   2.509   0.492   0.285
 6581SOL    HW220643   2.493   0.651   0.318
 6582SOL     OW20644   0.060   1.332   2.933
 6582SOL    HW120645   0.025   1.238   2.941
 6582SOL    HW220646   0.078   1.353   2.837
 6583SOL     OW20647   4.494   0.636   5.809
 6583SOL    HW120648   4.551   0.717   5.825
 6583SOL    HW220649   4.495   0.613   5.712
 6584SOL     OW20650   4.321   2.841   0.764
 6584SOL    HW120651   4.391   2.821   0.832
 6584SOL    HW220652   4.237   2.791   0.787
 6585SOL     OW20653   6.267   6.260   0.149
 6585SOL    HW120654   6.276   6.303   0.059
 6585SOL    HW220655   6.239   6.329   0.216
 6586SOL     OW20656   5.601   1.076   5.711
 6586SOL    HW120657   5.558   1.143   5.772
 6586SOL    HW220658   5.540   1.057   5.634
 6587SOL     OW20659   2.002   4.965   5.615
 6587SOL    HW120660   2.042   5.053   5.641
 6587SOL    HW220661   2.075   4.900   5.592
 6588SOL     OW20662   0.206   2.744   2.080
 6588SOL    HW120663   0.264   2.753   2.161
 6588SOL    HW220664   0.259   2.708   2.004
 6589SOL     OW20665   4.613   0.508   1.253
 6589SOL    HW120666   4.542   0.494   1.322
 6589SOL    HW220667   4.576   0.486   1.162
 6590SOL     OW20668   0.351   1.118   6.848
 6590SOL    HW120669   0.379   1.051   6.780
 6590SOL    HW220670   0.376   1.086   6.939
 6591SOL     OW20671   6.277   5.697   2.845
 6591SOL    HW120672   6.225   5.632   2.789
 6591SOL    HW220673   6.373   5.670   2.847
 6592SOL     OW20674   4.992   0.454   3.375
 6592SOL    HW120675   5.010   0.357   3.360
 6592SOL    HW220676   4.933   0.489   3.303
 6593SOL     OW20677   2.046   2.310   2.597
 6593SOL    HW120678   2.090   2.326   2.685
 6593SOL    HW220679   2.007   2.217   2.595
 6594SOL     OW20680   4.067   1.527   6.251
 6594SOL    HW120681   3.995   1.576   6.301
 6594SOL    HW220682   4.054   1.541   6.153
 6595SOL     OW20683   1.167   4.732   0.095
 6595SOL    HW120684   1.223   4.751   0.014
 6595SOL    HW220685   1.223   4.741   0.177
 6596SOL     OW20686   3.125   0.001   4.420
 6596SOL    HW120687   3.107   6.944   4.363
 6596SOL    HW220688   3.211   0.043   4.393
 6597SOL     OW20689   1.356   5.213   1.295
 6597SOL    HW120690   1.261   5.240   1.310
 6597SOL    HW220691   1.392   5.171   1.379
 6598SOL     OW20692   1.686   5.178   4.263
 6598SOL    HW120693   1.683   5.277   4.247
 6598SOL    HW220694   1.764   5.157   4.322
 6599SOL     OW20695   4.204   6.112   6.232
 6599SOL    HW120696   4.183   6.094   6.328
 6599SOL    HW220697   4.258   6.036   6.195
 6600SOL     OW20698   4.015   5.666   5.464
 6600SOL    HW120699   3.985   5.592   5.525
 6600SOL    HW220700   3.936   5.721   5.438
 6601SOL     OW20701   1.496   1.949   4.719
 6601SOL    HW120702   1.542   2.021   4.770
 6601SOL    HW220703   1.535   1.860   4.744
 6602SOL     OW20704   1.915   1.364   2.028
 6602SOL    HW120705   1.972   1.304   1.972
 6602SOL    HW220706   1.836   1.314   2.061
 6603SOL     OW20707   0.318   2.653   3.476
 6603SOL    HW120708   0.352   2.563   3.449
 6603SOL    HW220709   0.218   2.656   3.467
 6604SOL     OW20710   1.279   0.407   1.357
 6604SOL    HW120711   1.258   0.485   1.299
 6604SOL    HW220712   1.376   0.383   1.347
 6605SOL     OW20713   5.996   5.368   1.472
 6605SOL    HW120714   6.037   5.442   1.418
 6605SOL    HW220715   5.915   5.333   1.425
 6606SOL     OW20716   0.582   5.499   1.980
 6606SOL    HW120717   0.664   5.525   2.030
 6606SOL    HW220718   0.573   5.556   1.898
 6607SOL     OW20719   1.842   4.123   2.318
 6607SOL    HW120720   1.927   4.175   2.319
 6607SOL    HW220721   1.836   4.069   2.235
 6608SOL     OW20722   6.545   6.548   0.455
 6608SOL    HW120723   6.635   6.592   0.458
 6608SOL    HW220724   6.515   6.528   0.548
 6609SOL     OW20725   5.314   1.013   0.399
 6609SOL    HW120726   5.308   1.111   0.418
 6609SOL    HW220727   5.273   0.994   0.310
 6610SOL     OW20728   2.443   6.165   0.215
 6610SOL    HW120729   2.526   6.190   0.165
 6610SOL    HW220730   2.377   6.240   0.209
 6611SOL     OW20731   4.892   3.173   3.103
 6611SOL    HW120732   4.992   3.166   3.100
 6611SOL    HW220733   4.852   3.104   3.043
 6612SOL     OW20734   6.151   1.972   6.955
 6612SOL    HW120735   6.067   2.018   6.985
 6612SOL    HW220736   6.133   1.919   6.872
 6613SOL     OW20737   0.011   6.229   5.250
 6613SOL    HW120738   6.953   6.185   5.211
 6613SOL    HW220739   0.086   6.223   5.185
 6614SOL     OW20740   4.604   5.519   7.011
 6614SOL    HW120741   4.610   5.603   6.957
 6614SOL    HW220742   4.510   5.485   7.007
 6615SOL     OW20743   1.507   5.650   1.108
 6615SOL    HW120744   1.426   5.597   1.133
 6615SOL    HW220745   1.502   5.741   1.149
 6616SOL     OW20746   4.691   0.524   6.248
 6616SOL    HW120747   4.687   0.472   6.334
 6616SOL    HW220748   4.603   0.520   6.202
 6617SOL     OW20749   4.508   5.221   3.300
 6617SOL    HW120750   4.531   5.307   3.253
 6617SOL    HW220751   4.448   5.241   3.378
 6618SOL     OW20752   1.688   2.042   2.586
 6618SOL    HW120753   1.654   2.035   2.680
 6618SOL    HW220754   1.642   2.117   2.539
 6619SOL     OW20755   5.209   0.241   3.898
 6619SOL    HW120756   5.220   0.142   3.891
 6619SOL    HW220757   5.299   0.283   3.914
 6620SOL     OW20758   1.139   3.112   5.404
 6620SOL    HW120759   1.192   3.188   5.366
 6620SOL    HW220760   1.070   3.082   5.338
 6621SOL     OW20761   3.465   3.194   6.119
 6621SOL    HW120762   3.423   3.128   6.181
 6621SOL    HW220763   3.553   3.158   6.087
 6622SOL     OW20764   5.725   6.665   2.312
 6622SOL    HW120765   5.699   6.576   2.351
 6622SOL    HW220766   5.647   6.726   2.314
 6623SOL     OW20767   3.612   3.207   5.299
 6623SOL    HW120768   3.586   3.275   5.231
 6623SOL    HW220769   3.553   3.217   5.380
 6624SOL     OW20770   0.111   4.246   5.698
 6624SOL    HW120771   0.195   4.214   5.654
 6624SOL    HW220772   0.123   4.248   5.797
 6625SOL     OW20773   5.248   2.108   5.103
 6625SOL    HW120774   5.305   2.067   5.032
 6625SOL    HW220775   5.230   2.041   5.175
 6626SOL     OW20776   3.722   5.750   5.454
 6626SOL    HW120777   3.646   5.707   5.503
 6626SOL    HW220778   3.720   5.849   5.469
 6627SOL     OW20779   2.025   6.476   6.173
 6627SOL    HW120780   1.931   6.469   6.139
 6627SOL    HW220781   2.067   6.385   6.174
 6628SOL     OW20782   5.963   5.383   4.327
 6628SOL    HW120783   5.878   5.431   4.306
 6628SOL    HW220784   5.966   5.297   4.276
 6629SOL     OW20785   4.644   6.762   6.646
 6629SOL    HW120786   4.567   6.780   6.707
 6629SOL    HW220787   4.682   6.849   6.615
 6630SOL     OW20788   3.448   1.471   0.879
 6630SOL    HW120789   3.389   1.548   0.902
 6630SOL    HW220790   3.435   1.397   0.945
 6631SOL     OW20791   2.375   5.829   4.133
 6631SOL    HW120792   2.376   5.729   4.132
 6631SOL    HW220793   2.281   5.861   4.140
 6632SOL     OW20794   0.981   0.063   1.082
 6632SOL    HW120795   1.028   0.128   1.142
 6632SOL    HW220796   0.979   0.099   0.989
 6633SOL     OW20797   1.392   4.845   6.655
 6633SOL    HW120798   1.395   4.805   6.563
 6633SOL    HW220799   1.385   4.945   6.647
 6634SOL     OW20800   4.778   1.648   4.830
 6634SOL    HW120801   4.708   1.593   4.875
 6634SOL    HW220802   4.773   1.634   4.731
 6635SOL     OW20803   4.495   4.472   3.196
 6635SOL    HW120804   4.478   4.487   3.293
 6635SOL    HW220805   4.541   4.384   3.183
 6636SOL     OW20806   4.785   1.715   6.861
 6636SOL    HW120807   4.748   1.778   6.793
 6636SOL    HW220808   4.742   1.625   6.850
 6637SOL     OW20809   0.256   6.781   6.585
 6637SOL    HW120810   0.233   6.853   6.650
 6637SOL    HW220811   0.327   6.722   6.624
 6638SOL     OW20812   3.206   3.867   2.947
 6638SOL    HW120813   3.246   3.788   2.994
 6638SOL    HW220814   3.277   3.937   2.936
 6639SOL     OW20815   4.766   4.642   6.644
 6639SOL    HW120816   4.751   4.647   6.743
 6639SOL    HW220817   4.724   4.722   6.601
 6640SOL     OW20818   0.196   1.947   4.901
 6640SOL    HW120819   0.240   1.877   4.846
 6640SOL    HW220820   0.202   2.035   4.854
 6641SOL     OW20821   2.465   0.901   6.526
 6641SOL    HW120822   2.416   0.817   6.548
 6641SOL    HW220823   2.400   0.977   6.522
 6642SOL     OW20824   1.903   5.839   6.782
 6642SOL    HW120825   1.917   5.791   6.696
 6642SOL    HW220826   1.813   5.881   6.783
 6643SOL     OW20827   5.701   6.112   0.163
 6643SOL    HW120828   5.748   6.066   0.238
 6643SOL    HW220829   5.640   6.182   0.199
 6644SOL     OW20830   2.207   4.673   1.276
 6644SOL    HW120831   2.173   4.579   1.274
 6644SOL    HW220832   2.306   4.672   1.271
 6645SOL     OW20833   6.361   3.960   0.685
 6645SOL    HW120834   6.298   3.961   0.762
 6645SOL    HW220835   6.319   3.913   0.607
 6646SOL     OW20836   4.294   0.440   5.218
 6646SOL    HW120837   4.241   0.391   5.287
 6646SOL    HW220838   4.372   0.384   5.189
 6647SOL     OW20839   4.974   0.737   1.070
 6647SOL    HW120840   4.984   0.655   1.013
 6647SOL    HW220841   5.021   0.814   1.025
 6648SOL     OW20842   3.141   6.358   3.721
 6648SOL    HW120843   3.079   6.430   3.691
 6648SOL    HW220844   3.087   6.278   3.749
 6649SOL     OW20845   5.424   1.721   6.761
 6649SOL    HW120846   5.397   1.667   6.841
 6649SOL    HW220847   5.360   1.704   6.687
 6650SOL     OW20848   3.995   1.455   5.595
 6650SOL    HW120849   4.039   1.387   5.654
 6650SOL    HW220850   4.060   1.528   5.574
 6651SOL     OW20851   3.142   0.680   6.202
 6651SOL    HW120852   3.213   0.629   6.154
 6651SOL    HW220853   3.053   0.639   6.183
 6652SOL     OW20854   0.409   4.433   6.546
 6652SOL    HW120855   0.489   4.375   6.561
 6652SOL    HW220856   0.405   4.502   6.619
 6653SOL     OW20857   3.878   4.054   1.293
 6653SOL    HW120858   3.831   4.014   1.372
 6653SOL    HW220859   3.947   3.989   1.260
 6654SOL     OW20860   1.604   5.242   0.661
 6654SOL    HW120861   1.628   5.229   0.758
 6654SOL    HW220862   1.553   5.327   0.651
 6655SOL     OW20863   0.998   6.621   3.993
 6655SOL    HW120864   0.986   6.585   4.086
 6655SOL    HW220865   0.962   6.556   3.927
 6656SOL     OW20866   4.944   1.842   3.648
 6656SOL    HW120867   4.889   1.925   3.647
 6656SOL    HW220868   4.928   1.789   3.565
 6657SOL     OW20869   5.812   4.433   6.073
 6657SOL    HW120870   5.733   4.400   6.125
 6657SOL    HW220871   5.805   4.533   6.063
 6658SOL     OW20872   5.773   1.127   4.386
 6658SOL    HW120873   5.733   1.139   4.295
 6658SOL    HW220874   5.766   1.031   4.412
 6659SOL     OW20875   2.078   3.050   0.120
 6659SOL    HW120876   2.071   3.047   0.220
 6659SOL    HW220877   2.074   3.145   0.089
 6660SOL     OW20878   1.314   4.773   1.133
 6660SOL    HW120879   1.405   4.732   1.135
 6660SOL    HW220880   1.311   4.844   1.063
 6661SOL     OW20881   1.552   0.064   5.368
 6661SOL    HW120882   1.595   0.135   5.424
 6661SOL    HW220883   1.606   0.048   5.286
 6662SOL     OW20884   1.128   6.998   0.238
 6662SOL    HW120885   1.117   0.063   0.286
 6662SOL    HW220886   1.125   7.013   0.140
 6663SOL     OW20887   6.480   5.933   4.601
 6663SOL    HW120888   6.504   5.943   4.697
 6663SOL    HW220889   6.479   5.835   4.577
 6664SOL     OW20890   2.404   6.735   0.686
 6664SOL    HW120891   2.354   6.662   0.639
 6664SOL    HW220892   2.348   6.817   0.689
 6665SOL     OW20893   1.468   6.263   4.312
 6665SOL    HW120894   1.495   6.279   4.407
 6665SOL    HW220895   1.525   6.191   4.273
 6666SOL     OW20896   5.764   6.273   6.036
 6666SOL    HW120897   5.758   6.365   5.999
 6666SOL    HW220898   5.709   6.211   5.981
 6667SOL     OW20899   5.956   6.618   6.340
 6667SOL    HW120900   5.970   6.714   6.365
 6667SOL    HW220901   5.983   6.559   6.416
 6668SOL     OW20902   6.838   5.554   0.626
 6668SOL    HW120903   6.904   5.514   0.690
 6668SOL    HW220904   6.887   5.589   0.546
 6669SOL     OW20905   2.210   1.981   2.447
 6669SOL    HW120906   2.146   2.031   2.389
 6669SOL    HW220907   2.304   2.001   2.418
 6670SOL     OW20908   3.362   1.778   5.060
 6670SOL    HW120909   3.317   1.858   5.100
 6670SOL    HW220910   3.460   1.797   5.047
 6671SOL     OW20911   4.780   6.734   0.443
 6671SOL    HW120912   4.800   6.646   0.400
 6671SOL    HW220913   4.702   6.776   0.397
 6672SOL     OW20914   6.658   2.718   6.670
 6672SOL    HW120915   6.673   2.630   6.715
 6672SOL    HW220916   6.712   2.721   6.586
 6673SOL     OW20917   4.631   4.669   4.160
 6673SOL    HW120918   4.694   4.592   4.166
 6673SOL    HW220919   4.568   4.667   4.237
 6674SOL     OW20920   0.794   3.963   6.743
 6674SOL    HW120921   0.790   3.916   6.655
 6674SOL    HW220922   0.798   3.896   6.817
 6675SOL     OW20923   6.032   3.612   0.039
 6675SOL    HW120924   5.979   3.535   0.073
 6675SOL    HW220925   6.091   3.581   6.987
 6676SOL     OW20926   1.015   4.062   5.527
 6676SOL    HW120927   1.059   4.150   5.507
 6676SOL    HW220928   1.046   4.028   5.615
 6677SOL     OW20929   1.352   1.703   6.148
 6677SOL    HW120930   1.323   1.743   6.235
 6677SOL    HW220931   1.279   1.645   6.112
 6678SOL     OW20932   3.097   3.361   0.042
 6678SOL    HW120933   3.003   3.347   0.013
 6678SOL    HW220934   3.130   3.450   0.008
 6679SOL     OW20935   3.385   1.136   3.970
 6679SOL    HW120936   3.318   1.102   3.903
 6679SOL    HW220937   3.341   1.149   4.058
 6680SOL     OW20938   4.983   6.920   6.607
 6680SOL    HW120939   4.897   6.940   6.652
 6680SOL    HW220940   5.051   6.890   6.674
 6681SOL     OW20941   4.180   5.131   1.362
 6681SOL    HW120942   4.253   5.076   1.321
 6681SOL    HW220943   4.218   5.212   1.406
 6682SOL     OW20944   1.567   4.221   1.417
 6682SOL    HW120945   1.651   4.258   1.456
 6682SOL    HW220946   1.539   4.140   1.468
 6683SOL     OW20947   5.824   3.674   5.149
 6683SOL    HW120948   5.726   3.688   5.135
 6683SOL    HW220949   5.841   3.580   5.177
 6684SOL     OW20950   3.044   6.292   1.727
 6684SOL    HW120951   3.072   6.355   1.656
 6684SOL    HW220952   2.944   6.293   1.735
 6685SOL     OW20953   6.008   2.670   5.746
 6685SOL    HW120954   6.091   2.657   5.692
 6685SOL    HW220955   6.016   2.753   5.801
 6686SOL     OW20956   4.822   5.751   3.828
 6686SOL    HW120957   4.855   5.659   3.809
 6686SOL    HW220958   4.863   5.815   3.763
 6687SOL     OW20959   1.047   3.339   1.183
 6687SOL    HW120960   1.146   3.329   1.173
 6687SOL    HW220961   1.002   3.258   1.144
 6688SOL     OW20962   6.238   4.418   2.049
 6688SOL    HW120963   6.263   4.340   1.991
 6688SOL    HW220964   6.260   4.503   2.002
 6689SOL     OW20965   3.686   3.419   6.464
 6689SOL    HW120966   3.614   3.405   6.533
 6689SOL    HW220967   3.722   3.331   6.435
 6690SOL     OW20968   0.487   0.967   0.827
 6690SOL    HW120969   0.481   0.924   0.918
 6690SOL    HW220970   0.420   0.925   0.766
 6691SOL     OW20971   2.681   6.478   2.394
 6691SOL    HW120972   2.746   6.506   2.465
 6691SOL    HW220973   2.722   6.493   2.304
 6692SOL     OW20974   3.439   3.261   4.087
 6692SOL    HW120975   3.413   3.317   4.166
 6692SOL    HW220976   3.536   3.236   4.095
 6693SOL     OW20977   3.818   2.404   5.343
 6693SOL    HW120978   3.811   2.497   5.307
 6693SOL    HW220979   3.735   2.382   5.394
 6694SOL     OW20980   4.589   5.474   1.142
 6694SOL    HW120981   4.557   5.448   1.234
 6694SOL    HW220982   4.545   5.415   1.074
 6695SOL     OW20983   3.103   2.273   0.030
 6695SOL    HW120984   3.165   2.257   0.106
 6695SOL    HW220985   3.089   2.371   0.018
 6696SOL     OW20986   3.112   3.322   4.768
 6696SOL    HW120987   3.202   3.336   4.807
 6696SOL    HW220988   3.076   3.233   4.795
 6697SOL     OW20989   4.886   1.932   2.889
 6697SOL    HW120990   4.864   1.986   2.808
 6697SOL    HW220991   4.824   1.958   2.964
 6698SOL     OW20992   2.790   2.044   0.684
 6698SOL    HW120993   2.794   2.094   0.597
 6698SOL    HW220994   2.824   2.102   0.757
 6699SOL     OW20995   2.580   5.686   5.503
 6699SOL    HW120996   2.518   5.755   5.466
 6699SOL    HW220997   2.674   5.721   5.501
 6700SOL     OW20998   0.863   0.657   1.544
 6700SOL    HW120999   0.878   0.652   1.643
 6700SOL    HW221000   0.781   0.712   1.526
 6701SOL     OW21001   5.567   4.763   2.271
 6701SOL    HW121002   5.542   4.822   2.347
 6701SOL    HW221003   5.616   4.816   2.201
 6702SOL     OW21004   3.007   2.114   1.564
 6702SOL    HW121005   3.043   2.128   1.656
 6702SOL    HW221006   2.907   2.119   1.565
 6703SOL     OW21007   6.120   1.125   0.041
 6703SOL    HW121008   6.091   1.213   0.004
 6703SOL    HW221009   6.125   1.058   6.990
 6704SOL     OW21010   4.121   1.656   3.402
 6704SOL    HW121011   4.110   1.728   3.334
 6704SOL    HW221012   4.159   1.696   3.486
 6705SOL     OW21013   6.390   4.063   1.506
 6705SOL    HW121014   6.479   4.044   1.547
 6705SOL    HW221015   6.402   4.117   1.423
 6706SOL     OW21016   1.434   4.597   1.419
 6706SOL    HW121017   1.404   4.519   1.365
 6706SOL    HW221018   1.510   4.643   1.373
 6707SOL     OW21019   6.406   6.790   3.882
 6707SOL    HW121020   6.502   6.791   3.910
 6707SOL    HW221021   6.351   6.836   3.952
 6708SOL     OW21022   0.280   4.800   0.510
 6708SOL    HW121023   0.242   4.718   0.553
 6708SOL    HW221024   0.334   4.850   0.577
 6709SOL     OW21025   2.196   6.019   2.651
 6709SOL    HW121026   2.168   6.115   2.643
 6709SOL    HW221027   2.193   5.992   2.748
 6710SOL     OW21028   3.991   1.820   5.997
 6710SOL    HW121029   4.057   1.892   6.019
 6710SOL    HW221030   4.034   1.730   6.007
 6711SOL     OW21031   4.662   5.809   5.902
 6711SOL    HW121032   4.719   5.886   5.930
 6711SOL    HW221033   4.590   5.842   5.840
 6712SOL     OW21034   5.646   4.279   0.676
 6712SOL    HW121035   5.708   4.289   0.754
 6712SOL    HW221036   5.639   4.182   0.650
 6713SOL     OW21037   2.470   0.248   2.612
 6713SOL    HW121038   2.395   0.242   2.546
 6713SOL    HW221039   2.539   0.311   2.578
 6714SOL     OW21040   6.811   0.857   5.678
 6714SOL    HW121041   6.903   0.896   5.668
 6714SOL    HW221042   6.777   0.877   5.770
 6715SOL     OW21043   0.454   0.228   0.393
 6715SOL    HW121044   0.502   0.143   0.415
 6715SOL    HW221045   0.357   0.208   0.374
 6716SOL     OW21046   0.191   5.729   1.812
 6716SOL    HW121047   0.156   5.705   1.902
 6716SOL    HW221048   0.220   5.825   1.811
 6717SOL     OW21049   3.980   2.357   6.963
 6717SOL    HW121050   3.905   2.339   0.002
 6717SOL    HW221051   4.067   2.350   7.012
 6718SOL     OW21052   5.570   1.028   1.250
 6718SOL    HW121053   5.476   1.004   1.226
 6718SOL    HW221054   5.627   1.026   1.167
 6719SOL     OW21055   2.389   6.629   6.416
 6719SOL    HW121056   2.471   6.592   6.371
 6719SOL    HW221057   2.314   6.632   6.350
 6720SOL     OW21058   1.587   0.626   4.538
 6720SOL    HW121059   1.613   0.556   4.472
 6720SOL    HW221060   1.489   0.645   4.531
 6721SOL     OW21061   6.546   6.849   0.575
 6721SOL    HW121062   6.548   6.827   0.478
 6721SOL    HW221063   6.591   6.938   0.590
 6722SOL     OW21064   0.222   2.925   1.769
 6722SOL    HW121065   0.146   2.876   1.811
 6722SOL    HW221066   0.243   3.007   1.823
 6723SOL     OW21067   1.885   6.407   4.087
 6723SOL    HW121068   1.843   6.426   3.998
 6723SOL    HW221069   1.980   6.439   4.086
 6724SOL     OW21070   1.806   3.499   6.268
 6724SOL    HW121071   1.740   3.566   6.234
 6724SOL    HW221072   1.829   3.521   6.363
 6725SOL     OW21073   0.209   3.756   1.731
 6725SOL    HW121074   0.293   3.806   1.711
 6725SOL    HW221075   0.214   3.716   1.822
 6726SOL     OW21076   1.149   2.550   5.110
 6726SOL    HW121077   1.137   2.467   5.165
 6726SOL    HW221078   1.079   2.617   5.134
 6727SOL     OW21079   0.503   4.919   5.294
 6727SOL    HW121080   0.546   4.939   5.382
 6727SOL    HW221081   0.443   4.839   5.303
 6728SOL     OW21082   3.373   1.977   2.423
 6728SOL    HW121083   3.331   1.915   2.490
 6728SOL    HW221084   3.446   2.028   2.467
 6729SOL     OW21085   6.623   0.746   2.915
 6729SOL    HW121086   6.587   0.737   2.822
 6729SOL    HW221087   6.549   0.772   2.977
 6730SOL     OW21088   2.069   6.807   1.270
 6730SOL    HW121089   2.111   6.870   1.336
 6730SOL    HW221090   2.058   6.717   1.313
 6731SOL     OW21091   0.966   6.195   1.077
 6731SOL    HW121092   1.059   6.227   1.060
 6731SOL    HW221093   0.946   6.116   1.019
 6732SOL     OW21094   5.605   4.978   4.713
 6732SOL    HW121095   5.667   5.031   4.656
 6732SOL    HW221096   5.595   5.024   4.802
 6733SOL     OW21097   3.741   5.233   6.212
 6733SOL    HW121098   3.686   5.179   6.275
 6733SOL    HW221099   3.837   5.229   6.238
 6734SOL     OW21100   5.737   2.708   4.015
 6734SOL    HW121101   5.780   2.736   4.100
 6734SOL    HW221102   5.806   2.694   3.944
 6735SOL     OW21103   6.602   4.079   4.996
 6735SOL    HW121104   6.625   4.176   4.988
 6735SOL    HW221105   6.589   4.056   5.093
 6736SOL     OW21106   3.652   3.831   0.142
 6736SOL    HW121107   3.622   3.875   0.057
 6736SOL    HW221108   3.749   3.850   0.157
 6737SOL     OW21109   1.371   2.432   0.760
 6737SOL    HW121110   1.383   2.387   0.672
 6737SOL    HW221111   1.459   2.469   0.791
 6738SOL     OW21112   1.465   5.715   3.037
 6738SOL    HW121113   1.375   5.704   2.994
 6738SOL    HW221114   1.514   5.791   2.994
 6739SOL     OW21115   4.314   6.039   4.738
 6739SOL    HW121116   4.240   6.069   4.678
 6739SOL    HW221117   4.381   5.987   4.685
 6740SOL     OW21118   0.976   0.648   4.824
 6740SOL    HW121119   1.062   0.642   4.773
 6740SOL    HW221120   0.916   0.572   4.797
 6741SOL     OW21121   4.193   1.798   5.266
 6741SOL    HW121122   4.155   1.799   5.359
 6741SOL    HW221123   4.246   1.714   5.252
 6742SOL     OW21124   5.467   6.211   2.654
 6742SOL    HW121125   5.432   6.120   2.677
 6742SOL    HW221126   5.470   6.268   2.736
 6743SOL     OW21127   4.051   5.253   6.663
 6743SOL    HW121128   3.975   5.224   6.722
 6743SOL    HW221129   4.053   5.353   6.658
 6744SOL     OW21130   5.596   4.322   6.164
 6744SOL    HW121131   5.564   4.362   6.078
 6744SOL    HW221132   5.600   4.223   6.155
 6745SOL     OW21133   0.024   6.545   3.407
 6745SOL    HW121134   0.091   6.617   3.423
 6745SOL    HW221135   6.972   6.580   3.350
 6746SOL     OW21136   0.928   1.474   3.585
 6746SOL    HW121137   0.937   1.501   3.681
 6746SOL    HW221138   0.836   1.438   3.569
 6747SOL     OW21139   5.462   1.266   4.887
 6747SOL    HW121140   5.456   1.268   4.987
 6747SOL    HW221141   5.416   1.346   4.850
 6748SOL     OW21142   3.006   1.648   4.439
 6748SOL    HW121143   2.963   1.560   4.459
 6748SOL    HW221144   3.034   1.650   4.343
 6749SOL     OW21145   3.380   4.917   0.347
 6749SOL    HW121146   3.368   5.003   0.298
 6749SOL    HW221147   3.440   4.933   0.425
 6750SOL     OW21148   4.062   1.905   5.019
 6750SOL    HW121149   4.000   1.982   5.037
 6750SOL    HW221150   4.102   1.875   5.106
 6751SOL     OW21151   4.600   6.792   3.234
 6751SOL    HW121152   4.607   6.875   3.290
 6751SOL    HW221153   4.691   6.770   3.197
 6752SOL     OW21154   1.055   1.441   3.329
 6752SOL    HW121155   1.033   1.513   3.263
 6752SOL    HW221156   1.026   1.470   3.420
 6753SOL     OW21157   2.992   0.603   6.504
 6753SOL    HW121158   2.894   0.621   6.512
 6753SOL    HW221159   3.009   0.505   6.517
 6754SOL     OW21160   0.003   1.613   0.722
 6754SOL    HW121161   6.982   1.609   0.633
 6754SOL    HW221162   7.004   1.531   0.774
 6755SOL     OW21163   4.317   0.634   2.665
 6755SOL    HW121164   4.406   0.617   2.707
 6755SOL    HW221165   4.245   0.590   2.718
 6756SOL     OW21166   3.861   5.480   4.939
 6756SOL    HW121167   3.931   5.501   5.007
 6756SOL    HW221168   3.853   5.557   4.875
 6757SOL     OW21169   4.318   2.348   0.813
 6757SOL    HW121170   4.373   2.270   0.842
 6757SOL    HW221171   4.346   2.430   0.864
 6758SOL     OW21172   6.188   1.578   1.785
 6758SOL    HW121173   6.150   1.660   1.829
 6758SOL    HW221174   6.211   1.599   1.690
 6759SOL     OW21175   1.142   3.916   4.609
 6759SOL    HW121176   1.175   4.010   4.610
 6759SOL    HW221177   1.065   3.907   4.672
 6760SOL     OW21178   6.677   4.065   2.504
 6760SOL    HW121179   6.682   3.993   2.435
 6760SOL    HW221180   6.588   4.062   2.548
 6761SOL     OW21181   6.442   2.595   5.659
 6761SOL    HW121182   6.483   2.684   5.681
 6761SOL    HW221183   6.501   2.547   5.594
 6762SOL     OW21184   0.922   5.173   4.728
 6762SOL    HW121185   1.020   5.186   4.712
 6762SOL    HW221186   0.896   5.221   4.811
 6763SOL     OW21187   0.968   5.214   3.216
 6763SOL    HW121188   0.984   5.312   3.230
 6763SOL    HW221189   1.014   5.184   3.132
 6764SOL     OW21190   1.408   5.347   1.073
 6764SOL    HW121191   1.339   5.307   1.012
 6764SOL    HW221192   1.403   5.302   1.163
 6765SOL     OW21193   5.948   4.347   3.880
 6765SOL    HW121194   5.967   4.419   3.947
 6765SOL    HW221195   5.962   4.383   3.787
 6766SOL     OW21196   5.035   6.524   5.901
 6766SOL    HW121197   5.131   6.542   5.921
 6766SOL    HW221198   4.996   6.466   5.972
 6767SOL     OW21199   1.586   2.006   1.117
 6767SOL    HW121200   1.524   2.085   1.116
 6767SOL    HW221201   1.594   1.972   1.210
 6768SOL     OW21202   1.610   6.893   4.004
 6768SOL    HW121203   1.632   6.899   4.101
 6768SOL    HW221204   1.566   6.805   3.985
 6769SOL     OW21205   3.102   0.762   5.601
 6769SOL    HW121206   3.201   0.760   5.611
 6769SOL    HW221207   3.076   0.840   5.543
 6770SOL     OW21208   5.265   2.159   3.367
 6770SOL    HW121209   5.235   2.135   3.275
 6770SOL    HW221210   5.310   2.248   3.365
 6771SOL     OW21211   3.729   1.590   2.384
 6771SOL    HW121212   3.692   1.517   2.328
 6771SOL    HW221213   3.724   1.677   2.334
 6772SOL     OW21214   4.720   2.567   2.156
 6772SOL    HW121215   4.793   2.523   2.104
 6772SOL    HW221216   4.734   2.666   2.157
 6773SOL     OW21217   0.396   5.953   1.551
 6773SOL    HW121218   0.492   5.927   1.560
 6773SOL    HW221219   0.353   5.899   1.479
 6774SOL     OW21220   1.627   4.283   5.291
 6774SOL    HW121221   1.671   4.225   5.359
 6774SOL    HW221222   1.528   4.280   5.304
 6775SOL     OW21223   2.192   2.411   2.814
 6775SOL    HW121224   2.137   2.422   2.897
 6775SOL    HW221225   2.286   2.438   2.833
 6776SOL     OW21226   4.563   2.970   0.402
 6776SOL    HW121227   4.543   3.026   0.483
 6776SOL    HW221228   4.588   2.878   0.431
 6777SOL     OW21229   4.969   4.743   0.762
 6777SOL    HW121230   5.012   4.758   0.672
 6777SOL    HW221231   4.956   4.645   0.776
 6778SOL     OW21232   0.164   5.526   1.381
 6778SOL    HW121233   0.114   5.592   1.325
 6778SOL    HW221234   0.199   5.453   1.323
 6779SOL     OW21235   5.328   5.394   6.089
 6779SOL    HW121236   5.272   5.476   6.082
 6779SOL    HW221237   5.381   5.398   6.174
 6780SOL     OW21238   1.588   2.856   2.600
 6780SOL    HW121239   1.630   2.790   2.537
 6780SOL    HW221240   1.568   2.812   2.687
 6781SOL     OW21241   6.339   2.173   4.926
 6781SOL    HW121242   6.331   2.149   4.829
 6781SOL    HW221243   6.424   2.136   4.962
 6782SOL     OW21244   0.858   1.097   3.153
 6782SOL    HW121245   0.946   1.142   3.170
 6782SOL    HW221246   0.851   1.073   3.057
 6783SOL     OW21247   0.015   1.352   6.254
 6783SOL    HW121248   7.014   1.400   6.338
 6783SOL    HW221249   6.955   1.336   6.200
 6784SOL     OW21250   1.870   3.528   0.767
 6784SOL    HW121251   1.905   3.590   0.837
 6784SOL    HW221252   1.801   3.575   0.712
 6785SOL     OW21253   6.176   5.943   5.121
 6785SOL    HW121254   6.177   5.956   5.220
 6785SOL    HW221255   6.150   5.849   5.101
 6786SOL     OW21256   1.507   2.144   0.690
 6786SOL    HW121257   1.442   2.107   0.623
 6786SOL    HW221258   1.457   2.171   0.772
 6787SOL     OW21259   3.002   2.811   0.349
 6787SOL    HW121260   2.969   2.855   0.266
 6787SOL    HW221261   2.954   2.847   0.428
 6788SOL     OW21262   0.963   4.293   1.265
 6788SOL    HW121263   1.042   4.237   1.238
 6788SOL    HW221264   0.981   4.336   1.354
 6789SOL     OW21265   1.014   4.790   4.004
 6789SOL    HW121266   1.056   4.848   4.073
 6789SOL    HW221267   1.076   4.780   3.926
 6790SOL     OW21268   1.100   3.884   0.039
 6790SOL    HW121269   1.057   3.824   6.994
 6790SOL    HW221270   1.068   3.978   0.025
 6791SOL     OW21271   3.596   2.006   2.253
 6791SOL    HW121272   3.582   2.066   2.174
 6791SOL    HW221273   3.512   2.001   2.307
 6792SOL     OW21274   5.433   6.825   5.181
 6792SOL    HW121275   5.506   6.764   5.212
 6792SOL    HW221276   5.388   6.868   5.260
 6793SOL     OW21277   1.641   1.437   0.160
 6793SOL    HW121278   1.605   1.504   0.096
 6793SOL    HW221279   1.586   1.438   0.244
 6794SOL     OW21280   5.365   1.484   5.363
 6794SOL    HW121281   5.357   1.416   5.436
 6794SOL    HW221282   5.281   1.539   5.360
 6795SOL     OW21283   1.622   6.687   1.184
 6795SOL    HW121284   1.525   6.698   1.163
 6795SOL    HW221285   1.654   6.598   1.150
 6796SOL     OW21286   5.913   1.026   3.380
 6796SOL    HW121287   5.903   0.957   3.309
 6796SOL    HW221288   6.011   1.046   3.393
 6797SOL     OW21289   6.927   2.291   1.829
 6797SOL    HW121290   6.836   2.333   1.820
 6797SOL    HW221291   6.964   2.272   1.738
 6798SOL     OW21292   5.939   6.140   1.867
 6798SOL    HW121293   5.985   6.224   1.839
 6798SOL    HW221294   5.846   6.162   1.897
 6799SOL     OW21295   6.835   0.585   2.577
 6799SOL    HW121296   6.779   0.518   2.528
 6799SOL    HW221297   6.928   0.551   2.586
 6800SOL     OW21298   2.393   2.583   1.921
 6800SOL    HW121299   2.423   2.489   1.939
 6800SOL    HW221300   2.401   2.602   1.823
 6801SOL     OW21301   1.262   0.494   3.268
 6801SOL    HW121302   1.182   0.461   3.218
 6801SOL    HW221303   1.267   0.593   3.262
 6802SOL     OW21304   3.996   5.741   1.320
 6802SOL    HW121305   3.986   5.783   1.230
 6802SOL    HW221306   3.965   5.805   1.390
 6803SOL     OW21307   4.564   3.757   6.087
 6803SOL    HW121308   4.470   3.770   6.117
 6803SOL    HW221309   4.568   3.757   5.987
 6804SOL     OW21310   3.903   4.905   3.640
 6804SOL    HW121311   3.864   4.995   3.617
 6804SOL    HW221312   3.928   4.858   3.556
 6805SOL     OW21313   0.013   4.893   6.106
 6805SOL    HW121314   7.020   4.818   6.171
 6805SOL    HW221315   0.053   4.971   6.154
 6806SOL     OW21316   6.596   1.048   3.196
 6806SOL    HW121317   6.552   1.094   3.119
 6806SOL    HW221318   6.626   1.117   3.263
 6807SOL     OW21319   3.200   3.101   1.241
 6807SOL    HW121320   3.289   3.055   1.249
 6807SOL    HW221321   3.137   3.041   1.191
 6808SOL     OW21322   6.786   1.672   6.352
 6808SOL    HW121323   6.698   1.680   6.305
 6808SOL    HW221324   6.790   1.738   6.427
 6809SOL     OW21325   0.413   3.110   1.108
 6809SOL    HW121326   0.378   3.188   1.161
 6809SOL    HW221327   0.480   3.061   1.164
 6810SOL     OW21328   2.733   0.740   2.379
 6810SOL    HW121329   2.760   0.828   2.418
 6810SOL    HW221330   2.746   0.741   2.280
 6811SOL     OW21331   5.879   4.008   1.648
 6811SOL    HW121332   5.831   4.088   1.612
 6811SOL    HW221333   5.976   4.030   1.660
 6812SOL     OW21334   3.514   3.895   4.294
 6812SOL    HW121335   3.531   3.850   4.207
 6812SOL    HW221336   3.530   3.830   4.369
 6813SOL     OW21337   5.494   3.569   3.323
 6813SOL    HW121338   5.487   3.649   3.382
 6813SOL    HW221339   5.403   3.540   3.294
 6814SOL     OW21340   4.259   2.243   6.211
 6814SOL    HW121341   4.236   2.185   6.133
 6814SOL    HW221342   4.351   2.222   6.242
 6815SOL     OW21343   2.847   5.682   6.987
 6815SOL    HW121344   2.795   5.598   6.974
 6815SOL    HW221345   2.806   5.756   6.934
 6816SOL     OW21346   6.588   0.744   6.103
 6816SOL    HW121347   6.651   0.714   6.031
 6816SOL    HW221348   6.494   0.728   6.074
 6817SOL     OW21349   2.440   2.675   3.046
 6817SOL    HW121350   2.512   2.719   3.100
 6817SOL    HW221351   2.360   2.660   3.103
 6818SOL     OW21352   2.260   6.447   0.869
 6818SOL    HW121353   2.324   6.497   0.928
 6818SOL    HW221354   2.169   6.447   0.911
 6819SOL     OW21355   4.037   1.294   3.258
 6819SOL    HW121356   3.990   1.244   3.331
 6819SOL    HW221357   4.116   1.342   3.295
 6820SOL     OW21358   2.448   6.347   1.269
 6820SOL    HW121359   2.368   6.303   1.227
 6820SOL    HW221360   2.522   6.279   1.277
 6821SOL     OW21361   4.163   2.195   5.195
 6821SOL    HW121362   4.158   2.271   5.131
 6821SOL    HW221363   4.072   2.180   5.235
 6822SOL     OW21364   5.749   1.966   5.787
 6822SOL    HW121365   5.658   1.934   5.813
 6822SOL    HW221366   5.745   2.063   5.765
 6823SOL     OW21367   5.730   4.048   5.667
 6823SOL    HW121368   5.754   4.052   5.764
 6823SOL    HW221369   5.811   4.026   5.613
 6824SOL     OW21370   1.320   1.895   0.261
 6824SOL    HW121371   1.225   1.871   0.283
 6824SOL    HW221372   1.329   1.905   0.162
 6825SOL     OW21373   6.226   0.003   0.520
 6825SOL    HW121374   6.273   0.078   0.566
 6825SOL    HW221375   6.177   0.038   0.440
 6826SOL     OW21376   1.924   3.680   3.703
 6826SOL    HW121377   1.909   3.582   3.689
 6826SOL    HW221378   1.836   3.725   3.720
 6827SOL     OW21379   4.806   5.111   6.245
 6827SOL    HW121380   4.761   5.199   6.262
 6827SOL    HW221381   4.750   5.037   6.283
 6828SOL     OW21382   3.211   1.408   1.238
 6828SOL    HW121383   3.221   1.430   1.335
 6828SOL    HW221384   3.123   1.439   1.205
 6829SOL     OW21385   4.882   5.908   5.485
 6829SOL    HW121386   4.978   5.935   5.496
 6829SOL    HW221387   4.822   5.980   5.520
 6830SOL     OW21388   5.543   0.777   2.960
 6830SOL    HW121389   5.595   0.695   2.983
 6830SOL    HW221390   5.456   0.751   2.918
 6831SOL     OW21391   1.127   0.826   6.663
 6831SOL    HW121392   1.085   0.890   6.598
 6831SOL    HW221393   1.102   0.732   6.638
 6832SOL     OW21394   2.469   4.120   0.582
 6832SOL    HW121395   2.451   4.173   0.665
 6832SOL    HW221396   2.482   4.024   0.606
 6833SOL     OW21397   3.495   4.447   6.609
 6833SOL    HW121398   3.550   4.364   6.622
 6833SOL    HW221399   3.485   4.465   6.511
 6834SOL     OW21400   6.138   0.530   0.468
 6834SOL    HW121401   6.144   0.446   0.521
 6834SOL    HW221402   6.113   0.606   0.529
 6835SOL     OW21403   4.392   0.779   4.895
 6835SOL    HW121404   4.457   0.853   4.882
 6835SOL    HW221405   4.401   0.713   4.820
 6836SOL     OW21406   3.338   4.084   0.306
 6836SOL    HW121407   3.336   4.078   0.406
 6836SOL    HW221408   3.260   4.034   0.268
 6837SOL     OW21409   1.086   2.073   2.888
 6837SOL    HW121410   1.174   2.029   2.866
 6837SOL    HW221411   1.103   2.165   2.923
 6838SOL     OW21412   3.482   6.297   6.627
 6838SOL    HW121413   3.501   6.268   6.533
 6838SOL    HW221414   3.499   6.222   6.690
 6839SOL     OW21415   5.430   1.393   5.769
 6839SOL    HW121416   5.421   1.492   5.757
 6839SOL    HW221417   5.408   1.347   5.683
 6840SOL     OW21418   3.512   0.385   4.202
 6840SOL    HW121419   3.448   0.452   4.240
 6840SOL    HW221420   3.541   0.414   4.112
 6841SOL     OW21421   3.887   4.374   0.332
 6841SOL    HW121422   3.835   4.429   0.267
 6841SOL    HW221423   3.847   4.283   0.338
 6842SOL     OW21424   2.505   3.468   0.922
 6842SOL    HW121425   2.533   3.486   0.828
 6842SOL    HW221426   2.445   3.541   0.953
 6843SOL     OW21427   6.062   6.803   1.977
 6843SOL    HW121428   6.160   6.800   1.957
 6843SOL    HW221429   6.011   6.818   1.893
 6844SOL     OW21430   4.883   0.204   3.768
 6844SOL    HW121431   4.837   0.186   3.681
 6844SOL    HW221432   4.960   0.266   3.753
 6845SOL     OW21433   6.310   5.131   2.939
 6845SOL    HW121434   6.221   5.095   2.914
 6845SOL    HW221435   6.302   5.228   2.962
 6846SOL     OW21436   4.309   2.809   0.326
 6846SOL    HW121437   4.267   2.878   0.384
 6846SOL    HW221438   4.408   2.811   0.337
 6847SOL     OW21439   0.069   4.781   3.236
 6847SOL    HW121440   6.994   4.764   3.226
 6847SOL    HW221441   0.085   4.879   3.238
 6848SOL     OW21442   3.919   6.930   3.575
 6848SOL    HW121443   3.902   6.837   3.544
 6848SOL    HW221444   3.966   6.928   3.664
 6849SOL     OW21445   3.838   5.160   5.213
 6849SOL    HW121446   3.822   5.115   5.301
 6849SOL    HW221447   3.936   5.164   5.195
 6850SOL     OW21448   5.839   3.893   2.492
 6850SOL    HW121449   5.825   3.859   2.585
 6850SOL    HW221450   5.887   3.981   2.496
 6851SOL     OW21451   0.937   2.610   3.234
 6851SOL    HW121452   0.877   2.531   3.224
 6851SOL    HW221453   0.898   2.687   3.183
 6852SOL     OW21454   2.722   5.066   0.541
 6852SOL    HW121455   2.678   5.123   0.472
 6852SOL    HW221456   2.672   4.980   0.550
 6853SOL     OW21457   6.811   4.238   0.291
 6853SOL    HW121458   6.773   4.169   0.352
 6853SOL    HW221459   6.905   4.258   0.317
 6854SOL     OW21460   4.994   1.938   6.357
 6854SOL    HW121461   5.038   2.013   6.406
 6854SOL    HW221462   4.914   1.973   6.308
 6855SOL     OW21463   3.405   5.506   3.270
 6855SOL    HW121464   3.391   5.577   3.202
 6855SOL    HW221465   3.323   5.495   3.326
 6856SOL     OW21466   5.162   3.921   5.213
 6856SOL    HW121467   5.140   3.829   5.246
 6856SOL    HW221468   5.104   3.943   5.135
 6857SOL     OW21469   2.916   2.509   0.026
 6857SOL    HW121470   2.908   2.413   0.050
 6857SOL    HW221471   2.929   2.518   6.950
 6858SOL     OW21472   3.771   3.678   3.700
 6858SOL    HW121473   3.718   3.761   3.713
 6858SOL    HW221474   3.732   3.604   3.756
 6859SOL     OW21475   0.873   0.893   0.960
 6859SOL    HW121476   0.845   0.923   0.869
 6859SOL    HW221477   0.793   0.867   1.014
 6860SOL     OW21478   6.707   5.259   0.990
 6860SOL    HW121479   6.766   5.189   0.950
 6860SOL    HW221480   6.711   5.253   1.090
 6861SOL     OW21481   4.387   4.882   0.354
 6861SOL    HW121482   4.453   4.948   0.391
 6861SOL    HW221483   4.426   4.790   0.359
 6862SOL     OW21484   1.886   4.410   5.870
 6862SOL    HW121485   1.796   4.366   5.866
 6862SOL    HW221486   1.946   4.369   5.801
 6863SOL     OW21487   5.213   6.820   5.898
 6863SOL    HW121488   5.272   6.785   5.970
 6863SOL    HW221489   5.176   6.909   5.924
 6864SOL     OW21490   3.050   5.898   3.701
 6864SOL    HW121491   3.127   5.954   3.671
 6864SOL    HW221492   3.064   5.871   3.797
 6865SOL     OW21493   1.259   5.936   3.155
 6865SOL    HW121494   1.345   5.987   3.163
 6865SOL    HW221495   1.273   5.841   3.183
 6866SOL     OW21496   6.115   5.037   2.753
 6866SOL    HW121497   6.109   4.958   2.692
 6866SOL    HW221498   6.068   5.016   2.839
 6867SOL     OW21499   2.346   4.154   1.501
 6867SOL    HW121500   2.439   4.119   1.501
 6867SOL    HW221501   2.340   4.232   1.564
 6868SOL     OW21502   1.067   5.504   6.065
 6868SOL    HW121503   1.165   5.521   6.057
 6868SOL    HW221504   1.050   5.450   6.147
 6869SOL     OW21505   5.802   1.308   5.641
 6869SOL    HW121506   5.795   1.400   5.602
 6869SOL    HW221507   5.755   1.243   5.582
 6870SOL     OW21508   0.363   4.900   2.034
 6870SOL    HW121509   0.305   4.863   1.961
 6870SOL    HW221510   0.382   4.996   2.017
 6871SOL     OW21511   6.136   4.700   3.306
 6871SOL    HW121512   6.094   4.767   3.366
 6871SOL    HW221513   6.093   4.704   3.216
 6872SOL     OW21514   0.118   2.891   0.939
 6872SOL    HW121515   0.060   2.927   0.865
 6872SOL    HW221516   0.211   2.927   0.928
 6873SOL     OW21517   0.160   3.631   5.538
 6873SOL    HW121518   0.089   3.700   5.526
 6873SOL    HW221519   0.227   3.639   5.464
 6874SOL     OW21520   0.485   6.131   2.014
 6874SOL    HW121521   0.480   6.152   2.112
 6874SOL    HW221522   0.491   6.032   2.002
 6875SOL     OW21523   2.468   2.442   3.406
 6875SOL    HW121524   2.555   2.484   3.435
 6875SOL    HW221525   2.481   2.397   3.318
 6876SOL     OW21526   3.565   6.639   3.564
 6876SOL    HW121527   3.654   6.607   3.594
 6876SOL    HW221528   3.521   6.691   3.638
 6877SOL     OW21529   2.528   3.897   1.340
 6877SOL    HW121530   2.614   3.945   1.358
 6877SOL    HW221531   2.481   3.941   1.263
 6878SOL     OW21532   3.146   0.958   5.157
 6878SOL    HW121533   3.058   0.997   5.133
 6878SOL    HW221534   3.199   0.941   5.074
 6879SOL     OW21535   0.638   2.133   0.619
 6879SOL    HW121536   0.574   2.177   0.557
 6879SOL    HW221537   0.681   2.055   0.573
 6880SOL     OW21538   1.451   4.549   4.895
 6880SOL    HW121539   1.529   4.595   4.854
 6880SOL    HW221540   1.422   4.598   4.976
 6881SOL     OW21541   1.542   4.032   1.188
 6881SOL    HW121542   1.485   4.056   1.110
 6881SOL    HW221543   1.538   4.105   1.256
 6882SOL     OW21544   3.059   0.449   6.879
 6882SOL    HW121545   2.986   0.512   6.851
 6882SOL    HW221546   3.024   0.388   6.950
 6883SOL     OW21547   4.360   1.083   0.629
 6883SOL    HW121548   4.457   1.064   0.643
 6883SOL    HW221549   4.316   1.099   0.717
 6884SOL     OW21550   2.589   4.672   4.304
 6884SOL    HW121551   2.549   4.679   4.395
 6884SOL    HW221552   2.524   4.629   4.242
 6885SOL     OW21553   3.806   5.158   3.557
 6885SOL    HW121554   3.847   5.243   3.523
 6885SOL    HW221555   3.706   5.164   3.548
 6886SOL     OW21556   6.789   0.878   4.380
 6886SOL    HW121557   6.741   0.816   4.318
 6886SOL    HW221558   6.819   0.959   4.330
 6887SOL     OW21559   5.127   5.730   6.600
 6887SOL    HW121560   5.191   5.661   6.633
 6887SOL    HW221561   5.060   5.687   6.539
 6888SOL     OW21562   5.443   6.277   0.036
 6888SOL    HW121563   5.455   6.255   0.133
 6888SOL    HW221564   5.451   6.194   7.004
 6889SOL     OW21565   1.704   2.152   5.369
 6889SOL    HW121566   1.636   2.225   5.363
 6889SOL    HW221567   1.794   2.188   5.341
 6890SOL     OW21568   4.359   6.353   1.490
 6890SOL    HW121569   4.312   6.320   1.572
 6890SOL    HW221570   4.291   6.385   1.424
 6891SOL     OW21571   2.241   4.530   3.388
 6891SOL    HW121572   2.215   4.436   3.365
 6891SOL    HW221573   2.340   4.536   3.396
 6892SOL     OW21574   3.100   2.063   3.642
 6892SOL    HW121575   3.183   2.093   3.689
 6892SOL    HW221576   3.059   1.987   3.693
 6893SOL     OW21577   4.119   4.082   0.108
 6893SOL    HW121578   4.189   4.094   0.037
 6893SOL    HW221579   4.155   4.112   0.196
 6894SOL     OW21580   6.305   4.863   0.823
 6894SOL    HW121581   6.336   4.835   0.914
 6894SOL    HW221582   6.231   4.802   0.793
 6895SOL     OW21583   2.757   5.244   0.123
 6895SOL    HW121584   2.672   5.193   0.130
 6895SOL    HW221585   2.826   5.200   0.181
 6896SOL     OW21586   2.065   6.888   3.955
 6896SOL    HW121587   2.069   6.843   3.867
 6896SOL    HW221588   2.098   6.982   3.946
 6897SOL     OW21589   4.329   3.852   6.174
 6897SOL    HW121590   4.238   3.821   6.146
 6897SOL    HW221591   4.334   3.951   6.168
 6898SOL     OW21592   3.706   1.609   1.657
 6898SOL    HW121593   3.673   1.609   1.563
 6898SOL    HW221594   3.655   1.676   1.711
 6899SOL     OW21595   5.530   6.353   1.444
 6899SOL    HW121596   5.520   6.324   1.539
 6899SOL    HW221597   5.471   6.296   1.385
 6900SOL     OW21598   6.451   6.586   5.826
 6900SOL    HW121599   6.424   6.641   5.747
 6900SOL    HW221600   6.467   6.492   5.796
 6901SOL     OW21601   6.964   5.965   6.063
 6901SOL    HW121602   6.895   5.930   6.126
 6901SOL    HW221603   6.990   6.058   6.091
 6902SOL     OW21604   5.508   6.072   6.890
 6902SOL    HW121605   5.505   5.972   6.896
 6902SOL    HW221606   5.603   6.102   6.878
 6903SOL     OW21607   2.971   5.611   4.449
 6903SOL    HW121608   3.004   5.598   4.542
 6903SOL    HW221609   3.047   5.603   4.385
 6904SOL     OW21610   5.845   0.507   4.685
 6904SOL    HW121611   5.799   0.487   4.598
 6904SOL    HW221612   5.851   0.606   4.698
 6905SOL     OW21613   5.415   6.473   6.156
 6905SOL    HW121614   5.408   6.401   6.087
 6905SOL    HW221615   5.511   6.483   6.183
 6906SOL     OW21616   4.538   1.235   3.671
 6906SOL    HW121617   4.535   1.332   3.645
 6906SOL    HW221618   4.627   1.215   3.713
 6907SOL     OW21619   5.448   3.055   1.583
 6907SOL    HW121620   5.376   3.038   1.651
 6907SOL    HW221621   5.524   2.993   1.599
 6908SOL     OW21622   0.507   5.505   6.083
 6908SOL    HW121623   0.557   5.520   6.168
 6908SOL    HW221624   0.571   5.513   6.006
 6909SOL     OW21625   5.755   4.540   1.199
 6909SOL    HW121626   5.657   4.540   1.217
 6909SOL    HW221627   5.778   4.464   1.139
 6910SOL     OW21628   6.699   2.053   3.378
 6910SOL    HW121629   6.600   2.053   3.397
 6910SOL    HW221630   6.748   2.084   3.459
 6911SOL     OW21631   4.152   6.045   3.826
 6911SOL    HW121632   4.113   5.995   3.903
 6911SOL    HW221633   4.079   6.085   3.771
 6912SOL     OW21634   3.624   4.573   6.896
 6912SOL    HW121635   3.528   4.593   6.913
 6912SOL    HW221636   3.678   4.657   6.904
 6913SOL     OW21637   4.643   5.309   4.525
 6913SOL    HW121638   4.552   5.319   4.483
 6913SOL    HW221639   4.633   5.312   4.624
 6914SOL     OW21640   6.079   3.723   5.261
 6914SOL    HW121641   6.121   3.660   5.196
 6914SOL    HW221642   5.980   3.726   5.245
 6915SOL     OW21643   6.024   3.133   1.617
 6915SOL    HW121644   5.940   3.187   1.606
 6915SOL    HW221645   6.103   3.194   1.617
 6916SOL     OW21646   6.813   2.593   6.955
 6916SOL    HW121647   6.843   2.687   6.941
 6916SOL    HW221648   6.892   2.532   6.957
 6917SOL     OW21649   2.643   5.325   1.275
 6917SOL    HW121650   2.594   5.277   1.202
 6917SOL    HW221651   2.640   5.424   1.257
 6918SOL     OW21652   0.161   3.006   4.200
 6918SOL    HW121653   0.181   3.100   4.172
 6918SOL    HW221654   0.246   2.956   4.212
 6919SOL     OW21655   0.087   6.069   2.646
 6919SOL    HW121656   0.054   6.020   2.565
 6919SOL    HW221657   0.154   6.013   2.693
 6920SOL     OW21658   4.586   5.466   5.214
 6920SOL    HW121659   4.562   5.524   5.135
 6920SOL    HW221660   4.528   5.384   5.214
 6921SOL     OW21661   5.292   5.625   3.572
 6921SOL    HW121662   5.225   5.556   3.544
 6921SOL    HW221663   5.268   5.658   3.664
 6922SOL     OW21664   2.149   5.634   5.525
 6922SOL    HW121665   2.234   5.583   5.516
 6922SOL    HW221666   2.086   5.585   5.585
 6923SOL     OW21667   4.641   5.790   3.382
 6923SOL    HW121668   4.546   5.759   3.388
 6923SOL    HW221669   4.643   5.890   3.378
 6924SOL     OW21670   2.818   4.123   6.674
 6924SOL    HW121671   2.794   4.153   6.766
 6924SOL    HW221672   2.780   4.031   6.658
 6925SOL     OW21673   4.606   6.302   4.860
 6925SOL    HW121674   4.594   6.377   4.795
 6925SOL    HW221675   4.563   6.326   4.947
 6926SOL     OW21676   3.200   2.555   0.987
 6926SOL    HW121677   3.221   2.473   0.934
 6926SOL    HW221678   3.130   2.534   1.055
 6927SOL     OW21679   4.752   2.988   6.490
 6927SOL    HW121680   4.826   3.050   6.467
 6927SOL    HW221681   4.691   2.977   6.412
 6928SOL     OW21682   6.209   6.079   0.778
 6928SOL    HW121683   6.194   6.143   0.853
 6928SOL    HW221684   6.180   6.121   0.692
 6929SOL     OW21685   5.955   5.496   0.687
 6929SOL    HW121686   5.874   5.453   0.727
 6929SOL    HW221687   5.926   5.561   0.616
 6930SOL     OW21688   0.212   6.518   2.541
 6930SOL    HW121689   0.242   6.447   2.606
 6930SOL    HW221690   0.148   6.579   2.586
 6931SOL     OW21691   2.229   0.621   2.336
 6931SOL    HW121692   2.197   0.677   2.259
 6931SOL    HW221693   2.246   0.679   2.415
 6932SOL     OW21694   4.349   6.700   0.412
 6932SOL    HW121695   4.409   6.700   0.331
 6932SOL    HW221696   4.380   6.770   0.476
 6933SOL     OW21697   3.298   6.288   4.658
 6933SOL    HW121698   3.336   6.302   4.567
 6933SOL    HW221699   3.346   6.346   4.724
 6934SOL     OW21700   5.035   3.341   5.837
 6934SOL    HW121701   5.014   3.342   5.740
 6934SOL    HW221702   4.983   3.412   5.884
 6935SOL     OW21703   4.402   4.749   3.361
 6935SOL    HW121704   4.455   4.829   3.388
 6935SOL    HW221705   4.320   4.778   3.311
 6936SOL     OW21706   6.368   1.965   3.663
 6936SOL    HW121707   6.343   2.045   3.718
 6936SOL    HW221708   6.388   1.888   3.724
 6937SOL     OW21709   0.020   6.207   6.995
 6937SOL    HW121710   0.072   6.280   6.949
 6937SOL    HW221711   6.956   6.243   0.005
 6938SOL     OW21712   5.115   3.684   5.335
 6938SOL    HW121713   5.061   3.689   5.419
 6938SOL    HW221714   5.143   3.589   5.319
 6939SOL     OW21715   0.832   4.643   2.082
 6939SOL    HW121716   0.745   4.616   2.123
 6939SOL    HW221717   0.874   4.714   2.138
 6940SOL     OW21718   4.095   1.075   6.702
 6940SOL    HW121719   4.142   0.987   6.693
 6940SOL    HW221720   4.162   1.147   6.716
 6941SOL     OW21721   3.842   3.823   1.868
 6941SOL    HW121722   3.896   3.801   1.949
 6941SOL    HW221723   3.781   3.747   1.847
 6942SOL     OW21724   5.300   0.277   1.513
 6942SOL    HW121725   5.353   0.345   1.564
 6942SOL    HW221726   5.219   0.320   1.474
 6943SOL     OW21727   4.239   6.312   0.187
 6943SOL    HW121728   4.301   6.389   0.203
 6943SOL    HW221729   4.293   6.233   0.157
 6944SOL     OW21730   0.446   4.381   6.289
 6944SOL    HW121731   0.423   4.284   6.300
 6944SOL    HW221732   0.446   4.425   6.379
 6945SOL     OW21733   6.375   1.228   6.437
 6945SOL    HW121734   6.387   1.186   6.347
 6945SOL    HW221735   6.301   1.182   6.486
 6946SOL     OW21736   5.779   6.120   1.312
 6946SOL    HW121737   5.809   6.052   1.379
 6946SOL    HW221738   5.734   6.196   1.359
 6947SOL     OW21739   3.492   6.553   6.434
 6947SOL    HW121740   3.440   6.484   6.385
 6947SOL    HW221741   3.483   6.641   6.387
 6948SOL     OW21742   6.879   0.424   0.694
 6948SOL    HW121743   6.870   0.462   0.601
 6948SOL    HW221744   6.788   0.409   0.732
 6949SOL     OW21745   4.817   0.008   2.416
 6949SOL    HW121746   4.795   0.075   2.487
 6949SOL    HW221747   4.772   6.944   2.437
 6950SOL     OW21748   2.129   1.504   4.650
 6950SOL    HW121749   2.033   1.479   4.658
 6950SOL    HW221750   2.180   1.467   4.729
 6951SOL     OW21751   6.535   5.783   5.786
 6951SOL    HW121752   6.617   5.834   5.812
 6951SOL    HW221753   6.475   5.842   5.733
 6952SOL     OW21754   0.789   6.503   3.466
 6952SOL    HW121755   0.814   6.582   3.411
 6952SOL    HW221756   0.852   6.427   3.446
 6953SOL     OW21757   4.756   6.322   0.468
 6953SOL    HW121758   4.825   6.291   0.533
 6953SOL    HW221759   4.801   6.375   0.395
 6954SOL     OW21760   0.011   3.548   3.226
 6954SOL    HW121761   6.971   3.479   3.191
 6954SOL    HW221762   0.021   3.538   3.325
 6955SOL     OW21763   5.982   0.060   2.576
 6955SOL    HW121764   6.000   0.065   2.675
 6955SOL    HW221765   6.009   6.993   2.542
 6956SOL     OW21766   5.537   5.457   3.679
 6956SOL    HW121767   5.632   5.458   3.648
 6956SOL    HW221768   5.488   5.535   3.640
 6957SOL     OW21769   6.682   4.841   1.060
 6957SOL    HW121770   6.726   4.911   1.003
 6957SOL    HW221771   6.663   4.879   1.150
 6958SOL     OW21772   3.185   3.092   4.097
 6958SOL    HW121773   3.170   3.020   4.030
 6958SOL    HW221774   3.282   3.117   4.098
 6959SOL     OW21775   1.934   1.780   3.930
 6959SOL    HW121776   1.895   1.741   4.014
 6959SOL    HW221777   1.902   1.727   3.851
 6960SOL     OW21778   2.492   4.413   1.318
 6960SOL    HW121779   2.456   4.506   1.316
 6960SOL    HW221780   2.468   4.369   1.404
 6961SOL     OW21781   5.518   1.939   3.673
 6961SOL    HW121782   5.450   1.881   3.717
 6961SOL    HW221783   5.511   2.033   3.708
 6962SOL     OW21784   4.842   5.907   2.018
 6962SOL    HW121785   4.838   5.827   2.078
 6962SOL    HW221786   4.919   5.965   2.045
 6963SOL     OW21787   5.615   5.999   0.944
 6963SOL    HW121788   5.702   6.029   0.905
 6963SOL    HW221789   5.568   5.940   0.878
 6964SOL     OW21790   3.666   0.602   5.260
 6964SOL    HW121791   3.705   0.583   5.170
 6964SOL    HW221792   3.605   0.681   5.253
 6965SOL     OW21793   0.914   2.336   1.123
 6965SOL    HW121794   0.999   2.367   1.164
 6965SOL    HW221795   0.913   2.236   1.119
 6966SOL     OW21796   0.105   1.940   3.217
 6966SOL    HW121797   0.099   1.961   3.119
 6966SOL    HW221798   0.194   1.900   3.236
 6967SOL     OW21799   2.698   0.072   5.152
 6967SOL    HW121800   2.664   0.150   5.098
 6967SOL    HW221801   2.792   0.090   5.180
 6968SOL     OW21802   4.467   6.764   2.650
 6968SOL    HW121803   4.436   6.717   2.733
 6968SOL    HW221804   4.517   6.847   2.677
 6969SOL     OW21805   2.992   2.473   1.159
 6969SOL    HW121806   2.905   2.519   1.147
 6969SOL    HW221807   2.982   2.397   1.224
 6970SOL     OW21808   3.743   3.735   6.211
 6970SOL    HW121809   3.684   3.655   6.227
 6970SOL    HW221810   3.693   3.802   6.157
 6971SOL     OW21811   6.617   4.147   2.157
 6971SOL    HW121812   6.542   4.173   2.096
 6971SOL    HW221813   6.667   4.229   2.185
 6972SOL     OW21814   4.742   4.124   3.539
 6972SOL    HW121815   4.751   4.025   3.552
 6972SOL    HW221816   4.718   4.167   3.627
 6973SOL     OW21817   0.737   3.191   4.492
 6973SOL    HW121818   0.740   3.242   4.406
 6973SOL    HW221819   0.662   3.224   4.548
 6974SOL     OW21820   3.073   4.012   2.744
 6974SOL    HW121821   3.109   3.955   2.818
 6974SOL    HW221822   3.007   4.077   2.780
 6975SOL     OW21823   2.271   6.419   6.011
 6975SOL    HW121824   2.346   6.433   5.946
 6975SOL    HW221825   2.268   6.323   6.039
 6976SOL     OW21826   5.491   5.269   4.639
 6976SOL    HW121827   5.429   5.289   4.715
 6976SOL    HW221828   5.446   5.207   4.575
 6977SOL     OW21829   3.965   3.013   1.862
 6977SOL    HW121830   3.992   2.950   1.789
 6977SOL    HW221831   3.884   2.977   1.908
 6978SOL     OW21832   5.387   1.415   2.006
 6978SOL    HW121833   5.315   1.470   2.048
 6978SOL    HW221834   5.389   1.432   1.908
 6979SOL     OW21835   0.499   4.117   1.388
 6979SOL    HW121836   0.579   4.123   1.329
 6979SOL    HW221837   0.431   4.058   1.346
 6980SOL     OW21838   1.803   0.758   4.175
 6980SOL    HW121839   1.883   0.812   4.149
 6980SOL    HW221840   1.788   0.765   4.273
 6981SOL     OW21841   3.574   2.266   5.470
 6981SOL    HW121842   3.639   2.193   5.490
 6981SOL    HW221843   3.507   2.273   5.544
 6982SOL     OW21844   1.217   0.276   4.903
 6982SOL    HW121845   1.156   0.336   4.851
 6982SOL    HW221846   1.246   0.200   4.845
 6983SOL     OW21847   3.731   2.154   3.683
 6983SOL    HW121848   3.798   2.132   3.753
 6983SOL    HW221849   3.777   2.191   3.602
 6984SOL     OW21850   2.344   1.845   3.236
 6984SOL    HW121851   2.415   1.853   3.166
 6984SOL    HW221852   2.273   1.782   3.204
 6985SOL     OW21853   5.452   5.086   1.757
 6985SOL    HW121854   5.537   5.033   1.762
 6985SOL    HW221855   5.421   5.107   1.850
 6986SOL     OW21856   1.886   0.052   5.609
 6986SOL    HW121857   1.902   6.990   5.558
 6986SOL    HW221858   1.829   0.033   5.689
 6987SOL     OW21859   5.718   1.409   5.899
 6987SOL    HW121860   5.624   1.378   5.906
 6987SOL    HW221861   5.750   1.397   5.805
 6988SOL     OW21862   0.286   0.814   5.494
 6988SOL    HW121863   0.235   0.741   5.540
 6988SOL    HW221864   0.374   0.779   5.462
 6989SOL     OW21865   0.974   3.768   3.112
 6989SOL    HW121866   0.956   3.670   3.101
 6989SOL    HW221867   0.992   3.808   3.022
 6990SOL     OW21868   4.761   2.665   1.076
 6990SOL    HW121869   4.854   2.642   1.106
 6990SOL    HW221870   4.748   2.634   0.982
 6991SOL     OW21871   3.973   4.807   3.055
 6991SOL    HW121872   3.878   4.821   3.083
 6991SOL    HW221873   3.980   4.809   2.956
 6992SOL     OW21874   5.039   6.201   6.276
 6992SOL    HW121875   5.003   6.206   6.183
 6992SOL    HW221876   5.069   6.293   6.305
 6993SOL     OW21877   5.451   1.030   2.856
 6993SOL    HW121878   5.443   0.991   2.764
 6993SOL    HW221879   5.527   0.986   2.905
 6994SOL     OW21880   0.586   2.159   4.459
 6994SOL    HW121881   0.602   2.140   4.362
 6994SOL    HW221882   0.495   2.200   4.471
 6995SOL     OW21883   6.585   4.443   6.105
 6995SOL    HW121884   6.596   4.366   6.042
 6995SOL    HW221885   6.674   4.488   6.118
 6996SOL     OW21886   1.390   6.953   0.003
 6996SOL    HW121887   1.332   0.010   0.018
 6996SOL    HW221888   1.417   6.948   6.930
 6997SOL     OW21889   0.299   6.026   4.681
 6997SOL    HW121890   0.315   5.977   4.595
 6997SOL    HW221891   0.235   5.974   4.737
 6998SOL     OW21892   2.196   0.619   1.778
 6998SOL    HW121893   2.160   0.655   1.692
 6998SOL    HW221894   2.183   0.686   1.851
 6999SOL     OW21895   2.578   2.350   6.379
 6999SOL    HW121896   2.488   2.385   6.404
 6999SOL    HW221897   2.572   2.301   6.292
 7000SOL     OW21898   5.173   6.535   1.138
 7000SOL    HW121899   5.132   6.510   1.225
 7000SOL    HW221900   5.168   6.634   1.126
 7001SOL     OW21901   1.775   2.964   5.716
 7001SOL    HW121902   1.798   2.985   5.811
 7001SOL    HW221903   1.788   3.046   5.659
 7002SOL     OW21904   2.096   5.360   4.352
 7002SOL    HW121905   2.123   5.413   4.433
 7002SOL    HW221906   2.043   5.280   4.380
 7003SOL     OW21907   4.132   5.257   0.383
 7003SOL    HW121908   4.087   5.345   0.400
 7003SOL    HW221909   4.216   5.273   0.330
 7004SOL     OW21910   1.121   4.761   2.660
 7004SOL    HW121911   1.165   4.781   2.572
 7004SOL    HW221912   1.059   4.683   2.649
 7005SOL     OW21913   1.496   0.300   0.777
 7005SOL    HW121914   1.481   0.348   0.863
 7005SOL    HW221915   1.417   0.313   0.717
 7006SOL     OW21916   5.006   5.109   3.692
 7006SOL    HW121917   5.104   5.098   3.709
 7006SOL    HW221918   4.956   5.103   3.779
 7007SOL     OW21919   4.691   0.476   3.497
 7007SOL    HW121920   4.636   0.556   3.522
 7007SOL    HW221921   4.779   0.506   3.460
 7008SOL     OW21922   0.724   3.698   4.644
 7008SOL    HW121923   0.637   3.685   4.597
 7008SOL    HW221924   0.778   3.614   4.639
 7009SOL     OW21925   5.683   6.174   1.947
 7009SOL    HW121926   5.645   6.160   2.039
 7009SOL    HW221927   5.624   6.130   1.880
 7010SOL     OW21928   5.489   4.074   3.897
 7010SOL    HW121929   5.494   4.076   3.997
 7010SOL    HW221930   5.575   4.109   3.859
 7011SOL     OW21931   3.092   6.709   6.398
 7011SOL    HW121932   3.141   6.700   6.485
 7011SOL    HW221933   3.000   6.745   6.416
 7012SOL     OW21934   0.452   2.051   1.583
 7012SOL    HW121935   0.520   2.070   1.653
 7012SOL    HW221936   0.495   2.058   1.493
 7013SOL     OW21937   0.287   0.464   0.108
 7013SOL    HW121938   0.350   0.489   0.035
 7013SOL    HW221939   0.331   0.479   0.197
 7014SOL     OW21940   4.254   3.581   0.869
 7014SOL    HW121941   4.217   3.563   0.778
 7014SOL    HW221942   4.185   3.557   0.938
 7015SOL     OW21943   6.094   4.786   2.624
 7015SOL    HW121944   6.122   4.708   2.680
 7015SOL    HW221945   6.167   4.808   2.559
 7016SOL     OW21946   3.423   4.897   1.605
 7016SOL    HW121947   3.407   4.815   1.550
 7016SOL    HW221948   3.520   4.901   1.631
 7017SOL     OW21949   2.144   4.900   2.501
 7017SOL    HW121950   2.074   4.910   2.571
 7017SOL    HW221951   2.193   4.814   2.515
 7018SOL     OW21952   5.265   3.642   4.848
 7018SOL    HW121953   5.329   3.713   4.876
 7018SOL    HW221954   5.171   3.672   4.867
 7019SOL     OW21955   3.727   4.131   0.292
 7019SOL    HW121956   3.746   4.056   0.355
 7019SOL    HW221957   3.630   4.135   0.272
 7020SOL     OW21958   6.635   5.203   6.630
 7020SOL    HW121959   6.655   5.292   6.671
 7020SOL    HW221960   6.561   5.159   6.681
 7021SOL     OW21961   1.025   1.885   5.651
 7021SOL    HW121962   1.099   1.834   5.695
 7021SOL    HW221963   1.061   1.935   5.573
 7022SOL     OW21964   4.838   6.850   5.904
 7022SOL    HW121965   4.824   6.843   5.806
 7022SOL    HW221966   4.908   6.919   5.923
 7023SOL     OW21967   6.983   2.279   4.249
 7023SOL    HW121968   0.007   2.194   4.275
 7023SOL    HW221969   6.932   2.265   4.164
 7024SOL     OW21970   2.722   3.901   5.273
 7024SOL    HW121971   2.642   3.941   5.228
 7024SOL    HW221972   2.788   3.873   5.203
 7025SOL     OW21973   2.856   0.982   0.560
 7025SOL    HW121974   2.935   1.041   0.579
 7025SOL    HW221975   2.868   0.936   0.473
 7026SOL     OW21976   3.070   1.644   2.206
 7026SOL    HW121977   3.021   1.567   2.246
 7026SOL    HW221978   3.150   1.611   2.157
 7027SOL     OW21979   2.785   5.461   4.302
 7027SOL    HW121980   2.751   5.393   4.367
 7027SOL    HW221981   2.854   5.519   4.347
 7028SOL     OW21982   3.022   2.088   4.326
 7028SOL    HW121983   3.094   2.056   4.388
 7028SOL    HW221984   2.945   2.025   4.329
 7029SOL     OW21985   5.141   5.068   5.204
 7029SOL    HW121986   5.147   5.047   5.301
 7029SOL    HW221987   5.187   5.154   5.185
 7030SOL     OW21988   1.230   0.839   5.067
 7030SOL    HW121989   1.182   0.791   5.140
 7030SOL    HW221990   1.165   0.897   5.018
 7031SOL     OW21991   3.147   5.736   5.345
 7031SOL    HW121992   3.135   5.644   5.308
 7031SOL    HW221993   3.203   5.790   5.283
 7032SOL     OW21994   3.910   0.875   3.379
 7032SOL    HW121995   3.863   0.961   3.400
 7032SOL    HW221996   3.868   0.800   3.430
 7033SOL     OW21997   1.668   2.482   3.804
 7033SOL    HW121998   1.766   2.497   3.796
 7033SOL    HW221999   1.626   2.556   3.856
 7034SOL     OW22000   6.549   0.545   4.006
 7034SOL    HW122001   6.454   0.515   4.015
 7034SOL    HW222002   6.557   0.608   3.928
 7035SOL     OW22003   1.687   6.314   0.885
 7035SOL    HW122004   1.680   6.349   0.979
 7035SOL    HW222005   1.783   6.302   0.861
 7036SOL     OW22006   0.497   0.535   3.017
 7036SOL    HW122007   0.536   0.597   2.950
 7036SOL    HW222008   0.523   0.564   3.109
 7037SOL     OW22009   1.604   1.436   6.802
 7037SOL    HW122010   1.643   1.364   6.859
 7037SOL    HW222011   1.605   1.522   6.852
 7038SOL     OW22012   2.484   3.227   5.383
 7038SOL    HW122013   2.409   3.277   5.339
 7038SOL    HW222014   2.514   3.153   5.322
 7039SOL     OW22015   2.257   5.362   2.009
 7039SOL    HW122016   2.185   5.386   2.074
 7039SOL    HW222017   2.304   5.280   2.041
 7040SOL     OW22018   6.113   1.493   6.028
 7040SOL    HW122019   6.134   1.527   5.936
 7040SOL    HW222020   6.095   1.570   6.089
 7041SOL     OW22021   6.488   1.557   1.925
 7041SOL    HW122022   6.538   1.607   1.995
 7041SOL    HW222023   6.390   1.575   1.934
 7042SOL     OW22024   4.501   5.206   4.987
 7042SOL    HW122025   4.538   5.114   5.002
 7042SOL    HW222026   4.487   5.251   5.076
 7043SOL     OW22027   2.249   4.273   2.666
 7043SOL    HW122028   2.212   4.298   2.576
 7043SOL    HW222029   2.181   4.219   2.716
 7044SOL     OW22030   5.228   4.847   3.834
 7044SOL    HW122031   5.143   4.798   3.812
 7044SOL    HW222032   5.235   4.857   3.933
 7045SOL     OW22033   5.343   5.434   3.290
 7045SOL    HW122034   5.414   5.451   3.359
 7045SOL    HW222035   5.253   5.458   3.328
 7046SOL     OW22036   3.035   1.152   3.271
 7046SOL    HW122037   3.031   1.064   3.319
 7046SOL    HW222038   3.006   1.225   3.333
 7047SOL     OW22039   6.203   1.534   2.283
 7047SOL    HW122040   6.218   1.465   2.213
 7047SOL    HW222041   6.246   1.506   2.369
 7048SOL     OW22042   5.146   6.690   3.294
 7048SOL    HW122043   5.158   6.727   3.386
 7048SOL    HW222044   5.119   6.594   3.301
 7049SOL     OW22045   3.284   1.271   0.464
 7049SOL    HW122046   3.366   1.276   0.408
 7049SOL    HW222047   3.264   1.360   0.504
 7050SOL     OW22048   4.401   3.493   1.410
 7050SOL    HW122049   4.432   3.534   1.496
 7050SOL    HW222050   4.476   3.496   1.343
 7051SOL     OW22051   6.134   6.870   1.158
 7051SOL    HW122052   6.160   6.912   1.071
 7051SOL    HW222053   6.064   6.926   1.202
 7052SOL     OW22054   5.717   2.184   3.085
 7052SOL    HW122055   5.811   2.217   3.086
 7052SOL    HW222056   5.654   2.262   3.089
 7053SOL     OW22057   0.900   3.391   5.390
 7053SOL    HW122058   0.847   3.476   5.394
 7053SOL    HW222059   0.997   3.411   5.403
 7054SOL     OW22060   0.157   6.512   0.168
 7054SOL    HW122061   0.193   6.534   0.077
 7054SOL    HW222062   0.058   6.527   0.170
 7055SOL     OW22063   2.854   0.034   6.017
 7055SOL    HW122064   2.818   0.075   6.100
 7055SOL    HW222065   2.779   0.004   5.959
 7056SOL     OW22066   6.817   4.343   2.156
 7056SOL    HW122067   6.821   4.294   2.069
 7056SOL    HW222068   6.825   4.441   2.139
 7057SOL     OW22069   2.511   5.421   4.594
 7057SOL    HW122070   2.443   5.351   4.618
 7057SOL    HW222071   2.517   5.488   4.668
 7058SOL     OW22072   5.614   4.601   5.322
 7058SOL    HW122073   5.704   4.560   5.334
 7058SOL    HW222074   5.544   4.532   5.340
 7059SOL     OW22075   0.168   1.608   3.685
 7059SOL    HW122076   0.109   1.571   3.757
 7059SOL    HW222077   0.242   1.661   3.727
 7060SOL     OW22078   3.515   0.072   1.280
 7060SOL    HW122079   3.423   0.080   1.319
 7060SOL    HW222080   3.511   0.013   1.199
 7061SOL     OW22081   0.323   3.540   3.737
 7061SOL    HW122082   0.226   3.549   3.760
 7061SOL    HW222083   0.370   3.625   3.758
 7062SOL     OW22084   4.418   1.154   5.350
 7062SOL    HW122085   4.423   1.206   5.435
 7062SOL    HW222086   4.343   1.089   5.355
 7063SOL     OW22087   1.551   0.220   2.022
 7063SOL    HW122088   1.612   0.265   1.957
 7063SOL    HW222089   1.502   0.146   1.976
 7064SOL     OW22090   3.412   2.055   0.330
 7064SOL    HW122091   3.511   2.042   0.323
 7064SOL    HW222092   3.366   1.968   0.313
 7065SOL     OW22093   5.082   3.881   5.646
 7065SOL    HW122094   5.124   3.867   5.736
 7065SOL    HW222095   5.098   3.976   5.617
 7066SOL     OW22096   4.849   0.231   6.770
 7066SOL    HW122097   4.912   0.296   6.812
 7066SOL    HW222098   4.758   0.273   6.762
 7067SOL     OW22099   1.534   3.020   5.600
 7067SOL    HW122100   1.568   2.983   5.513
 7067SOL    HW222101   1.599   2.998   5.673
 7068SOL     OW22102   6.569   4.539   4.836
 7068SOL    HW122103   6.605   4.602   4.905
 7068SOL    HW222104   6.620   4.453   4.840
 7069SOL     OW22105   5.208   1.958   4.369
 7069SOL    HW122106   5.244   1.930   4.458
 7069SOL    HW222107   5.115   1.923   4.358
 7070SOL     OW22108   0.346   0.394   5.118
 7070SOL    HW122109   0.258   0.360   5.085
 7070SOL    HW222110   0.359   0.366   5.213
 7071SOL     OW22111   2.975   6.185   5.365
 7071SOL    HW122112   3.046   6.115   5.356
 7071SOL    HW222113   2.991   6.239   5.447
 7072SOL     OW22114   1.598   6.407   0.101
 7072SOL    HW122115   1.623   6.490   0.050
 7072SOL    HW222116   1.549   6.433   0.184
 7073SOL     OW22117   5.448   0.020   4.162
 7073SOL    HW122118   5.535   7.007   4.127
 7073SOL    HW222119   5.395   6.968   4.202
 7074SOL     OW22120   5.600   2.662   1.926
 7074SOL    HW122121   5.631   2.587   1.869
 7074SOL    HW222122   5.501   2.661   1.932
 7075SOL     OW22123   1.978   4.125   5.334
 7075SOL    HW122124   1.973   4.060   5.258
 7075SOL    HW222125   2.008   4.077   5.417
 7076SOL     OW22126   5.861   2.429   6.239
 7076SOL    HW122127   5.809   2.385   6.165
 7076SOL    HW222128   5.916   2.361   6.286
 7077SOL     OW22129   2.427   4.721   3.886
 7077SOL    HW122130   2.441   4.671   3.971
 7077SOL    HW222131   2.468   4.669   3.810
 7078SOL     OW22132   6.553   6.659   1.591
 7078SOL    HW122133   6.456   6.669   1.613
 7078SOL    HW222134   6.607   6.673   1.674
 7079SOL     OW22135   6.978   5.765   4.510
 7079SOL    HW122136   0.029   5.704   4.540
 7079SOL    HW222137   6.953   5.826   4.585
 7080SOL     OW22138   3.391   1.078   4.805
 7080SOL    HW122139   3.473   1.043   4.760
 7080SOL    HW222140   3.418   1.138   4.880
 7081SOL     OW22141   2.230   6.249   6.858
 7081SOL    HW122142   2.292   6.302   6.917
 7081SOL    HW222143   2.151   6.305   6.834
 7082SOL     OW22144   6.753   4.562   0.058
 7082SOL    HW122145   6.695   4.530   0.133
 7082SOL    HW222146   6.769   4.486   7.018
 7083SOL     OW22147   1.820   6.882   1.118
 7083SOL    HW122148   1.768   6.801   1.143
 7083SOL    HW222149   1.905   6.885   1.170
 7084SOL     OW22150   0.189   5.155   5.074
 7084SOL    HW122151   0.201   5.091   4.999
 7084SOL    HW222152   0.122   5.119   5.139
 7085SOL     OW22153   0.941   1.201   2.130
 7085SOL    HW122154   0.900   1.283   2.169
 7085SOL    HW222155   1.040   1.209   2.132
 7086SOL     OW22156   5.825   6.867   6.018
 7086SOL    HW122157   5.891   6.796   6.044
 7086SOL    HW222158   5.748   6.867   6.082
 7087SOL     OW22159   6.097   3.870   4.442
 7087SOL    HW122160   6.094   3.935   4.518
 7087SOL    HW222161   6.178   3.888   4.387
 7088SOL     OW22162   4.952   2.776   3.961
 7088SOL    HW122163   4.941   2.835   4.041
 7088SOL    HW222164   4.985   2.686   3.990
 7089SOL     OW22165   2.617   2.156   4.595
 7089SOL    HW122166   2.636   2.058   4.594
 7089SOL    HW222167   2.674   2.202   4.526
 7090SOL     OW22168   1.760   0.333   0.038
 7090SOL    HW122169   1.686   0.273   0.010
 7090SOL    HW222170   1.776   0.324   0.136
 7091SOL     OW22171   0.229   2.318   0.604
 7091SOL    HW122172   0.254   2.414   0.610
 7091SOL    HW222173   0.302   2.262   0.643
 7092SOL     OW22174   3.858   3.035   6.199
 7092SOL    HW122175   3.872   2.947   6.154
 7092SOL    HW222176   3.784   3.085   6.153
 7093SOL     OW22177   3.151   4.032   2.346
 7093SOL    HW122178   3.200   3.950   2.317
 7093SOL    HW222179   3.101   4.069   2.267
 7094SOL     OW22180   0.318   5.648   5.457
 7094SOL    HW122181   0.348   5.720   5.395
 7094SOL    HW222182   0.264   5.581   5.407
 7095SOL     OW22183   3.705   4.477   5.644
 7095SOL    HW122184   3.798   4.464   5.679
 7095SOL    HW222185   3.706   4.474   5.544
 7096SOL     OW22186   0.000   1.194   3.251
 7096SOL    HW122187   0.089   1.151   3.267
 7096SOL    HW222188   7.022   1.235   3.160
 7097SOL     OW22189   4.811   1.722   1.294
 7097SOL    HW122190   4.772   1.670   1.370
 7097SOL    HW222191   4.910   1.730   1.306
 7098SOL     OW22192   1.943   5.441   5.883
 7098SOL    HW122193   1.911   5.447   5.789
 7098SOL    HW222194   2.003   5.362   5.893
 7099SOL     OW22195   3.580   1.217   5.194
 7099SOL    HW122196   3.496   1.178   5.156
 7099SOL    HW222197   3.613   1.290   5.135
 7100SOL     OW22198   6.792   4.013   0.128
 7100SOL    HW122199   6.774   4.070   0.048
 7100SOL    HW222200   6.822   4.071   0.204
 7101SOL     OW22201   1.993   1.851   5.488
 7101SOL    HW122202   1.983   1.817   5.395
 7101SOL    HW222203   2.041   1.939   5.486
 7102SOL     OW22204   4.950   6.950   1.103
 7102SOL    HW122205   5.038   6.910   1.080
 7102SOL    HW222206   4.953   6.989   1.194
 7103SOL     OW22207   5.084   4.968   2.671
 7103SOL    HW122208   5.072   5.023   2.588
 7103SOL    HW222209   5.052   5.020   2.750
 7104SOL     OW22210   6.872   3.638   3.458
 7104SOL    HW122211   6.954   3.588   3.487
 7104SOL    HW222212   6.869   3.726   3.505
 7105SOL     OW22213   3.248   3.520   5.228
 7105SOL    HW122214   3.159   3.475   5.221
 7105SOL    HW222215   3.243   3.611   5.187
 7106SOL     OW22216   3.571   3.554   2.215
 7106SOL    HW122217   3.603   3.643   2.181
 7106SOL    HW222218   3.598   3.543   2.311
 7107SOL     OW22219   4.689   1.006   0.454
 7107SOL    HW122220   4.699   0.968   0.546
 7107SOL    HW222221   4.644   1.095   0.459
 7108SOL     OW22222   2.733   6.395   2.909
 7108SOL    HW122223   2.656   6.364   2.854
 7108SOL    HW222224   2.715   6.376   3.006
 7109SOL     OW22225   2.537   0.204   5.973
 7109SOL    HW122226   2.583   0.185   6.059
 7109SOL    HW222227   2.567   0.139   5.903
 7110SOL     OW22228   3.071   5.878   3.991
 7110SOL    HW122229   2.995   5.911   4.047
 7110SOL    HW222230   3.070   5.778   3.990
 7111SOL     OW22231   1.360   2.589   4.982
 7111SOL    HW122232   1.335   2.664   4.921
 7111SOL    HW222233   1.281   2.566   5.040
 7112SOL     OW22234   2.100   5.109   4.687
 7112SOL    HW122235   2.030   5.151   4.745
 7112SOL    HW222236   2.102   5.010   4.705
 7113SOL     OW22237   3.944   3.920   4.229
 7113SOL    HW122238   3.941   3.988   4.302
 7113SOL    HW222239   3.907   3.960   4.145
 7114SOL     OW22240   5.760   5.724   0.835
 7114SOL    HW122241   5.749   5.625   0.827
 7114SOL    HW222242   5.672   5.768   0.816
 7115SOL     OW22243   5.443   2.625   0.407
 7115SOL    HW122244   5.473   2.672   0.490
 7115SOL    HW222245   5.412   2.692   0.339
 7116SOL     OW22246   5.737   4.639   2.642
 7116SOL    HW122247   5.710   4.731   2.614
 7116SOL    HW222248   5.791   4.644   2.726
 7117SOL     OW22249   0.732   6.959   4.805
 7117SOL    HW122250   0.773   6.905   4.878
 7117SOL    HW222251   0.793   0.011   4.780
 7118SOL     OW22252   3.100   4.825   0.502
 7118SOL    HW122253   3.163   4.794   0.573
 7118SOL    HW222254   3.010   4.785   0.518
 7119SOL     OW22255   4.709   1.460   3.813
 7119SOL    HW122256   4.774   1.533   3.837
 7119SOL    HW222257   4.666   1.482   3.726
 7120SOL     OW22258   2.978   2.136   2.192
 7120SOL    HW122259   2.924   2.206   2.146
 7120SOL    HW222260   3.039   2.092   2.126
 7121SOL     OW22261   0.656   0.032   3.253
 7121SOL    HW122262   0.695   7.016   3.337
 7121SOL    HW222263   0.724   0.027   3.179
 7122SOL     OW22264   1.620   0.869   5.884
 7122SOL    HW122265   1.675   0.860   5.967
 7122SOL    HW222266   1.528   0.902   5.908
 7123SOL     OW22267   1.499   4.650   3.426
 7123SOL    HW122268   1.596   4.644   3.403
 7123SOL    HW222269   1.445   4.617   3.349
 7124SOL     OW22270   6.443   2.168   1.485
 7124SOL    HW122271   6.345   2.165   1.465
 7124SOL    HW222272   6.494   2.151   1.400
 7125SOL     OW22273   0.477   0.054   0.673
 7125SOL    HW122274   0.504   0.054   0.769
 7125SOL    HW222275   0.559   0.057   0.615
 7126SOL     OW22276   3.759   5.132   0.093
 7126SOL    HW122277   3.744   5.060   0.161
 7126SOL    HW222278   3.704   5.113   0.011
 7127SOL     OW22279   1.856   5.462   6.133
 7127SOL    HW122280   1.873   5.462   6.034
 7127SOL    HW222281   1.941   5.439   6.181
 7128SOL     OW22282   3.125   4.428   6.459
 7128SOL    HW122283   3.107   4.423   6.557
 7128SOL    HW222284   3.159   4.340   6.427
 7129SOL     OW22285   1.891   1.682   0.400
 7129SOL    HW122286   1.930   1.620   0.332
 7129SOL    HW222287   1.838   1.630   0.467
 7130SOL     OW22288   3.926   5.773   4.425
 7130SOL    HW122289   3.880   5.696   4.470
 7130SOL    HW222290   4.025   5.759   4.430
 7131SOL     OW22291   2.516   1.045   1.508
 7131SOL    HW122292   2.490   1.088   1.422
 7131SOL    HW222293   2.466   1.087   1.583
 7132SOL     OW22294   3.966   3.486   0.559
 7132SOL    HW122295   3.867   3.491   0.555
 7132SOL    HW222296   4.004   3.575   0.585
 7133SOL     OW22297   4.895   5.105   5.505
 7133SOL    HW122298   4.946   5.111   5.592
 7133SOL    HW222299   4.892   5.010   5.475
 7134SOL     OW22300   4.943   6.814   1.470
 7134SOL    HW122301   4.904   6.904   1.456
 7134SOL    HW222302   4.895   6.747   1.413
 7135SOL     OW22303   1.851   2.636   3.586
 7135SOL    HW122304   1.845   2.620   3.487
 7135SOL    HW222305   1.911   2.567   3.627
 7136SOL     OW22306   2.023   1.897   0.360
 7136SOL    HW122307   2.106   1.856   0.320
 7136SOL    HW222308   1.954   1.826   0.370
 7137SOL     OW22309   3.069   0.886   6.362
 7137SOL    HW122310   3.106   0.817   6.299
 7137SOL    HW222311   3.131   0.896   6.439
 7138SOL     OW22312   2.823   2.249   0.090
 7138SOL    HW122313   2.871   2.171   0.050
 7138SOL    HW222314   2.734   2.260   0.045
 7139SOL     OW22315   6.126   4.121   1.911
 7139SOL    HW122316   6.059   4.192   1.934
 7139SOL    HW222317   6.140   4.120   1.812
 7140SOL     OW22318   6.370   3.939   2.421
 7140SOL    HW122319   6.313   3.862   2.449
 7140SOL    HW222320   6.429   3.912   2.345
 7141SOL     OW22321   3.650   6.488   0.443
 7141SOL    HW122322   3.639   6.580   0.479
 7141SOL    HW222323   3.570   6.464   0.387
 7142SOL     OW22324   3.686   6.998   2.962
 7142SOL    HW122325   3.756   0.044   2.977
 7142SOL    HW222326   3.596   0.018   2.965
 7143SOL     OW22327   1.874   2.551   6.209
 7143SOL    HW122328   1.796   2.492   6.192
 7143SOL    HW222329   1.846   2.630   6.263
 7144SOL     OW22330   1.946   2.029   2.589
 7144SOL    HW122331   1.851   2.051   2.569
 7144SOL    HW222332   1.986   1.978   2.513
 7145SOL     OW22333   4.214   0.248   6.597
 7145SOL    HW122334   4.144   0.224   6.530
 7145SOL    HW222335   4.217   0.348   6.607
 7146SOL     OW22336   1.926   6.707   6.779
 7146SOL    HW122337   1.939   6.741   6.685
 7146SOL    HW222338   1.980   6.763   6.842
 7147SOL     OW22339   6.845   6.682   3.282
 7147SOL    HW122340   6.806   6.591   3.290
 7147SOL    HW222341   6.842   6.712   3.187
 7148SOL     OW22342   0.052   6.999   1.476
 7148SOL    HW122343   6.987   7.005   1.429
 7148SOL    HW222344   0.057   6.913   1.527
 7149SOL     OW22345   6.976   6.610   3.724
 7149SOL    HW122346   7.005   6.579   3.633
 7149SOL    HW222347   6.973   6.710   3.725
 7150SOL     OW22348   3.663   2.615   1.094
 7150SOL    HW122349   3.622   2.546   1.034
 7150SOL    HW222350   3.707   2.569   1.171
 7151SOL     OW22351   3.221   6.772   0.711
 7151SOL    HW122352   3.232   6.869   0.689
 7151SOL    HW222353   3.149   6.732   0.654
 7152SOL     OW22354   6.692   0.484   5.227
 7152SOL    HW122355   6.727   0.533   5.147
 7152SOL    HW222356   6.747   0.403   5.243
 7153SOL     OW22357   4.228   5.364   1.500
 7153SOL    HW122358   4.153   5.355   1.566
 7153SOL    HW222359   4.214   5.445   1.444
 7154SOL     OW22360   4.904   0.036   2.879
 7154SOL    HW122361   4.852   6.974   2.870
 7154SOL    HW222362   5.002   0.017   2.875
 7155SOL     OW22363   2.630   3.030   1.197
 7155SOL    HW122364   2.589   3.105   1.145
 7155SOL    HW222365   2.634   2.948   1.140
 7156SOL     OW22366   6.642   3.024   3.705
 7156SOL    HW122367   6.587   3.104   3.682
 7156SOL    HW222368   6.684   2.988   3.621
 7157SOL     OW22369   0.347   3.961   1.205
 7157SOL    HW122370   0.290   3.882   1.229
 7157SOL    HW222371   0.408   3.936   1.130
 7158SOL     OW22372   0.675   0.395   4.082
 7158SOL    HW122373   0.673   0.397   4.182
 7158SOL    HW222374   0.610   0.462   4.046
 7159SOL     OW22375   0.584   4.721   3.663
 7159SOL    HW122376   0.634   4.798   3.703
 7159SOL    HW222377   0.636   4.637   3.677
 7160SOL     OW22378   5.541   0.319   2.759
 7160SOL    HW122379   5.623   0.329   2.815
 7160SOL    HW222380   5.567   0.282   2.669
 7161SOL     OW22381   3.211   4.112   3.284
 7161SOL    HW122382   3.122   4.098   3.241
 7161SOL    HW222383   3.246   4.024   3.317
 7162SOL     OW22384   1.429   4.981   6.396
 7162SOL    HW122385   1.345   5.030   6.373
 7162SOL    HW222386   1.413   4.882   6.390
 7163SOL     OW22387   2.815   0.038   2.272
 7163SOL    HW122388   2.723   0.066   2.245
 7163SOL    HW222389   2.882   0.104   2.236
 7164SOL     OW22390   3.099   0.254   4.286
 7164SOL    HW122391   3.018   0.265   4.227
 7164SOL    HW222392   3.085   0.174   4.345
 7165SOL     OW22393   6.307   6.959   2.790
 7165SOL    HW122394   6.366   6.948   2.710
 7165SOL    HW222395   6.277   6.869   2.822
 7166SOL     OW22396   4.790   1.612   0.839
 7166SOL    HW122397   4.710   1.621   0.899
 7166SOL    HW222398   4.833   1.702   0.828
 7167SOL     OW22399   5.198   3.116   4.729
 7167SOL    HW122400   5.163   3.022   4.725
 7167SOL    HW222401   5.124   3.180   4.707
 7168SOL     OW22402   1.981   2.730   2.855
 7168SOL    HW122403   1.973   2.667   2.779
 7168SOL    HW222404   1.890   2.755   2.888
 7169SOL     OW22405   0.210   3.657   5.804
 7169SOL    HW122406   0.210   3.660   5.704
 7169SOL    HW222407   0.293   3.611   5.837
 7170SOL     OW22408   5.109   0.239   3.113
 7170SOL    HW122409   5.084   0.199   3.201
 7170SOL    HW222410   5.167   0.174   3.063
 7171SOL     OW22411   6.319   4.009   6.909
 7171SOL    HW122412   6.355   3.926   6.867
 7171SOL    HW222413   6.220   4.003   6.916
 7172SOL     OW22414   1.761   0.088   4.794
 7172SOL    HW122415   1.708   0.032   4.730
 7172SOL    HW222416   1.835   0.134   4.745
 7173SOL     OW22417   6.513   4.578   6.890
 7173SOL    HW122418   6.574   4.593   6.967
 7173SOL    HW222419   6.425   4.544   6.923
 7174SOL     OW22420   1.327   3.437   0.536
 7174SOL    HW122421   1.412   3.384   0.548
 7174SOL    HW222422   1.336   3.497   0.457
 7175SOL     OW22423   5.749   3.226   6.022
 7175SOL    HW122424   5.747   3.231   5.922
 7175SOL    HW222425   5.808   3.150   6.050
 7176SOL     OW22426   6.640   1.189   3.616
 7176SOL    HW122427   6.696   1.204   3.535
 7176SOL    HW222428   6.694   1.208   3.698
 7177SOL     OW22429   0.984   4.690   5.021
 7177SOL    HW122430   0.974   4.782   4.983
 7177SOL    HW222431   1.044   4.694   5.101
 7178SOL     OW22432   6.946   1.071   5.874
 7178SOL    HW122433   7.017   1.063   5.944
 7178SOL    HW222434   6.876   1.001   5.889
 7179SOL     OW22435   2.081   3.326   4.239
 7179SOL    HW122436   2.141   3.263   4.190
 7179SOL    HW222437   1.988   3.290   4.240
 7180SOL     OW22438   1.799   5.378   6.828
 7180SOL    HW122439   1.803   5.352   6.731
 7180SOL    HW222440   1.861   5.319   6.880
 7181SOL     OW22441   1.815   0.292   0.288
 7181SOL    HW122442   1.780   0.315   0.379
 7181SOL    HW222443   1.818   0.192   0.279
 7182SOL     OW22444   0.301   3.149   4.421
 7182SOL    HW122445   0.242   3.188   4.350
 7182SOL    HW222446   0.350   3.070   4.384
 7183SOL     OW22447   1.660   5.617   1.349
 7183SOL    HW122448   1.654   5.602   1.250
 7183SOL    HW222449   1.569   5.641   1.384
 7184SOL     OW22450   6.601   0.950   3.811
 7184SOL    HW122451   6.528   0.949   3.879
 7184SOL    HW222452   6.560   0.952   3.719
 7185SOL     OW22453   5.812   0.597   5.061
 7185SOL    HW122454   5.893   0.584   5.003
 7185SOL    HW222455   5.740   0.642   5.008
 7186SOL     OW22456   6.479   2.153   1.745
 7186SOL    HW122457   6.500   2.241   1.787
 7186SOL    HW222458   6.462   2.165   1.647
 7187SOL     OW22459   3.008   4.239   5.439
 7187SOL    HW122460   3.055   4.152   5.423
 7187SOL    HW222461   3.007   4.260   5.537
 7188SOL     OW22462   5.422   6.919   6.940
 7188SOL    HW122463   5.377   6.909   6.851
 7188SOL    HW222464   5.512   6.875   6.936
 7189SOL     OW22465   5.947   1.447   5.040
 7189SOL    HW122466   5.949   1.350   5.065
 7189SOL    HW222467   5.923   1.456   4.944
 7190SOL     OW22468   6.783   4.517   1.815
 7190SOL    HW122469   6.793   4.532   1.914
 7190SOL    HW222470   6.709   4.452   1.799
 7191SOL     OW22471   1.704   5.073   2.353
 7191SOL    HW122472   1.745   5.126   2.279
 7191SOL    HW222473   1.747   5.098   2.440
 7192SOL     OW22474   2.342   4.107   5.924
 7192SOL    HW122475   2.400   4.056   5.988
 7192SOL    HW222476   2.398   4.141   5.848
 7193SOL     OW22477   1.202   3.094   2.569
 7193SOL    HW122478   1.184   3.041   2.652
 7193SOL    HW222479   1.116   3.106   2.519
 7194SOL     OW22480   2.094   2.475   0.660
 7194SOL    HW122481   2.130   2.568   0.661
 7194SOL    HW222482   2.059   2.452   0.751
 7195SOL     OW22483   1.050   4.215   7.011
 7195SOL    HW122484   1.036   4.313   0.001
 7195SOL    HW222485   1.086   4.198   6.919
 7196SOL     OW22486   2.419   3.705   1.683
 7196SOL    HW122487   2.347   3.715   1.613
 7196SOL    HW222488   2.389   3.640   1.752
 7197SOL     OW22489   0.611   2.562   5.809
 7197SOL    HW122490   0.613   2.548   5.710
 7197SOL    HW222491   0.671   2.495   5.853
 7198SOL     OW22492   0.498   0.614   0.726
 7198SOL    HW122493   0.561   0.688   0.706
 7198SOL    HW222494   0.530   0.530   0.682
 7199SOL     OW22495   2.002   0.422   1.856
 7199SOL    HW122496   2.058   0.358   1.909
 7199SOL    HW222497   2.061   0.491   1.815
 7200SOL     OW22498   2.126   2.978   6.725
 7200SOL    HW122499   2.091   2.985   6.632
 7200SOL    HW222500   2.161   2.885   6.740
 7201SOL     OW22501   0.857   6.518   4.215
 7201SOL    HW122502   0.917   6.439   4.230
 7201SOL    HW222503   0.762   6.486   4.207
 7202SOL     OW22504   5.424   6.861   0.524
 7202SOL    HW122505   5.468   6.915   0.452
 7202SOL    HW222506   5.490   6.795   0.560
 7203SOL     OW22507   0.143   1.150   0.377
 7203SOL    HW122508   0.161   1.172   0.281
 7203SOL    HW222509   0.061   1.199   0.408
 7204SOL     OW22510   0.301   0.301   5.822
 7204SOL    HW122511   0.363   0.238   5.869
 7204SOL    HW222512   0.271   0.371   5.886
 7205SOL     OW22513   1.663   3.987   4.607
 7205SOL    HW122514   1.761   3.996   4.590
 7205SOL    HW222515   1.642   3.891   4.628
 7206SOL     OW22516   1.261   0.484   2.187
 7206SOL    HW122517   1.169   0.485   2.148
 7206SOL    HW222518   1.287   0.390   2.210
 7207SOL     OW22519   3.557   0.455   2.438
 7207SOL    HW122520   3.546   0.464   2.537
 7207SOL    HW222521   3.477   0.493   2.392
 7208SOL     OW22522   3.973   0.028   3.233
 7208SOL    HW122523   4.027   6.969   3.212
 7208SOL    HW222524   3.878   0.014   3.205
 7209SOL     OW22525   2.466   3.194   1.662
 7209SOL    HW122526   2.430   3.275   1.709
 7209SOL    HW222527   2.395   3.156   1.602
 7210SOL     OW22528   4.336   1.113   2.969
 7210SOL    HW122529   4.282   1.088   3.049
 7210SOL    HW222530   4.311   1.054   2.892
 7211SOL     OW22531   2.194   6.895   4.590
 7211SOL    HW122532   2.134   6.973   4.573
 7211SOL    HW222533   2.277   6.927   4.638
 7212SOL     OW22534   0.377   6.466   5.025
 7212SOL    HW122535   0.413   6.489   4.935
 7212SOL    HW222536   0.302   6.527   5.048
 7213SOL     OW22537   4.336   5.977   6.772
 7213SOL    HW122538   4.424   5.943   6.740
 7213SOL    HW222539   4.310   5.930   6.856
 7214SOL     OW22540   6.558   0.586   4.743
 7214SOL    HW122541   6.607   0.605   4.658
 7214SOL    HW222542   6.587   0.651   4.814
 7215SOL     OW22543   0.339   3.075   3.781
 7215SOL    HW122544   0.252   3.049   3.825
 7215SOL    HW222545   0.372   2.998   3.726
 7216SOL     OW22546   2.998   0.387   0.133
 7216SOL    HW122547   2.978   0.464   0.073
 7216SOL    HW222548   3.014   0.419   0.226
 7217SOL     OW22549   2.128   3.907   3.703
 7217SOL    HW122550   2.068   3.827   3.708
 7217SOL    HW222551   2.156   3.921   3.608
 7218SOL     OW22552   5.845   2.614   5.267
 7218SOL    HW122553   5.839   2.665   5.353
 7218SOL    HW222554   5.939   2.583   5.253
 7219SOL     OW22555   4.509   0.275   2.929
 7219SOL    HW122556   4.509   0.249   2.832
 7219SOL    HW222557   4.445   0.217   2.979
 7220SOL     OW22558   0.468   4.267   4.761
 7220SOL    HW122559   0.451   4.320   4.844
 7220SOL    HW222560   0.388   4.209   4.741
 7221SOL     OW22561   3.320   5.996   4.068
 7221SOL    HW122562   3.238   5.957   4.026
 7221SOL    HW222563   3.321   5.973   4.165
 7222SOL     OW22564   5.853   6.779   3.325
 7222SOL    HW122565   5.901   6.771   3.413
 7222SOL    HW222566   5.920   6.797   3.253
 7223SOL     OW22567   2.966   1.484   0.501
 7223SOL    HW122568   2.884   1.465   0.554
 7223SOL    HW222569   3.009   1.568   0.535
 7224SOL     OW22570   5.132   1.549   4.036
 7224SOL    HW122571   5.169   1.480   3.974
 7224SOL    HW222572   5.048   1.587   3.996
 7225SOL     OW22573   0.874   5.575   0.662
 7225SOL    HW122574   0.843   5.545   0.571
 7225SOL    HW222575   0.859   5.674   0.671
 7226SOL     OW22576   6.060   1.026   2.099
 7226SOL    HW122577   6.104   1.056   2.014
 7226SOL    HW222578   5.962   1.039   2.093
 7227SOL     OW22579   2.816   2.474   0.820
 7227SOL    HW122580   2.753   2.427   0.758
 7227SOL    HW222581   2.780   2.470   0.913
 7228SOL     OW22582   1.051   2.324   2.975
 7228SOL    HW122583   0.952   2.307   2.971
 7228SOL    HW222584   1.067   2.413   3.018
 7229SOL     OW22585   1.232   6.034   5.003
 7229SOL    HW122586   1.206   6.085   4.921
 7229SOL    HW222587   1.296   6.088   5.057
 7230SOL     OW22588   3.290   5.400   4.341
 7230SOL    HW122589   3.386   5.370   4.338
 7230SOL    HW222590   3.242   5.349   4.413
 7231SOL     OW22591   3.820   1.111   6.616
 7231SOL    HW122592   3.764   1.168   6.677
 7231SOL    HW222593   3.906   1.088   6.663
 7232SOL     OW22594   4.717   6.236   3.275
 7232SOL    HW122595   4.744   6.145   3.306
 7232SOL    HW222596   4.663   6.228   3.192
 7233SOL     OW22597   0.946   1.614   3.101
 7233SOL    HW122598   0.922   1.695   3.048
 7233SOL    HW222599   0.886   1.608   3.180
 7234SOL     OW22600   4.997   2.561   4.109
 7234SOL    HW122601   4.962   2.484   4.057
 7234SOL    HW222602   5.096   2.551   4.121
 7235SOL     OW22603   0.003   5.174   2.455
 7235SOL    HW122604   0.014   5.130   2.545
 7235SOL    HW222605   0.045   5.118   2.385
 7236SOL     OW22606   2.512   2.148   1.749
 7236SOL    HW122607   2.546   2.103   1.831
 7236SOL    HW222608   2.530   2.246   1.754
 7237SOL     OW22609   4.083   7.001   5.026
 7237SOL    HW122610   4.181   7.010   5.041
 7237SOL    HW222611   4.066   6.921   4.968
 7238SOL     OW22612   3.865   1.539   0.109
 7238SOL    HW122613   3.894   1.444   0.115
 7238SOL    HW222614   3.768   1.546   0.135
 7239SOL     OW22615   1.553   2.269   2.486
 7239SOL    HW122616   1.456   2.288   2.497
 7239SOL    HW222617   1.581   2.289   2.391
 7240SOL     OW22618   1.447   0.594   5.928
 7240SOL    HW122619   1.403   0.516   5.971
 7240SOL    HW222620   1.416   0.679   5.971
 7241SOL     OW22621   1.154   0.800   0.972
 7241SOL    HW122622   1.087   0.788   0.899
 7241SOL    HW222623   1.205   0.885   0.957
 7242SOL     OW22624   6.594   5.869   0.202
 7242SOL    HW122625   6.648   5.930   0.260
 7242SOL    HW222626   6.535   5.923   0.142
 7243SOL     OW22627   6.032   4.258   6.121
 7243SOL    HW122628   6.094   4.302   6.186
 7243SOL    HW222629   5.943   4.302   6.126
 7244SOL     OW22630   6.418   1.092   1.962
 7244SOL    HW122631   6.350   1.104   1.890
 7244SOL    HW222632   6.371   1.080   2.050
 7245SOL     OW22633   1.082   2.921   5.800
 7245SOL    HW122634   1.126   2.947   5.714
 7245SOL    HW222635   0.990   2.887   5.782
 7246SOL     OW22636   0.467   6.980   4.430
 7246SOL    HW122637   0.484   0.033   4.368
 7246SOL    HW222638   0.553   6.954   4.475
 7247SOL     OW22639   2.761   1.231   4.351
 7247SOL    HW122640   2.735   1.135   4.361
 7247SOL    HW222641   2.742   1.262   4.257
 7248SOL     OW22642   2.504   1.390   3.046
 7248SOL    HW122643   2.443   1.468   3.033
 7248SOL    HW222644   2.560   1.377   2.965
 7249SOL     OW22645   6.775   4.840   2.267
 7249SOL    HW122646   6.868   4.856   2.234
 7249SOL    HW222647   6.777   4.770   2.338
 7250SOL     OW22648   4.895   6.794   6.186
 7250SOL    HW122649   4.815   6.774   6.243
 7250SOL    HW222650   4.866   6.810   6.092
 7251SOL     OW22651   0.340   6.428   5.419
 7251SOL    HW122652   0.437   6.448   5.435
 7251SOL    HW222653   0.332   6.365   5.341
 7252SOL     OW22654   3.738   3.370   2.522
 7252SOL    HW122655   3.711   3.464   2.502
 7252SOL    HW222656   3.656   3.312   2.527
 7253SOL     OW22657   1.478   6.152   6.608
 7253SOL    HW122658   1.394   6.203   6.591
 7253SOL    HW222659   1.553   6.216   6.626
 7254SOL     OW22660   4.530   5.179   3.988
 7254SOL    HW122661   4.622   5.192   3.949
 7254SOL    HW222662   4.537   5.130   4.075
 7255SOL     OW22663   2.812   4.152   1.365
 7255SOL    HW122664   2.719   4.134   1.396
 7255SOL    HW222665   2.836   4.088   1.292
 7256SOL     OW22666   3.101   5.483   4.184
 7256SOL    HW122667   3.186   5.456   4.228
 7256SOL    HW222668   3.037   5.406   4.183
 7257SOL     OW22669   5.982   2.293   3.243
 7257SOL    HW122670   5.985   2.392   3.258
 7257SOL    HW222671   5.914   2.252   3.304
 7258SOL     OW22672   4.569   1.481   3.588
 7258SOL    HW122673   4.596   1.507   3.495
 7258SOL    HW222674   4.476   1.514   3.606
 7259SOL     OW22675   2.122   3.609   1.108
 7259SOL    HW122676   2.198   3.674   1.118
 7259SOL    HW222677   2.146   3.523   1.154
 7260SOL     OW22678   3.992   2.049   1.579
 7260SOL    HW122679   4.089   2.072   1.586
 7260SOL    HW222680   3.979   1.979   1.509
 7261SOL     OW22681   1.159   2.198   1.575
 7261SOL    HW122682   1.183   2.167   1.483
 7261SOL    HW222683   1.185   2.127   1.641
 7262SOL     OW22684   5.175   2.142   5.601
 7262SOL    HW122685   5.222   2.084   5.534
 7262SOL    HW222686   5.171   2.236   5.567
 7263SOL     OW22687   0.463   0.723   0.349
 7263SOL    HW122688   0.438   0.626   0.347
 7263SOL    HW222689   0.388   0.777   0.311
 7264SOL     OW22690   5.642   2.237   6.612
 7264SOL    HW122691   5.577   2.304   6.576
 7264SOL    HW222692   5.668   2.173   6.540
 7265SOL     OW22693   5.586   5.663   5.625
 7265SOL    HW122694   5.558   5.579   5.670
 7265SOL    HW222695   5.624   5.726   5.693
 7266SOL     OW22696   5.545   6.413   1.800
 7266SOL    HW122697   5.593   6.333   1.836
 7266SOL    HW222698   5.496   6.459   1.875
 7267SOL     OW22699   6.561   6.088   5.118
 7267SOL    HW122700   6.525   6.038   5.040
 7267SOL    HW222701   6.493   6.090   5.191
 7268SOL     OW22702   5.799   5.318   3.342
 7268SOL    HW122703   5.743   5.243   3.308
 7268SOL    HW222704   5.889   5.315   3.299
 7269SOL     OW22705   6.714   6.807   6.627
 7269SOL    HW122706   6.694   6.901   6.600
 7269SOL    HW222707   6.770   6.764   6.556
 7270SOL     OW22708   1.195   3.740   5.396
 7270SOL    HW122709   1.180   3.815   5.332
 7270SOL    HW222710   1.277   3.689   5.369
 7271SOL     OW22711   0.726   6.211   3.201
 7271SOL    HW122712   0.771   6.128   3.168
 7271SOL    HW222713   0.795   6.275   3.234
 7272SOL     OW22714   5.558   5.878   2.107
 7272SOL    HW122715   5.560   5.830   2.019
 7272SOL    HW222716   5.634   5.846   2.164
 7273SOL     OW22717   6.331   4.426   2.379
 7273SOL    HW122718   6.304   4.513   2.420
 7273SOL    HW222719   6.278   4.352   2.421
 7274SOL     OW22720   0.766   5.540   6.526
 7274SOL    HW122721   0.667   5.551   6.531
 7274SOL    HW222722   0.789   5.464   6.465
 7275SOL     OW22723   6.902   6.548   2.896
 7275SOL    HW122724   6.958   6.473   2.861
 7275SOL    HW222725   6.929   6.633   2.852
 7276SOL     OW22726   4.067   1.337   2.706
 7276SOL    HW122727   4.094   1.403   2.776
 7276SOL    HW222728   4.123   1.351   2.624
 7277SOL     OW22729   4.414   0.711   3.019
 7277SOL    HW122730   4.341   0.769   2.985
 7277SOL    HW222731   4.482   0.767   3.067
 7278SOL     OW22732   3.302   2.726   1.180
 7278SOL    HW122733   3.232   2.790   1.146
 7278SOL    HW222734   3.290   2.638   1.134
 7279SOL     OW22735   4.014   4.094   5.766
 7279SOL    HW122736   4.023   4.062   5.671
 7279SOL    HW222737   4.103   4.087   5.812
 7280SOL     OW22738   0.432   1.892   3.617
 7280SOL    HW122739   0.422   1.978   3.567
 7280SOL    HW222740   0.494   1.832   3.567
 7281SOL     OW22741   1.506   0.959   0.604
 7281SOL    HW122742   1.534   1.052   0.580
 7281SOL    HW222743   1.539   0.895   0.535
 7282SOL     OW22744   6.276   6.072   1.670
 7282SOL    HW122745   6.349   6.114   1.725
 7282SOL    HW222746   6.216   6.143   1.634
 7283SOL     OW22747   4.612   0.580   2.001
 7283SOL    HW122748   4.698   0.569   1.953
 7283SOL    HW222749   4.545   0.623   1.941
 7284SOL     OW22750   6.842   2.204   5.919
 7284SOL    HW122751   6.922   2.178   5.973
 7284SOL    HW222752   6.764   2.147   5.945
 7285SOL     OW22753   5.645   3.129   2.217
 7285SOL    HW122754   5.700   3.049   2.238
 7285SOL    HW222755   5.634   3.137   2.118
 7286SOL     OW22756   1.349   1.027   1.239
 7286SOL    HW122757   1.415   1.020   1.313
 7286SOL    HW222758   1.257   1.007   1.274
 7287SOL     OW22759   6.814   2.634   5.699
 7287SOL    HW122760   6.825   2.642   5.600
 7287SOL    HW222761   6.865   2.554   5.732
 7288SOL     OW22762   1.528   2.098   1.673
 7288SOL    HW122763   1.452   2.056   1.722
 7288SOL    HW222764   1.495   2.175   1.619
 7289SOL     OW22765   5.379   2.343   3.633
 7289SOL    HW122766   5.296   2.289   3.640
 7289SOL    HW222767   5.395   2.368   3.538
 7290SOL     OW22768   2.772   1.426   5.074
 7290SOL    HW122769   2.745   1.373   4.993
 7290SOL    HW222770   2.869   1.452   5.066
 7291SOL     OW22771   1.320   6.827   0.318
 7291SOL    HW122772   1.272   6.905   0.280
 7291SOL    HW222773   1.383   6.859   0.390
 7292SOL     OW22774   3.382   0.029   3.029
 7292SOL    HW122775   3.424   6.968   2.994
 7292SOL    HW222776   3.284   0.029   3.005
 7293SOL     OW22777   1.220   1.548   4.801
 7293SOL    HW122778   1.146   1.533   4.867
 7293SOL    HW222779   1.296   1.486   4.823
 7294SOL     OW22780   3.042   4.423   6.740
 7294SOL    HW122781   2.952   4.405   6.779
 7294SOL    HW222782   3.104   4.453   6.812
 7295SOL     OW22783   6.166   4.259   0.878
 7295SOL    HW122784   6.146   4.277   0.782
 7295SOL    HW222785   6.265   4.260   0.892
 7296SOL     OW22786   3.671   5.918   1.427
 7296SOL    HW122787   3.634   5.871   1.347
 7296SOL    HW222788   3.598   5.970   1.472
 7297SOL     OW22789   3.630   6.537   1.349
 7297SOL    HW122790   3.643   6.549   1.447
 7297SOL    HW222791   3.533   6.541   1.327
 7298SOL     OW22792   4.779   5.571   6.293
 7298SOL    HW122793   4.814   5.663   6.273
 7298SOL    HW222794   4.821   5.537   6.377
 7299SOL     OW22795   0.915   2.055   1.141
 7299SOL    HW122796   0.922   2.006   1.228
 7299SOL    HW222797   0.849   2.009   1.082
 7300SOL     OW22798   0.554   6.851   1.963
 7300SOL    HW122799   0.466   6.829   1.921
 7300SOL    HW222800   0.606   6.767   1.977
 7301SOL     OW22801   6.195   2.051   5.182
 7301SOL    HW122802   6.251   2.128   5.151
 7301SOL    HW222803   6.147   2.076   5.266
 7302SOL     OW22804   0.091   2.401   6.032
 7302SOL    HW122805   0.089   2.485   5.978
 7302SOL    HW222806   0.000   2.359   6.032
 7303SOL     OW22807   3.937   1.030   6.946
 7303SOL    HW122808   3.839   1.008   6.951
 7303SOL    HW222809   3.960   1.056   6.852
 7304SOL     OW22810   2.786   5.134   1.390
 7304SOL    HW122811   2.771   5.219   1.340
 7304SOL    HW222812   2.722   5.129   1.468
 7305SOL     OW22813   4.811   1.880   0.931
 7305SOL    HW122814   4.906   1.874   0.959
 7305SOL    HW222815   4.752   1.867   1.011
 7306SOL     OW22816   3.970   1.802   1.405
 7306SOL    HW122817   4.059   1.763   1.380
 7306SOL    HW222818   3.899   1.765   1.345
 7307SOL     OW22819   3.335   6.321   2.298
 7307SOL    HW122820   3.355   6.405   2.247
 7307SOL    HW222821   3.291   6.344   2.385
 7308SOL     OW22822   6.810   2.052   4.778
 7308SOL    HW122823   6.771   1.962   4.800
 7308SOL    HW222824   6.873   2.080   4.850
 7309SOL     OW22825   3.681   5.856   0.745
 7309SOL    HW122826   3.736   5.940   0.749
 7309SOL    HW222827   3.733   5.780   0.784
 7310SOL     OW22828   2.210   4.164   6.823
 7310SOL    HW122829   2.201   4.159   6.723
 7310SOL    HW222830   2.137   4.109   6.865
 7311SOL     OW22831   1.636   1.644   1.357
 7311SOL    HW122832   1.709   1.613   1.296
 7311SOL    HW222833   1.640   1.744   1.366
 7312SOL     OW22834   0.809   2.879   4.817
 7312SOL    HW122835   0.756   2.943   4.872
 7312SOL    HW222836   0.767   2.788   4.821
 7313SOL     OW22837   2.057   1.024   0.925
 7313SOL    HW122838   2.116   0.967   0.982
 7313SOL    HW222839   1.972   1.042   0.974
 7314SOL     OW22840   6.885   4.225   6.136
 7314SOL    HW122841   6.819   4.166   6.183
 7314SOL    HW222842   6.837   4.280   6.067
 7315SOL     OW22843   5.174   5.321   1.925
 7315SOL    HW122844   5.120   5.350   1.846
 7315SOL    HW222845   5.150   5.228   1.949
 7316SOL     OW22846   3.492   3.347   6.666
 7316SOL    HW122847   3.402   3.362   6.626
 7316SOL    HW222848   3.483   3.329   6.763
 7317SOL     OW22849   4.217   1.713   1.343
 7317SOL    HW122850   4.269   1.774   1.403
 7317SOL    HW222851   4.261   1.624   1.339
 7318SOL     OW22852   3.185   0.515   1.934
 7318SOL    HW122853   3.086   0.531   1.940
 7318SOL    HW222854   3.204   0.457   1.855
 7319SOL     OW22855   6.386   3.776   6.808
 7319SOL    HW122856   6.448   3.768   6.730
 7319SOL    HW222857   6.345   3.687   6.828
 7320SOL     OW22858   0.817   3.897   2.364
 7320SOL    HW122859   0.873   3.933   2.290
 7320SOL    HW222860   0.720   3.902   2.339
 7321SOL     OW22861   1.746   6.555   6.102
 7321SOL    HW122862   1.657   6.587   6.134
 7321SOL    HW222863   1.786   6.624   6.041
 7322SOL     OW22864   6.431   2.933   3.016
 7322SOL    HW122865   6.420   2.948   2.918
 7322SOL    HW222866   6.439   2.835   3.033
 7323SOL     OW22867   1.931   2.636   1.590
 7323SOL    HW122868   2.028   2.617   1.579
 7323SOL    HW222869   1.886   2.558   1.634
 7324SOL     OW22870   5.438   5.608   1.455
 7324SOL    HW122871   5.498   5.529   1.470
 7324SOL    HW222872   5.373   5.587   1.382
 7325SOL     OW22873   2.518   0.325   6.462
 7325SOL    HW122874   2.576   0.347   6.541
 7325SOL    HW222875   2.462   0.404   6.438
 7326SOL     OW22876   3.259   6.023   6.486
 7326SOL    HW122877   3.311   5.980   6.413
 7326SOL    HW222878   3.182   6.074   6.448
 7327SOL     OW22879   6.293   2.380   6.046
 7327SOL    HW122880   6.316   2.475   6.067
 7327SOL    HW222881   6.376   2.330   6.022
 7328SOL     OW22882   4.306   0.118   6.811
 7328SOL    HW122883   4.276   0.150   6.721
 7328SOL    HW222884   4.328   0.020   6.806
 7329SOL     OW22885   0.952   4.139   0.342
 7329SOL    HW122886   0.968   4.238   0.350
 7329SOL    HW222887   0.875   4.124   0.279
 7330SOL     OW22888   1.677   3.073   0.058
 7330SOL    HW122889   1.683   3.146   0.126
 7330SOL    HW222890   1.673   2.985   0.105
 7331SOL     OW22891   5.482   6.603   1.320
 7331SOL    HW122892   5.394   6.647   1.336
 7331SOL    HW222893   5.489   6.520   1.376
 7332SOL     OW22894   3.128   5.597   6.929
 7332SOL    HW122895   3.188   5.662   6.883
 7332SOL    HW222896   3.040   5.640   6.948
 7333SOL     OW22897   6.133   3.155   3.708
 7333SOL    HW122898   6.181   3.238   3.739
 7333SOL    HW222899   6.075   3.121   3.781
 7334SOL     OW22900   2.141   6.227   6.223
 7334SOL    HW122901   2.194   6.266   6.298
 7334SOL    HW222902   2.104   6.138   6.250
 7335SOL     OW22903   0.392   2.235   3.257
 7335SOL    HW122904   0.299   2.239   3.294
 7335SOL    HW222905   0.397   2.290   3.174
 7336SOL     OW22906   2.309   6.877   2.555
 7336SOL    HW122907   2.226   6.841   2.512
 7336SOL    HW222908   2.295   6.884   2.653
 7337SOL     OW22909   1.075   2.496   2.094
 7337SOL    HW122910   1.049   2.591   2.075
 7337SOL    HW222911   1.073   2.444   2.008
 7338SOL     OW22912   4.852   1.638   1.788
 7338SOL    HW122913   4.761   1.644   1.749
 7338SOL    HW222914   4.919   1.620   1.716
 7339SOL     OW22915   6.078   0.625   4.896
 7339SOL    HW122916   6.085   0.548   4.832
 7339SOL    HW222917   6.162   0.633   4.948
 7340SOL     OW22918   3.027   1.409   0.038
 7340SOL    HW122919   2.942   1.461   0.024
 7340SOL    HW222920   3.027   1.371   0.131
 7341SOL     OW22921   0.608   4.446   5.299
 7341SOL    HW122922   0.692   4.446   5.245
 7341SOL    HW222923   0.543   4.381   5.258
 7342SOL     OW22924   0.309   0.047   6.216
 7342SOL    HW122925   0.243   0.114   6.180
 7342SOL    HW222926   0.348   0.081   6.301
 7343SOL     OW22927   5.934   4.312   1.938
 7343SOL    HW122928   5.851   4.350   1.898
 7343SOL    HW222929   5.945   4.346   2.031
 7344SOL     OW22930   1.002   0.917   5.820
 7344SOL    HW122931   1.068   0.906   5.894
 7344SOL    HW222932   0.931   0.982   5.849
 7345SOL     OW22933   4.845   5.834   5.226
 7345SOL    HW122934   4.859   5.739   5.200
 7345SOL    HW222935   4.849   5.843   5.325
 7346SOL     OW22936   4.753   4.691   1.272
 7346SOL    HW122937   4.816   4.668   1.346
 7346SOL    HW222938   4.666   4.642   1.285
 7347SOL     OW22939   0.611   2.901   0.910
 7347SOL    HW122940   0.665   2.860   0.983
 7347SOL    HW222941   0.570   2.986   0.941
 7348SOL     OW22942   1.383   3.984   3.653
 7348SOL    HW122943   1.421   4.074   3.671
 7348SOL    HW222944   1.315   3.991   3.580
 7349SOL     OW22945   4.869   2.092   0.694
 7349SOL    HW122946   4.846   2.028   0.620
 7349SOL    HW222947   4.854   2.048   0.782
 7350SOL     OW22948   1.465   3.343   5.604
 7350SOL    HW122949   1.460   3.244   5.615
 7350SOL    HW222950   1.536   3.365   5.537
 7351SOL     OW22951   5.004   6.470   5.047
 7351SOL    HW122952   4.927   6.528   5.019
 7351SOL    HW222953   5.056   6.517   5.119
 7352SOL     OW22954   2.021   2.450   3.692
 7352SOL    HW122955   2.096   2.450   3.758
 7352SOL    HW222956   2.034   2.374   3.628
 7353SOL     OW22957   1.273   0.459   6.070
 7353SOL    HW122958   1.215   0.537   6.043
 7353SOL    HW222959   1.233   0.375   6.035
 7354SOL     OW22960   0.198   1.675   6.185
 7354SOL    HW122961   0.175   1.648   6.278
 7354SOL    HW222962   0.192   1.595   6.125
 7355SOL     OW22963   1.906   1.180   0.730
 7355SOL    HW122964   1.894   1.172   0.632
 7355SOL    HW222965   1.961   1.103   0.763
 7356SOL     OW22966   3.805   3.576   5.982
 7356SOL    HW122967   3.854   3.647   6.033
 7356SOL    HW222968   3.746   3.524   6.044
 7357SOL     OW22969   4.743   6.270   1.656
 7357SOL    HW122970   4.662   6.263   1.598
 7357SOL    HW222971   4.755   6.184   1.706
 7358SOL     OW22972   6.267   3.364   2.972
 7358SOL    HW122973   6.256   3.272   2.935
 7358SOL    HW222974   6.346   3.408   2.927
 7359SOL     OW22975   2.375   1.955   6.222
 7359SOL    HW122976   2.461   2.006   6.223
 7359SOL    HW222977   2.310   1.997   6.286
 7360SOL     OW22978   3.553   4.233   5.429
 7360SOL    HW122979   3.620   4.227   5.502
 7360SOL    HW222980   3.598   4.221   5.341
 7361SOL     OW22981   4.550   0.036   1.630
 7361SOL    HW122982   4.639   7.018   1.653
 7361SOL    HW222983   4.547   0.054   1.532
 7362SOL     OW22984   1.054   4.875   4.691
 7362SOL    HW122985   1.001   4.927   4.758
 7362SOL    HW222986   1.060   4.779   4.720
 7363SOL     OW22987   4.305   1.604   1.090
 7363SOL    HW122988   4.315   1.697   1.125
 7363SOL    HW222989   4.208   1.580   1.085
 7364SOL     OW22990   4.646   0.986   1.544
 7364SOL    HW122991   4.552   0.955   1.562
 7364SOL    HW222992   4.650   1.085   1.552
 7365SOL     OW22993   1.382   6.345   1.928
 7365SOL    HW122994   1.377   6.278   2.002
 7365SOL    HW222995   1.475   6.381   1.921
 7366SOL     OW22996   1.932   5.630   6.999
 7366SOL    HW122997   2.008   5.565   6.999
 7366SOL    HW222998   1.932   5.681   6.913
 7367SOL     OW22999   4.827   3.233   1.142
 7367SOL    HW123000   4.807   3.169   1.216
 7367SOL    HW223001   4.811   3.326   1.173
 7368SOL     OW23002   3.780   2.941   3.139
 7368SOL    HW123003   3.861   2.997   3.156
 7368SOL    HW223004   3.735   2.922   3.227
 7369SOL     OW23005   3.866   3.144   6.641
 7369SOL    HW123006   3.878   3.169   6.737
 7369SOL    HW223007   3.932   3.073   6.617
 7370SOL     OW23008   2.510   0.925   4.433
 7370SOL    HW123009   2.426   0.925   4.379
 7370SOL    HW223010   2.589   0.927   4.372
 7371SOL     OW23011   2.103   6.155   3.781
 7371SOL    HW123012   2.031   6.088   3.767
 7371SOL    HW223013   2.190   6.108   3.797
 7372SOL     OW23014   4.155   1.303   4.955
 7372SOL    HW123015   4.189   1.356   4.877
 7372SOL    HW223016   4.059   1.325   4.971
 7373SOL     OW23017   5.975   1.787   4.419
 7373SOL    HW123018   5.902   1.762   4.482
 7373SOL    HW223019   6.030   1.860   4.458
 7374SOL     OW23020   2.632   1.372   5.300
 7374SOL    HW123021   2.685   1.400   5.220
 7374SOL    HW223022   2.568   1.444   5.325
 7375SOL     OW23023   2.077   3.646   3.344
 7375SOL    HW123024   2.004   3.710   3.366
 7375SOL    HW223025   2.063   3.561   3.395
 7376SOL     OW23026   3.049   1.325   0.299
 7376SOL    HW123027   3.006   1.373   0.375
 7376SOL    HW223028   3.142   1.297   0.326
 7377SOL     OW23029   5.857   4.219   0.856
 7377SOL    HW123030   5.920   4.283   0.813
 7377SOL    HW223031   5.881   4.125   0.830
 7378SOL     OW23032   0.072   0.973   6.102
 7378SOL    HW123033   0.055   0.984   6.200
 7378SOL    HW223034   0.159   1.018   6.078
 7379SOL     OW23035   3.424   1.351   3.145
 7379SOL    HW123036   3.381   1.262   3.159
 7379SOL    HW223037   3.494   1.366   3.216
 7380SOL     OW23038   6.886   4.119   4.854
 7380SOL    HW123039   6.930   4.033   4.827
 7380SOL    HW223040   6.787   4.110   4.847
 7381SOL     OW23041   4.409   3.932   1.686
 7381SOL    HW123042   4.500   3.893   1.674
 7381SOL    HW223043   4.414   4.014   1.742
 7382SOL     OW23044   6.763   5.904   6.232
 7382SOL    HW123045   6.724   5.988   6.271
 7382SOL    HW223046   6.791   5.843   6.306
 7383SOL     OW23047   1.367   0.089   1.481
 7383SOL    HW123048   1.439   0.158   1.474
 7383SOL    HW223049   1.338   0.081   1.576
 7384SOL     OW23050   5.592   0.578   3.375
 7384SOL    HW123051   5.529   0.548   3.304
 7384SOL    HW223052   5.570   0.672   3.401
 7385SOL     OW23053   4.158   5.969   1.922
 7385SOL    HW123054   4.163   5.937   2.016
 7385SOL    HW223055   4.248   6.003   1.894
 7386SOL     OW23056   0.468   2.219   5.652
 7386SOL    HW123057   0.439   2.135   5.698
 7386SOL    HW223058   0.393   2.285   5.653
 7387SOL     OW23059   5.003   6.221   4.312
 7387SOL    HW123060   4.996   6.164   4.230
 7387SOL    HW223061   4.975   6.169   4.392
 7388SOL     OW23062   0.359   5.210   2.659
 7388SOL    HW123063   0.367   5.274   2.583
 7388SOL    HW223064   0.277   5.230   2.712
 7389SOL     OW23065   0.160   3.690   6.659
 7389SOL    HW123066   0.239   3.671   6.718
 7389SOL    HW223067   0.116   3.604   6.634
 7390SOL     OW23068   1.422   1.859   6.964
 7390SOL    HW123069   1.480   1.934   6.935
 7390SOL    HW223070   1.326   1.884   6.950
 7391SOL     OW23071   3.890   3.199   4.830
 7391SOL    HW123072   3.932   3.263   4.766
 7391SOL    HW223073   3.909   3.227   4.924
 7392SOL     OW23074   2.876   6.006   0.198
 7392SOL    HW123075   2.848   5.916   0.233
 7392SOL    HW223076   2.922   6.057   0.270
 7393SOL     OW23077   5.857   4.900   2.671
 7393SOL    HW123078   5.850   4.933   2.765
 7393SOL    HW223079   5.945   4.853   2.659
 7394SOL     OW23080   2.532   2.448   5.741
 7394SOL    HW123081   2.499   2.367   5.692
 7394SOL    HW223082   2.506   2.531   5.691
 7395SOL     OW23083   1.073   2.339   0.021
 7395SOL    HW123084   0.978   2.311   0.010
 7395SOL    HW223085   1.122   2.269   0.073
 7396SOL     OW23086   0.905   0.096   0.578
 7396SOL    HW123087   0.884   0.101   0.480
 7396SOL    HW223088   0.836   0.042   0.625
 7397SOL     OW23089   4.405   5.440   4.589
 7397SOL    HW123090   4.457   5.399   4.664
 7397SOL    HW223091   4.434   5.535   4.576
 7398SOL     OW23092   2.459   4.927   4.565
 7398SOL    HW123093   2.385   4.865   4.537
 7398SOL    HW223094   2.547   4.885   4.546
 7399SOL     OW23095   1.165   2.115   5.244
 7399SOL    HW123096   1.097   2.171   5.197
 7399SOL    HW223097   1.252   2.121   5.196
 7400SOL     OW23098   4.155   2.425   5.675
 7400SOL    HW123099   4.224   2.357   5.652
 7400SOL    HW223100   4.092   2.437   5.598
 7401SOL     OW23101   1.442   1.450   4.938
 7401SOL    HW123102   1.506   1.374   4.925
 7401SOL    HW223103   1.386   1.434   5.019
 7402SOL     OW23104   2.805   5.908   6.089
 7402SOL    HW123105   2.850   5.832   6.136
 7402SOL    HW223106   2.711   5.884   6.068
 7403SOL     OW23107   2.241   4.051   2.148
 7403SOL    HW123108   2.274   4.024   2.057
 7403SOL    HW223109   2.209   3.970   2.197
 7404SOL     OW23110   2.598   5.406   1.576
 7404SOL    HW123111   2.607   5.379   1.480
 7404SOL    HW223112   2.518   5.465   1.587
 7405SOL     OW23113   3.361   4.929   4.265
 7405SOL    HW123114   3.351   4.925   4.365
 7405SOL    HW223115   3.458   4.937   4.242
 7406SOL     OW23116   0.407   2.497   3.119
 7406SOL    HW123117   0.327   2.503   3.178
 7406SOL    HW223118   0.428   2.588   3.083
 7407SOL     OW23119   1.006   6.807   4.499
 7407SOL    HW123120   1.015   6.710   4.524
 7407SOL    HW223121   1.048   6.822   4.409
 7408SOL     OW23122   3.165   3.948   6.723
 7408SOL    HW123123   3.177   4.024   6.787
 7408SOL    HW223124   3.098   3.973   6.653
 7409SOL     OW23125   6.611   2.039   6.416
 7409SOL    HW123126   6.670   2.089   6.352
 7409SOL    HW223127   6.561   1.969   6.367
 7410SOL     OW23128   0.293   6.892   0.219
 7410SOL    HW123129   0.363   6.960   0.198
 7410SOL    HW223130   0.291   6.875   0.317
 7411SOL     OW23131   2.530   0.378   5.603
 7411SOL    HW123132   2.538   0.395   5.505
 7411SOL    HW223133   2.465   0.441   5.644
 7412SOL     OW23134   4.783   6.991   1.942
 7412SOL    HW123135   4.733   6.906   1.957
 7412SOL    HW223136   4.759   0.034   2.013
 7413SOL     OW23137   4.968   5.760   4.200
 7413SOL    HW123138   4.975   5.686   4.132
 7413SOL    HW223139   4.900   5.827   4.170
 7414SOL     OW23140   6.909   0.637   3.983
 7414SOL    HW123141   6.875   0.694   3.908
 7414SOL    HW223142   6.917   0.542   3.953
 7415SOL     OW23143   2.059   4.756   4.391
 7415SOL    HW123144   1.966   4.769   4.357
 7415SOL    HW223145   2.065   4.792   4.485
 7416SOL     OW23146   2.005   1.065   2.863
 7416SOL    HW123147   1.990   1.118   2.780
 7416SOL    HW223148   2.052   1.121   2.932
 7417SOL     OW23149   1.650   0.577   0.109
 7417SOL    HW123150   1.617   0.585   0.203
 7417SOL    HW223151   1.650   0.481   0.082
 7418SOL     OW23152   3.013   5.723   0.880
 7418SOL    HW123153   2.995   5.650   0.946
 7418SOL    HW223154   3.033   5.682   0.791
 7419SOL     OW23155   5.902   2.688   4.840
 7419SOL    HW123156   5.803   2.705   4.840
 7419SOL    HW223157   5.948   2.760   4.892
 7420SOL     OW23158   0.440   6.651   1.333
 7420SOL    HW123159   0.457   6.606   1.420
 7420SOL    HW223160   0.526   6.687   1.297
 7421SOL     OW23161   3.779   4.301   0.596
 7421SOL    HW123162   3.830   4.360   0.657
 7421SOL    HW223163   3.746   4.353   0.517
 7422SOL     OW23164   6.947   3.201   2.858
 7422SOL    HW123165   7.022   3.233   2.916
 7422SOL    HW223166   6.894   3.132   2.908
 7423SOL     OW23167   5.713   3.904   5.370
 7423SOL    HW123168   5.752   3.833   5.429
 7423SOL    HW223169   5.641   3.864   5.313
 7424SOL     OW23170   6.891   6.791   5.956
 7424SOL    HW123171   6.843   6.705   5.940
 7424SOL    HW223172   6.893   6.811   6.053
 7425SOL     OW23173   4.172   5.554   6.581
 7425SOL    HW123174   4.117   5.633   6.606
 7425SOL    HW223175   4.231   5.528   6.658
 7426SOL     OW23176   2.977   1.441   5.578
 7426SOL    HW123177   2.986   1.475   5.672
 7426SOL    HW223178   2.939   1.349   5.579
 7427SOL     OW23179   4.200   0.395   3.760
 7427SOL    HW123180   4.140   0.449   3.817
 7427SOL    HW223181   4.295   0.414   3.784
 7428SOL     OW23182   4.410   1.894   5.810
 7428SOL    HW123183   4.318   1.899   5.773
 7428SOL    HW223184   4.420   1.962   5.884
 7429SOL     OW23185   0.503   6.763   4.207
 7429SOL    HW123186   0.597   6.796   4.197
 7429SOL    HW223187   0.454   6.821   4.271
 7430SOL     OW23188   1.029   2.559   0.196
 7430SOL    HW123189   1.044   2.487   0.129
 7430SOL    HW223190   1.065   2.530   0.285
 7431SOL     OW23191   1.387   2.993   3.256
 7431SOL    HW123192   1.356   2.993   3.351
 7431SOL    HW223193   1.482   2.959   3.252
 7432SOL     OW23194   1.253   1.048   2.820
 7432SOL    HW123195   1.187   0.973   2.827
 7432SOL    HW223196   1.272   1.084   2.911
 7433SOL     OW23197   4.643   6.115   6.052
 7433SOL    HW123198   4.589   6.170   5.988
 7433SOL    HW223199   4.723   6.078   6.004
 7434SOL     OW23200   5.443   5.668   5.904
 7434SOL    HW123201   5.367   5.726   5.934
 7434SOL    HW223202   5.504   5.651   5.981
 7435SOL     OW23203   3.979   5.510   0.400
 7435SOL    HW123204   3.915   5.459   0.342
 7435SOL    HW223205   3.946   5.604   0.412
 7436SOL     OW23206   5.550   3.604   6.088
 7436SOL    HW123207   5.545   3.535   6.160
 7436SOL    HW223208   5.628   3.585   6.028
 7437SOL     OW23209   1.247   6.162   6.883
 7437SOL    HW123210   1.342   6.147   6.910
 7437SOL    HW223211   1.199   6.074   6.880
 7438SOL     OW23212   1.427   5.878   6.636
 7438SOL    HW123213   1.489   5.833   6.700
 7438SOL    HW223214   1.453   5.973   6.624
 7439SOL     OW23215   1.879   5.850   5.892
 7439SOL    HW123216   1.833   5.819   5.809
 7439SOL    HW223217   1.888   5.950   5.891
 7440SOL     OW23218   0.012   3.349   3.946
 7440SOL    HW123219   0.039   3.396   3.863
 7440SOL    HW223220   7.002   3.257   3.924
 7441SOL     OW23221   5.505   6.367   4.068
 7441SOL    HW123222   5.417   6.334   4.033
 7441SOL    HW223223   5.536   6.307   4.142
 7442SOL     OW23224   6.393   1.025   5.882
 7442SOL    HW123225   6.428   1.059   5.969
 7442SOL    HW223226   6.334   0.946   5.898
 7443SOL     OW23227   6.917   6.382   1.724
 7443SOL    HW123228   6.899   6.392   1.822
 7443SOL    HW223229   6.993   6.318   1.710
 7444SOL     OW23230   5.434   2.651   5.715
 7444SOL    HW123231   5.339   2.675   5.736
 7444SOL    HW223232   5.483   2.635   5.801
 7445SOL     OW23233   3.799   0.756   1.102
 7445SOL    HW123234   3.806   0.696   1.181
 7445SOL    HW223235   3.780   0.850   1.132
 7446SOL     OW23236   5.636   3.054   0.535
 7446SOL    HW123237   5.728   3.034   0.499
 7446SOL    HW223238   5.621   3.153   0.532
 7447SOL     OW23239   0.540   3.479   6.504
 7447SOL    HW123240   0.501   3.469   6.413
 7447SOL    HW223241   0.515   3.399   6.559
 7448SOL     OW23242   6.368   6.224   5.428
 7448SOL    HW123243   6.308   6.149   5.400
 7448SOL    HW223244   6.323   6.277   5.500
 7449SOL     OW23245   0.264   3.746   1.999
 7449SOL    HW123246   0.329   3.788   2.062
 7449SOL    HW223247   0.174   3.740   2.042
 7450SOL     OW23248   5.392   2.526   4.652
 7450SOL    HW123249   5.322   2.466   4.615
 7450SOL    HW223250   5.454   2.554   4.579
 7451SOL     OW23251   6.815   0.140   3.148
 7451SOL    HW123252   6.839   0.105   3.057
 7451SOL    HW223253   6.829   0.068   3.216
 7452SOL     OW23254   0.504   6.733   4.595
 7452SOL    HW123255   0.430   6.758   4.533
 7452SOL    HW223256   0.584   6.703   4.542
 7453SOL     OW23257   5.062   0.259   6.150
 7453SOL    HW123258   4.992   0.212   6.204
 7453SOL    HW223259   5.119   0.314   6.210
 7454SOL     OW23260   0.143   2.213   2.478
 7454SOL    HW123261   0.189   2.243   2.561
 7454SOL    HW223262   0.073   2.279   2.453
 7455SOL     OW23263   6.827   1.772   2.807
 7455SOL    HW123264   6.735   1.809   2.809
 7455SOL    HW223265   6.833   1.691   2.865
 7456SOL     OW23266   0.946   1.724   4.288
 7456SOL    HW123267   0.930   1.760   4.380
 7456SOL    HW223268   1.027   1.665   4.288
 7457SOL     OW23269   3.899   0.447   5.963
 7457SOL    HW123270   3.831   0.417   6.030
 7457SOL    HW223271   3.931   0.539   5.986
 7458SOL     OW23272   1.661   6.681   5.703
 7458SOL    HW123273   1.634   6.691   5.607
 7458SOL    HW223274   1.594   6.623   5.750
 7459SOL     OW23275   4.640   0.337   2.151
 7459SOL    HW123276   4.570   0.355   2.221
 7459SOL    HW223277   4.638   0.409   2.083
 7460SOL     OW23278   0.961   5.416   0.871
 7460SOL    HW123279   0.968   5.474   0.952
 7460SOL    HW223280   0.937   5.472   0.792
 7461SOL     OW23281   5.541   1.478   6.589
 7461SOL    HW123282   5.466   1.533   6.625
 7461SOL    HW223283   5.606   1.537   6.540
 7462SOL     OW23284   2.092   3.903   2.650
 7462SOL    HW123285   2.165   3.846   2.689
 7462SOL    HW223286   2.051   3.855   2.573
 7463SOL     OW23287   2.439   4.554   0.633
 7463SOL    HW123288   2.348   4.512   0.631
 7463SOL    HW223289   2.434   4.646   0.594
 7464SOL     OW23290   5.054   0.566   6.647
 7464SOL    HW123291   5.005   0.594   6.729
 7464SOL    HW223292   5.034   0.470   6.627
 7465SOL     OW23293   1.099   5.699   6.788
 7465SOL    HW123294   1.131   5.734   6.700
 7465SOL    HW223295   1.084   5.776   6.850
 7466SOL     OW23296   6.761   0.707   5.442
 7466SOL    HW123297   6.729   0.612   5.446
 7466SOL    HW223298   6.775   0.741   5.535
 7467SOL     OW23299   0.359   1.314   1.252
 7467SOL    HW123300   0.353   1.375   1.174
 7467SOL    HW223301   0.305   1.351   1.328
 7468SOL     OW23302   5.747   3.058   3.366
 7468SOL    HW123303   5.791   3.110   3.439
 7468SOL    HW223304   5.735   2.964   3.395
 7469SOL     OW23305   0.134   1.132   0.930
 7469SOL    HW123306   0.073   1.092   0.861
 7469SOL    HW223307   0.111   1.096   1.020
 7470SOL     OW23308   6.268   3.362   3.872
 7470SOL    HW123309   6.347   3.308   3.900
 7470SOL    HW223310   6.213   3.385   3.953
 7471SOL     OW23311   5.702   6.538   6.215
 7471SOL    HW123312   5.746   6.448   6.209
 7471SOL    HW223313   5.760   6.600   6.268
 7472SOL     OW23314   6.595   6.786   4.579
 7472SOL    HW123315   6.516   6.833   4.619
 7472SOL    HW223316   6.563   6.706   4.528
 7473SOL     OW23317   5.833   5.013   3.603
 7473SOL    HW123318   5.914   5.072   3.613
 7473SOL    HW223319   5.751   5.065   3.626
 7474SOL     OW23320   1.197   1.607   5.254
 7474SOL    HW123321   1.171   1.697   5.219
 7474SOL    HW223322   1.180   1.603   5.353
 7475SOL     OW23323   5.012   2.213   2.293
 7475SOL    HW123324   4.921   2.224   2.334
 7475SOL    HW223325   5.002   2.184   2.198
 7476SOL     OW23326   3.304   0.512   3.844
 7476SOL    HW123327   3.310   0.605   3.881
 7476SOL    HW223328   3.363   0.504   3.765
 7477SOL     OW23329   0.230   0.929   5.210
 7477SOL    HW123330   0.176   0.863   5.262
 7477SOL    HW223331   0.310   0.957   5.263
 7478SOL     OW23332   5.085   5.120   6.193
 7478SOL    HW123333   5.073   5.186   6.119
 7478SOL    HW223334   4.995   5.089   6.225
 7479SOL     OW23335   4.341   2.382   2.146
 7479SOL    HW123336   4.300   2.305   2.195
 7479SOL    HW223337   4.280   2.413   2.074
 7480SOL     OW23338   0.439   4.221   2.285
 7480SOL    HW123339   0.382   4.225   2.203
 7480SOL    HW223340   0.386   4.252   2.364
 7481SOL     OW23341   6.124   5.613   1.388
 7481SOL    HW123342   6.204   5.666   1.361
 7481SOL    HW223343   6.043   5.671   1.382
 7482SOL     OW23344   4.713   2.585   2.970
 7482SOL    HW123345   4.779   2.635   2.913
 7482SOL    HW223346   4.689   2.641   3.050
 7483SOL     OW23347   4.596   2.548   4.288
 7483SOL    HW123348   4.618   2.525   4.382
 7483SOL    HW223349   4.567   2.465   4.239
 7484SOL     OW23350   1.639   0.053   4.263
 7484SOL    HW123351   1.619   6.983   4.295
 7484SOL    HW223352   1.738   0.067   4.265
 7485SOL     OW23353   3.524   6.902   4.633
 7485SOL    HW123354   3.613   6.860   4.653
 7485SOL    HW223355   3.536   7.000   4.618
 7486SOL     OW23356   1.974   6.365   0.711
 7486SOL    HW123357   2.020   6.430   0.650
 7486SOL    HW223358   2.027   6.356   0.796
 7487SOL     OW23359   1.891   6.760   3.496
 7487SOL    HW123360   1.799   6.727   3.515
 7487SOL    HW223361   1.887   6.843   3.440
 7488SOL     OW23362   2.755   0.112   3.580
 7488SOL    HW123363   2.795   0.141   3.493
 7488SOL    HW223364   2.674   0.056   3.562
 7489SOL     OW23365   4.972   2.813   5.394
 7489SOL    HW123366   5.048   2.867   5.357
 7489SOL    HW223367   4.997   2.777   5.484
 7490SOL     OW23368   1.436   0.613   2.361
 7490SOL    HW123369   1.469   0.534   2.412
 7490SOL    HW223370   1.357   0.586   2.305
 7491SOL     OW23371   5.366   2.476   6.406
 7491SOL    HW123372   5.407   2.532   6.478
 7491SOL    HW223373   5.287   2.525   6.367
 7492SOL     OW23374   1.985   0.529   3.368
 7492SOL    HW123375   1.897   0.573   3.385
 7492SOL    HW223376   1.985   0.486   3.278
 7493SOL     OW23377   0.581   3.645   6.707
 7493SOL    HW123378   0.575   3.580   6.632
 7493SOL    HW223379   0.502   3.634   6.768
 7494SOL     OW23380   5.336   1.269   2.710
 7494SOL    HW123381   5.373   1.260   2.618
 7494SOL    HW223382   5.360   1.189   2.765
 7495SOL     OW23383   1.762   2.164   6.482
 7495SOL    HW123384   1.843   2.175   6.540
 7495SOL    HW223385   1.708   2.248   6.484
 7496SOL     OW23386   6.139   3.493   5.074
 7496SOL    HW123387   6.130   3.398   5.103
 7496SOL    HW223388   6.075   3.512   5.000
 7497SOL     OW23389   2.699   4.457   6.156
 7497SOL    HW123390   2.756   4.444   6.075
 7497SOL    HW223391   2.757   4.484   6.233
 7498SOL     OW23392   3.359   0.365   5.376
 7498SOL    HW123393   3.378   0.276   5.333
 7498SOL    HW223394   3.438   0.425   5.363
 7499SOL     OW23395   3.156   1.355   2.837
 7499SOL    HW123396   3.174   1.257   2.838
 7499SOL    HW223397   3.201   1.396   2.758
 7500SOL     OW23398   3.385   5.665   3.039
 7500SOL    HW123399   3.305   5.708   2.995
 7500SOL    HW223400   3.417   5.589   2.982
 7501SOL     OW23401   5.251   4.064   4.934
 7501SOL    HW123402   5.262   4.124   5.013
 7501SOL    HW223403   5.305   3.981   4.948
 7502SOL     OW23404   3.074   0.714   4.254
 7502SOL    HW123405   3.096   0.810   4.239
 7502SOL    HW223406   2.996   0.688   4.197
 7503SOL     OW23407   1.974   0.393   1.566
 7503SOL    HW123408   1.960   0.492   1.572
 7503SOL    HW223409   1.969   0.353   1.657
 7504SOL     OW23410   1.313   6.979   3.245
 7504SOL    HW123411   1.281   0.035   3.192
 7504SOL    HW223412   1.412   6.985   3.258
 7505SOL     OW23413   1.526   2.353   5.611
 7505SOL    HW123414   1.537   2.452   5.613
 7505SOL    HW223415   1.585   2.314   5.540
 7506SOL     OW23416   5.372   0.925   3.143
 7506SOL    HW123417   5.431   0.997   3.179
 7506SOL    HW223418   5.427   0.862   3.087
 7507SOL     OW23419   0.368   1.531   2.399
 7507SOL    HW123420   0.458   1.571   2.384
 7507SOL    HW223421   0.326   1.572   2.480
 7508SOL     OW23422   1.174   6.883   1.823
 7508SOL    HW123423   1.215   6.946   1.756
 7508SOL    HW223424   1.111   6.821   1.776
 7509SOL     OW23425   5.790   4.638   0.673
 7509SOL    HW123426   5.755   4.594   0.755
 7509SOL    HW223427   5.737   4.720   0.654
 7510SOL     OW23428   4.101   3.676   5.867
 7510SOL    HW123429   4.007   3.665   5.837
 7510SOL    HW223430   4.103   3.723   5.955
 7511SOL     OW23431   2.408   6.335   3.403
 7511SOL    HW123432   2.327   6.386   3.374
 7511SOL    HW223433   2.486   6.364   3.348
 7512SOL     OW23434   3.225   6.704   6.868
 7512SOL    HW123435   3.234   6.606   6.884
 7512SOL    HW223436   3.289   6.754   6.927
 7513SOL     OW23437   2.157   0.890   1.380
 7513SOL    HW123438   2.240   0.848   1.416
 7513SOL    HW223439   2.163   0.989   1.386
 7514SOL     OW23440   2.817   5.650   1.786
 7514SOL    HW123441   2.800   5.654   1.688
 7514SOL    HW223442   2.774   5.568   1.824
 7515SOL     OW23443   6.871   5.199   3.448
 7515SOL    HW123444   6.871   5.236   3.541
 7515SOL    HW223445   6.830   5.265   3.385
 7516SOL     OW23446   0.070   6.439   5.388
 7516SOL    HW123447   0.041   6.361   5.332
 7516SOL    HW223448   0.166   6.428   5.414
 7517SOL     OW23449   0.409   2.789   0.757
 7517SOL    HW123450   0.356   2.869   0.786
 7517SOL    HW223451   0.498   2.791   0.803
 7518SOL     OW23452   4.316   4.992   3.917
 7518SOL    HW123453   4.406   5.028   3.940
 7518SOL    HW223454   4.310   4.978   3.818
 7519SOL     OW23455   0.481   6.236   3.666
 7519SOL    HW123456   0.464   6.153   3.720
 7519SOL    HW223457   0.478   6.213   3.568
 7520SOL     OW23458   2.521   6.795   2.240
 7520SOL    HW123459   2.563   6.884   2.260
 7520SOL    HW223460   2.422   6.802   2.251
 7521SOL     OW23461   4.798   4.238   6.120
 7521SOL    HW123462   4.804   4.197   6.211
 7521SOL    HW223463   4.811   4.167   6.051
 7522SOL     OW23464   1.706   1.207   6.307
 7522SOL    HW123465   1.771   1.243   6.374
 7522SOL    HW223466   1.739   1.226   6.215
 7523SOL     OW23467   5.755   0.244   6.005
 7523SOL    HW123468   5.855   0.252   6.008
 7523SOL    HW223469   5.726   0.243   5.909
 7524SOL     OW23470   1.358   2.659   5.356
 7524SOL    HW123471   1.385   2.752   5.330
 7524SOL    HW223472   1.279   2.664   5.417
 7525SOL     OW23473   3.827   1.117   6.318
 7525SOL    HW123474   3.731   1.126   6.293
 7525SOL    HW223475   3.836   1.129   6.417
 7526SOL     OW23476   3.286   3.248   1.783
 7526SOL    HW123477   3.298   3.198   1.697
 7526SOL    HW223478   3.203   3.217   1.829
 7527SOL     OW23479   2.903   6.058   3.227
 7527SOL    HW123480   2.955   5.975   3.205
 7527SOL    HW223481   2.823   6.033   3.282
 7528SOL     OW23482   5.915   2.613   0.766
 7528SOL    HW123483   5.873   2.611   0.675
 7528SOL    HW223484   5.923   2.520   0.801
 7529SOL     OW23485   5.015   1.394   4.900
 7529SOL    HW123486   4.970   1.323   4.846
 7529SOL    HW223487   5.083   1.352   4.960
 7530SOL     OW23488   0.002   3.090   2.587
 7530SOL    HW123489   7.005   3.158   2.658
 7530SOL    HW223490   0.059   3.131   2.517
 7531SOL     OW23491   5.107   3.206   5.011
 7531SOL    HW123492   5.093   3.157   4.925
 7531SOL    HW223493   5.034   3.273   5.024
 7532SOL     OW23494   4.611   5.869   6.683
 7532SOL    HW123495   4.699   5.907   6.655
 7532SOL    HW223496   4.583   5.799   6.617
 7533SOL     OW23497   3.215   0.948   1.523
 7533SOL    HW123498   3.116   0.959   1.533
 7533SOL    HW223499   3.250   1.018   1.461
 7534SOL     OW23500   4.721   6.526   5.421
 7534SOL    HW123501   4.645   6.562   5.475
 7534SOL    HW223502   4.781   6.600   5.394
 7535SOL     OW23503   1.774   0.756   5.244
 7535SOL    HW123504   1.786   0.807   5.159
 7535SOL    HW223505   1.847   0.688   5.253
 7536SOL     OW23506   4.614   5.004   4.597
 7536SOL    HW123507   4.704   5.002   4.642
 7536SOL    HW223508   4.577   5.097   4.601
 7537SOL     OW23509   3.120   5.601   1.534
 7537SOL    HW123510   3.039   5.613   1.478
 7537SOL    HW223511   3.094   5.602   1.631
 7538SOL     OW23512   1.561   2.601   1.581
 7538SOL    HW123513   1.597   2.686   1.619
 7538SOL    HW223514   1.496   2.622   1.507
 7539SOL     OW23515   1.836   3.971   3.963
 7539SOL    HW123516   1.852   3.872   3.973
 7539SOL    HW223517   1.868   4.001   3.873
 7540SOL     OW23518   4.113   0.564   4.545
 7540SOL    HW123519   4.099   0.494   4.475
 7540SOL    HW223520   4.205   0.557   4.582
 7541SOL     OW23521   0.597   4.672   5.030
 7541SOL    HW123522   0.623   4.663   5.126
 7541SOL    HW223523   0.578   4.768   5.010
 7542SOL     OW23524   0.976   5.095   6.544
 7542SOL    HW123525   1.041   5.046   6.601
 7542SOL    HW223526   0.961   5.045   6.459
 7543SOL     OW23527   4.004   2.122   6.320
 7543SOL    HW123528   4.076   2.171   6.270
 7543SOL    HW223529   3.982   2.172   6.404
 7544SOL     OW23530   6.869   2.502   2.899
 7544SOL    HW123531   6.948   2.562   2.889
 7544SOL    HW223532   6.866   2.438   2.821
 7545SOL     OW23533   0.366   5.717   0.179
 7545SOL    HW123534   0.298   5.644   0.171
 7545SOL    HW223535   0.455   5.684   0.145
 7546SOL     OW23536   3.808   2.418   1.683
 7546SOL    HW123537   3.729   2.465   1.643
 7546SOL    HW223538   3.778   2.352   1.751
 7547SOL     OW23539   4.920   2.115   0.335
 7547SOL    HW123540   4.982   2.144   0.262
 7547SOL    HW223541   4.846   2.181   0.345
 7548SOL     OW23542   4.980   1.297   6.611
 7548SOL    HW123543   4.897   1.242   6.611
 7548SOL    HW223544   5.025   1.290   6.522
 7549SOL     OW23545   4.316   2.893   0.057
 7549SOL    HW123546   4.366   2.827   0.002
 7549SOL    HW223547   4.307   2.858   0.150
 7550SOL     OW23548   2.504   5.289   2.796
 7550SOL    HW123549   2.447   5.224   2.847
 7550SOL    HW223550   2.478   5.286   2.700
 7551SOL     OW23551   5.366   3.682   6.443
 7551SOL    HW123552   5.459   3.707   6.472
 7551SOL    HW223553   5.353   3.707   6.347
 7552SOL     OW23554   1.404   6.186   2.787
 7552SOL    HW123555   1.404   6.142   2.697
 7552SOL    HW223556   1.461   6.133   2.849
 7553SOL     OW23557   4.545   6.413   5.643
 7553SOL    HW123558   4.585   6.349   5.578
 7553SOL    HW223559   4.611   6.486   5.665
 7554SOL     OW23560   4.605   0.811   0.243
 7554SOL    HW123561   4.563   0.848   0.160
 7554SOL    HW223562   4.622   0.886   0.307
 7555SOL     OW23563   2.396   4.858   5.936
 7555SOL    HW123564   2.453   4.783   5.970
 7555SOL    HW223565   2.433   4.890   5.848
 7556SOL     OW23566   2.072   3.028   0.373
 7556SOL    HW123567   2.101   3.048   0.466
 7556SOL    HW223568   2.012   2.948   0.373
 7557SOL     OW23569   5.169   1.088   5.530
 7557SOL    HW123570   5.151   1.056   5.623
 7557SOL    HW223571   5.083   1.109   5.485
 7558SOL     OW23572   1.413   2.430   3.966
 7558SOL    HW123573   1.458   2.444   3.878
 7558SOL    HW223574   1.470   2.370   4.023
 7559SOL     OW23575   5.438   3.569   0.525
 7559SOL    HW123576   5.372   3.582   0.599
 7559SOL    HW223577   5.407   3.619   0.444
 7560SOL     OW23578   5.696   6.930   1.070
 7560SOL    HW123579   5.715   6.833   1.084
 7560SOL    HW223580   5.598   6.946   1.068
 7561SOL     OW23581   0.936   3.137   6.757
 7561SOL    HW123582   1.005   3.205   6.780
 7561SOL    HW223583   0.862   3.180   6.705
 7562SOL     OW23584   0.219   5.661   3.957
 7562SOL    HW123585   0.133   5.709   3.941
 7562SOL    HW223586   0.239   5.658   4.055
 7563SOL     OW23587   3.076   6.921   1.423
 7563SOL    HW123588   3.120   6.950   1.338
 7563SOL    HW223589   3.018   6.994   1.457
 7564SOL     OW23590   4.130   0.038   2.803
 7564SOL    HW123591   4.203   0.026   2.737
 7564SOL    HW223592   4.087   0.128   2.790
 7565SOL     OW23593   5.556   2.787   0.594
 7565SOL    HW123594   5.638   2.736   0.568
 7565SOL    HW223595   5.576   2.885   0.592
 7566SOL     OW23596   6.526   4.454   3.052
 7566SOL    HW123597   6.556   4.546   3.076
 7566SOL    HW223598   6.502   4.450   2.955
 7567SOL     OW23599   1.780   1.972   5.128
 7567SOL    HW123600   1.728   1.890   5.105
 7567SOL    HW223601   1.729   2.027   5.194
 7568SOL     OW23602   5.058   6.144   3.690
 7568SOL    HW123603   5.048   6.236   3.651
 7568SOL    HW223604   5.153   6.115   3.683
 7569SOL     OW23605   3.734   4.986   5.833
 7569SOL    HW123606   3.759   4.930   5.754
 7569SOL    HW223607   3.693   5.072   5.801
 7570SOL     OW23608   5.419   3.878   5.299
 7570SOL    HW123609   5.325   3.892   5.267
 7570SOL    HW223610   5.418   3.866   5.399
 7571SOL     OW23611   3.943   4.789   3.381
 7571SOL    HW123612   3.956   4.863   3.315
 7571SOL    HW223613   4.005   4.714   3.360
 7572SOL     OW23614   4.391   1.371   1.245
 7572SOL    HW123615   4.477   1.338   1.205
 7572SOL    HW223616   4.363   1.455   1.198
 7573SOL     OW23617   0.058   0.443   5.427
 7573SOL    HW123618   0.046   0.529   5.378
 7573SOL    HW223619   6.993   0.396   5.433
 7574SOL     OW23620   5.009   0.396   5.212
 7574SOL    HW123621   4.996   0.296   5.209
 7574SOL    HW223622   5.052   0.426   5.127
 7575SOL     OW23623   5.350   0.726   5.921
 7575SOL    HW123624   5.291   0.806   5.913
 7575SOL    HW223625   5.293   0.644   5.931
 7576SOL     OW23626   4.424   3.691   0.561
 7576SOL    HW123627   4.522   3.701   0.541
 7576SOL    HW223628   4.409   3.605   0.610
 7577SOL     OW23629   0.855   0.015   6.785
 7577SOL    HW123630   0.862   6.965   6.717
 7577SOL    HW223631   0.944   0.056   6.800
 7578SOL     OW23632   1.894   4.698   1.328
 7578SOL    HW123633   1.954   4.661   1.257
 7578SOL    HW223634   1.878   4.796   1.311
 7579SOL     OW23635   0.308   1.021   2.427
 7579SOL    HW123636   0.215   1.002   2.457
 7579SOL    HW223637   0.355   1.077   2.496
 7580SOL     OW23638   0.784   3.913   4.421
 7580SOL    HW123639   0.757   3.984   4.487
 7580SOL    HW223640   0.740   3.826   4.445
 7581SOL     OW23641   6.689   1.628   2.082
 7581SOL    HW123642   6.757   1.563   2.048
 7581SOL    HW223643   6.725   1.721   2.075
 7582SOL     OW23644   3.897   1.229   1.420
 7582SOL    HW123645   3.933   1.283   1.497
 7582SOL    HW223646   3.938   1.138   1.421
 7583SOL     OW23647   5.883   3.254   1.950
 7583SOL    HW123648   5.883   3.330   2.016
 7583SOL    HW223649   5.977   3.232   1.926
 7584SOL     OW23650   3.663   0.092   1.692
 7584SOL    HW123651   3.733   0.148   1.647
 7584SOL    HW223652   3.707   0.027   1.754
 7585SOL     OW23653   1.822   2.709   6.979
 7585SOL    HW123654   1.905   2.746   7.020
 7585SOL    HW223655   1.804   2.618   7.016
 7586SOL     OW23656   3.139   0.552   3.555
 7586SOL    HW123657   3.205   0.505   3.614
 7586SOL    HW223658   3.119   0.494   3.476
 7587SOL     OW23659   2.457   2.632   6.853
 7587SOL    HW123660   2.431   2.543   6.816
 7587SOL    HW223661   2.408   2.704   6.805
 7588SOL     OW23662   1.238   2.797   3.753
 7588SOL    HW123663   1.260   2.709   3.711
 7588SOL    HW223664   1.139   2.803   3.768
 7589SOL     OW23665   0.428   0.287   2.689
 7589SOL    HW123666   0.350   0.343   2.717
 7589SOL    HW223667   0.492   0.279   2.766
 7590SOL     OW23668   3.833   2.572   6.641
 7590SOL    HW123669   3.842   2.492   6.702
 7590SOL    HW223670   3.759   2.555   6.575
 7591SOL     OW23671   6.939   3.529   0.664
 7591SOL    HW123672   6.976   3.452   0.715
 7591SOL    HW223673   6.987   3.538   0.577
 7592SOL     OW23674   6.651   5.159   4.533
 7592SOL    HW123675   6.565   5.124   4.570
 7592SOL    HW223676   6.642   5.170   4.434
 7593SOL     OW23677   6.330   3.242   0.134
 7593SOL    HW123678   6.268   3.181   0.184
 7593SOL    HW223679   6.425   3.214   0.150
 7594SOL     OW23680   0.976   4.774   2.314
 7594SOL    HW123681   1.070   4.759   2.345
 7594SOL    HW223682   0.930   4.836   2.377
 7595SOL     OW23683   6.426   2.832   6.067
 7595SOL    HW123684   6.427   2.863   5.972
 7595SOL    HW223685   6.470   2.901   6.124
 7596SOL     OW23686   3.668   6.285   3.586
 7596SOL    HW123687   3.682   6.281   3.487
 7596SOL    HW223688   3.581   6.242   3.609
 7597SOL     OW23689   2.162   6.632   3.083
 7597SOL    HW123690   2.179   6.667   3.175
 7597SOL    HW223691   2.247   6.627   3.032
 7598SOL     OW23692   0.276   0.892   3.057
 7598SOL    HW123693   0.280   0.796   3.083
 7598SOL    HW223694   0.246   0.900   2.962
 7599SOL     OW23695   5.758   2.014   2.235
 7599SOL    HW123696   5.674   2.011   2.181
 7599SOL    HW223697   5.735   2.017   2.332
 7600SOL     OW23698   1.491   1.817   3.292
 7600SOL    HW123699   1.573   1.871   3.272
 7600SOL    HW223700   1.490   1.736   3.234
 7601SOL     OW23701   1.710   4.510   2.200
 7601SOL    HW123702   1.638   4.576   2.221
 7601SOL    HW223703   1.674   4.417   2.208
 7602SOL     OW23704   2.419   3.804   6.614
 7602SOL    HW123705   2.506   3.820   6.568
 7602SOL    HW223706   2.346   3.850   6.563
 7603SOL     OW23707   1.323   5.511   6.046
 7603SOL    HW123708   1.366   5.478   6.130
 7603SOL    HW223709   1.355   5.603   6.025
 7604SOL     OW23710   2.232   4.026   4.769
 7604SOL    HW123711   2.194   4.089   4.836
 7604SOL    HW223712   2.319   3.990   4.801
 7605SOL     OW23713   1.811   0.732   1.823
 7605SOL    HW123714   1.713   0.719   1.838
 7605SOL    HW223715   1.848   0.794   1.893
 7606SOL     OW23716   6.028   4.235   4.967
 7606SOL    HW123717   6.105   4.178   4.997
 7606SOL    HW223718   5.942   4.189   4.989
 7607SOL     OW23719   3.417   5.566   0.026
 7607SOL    HW123720   3.365   5.631   0.082
 7607SOL    HW223721   3.399   5.583   6.952
 7608SOL     OW23722   3.938   4.370   1.239
 7608SOL    HW123723   4.003   4.438   1.206
 7608SOL    HW223724   3.984   4.307   1.301
 7609SOL     OW23725   1.314   3.098   4.452
 7609SOL    HW123726   1.391   3.129   4.510
 7609SOL    HW223727   1.349   3.039   4.380
 7610SOL     OW23728   4.359   4.431   6.350
 7610SOL    HW123729   4.440   4.379   6.373
 7610SOL    HW223730   4.365   4.523   6.389
 7611SOL     OW23731   6.027   3.575   1.788
 7611SOL    HW123732   5.927   3.578   1.778
 7611SOL    HW223733   6.068   3.648   1.733
 7612SOL     OW23734   4.874   3.216   2.250
 7612SOL    HW123735   4.828   3.153   2.187
 7612SOL    HW223736   4.972   3.199   2.248
 7613SOL     OW23737   7.003   2.662   0.975
 7613SOL    HW123738   0.042   2.741   0.977
 7613SOL    HW223739   7.020   2.609   0.892
 7614SOL     OW23740   4.984   3.665   0.850
 7614SOL    HW123741   5.046   3.655   0.928
 7614SOL    HW223742   4.928   3.582   0.841
 7615SOL     OW23743   3.957   5.253   6.952
 7615SOL    HW123744   3.978   5.350   6.957
 7615SOL    HW223745   3.888   5.230   7.020
 7616SOL     OW23746   6.050   6.233   4.181
 7616SOL    HW123747   6.003   6.311   4.140
 7616SOL    HW223748   6.008   6.210   4.269
 7617SOL     OW23749   4.294   6.378   2.391
 7617SOL    HW123750   4.318   6.466   2.433
 7617SOL    HW223751   4.280   6.310   2.463
 7618SOL     OW23752   6.820   1.852   5.515
 7618SOL    HW123753   6.805   1.753   5.522
 7618SOL    HW223754   6.737   1.900   5.545
 7619SOL     OW23755   6.162   2.834   5.320
 7619SOL    HW123756   6.244   2.833   5.264
 7619SOL    HW223757   6.081   2.824   5.262
 7620SOL     OW23758   4.285   5.845   1.057
 7620SOL    HW123759   4.297   5.840   0.958
 7620SOL    HW223760   4.190   5.868   1.078
 7621SOL     OW23761   6.555   1.398   1.106
 7621SOL    HW123762   6.545   1.420   1.203
 7621SOL    HW223763   6.636   1.444   1.070
 7622SOL     OW23764   4.393   5.011   6.787
 7622SOL    HW123765   4.353   5.103   6.783
 7622SOL    HW223766   4.482   5.016   6.833
 7623SOL     OW23767   5.316   3.584   6.894
 7623SOL    HW123768   5.264   3.582   6.808
 7623SOL    HW223769   5.414   3.585   6.873
 7624SOL     OW23770   6.991   3.308   4.874
 7624SOL    HW123771   0.047   3.318   4.935
 7624SOL    HW223772   6.939   3.227   4.901
 7625SOL     OW23773   5.098   0.545   1.538
 7625SOL    HW123774   5.006   0.580   1.519
 7625SOL    HW223775   5.138   0.596   1.615
 7626SOL     OW23776   6.636   6.920   4.320
 7626SOL    HW123777   6.565   6.924   4.390
 7626SOL    HW223778   6.685   6.833   4.327
 7627SOL     OW23779   4.822   3.442   0.058
 7627SOL    HW123780   4.811   3.348   0.089
 7627SOL    HW223781   4.740   3.470   0.007
 7628SOL     OW23782   3.372   2.125   1.939
 7628SOL    HW123783   3.462   2.158   1.967
 7628SOL    HW223784   3.319   2.100   2.020
 7629SOL     OW23785   0.349   5.702   3.444
 7629SOL    HW123786   0.298   5.787   3.456
 7629SOL    HW223787   0.286   5.624   3.452
 7630SOL     OW23788   0.982   6.879   1.299
 7630SOL    HW123789   1.079   6.854   1.301
 7630SOL    HW223790   0.971   6.963   1.247
 7631SOL     OW23791   0.887   1.354   6.132
 7631SOL    HW123792   0.820   1.414   6.089
 7631SOL    HW223793   0.947   1.314   6.062
 7632SOL     OW23794   4.688   4.083   1.487
 7632SOL    HW123795   4.655   4.126   1.571
 7632SOL    HW223796   4.650   4.131   1.408
 7633SOL     OW23797   5.096   0.349   1.325
 7633SOL    HW123798   5.007   0.388   1.302
 7633SOL    HW223799   5.147   0.330   1.242
 7634SOL     OW23800   1.908   1.674   2.446
 7634SOL    HW123801   1.932   1.728   2.365
 7634SOL    HW223802   1.990   1.660   2.502
 7635SOL     OW23803   3.356   5.265   5.130
 7635SOL    HW123804   3.271   5.216   5.114
 7635SOL    HW223805   3.374   5.271   5.228
 7636SOL     OW23806   1.725   2.726   4.190
 7636SOL    HW123807   1.675   2.767   4.266
 7636SOL    HW223808   1.791   2.659   4.226
 7637SOL     OW23809   2.614   5.467   2.412
 7637SOL    HW123810   2.668   5.540   2.453
 7637SOL    HW223811   2.637   5.457   2.315
 7638SOL     OW23812   2.630   5.825   1.172
 7638SOL    HW123813   2.602   5.890   1.102
 7638SOL    HW223814   2.678   5.873   1.245
 7639SOL     OW23815   0.544   1.774   0.809
 7639SOL    HW123816   0.458   1.769   0.758
 7639SOL    HW223817   0.528   1.746   0.904
 7640SOL     OW23818   2.819   1.119   5.839
 7640SOL    HW123819   2.880   1.147   5.913
 7640SOL    HW223820   2.771   1.036   5.865
 7641SOL     OW23821   1.928   3.485   2.389
 7641SOL    HW123822   1.990   3.454   2.318
 7641SOL    HW223823   1.889   3.405   2.436
 7642SOL     OW23824   3.766   1.814   2.901
 7642SOL    HW123825   3.839   1.757   2.863
 7642SOL    HW223826   3.794   1.848   2.991
 7643SOL     OW23827   4.421   2.465   3.287
 7643SOL    HW123828   4.500   2.521   3.309
 7643SOL    HW223829   4.411   2.459   3.187
 7644SOL     OW23830   5.070   1.740   1.612
 7644SOL    HW123831   5.155   1.761   1.564
 7644SOL    HW223832   5.022   1.826   1.632
 7645SOL     OW23833   4.868   4.171   5.355
 7645SOL    HW123834   4.777   4.164   5.314
 7645SOL    HW223835   4.872   4.254   5.411
 7646SOL     OW23836   1.541   3.525   3.775
 7646SOL    HW123837   1.471   3.544   3.844
 7646SOL    HW223838   1.563   3.428   3.775
 7647SOL     OW23839   6.388   2.729   3.595
 7647SOL    HW123840   6.360   2.819   3.562
 7647SOL    HW223841   6.444   2.740   3.678
 7648SOL     OW23842   3.241   1.517   3.053
 7648SOL    HW123843   3.202   1.470   2.974
 7648SOL    HW223844   3.326   1.470   3.081
 7649SOL     OW23845   1.019   1.004   3.618
 7649SOL    HW123846   0.947   1.010   3.548
 7649SOL    HW223847   1.052   1.095   3.640
 7650SOL     OW23848   5.373   1.338   0.601
 7650SOL    HW123849   5.452   1.277   0.604
 7650SOL    HW223850   5.387   1.409   0.533
 7651SOL     OW23851   1.999   0.815   3.791
 7651SOL    HW123852   1.953   0.752   3.853
 7651SOL    HW223853   2.088   0.777   3.765
 7652SOL     OW23854   5.440   3.297   5.372
 7652SOL    HW123855   5.370   3.236   5.334
 7652SOL    HW223856   5.452   3.278   5.470
 7653SOL     OW23857   1.093   1.968   6.775
 7653SOL    HW123858   1.149   1.972   6.693
 7653SOL    HW223859   1.030   2.046   6.777
 7654SOL     OW23860   4.725   2.798   4.306
 7654SOL    HW123861   4.708   2.860   4.383
 7654SOL    HW223862   4.675   2.713   4.321
 7655SOL     OW23863   4.405   6.425   3.166
 7655SOL    HW123864   4.405   6.525   3.173
 7655SOL    HW223865   4.489   6.395   3.119
 7656SOL     OW23866   3.454   3.786   6.003
 7656SOL    HW123867   3.434   3.759   6.098
 7656SOL    HW223868   3.371   3.779   5.948
 7657SOL     OW23869   1.264   2.110   3.477
 7657SOL    HW123870   1.282   2.086   3.573
 7657SOL    HW223871   1.273   2.208   3.465
 7658SOL     OW23872   3.357   0.245   6.686
 7658SOL    HW123873   3.364   0.145   6.695
 7658SOL    HW223874   3.311   0.267   6.600
 7659SOL     OW23875   5.731   4.745   6.665
 7659SOL    HW123876   5.731   4.828   6.722
 7659SOL    HW223877   5.657   4.685   6.694
 7660SOL     OW23878   0.272   5.969   3.518
 7660SOL    HW123879   0.190   6.024   3.528
 7660SOL    HW223880   0.282   5.908   3.597
 7661SOL     OW23881   5.871   2.395   4.864
 7661SOL    HW123882   5.825   2.371   4.950
 7661SOL    HW223883   5.888   2.493   4.862
 7662SOL     OW23884   1.410   2.913   4.287
 7662SOL    HW123885   1.407   2.921   4.188
 7662SOL    HW223886   1.411   2.816   4.313
 7663SOL     OW23887   6.648   5.590   5.662
 7663SOL    HW123888   6.634   5.653   5.738
 7663SOL    HW223889   6.583   5.611   5.589
 7664SOL     OW23890   4.127   0.419   1.131
 7664SOL    HW123891   4.171   0.449   1.216
 7664SOL    HW223892   4.173   0.337   1.097
 7665SOL     OW23893   5.978   0.569   4.311
 7665SOL    HW123894   5.985   0.666   4.290
 7665SOL    HW223895   6.068   0.534   4.341
 7666SOL     OW23896   0.585   5.573   1.699
 7666SOL    HW123897   0.663   5.623   1.662
 7666SOL    HW223898   0.502   5.599   1.650
 7667SOL     OW23899   4.277   6.806   2.183
 7667SOL    HW123900   4.257   6.895   2.143
 7667SOL    HW223901   4.271   6.812   2.283
 7668SOL     OW23902   3.272   4.696   0.681
 7668SOL    HW123903   3.362   4.713   0.720
 7668SOL    HW223904   3.210   4.664   0.753
 7669SOL     OW23905   4.696   1.390   4.967
 7669SOL    HW123906   4.782   1.419   4.925
 7669SOL    HW223907   4.628   1.375   4.896
 7670SOL     OW23908   0.674   4.668   0.430
 7670SOL    HW123909   0.764   4.712   0.431
 7670SOL    HW223910   0.660   4.618   0.516
 7671SOL     OW23911   4.020   1.321   1.672
 7671SOL    HW123912   4.027   1.419   1.692
 7671SOL    HW223913   4.000   1.271   1.756
 7672SOL     OW23914   0.238   6.597   2.093
 7672SOL    HW123915   0.185   6.521   2.056
 7672SOL    HW223916   0.335   6.574   2.092
 7673SOL     OW23917   1.312   6.419   0.999
 7673SOL    HW123918   1.307   6.339   0.940
 7673SOL    HW223919   1.387   6.409   1.064
 7674SOL     OW23920   5.147   0.879   3.270
 7674SOL    HW123921   5.067   0.939   3.260
 7674SOL    HW223922   5.220   0.911   3.209
 7675SOL     OW23923   6.015   6.648   2.743
 7675SOL    HW123924   5.958   6.588   2.687
 7675SOL    HW223925   6.018   6.613   2.836
 7676SOL     OW23926   2.345   2.184   0.327
 7676SOL    HW123927   2.390   2.267   0.295
 7676SOL    HW223928   2.246   2.201   0.335
 7677SOL     OW23929   0.728   5.159   1.206
 7677SOL    HW123930   0.693   5.205   1.125
 7677SOL    HW223931   0.748   5.063   1.184
 7678SOL     OW23932   2.287   2.934   5.321
 7678SOL    HW123933   2.289   2.970   5.228
 7678SOL    HW223934   2.309   2.836   5.320
 7679SOL     OW23935   3.489   6.353   5.750
 7679SOL    HW123936   3.453   6.283   5.688
 7679SOL    HW223937   3.440   6.439   5.736
 7680SOL     OW23938   1.166   0.966   0.437
 7680SOL    HW123939   1.211   0.906   0.371
 7680SOL    HW223940   1.197   0.943   0.529
 7681SOL     OW23941   2.546   0.795   0.821
 7681SOL    HW123942   2.590   0.885   0.829
 7681SOL    HW223943   2.475   0.799   0.751
 7682SOL     OW23944   3.544   0.288   1.457
 7682SOL    HW123945   3.567   0.206   1.405
 7682SOL    HW223946   3.581   0.280   1.550
 7683SOL     OW23947   5.943   2.067   4.490
 7683SOL    HW123948   5.862   2.121   4.467
 7683SOL    HW223949   5.971   2.086   4.585
 7684SOL     OW23950   3.221   1.686   1.741
 7684SOL    HW123951   3.138   1.670   1.794
 7684SOL    HW223952   3.246   1.783   1.746
 7685SOL     OW23953   2.509   1.774   5.841
 7685SOL    HW123954   2.420   1.771   5.888
 7685SOL    HW223955   2.505   1.719   5.758
 7686SOL     OW23956   6.752   6.734   3.022
 7686SOL    HW123957   6.716   6.786   2.944
 7686SOL    HW223958   6.826   6.675   2.991
 7687SOL     OW23959   6.063   4.956   3.909
 7687SOL    HW123960   6.016   5.035   3.869
 7687SOL    HW223961   6.125   4.988   3.981
 7688SOL     OW23962   0.943   6.066   5.064
 7688SOL    HW123963   0.951   6.144   5.127
 7688SOL    HW223964   1.034   6.044   5.028
 7689SOL     OW23965   5.596   6.440   2.469
 7689SOL    HW123966   5.608   6.348   2.433
 7689SOL    HW223967   5.517   6.442   2.531
 7690SOL     OW23968   5.581   4.812   0.481
 7690SOL    HW123969   5.600   4.872   0.403
 7690SOL    HW223970   5.613   4.855   0.565
 7691SOL     OW23971   5.217   3.885   4.530
 7691SOL    HW123972   5.241   3.972   4.572
 7691SOL    HW223973   5.298   3.844   4.488
 7692SOL     OW23974   0.862   6.105   1.796
 7692SOL    HW123975   0.820   6.183   1.844
 7692SOL    HW223976   0.827   6.101   1.703
 7693SOL     OW23977   3.292   6.637   1.869
 7693SOL    HW123978   3.270   6.541   1.885
 7693SOL    HW223979   3.209   6.692   1.881
 7694SOL     OW23980   5.453   3.756   4.360
 7694SOL    HW123981   5.497   3.680   4.408
 7694SOL    HW223982   5.508   3.839   4.371
 7695SOL     OW23983   4.913   6.743   0.687
 7695SOL    HW123984   4.933   6.832   0.729
 7695SOL    HW223985   4.859   6.757   0.604
 7696SOL     OW23986   0.400   0.619   6.305
 7696SOL    HW123987   0.469   0.691   6.315
 7696SOL    HW223988   0.311   0.661   6.286
 7697SOL     OW23989   2.389   6.718   2.919
 7697SOL    HW123990   2.350   6.808   2.902
 7697SOL    HW223991   2.488   6.720   2.905
 7698SOL     OW23992   6.072   1.626   4.134
 7698SOL    HW123993   5.978   1.646   4.162
 7698SOL    HW223994   6.075   1.609   4.036
 7699SOL     OW23995   3.339   5.696   6.252
 7699SOL    HW123996   3.415   5.632   6.263
 7699SOL    HW223997   3.264   5.651   6.203
 7700SOL     OW23998   4.621   6.014   3.082
 7700SOL    HW123999   4.681   6.075   3.028
 7700SOL    HW224000   4.537   6.063   3.105
 7701SOL     OW24001   6.505   2.239   0.559
 7701SOL    HW124002   6.519   2.337   0.548
 7701SOL    HW224003   6.523   2.192   0.473
 7702SOL     OW24004   3.627   6.569   4.793
 7702SOL    HW124005   3.639   6.585   4.696
 7702SOL    HW224006   3.569   6.488   4.807
 7703SOL     OW24007   6.430   5.856   6.516
 7703SOL    HW124008   6.356   5.795   6.540
 7703SOL    HW224009   6.517   5.807   6.519
 7704SOL     OW24010   6.116   0.428   4.725
 7704SOL    HW124011   6.181   0.411   4.652
 7704SOL    HW224012   6.026   0.448   4.686
 7705SOL     OW24013   2.639   6.202   0.662
 7705SOL    HW124014   2.718   6.148   0.633
 7705SOL    HW224015   2.563   6.184   0.599
 7706SOL     OW24016   3.836   3.586   4.797
 7706SOL    HW124017   3.886   3.517   4.743
 7706SOL    HW224018   3.811   3.662   4.738
 7707SOL     OW24019   0.260   4.894   5.580
 7707SOL    HW124020   0.310   4.965   5.629
 7707SOL    HW224021   0.174   4.874   5.629
 7708SOL     OW24022   0.683   6.774   5.638
 7708SOL    HW124023   0.648   6.866   5.618
 7708SOL    HW224024   0.691   6.763   5.737
 7709SOL     OW24025   6.553   4.527   2.264
 7709SOL    HW124026   6.637   4.475   2.277
 7709SOL    HW224027   6.480   4.486   2.319
 7710SOL     OW24028   3.128   2.150   0.462
 7710SOL    HW124029   3.175   2.192   0.385
 7710SOL    HW224030   3.075   2.220   0.511
 7711SOL     OW24031   5.434   6.143   6.146
 7711SOL    HW124032   5.374   6.064   6.136
 7711SOL    HW224033   5.434   6.196   6.061
 7712SOL     OW24034   0.097   5.145   1.956
 7712SOL    HW124035   0.005   5.183   1.969
 7712SOL    HW224036   0.165   5.206   1.996
 7713SOL     OW24037   1.338   4.007   0.983
 7713SOL    HW124038   1.348   4.054   0.896
 7713SOL    HW224039   1.339   3.908   0.968
 7714SOL     OW24040   6.873   4.294   5.165
 7714SOL    HW124041   6.907   4.201   5.156
 7714SOL    HW224042   6.905   4.334   5.251
 7715SOL     OW24043   2.884   2.576   0.298
 7715SOL    HW124044   2.932   2.663   0.309
 7715SOL    HW224045   2.887   2.549   0.201
 7716SOL     OW24046   0.272   4.735   1.832
 7716SOL    HW124047   0.195   4.711   1.772
 7716SOL    HW224048   0.354   4.686   1.802
 7717SOL     OW24049   1.951   0.658   5.755
 7717SOL    HW124050   2.012   0.715   5.810
 7717SOL    HW224051   1.942   0.568   5.798
 7718SOL     OW24052   6.726   3.752   3.211
 7718SOL    HW124053   6.773   3.755   3.122
 7718SOL    HW224054   6.780   3.698   3.276
 7719SOL     OW24055   0.172   4.478   5.316
 7719SOL    HW124056   0.154   4.379   5.320
 7719SOL    HW224057   0.241   4.502   5.384
 7720SOL     OW24058   6.865   1.454   6.464
 7720SOL    HW124059   6.842   1.474   6.559
 7720SOL    HW224060   6.837   1.530   6.406
 7721SOL     OW24061   0.319   5.584   1.605
 7721SOL    HW124062   0.273   5.611   1.689
 7721SOL    HW224063   0.256   5.591   1.528
 7722SOL     OW24064   1.423   4.208   3.357
 7722SOL    HW124065   1.500   4.241   3.412
 7722SOL    HW224066   1.438   4.112   3.333
 7723SOL     OW24067   4.794   3.814   6.193
 7723SOL    HW124068   4.708   3.779   6.157
 7723SOL    HW224069   4.870   3.759   6.157
 7724SOL     OW24070   2.785   3.550   1.201
 7724SOL    HW124071   2.769   3.463   1.155
 7724SOL    HW224072   2.698   3.597   1.215
 7725SOL     OW24073   6.338   1.757   2.727
 7725SOL    HW124074   6.270   1.806   2.780
 7725SOL    HW224075   6.323   1.773   2.629
 7726SOL     OW24076   1.671   5.273   6.148
 7726SOL    HW124077   1.712   5.203   6.090
 7726SOL    HW224078   1.725   5.357   6.142
 7727SOL     OW24079   0.119   2.277   2.915
 7727SOL    HW124080   0.154   2.371   2.907
 7727SOL    HW224081   0.108   2.254   3.012
 7728SOL     OW24082   2.153   3.190   5.136
 7728SOL    HW124083   2.176   3.243   5.217
 7728SOL    HW224084   2.225   3.123   5.117
 7729SOL     OW24085   6.118   2.126   1.223
 7729SOL    HW124086   6.181   2.178   1.166
 7729SOL    HW224087   6.076   2.187   1.290
 7730SOL     OW24088   6.788   5.207   0.350
 7730SOL    HW124089   6.744   5.232   0.264
 7730SOL    HW224090   6.878   5.251   0.355
 7731SOL     OW24091   6.362   1.354   0.004
 7731SOL    HW124092   6.276   1.385   0.046
 7731SOL    HW224093   6.342   1.284   6.959
 7732SOL     OW24094   4.970   0.003   0.171
 7732SOL    HW124095   4.950   6.959   0.099
 7732SOL    HW224096   5.014   6.981   0.248
 7733SOL     OW24097   5.033   5.898   2.461
 7733SOL    HW124098   4.984   5.970   2.410
 7733SOL    HW224099   5.081   5.939   2.538
 7734SOL     OW24100   1.505   5.049   4.052
 7734SOL    HW124101   1.591   5.076   4.095
 7734SOL    HW224102   1.440   5.125   4.056
 7735SOL     OW24103   5.052   6.433   6.594
 7735SOL    HW124104   5.093   6.479   6.673
 7735SOL    HW224105   5.104   6.457   6.512
 7736SOL     OW24106   3.022   2.967   6.756
 7736SOL    HW124107   2.981   2.876   6.756
 7736SOL    HW224108   3.067   2.984   6.668
 7737SOL     OW24109   2.617   6.307   2.694
 7737SOL    HW124110   2.536   6.282   2.641
 7737SOL    HW224111   2.696   6.312   2.634
 7738SOL     OW24112   3.133   5.385   0.183
 7738SOL    HW124113   3.185   5.315   0.233
 7738SOL    HW224114   3.109   5.351   0.093
 7739SOL     OW24115   6.979   2.340   1.128
 7739SOL    HW124116   6.899   2.394   1.099
 7739SOL    HW224117   6.982   2.255   1.075
 7740SOL     OW24118   2.689   1.002   2.969
 7740SOL    HW124119   2.775   1.050   2.981
 7740SOL    HW224120   2.616   1.051   3.016
 7741SOL     OW24121   6.868   5.160   6.098
 7741SOL    HW124122   6.931   5.213   6.042
 7741SOL    HW224123   6.895   5.064   6.097
 7742SOL     OW24124   3.910   2.140   2.795
 7742SOL    HW124125   3.975   2.216   2.803
 7742SOL    HW224126   3.890   2.123   2.698
 7743SOL     OW24127   5.430   1.959   6.946
 7743SOL    HW124128   5.390   1.935   0.012
 7743SOL    HW224129   5.368   1.931   6.873
 7744SOL     OW24130   0.506   0.121   4.203
 7744SOL    HW124131   0.438   0.109   4.131
 7744SOL    HW224132   0.591   0.155   4.163
 7745SOL     OW24133   4.091   1.433   6.906
 7745SOL    HW124134   4.022   1.495   6.867
 7745SOL    HW224135   4.049   1.376   6.976
 7746SOL     OW24136   0.987   0.222   0.825
 7746SOL    HW124137   0.982   0.195   0.729
 7746SOL    HW224138   0.915   0.288   0.845
 7747SOL     OW24139   5.587   5.834   1.418
 7747SOL    HW124140   5.678   5.809   1.452
 7747SOL    HW224141   5.521   5.765   1.445
 7748SOL     OW24142   3.197   4.141   4.566
 7748SOL    HW124143   3.133   4.201   4.517
 7748SOL    HW224144   3.147   4.092   4.637
 7749SOL     OW24145   3.388   3.537   5.456
 7749SOL    HW124146   3.471   3.592   5.468
 7749SOL    HW224147   3.348   3.557   5.367
 7750SOL     OW24148   6.949   5.897   0.907
 7750SOL    HW124149   7.002   5.929   0.985
 7750SOL    HW224150   6.965   5.958   0.829
 7751SOL     OW24151   1.984   2.835   2.522
 7751SOL    HW124152   2.068   2.843   2.468
 7751SOL    HW224153   1.970   2.739   2.547
 7752SOL     OW24154   5.973   6.411   5.698
 7752SOL    HW124155   5.905   6.439   5.630
 7752SOL    HW224156   5.942   6.438   5.789
 7753SOL     OW24157   2.018   0.555   4.497
 7753SOL    HW124158   1.992   0.522   4.588
 7753SOL    HW224159   1.970   0.641   4.478
 7754SOL     OW24160   4.389   6.381   1.999
 7754SOL    HW124161   4.342   6.468   1.987
 7754SOL    HW224162   4.482   6.397   2.033
 7755SOL     OW24163   1.222   2.065   6.060
 7755SOL    HW124164   1.148   2.106   6.007
 7755SOL    HW224165   1.299   2.129   6.064
 7756SOL     OW24166   2.845   6.080   2.410
 7756SOL    HW124167   2.927   6.038   2.370
 7756SOL    HW224168   2.871   6.161   2.462
 7757SOL     OW24169   5.628   5.457   5.876
 7757SOL    HW124170   5.577   5.543   5.873
 7757SOL    HW224171   5.724   5.475   5.856
 7758SOL     OW24172   1.531   1.292   5.677
 7758SOL    HW124173   1.466   1.357   5.717
 7758SOL    HW224174   1.623   1.332   5.676
 7759SOL     OW24175   0.750   1.814   5.591
 7759SOL    HW124176   0.837   1.844   5.631
 7759SOL    HW224177   0.676   1.833   5.655
 7760SOL     OW24178   5.559   3.466   2.812
 7760SOL    HW124179   5.506   3.382   2.804
 7760SOL    HW224180   5.569   3.490   2.908
 7761SOL     OW24181   0.634   0.771   5.713
 7761SOL    HW124182   0.724   0.731   5.692
 7761SOL    HW224183   0.568   0.697   5.728
 7762SOL     OW24184   4.601   0.432   4.082
 7762SOL    HW124185   4.620   0.527   4.106
 7762SOL    HW224186   4.502   0.415   4.090
 7763SOL     OW24187   1.066   0.996   6.979
 7763SOL    HW124188   1.041   1.019   6.885
 7763SOL    HW224189   1.162   0.967   6.982
 7764SOL     OW24190   3.603   3.235   3.304
 7764SOL    HW124191   3.583   3.182   3.221
 7764SOL    HW224192   3.693   3.209   3.338
 7765SOL     OW24193   6.355   2.921   4.933
 7765SOL    HW124194   6.385   2.994   4.994
 7765SOL    HW224195   6.367   2.950   4.838
 7766SOL     OW24196   6.775   3.279   6.841
 7766SOL    HW124197   6.860   3.329   6.823
 7766SOL    HW224198   6.796   3.189   6.879
 7767SOL     OW24199   4.907   5.776   2.982
 7767SOL    HW124200   4.857   5.810   2.902
 7767SOL    HW224201   4.842   5.743   3.051
 7768SOL     OW24202   4.577   4.576   2.085
 7768SOL    HW124203   4.631   4.569   2.169
 7768SOL    HW224204   4.481   4.590   2.109
 7769SOL     OW24205   4.717   2.763   3.177
 7769SOL    HW124206   4.815   2.772   3.192
 7769SOL    HW224207   4.674   2.725   3.259
 7770SOL     OW24208   1.591   4.444   2.766
 7770SOL    HW124209   1.585   4.457   2.865
 7770SOL    HW224210   1.499   4.445   2.727
 7771SOL     OW24211   3.423   2.189   5.260
 7771SOL    HW124212   3.357   2.260   5.235
 7771SOL    HW224213   3.481   2.222   5.334
 7772SOL     OW24214   5.219   0.507   2.120
 7772SOL    HW124215   5.272   0.455   2.187
 7772SOL    HW224216   5.123   0.506   2.145
 7773SOL     OW24217   2.524   6.306   4.916
 7773SOL    HW124218   2.563   6.321   5.007
 7773SOL    HW224219   2.433   6.264   4.926
 7774SOL     OW24220   5.336   2.031   5.424
 7774SOL    HW124221   5.374   1.939   5.416
 7774SOL    HW224222   5.410   2.097   5.431
 7775SOL     OW24223   5.013   5.762   1.075
 7775SOL    HW124224   4.927   5.723   1.042
 7775SOL    HW224225   5.004   5.862   1.080
 7776SOL     OW24226   1.971   4.960   6.895
 7776SOL    HW124227   1.873   4.959   6.874
 7776SOL    HW224228   2.024   4.950   6.811
 7777SOL     OW24229   0.086   6.770   4.649
 7777SOL    HW124230   0.012   6.825   4.609
 7777SOL    HW224231   0.164   6.769   4.586
 7778SOL     OW24232   5.535   4.020   0.941
 7778SOL    HW124233   5.545   4.055   0.849
 7778SOL    HW224234   5.625   3.997   0.979
 7779SOL     OW24235   2.497   2.690   1.711
 7779SOL    HW124236   2.539   2.779   1.696
 7779SOL    HW224237   2.554   2.619   1.670
 7780SOL     OW24238   0.790   4.563   4.851
 7780SOL    HW124239   0.887   4.574   4.871
 7780SOL    HW224240   0.735   4.604   4.924
 7781SOL     OW24241   1.058   5.071   0.290
 7781SOL    HW124242   0.974   5.074   0.344
 7781SOL    HW224243   1.081   4.975   0.269
 7782SOL     OW24244   6.209   5.040   4.405
 7782SOL    HW124245   6.146   5.098   4.456
 7782SOL    HW224246   6.158   4.969   4.356
 7783SOL     OW24247   1.251   5.898   5.333
 7783SOL    HW124248   1.260   5.909   5.234
 7783SOL    HW224249   1.303   5.970   5.379
 7784SOL     OW24250   3.294   1.960   1.742
 7784SOL    HW124251   3.324   2.033   1.804
 7784SOL    HW224252   3.310   1.988   1.648
 7785SOL     OW24253   2.609   6.146   4.440
 7785SOL    HW124254   2.697   6.193   4.443
 7785SOL    HW224255   2.623   6.053   4.405
 7786SOL     OW24256   2.762   6.533   0.173
 7786SOL    HW124257   2.846   6.543   0.118
 7786SOL    HW224258   2.786   6.507   0.266
 7787SOL     OW24259   1.891   2.675   5.958
 7787SOL    HW124260   1.951   2.651   5.882
 7787SOL    HW224261   1.903   2.608   6.032
 7788SOL     OW24262   2.401   5.033   1.183
 7788SOL    HW124263   2.478   4.987   1.227
 7788SOL    HW224264   2.346   4.965   1.134
 7789SOL     OW24265   1.983   6.804   6.516
 7789SOL    HW124266   1.905   6.863   6.493
 7789SOL    HW224267   1.965   6.711   6.484
 7790SOL     OW24268   5.885   5.895   3.444
 7790SOL    HW124269   5.957   5.838   3.483
 7790SOL    HW224270   5.878   5.878   3.346
 7791SOL     OW24271   2.568   5.142   3.419
 7791SOL    HW124272   2.617   5.214   3.468
 7791SOL    HW224273   2.471   5.144   3.446
 7792SOL     OW24274   2.128   5.343   5.039
 7792SOL    HW124275   2.190   5.422   5.032
 7792SOL    HW224276   2.038   5.374   5.070
 7793SOL     OW24277   2.753   0.973   0.822
 7793SOL    HW124278   2.813   0.977   0.743
 7793SOL    HW224279   2.798   0.924   0.896
 7794SOL     OW24280   5.907   4.078   3.116
 7794SOL    HW124281   5.932   4.101   3.210
 7794SOL    HW224282   5.952   3.992   3.090
 7795SOL     OW24283   2.039   4.203   5.699
 7795SOL    HW124284   2.076   4.136   5.764
 7795SOL    HW224285   2.074   4.183   5.608
 7796SOL     OW24286   3.794   3.269   3.643
 7796SOL    HW124287   3.695   3.284   3.641
 7796SOL    HW224288   3.830   3.275   3.550
 7797SOL     OW24289   1.547   6.897   2.349
 7797SOL    HW124290   1.637   6.939   2.364
 7797SOL    HW224291   1.477   6.948   2.400
 7798SOL     OW24292   2.109   3.991   5.507
 7798SOL    HW124293   2.179   3.962   5.441
 7798SOL    HW224294   2.078   3.912   5.560
 7799SOL     OW24295   1.150   6.185   2.288
 7799SOL    HW124296   1.172   6.247   2.364
 7799SOL    HW224297   1.231   6.174   2.230
 7800SOL     OW24298   0.664   5.236   0.957
 7800SOL    HW124299   0.751   5.222   0.910
 7800SOL    HW224300   0.662   5.328   0.995
 7801SOL     OW24301   2.103   2.014   2.054
 7801SOL    HW124302   2.096   2.056   2.144
 7801SOL    HW224303   2.199   2.005   2.029
 7802SOL     OW24304   6.095   2.800   0.813
 7802SOL    HW124305   6.091   2.850   0.900
 7802SOL    HW224306   6.028   2.726   0.814
 7803SOL     OW24307   4.830   2.116   5.941
 7803SOL    HW124308   4.862   2.107   5.847
 7803SOL    HW224309   4.853   2.207   5.976
 7804SOL     OW24310   4.279   2.005   3.955
 7804SOL    HW124311   4.237   2.067   3.889
 7804SOL    HW224312   4.364   2.045   3.989
 7805SOL     OW24313   5.703   2.740   1.391
 7805SOL    HW124314   5.720   2.826   1.343
 7805SOL    HW224315   5.665   2.759   1.482
 7806SOL     OW24316   6.005   2.068   0.522
 7806SOL    HW124317   6.077   2.079   0.590
 7806SOL    HW224318   6.045   2.048   0.433
 7807SOL     OW24319   1.100   5.091   5.415
 7807SOL    HW124320   1.111   5.180   5.460
 7807SOL    HW224321   1.065   5.024   5.481
 7808SOL     OW24322   6.340   3.368   4.235
 7808SOL    HW124323   6.324   3.272   4.213
 7808SOL    HW224324   6.297   3.426   4.166
 7809SOL     OW24325   3.072   5.090   4.288
 7809SOL    HW124326   3.116   5.049   4.208
 7809SOL    HW224327   2.999   5.152   4.258
 7810SOL     OW24328   3.592   0.113   4.279
 7810SOL    HW124329   3.540   0.199   4.273
 7810SOL    HW224330   3.535   0.042   4.320
 7811SOL     OW24331   1.828   5.380   1.991
 7811SOL    HW124332   1.887   5.396   1.912
 7811SOL    HW224333   1.825   5.282   2.011
 7812SOL     OW24334   0.083   1.848   3.999
 7812SOL    HW124335   0.166   1.818   3.952
 7812SOL    HW224336   0.059   1.940   3.968
 7813SOL     OW24337   5.079   2.233   0.148
 7813SOL    HW124338   5.157   2.231   0.211
 7813SOL    HW224339   5.098   2.174   0.070
 7814SOL     OW24340   0.626   3.957   3.666
 7814SOL    HW124341   0.614   3.927   3.572
 7814SOL    HW224342   0.719   3.934   3.697
 7815SOL     OW24343   5.626   1.460   5.279
 7815SOL    HW124344   5.532   1.494   5.291
 7815SOL    HW224345   5.683   1.492   5.354
 7816SOL     OW24346   1.596   2.467   6.145
 7816SOL    HW124347   1.603   2.505   6.053
 7816SOL    HW224348   1.577   2.369   6.139
 7817SOL     OW24349   4.894   4.438   3.182
 7817SOL    HW124350   4.852   4.490   3.108
 7817SOL    HW224351   4.909   4.498   3.261
 7818SOL     OW24352   4.298   1.288   1.972
 7818SOL    HW124353   4.370   1.218   1.974
 7818SOL    HW224354   4.210   1.244   1.952
 7819SOL     OW24355   6.848   3.685   2.432
 7819SOL    HW124356   6.834   3.725   2.523
 7819SOL    HW224357   6.913   3.609   2.440
 7820SOL     OW24358   0.680   1.539   5.613
 7820SOL    HW124359   0.716   1.629   5.635
 7820SOL    HW224360   0.692   1.477   5.690
 7821SOL     OW24361   5.817   5.720   0.135
 7821SOL    HW124362   5.737   5.779   0.120
 7821SOL    HW224363   5.786   5.630   0.165
 7822SOL     OW24364   1.931   2.158   6.228
 7822SOL    HW124365   1.838   2.161   6.266
 7822SOL    HW224366   1.935   2.090   6.155
 7823SOL     OW24367   2.673   3.667   5.390
 7823SOL    HW124368   2.758   3.615   5.384
 7823SOL    HW224369   2.687   3.759   5.353
 7824SOL     OW24370   5.926   0.586   3.969
 7824SOL    HW124371   5.857   0.640   4.017
 7824SOL    HW224372   6.014   0.593   4.016
 7825SOL     OW24373   1.473   2.972   0.930
 7825SOL    HW124374   1.502   3.006   1.019
 7825SOL    HW224375   1.382   2.931   0.938
 7826SOL     OW24376   5.894   1.157   0.535
 7826SOL    HW124377   5.862   1.066   0.511
 7826SOL    HW224378   5.900   1.165   0.635
 7827SOL     OW24379   3.161   4.954   1.196
 7827SOL    HW124380   3.205   4.876   1.241
 7827SOL    HW224381   3.119   5.014   1.265
 7828SOL     OW24382   1.003   4.510   6.958
 7828SOL    HW124383   1.038   4.594   7.002
 7828SOL    HW224384   1.058   4.490   6.877
 7829SOL     OW24385   2.231   3.141   1.484
 7829SOL    HW124386   2.200   3.230   1.519
 7829SOL    HW224387   2.245   3.148   1.385
 7830SOL     OW24388   2.256   4.326   5.519
 7830SOL    HW124389   2.308   4.412   5.520
 7830SOL    HW224390   2.279   4.274   5.437
 7831SOL     OW24391   1.494   5.855   1.295
 7831SOL    HW124392   1.504   5.787   1.368
 7831SOL    HW224393   1.489   5.947   1.336
 7832SOL     OW24394   4.991   1.138   3.175
 7832SOL    HW124395   4.954   1.144   3.082
 7832SOL    HW224396   5.077   1.189   3.179
 7833SOL     OW24397   0.853   0.701   6.475
 7833SOL    HW124398   0.945   0.727   6.446
 7833SOL    HW224399   0.830   0.611   6.437
 7834SOL     OW24400   6.571   1.695   4.149
 7834SOL    HW124401   6.545   1.613   4.199
 7834SOL    HW224402   6.668   1.690   4.123
 7835SOL     OW24403   2.929   1.550   5.305
 7835SOL    HW124404   2.947   1.499   5.389
 7835SOL    HW224405   2.949   1.646   5.320
 7836SOL     OW24406   3.242   3.021   4.560
 7836SOL    HW124407   3.198   3.054   4.644
 7836SOL    HW224408   3.176   3.021   4.485
 7837SOL     OW24409   6.385   5.889   0.903
 7837SOL    HW124410   6.345   5.941   0.827
 7837SOL    HW224411   6.484   5.885   0.891
 7838SOL     OW24412   4.126   6.774   0.009
 7838SOL    HW124413   4.199   6.772   0.077
 7838SOL    HW224414   4.041   6.804   0.052
 7839SOL     OW24415   6.078   4.771   4.527
 7839SOL    HW124416   6.118   4.693   4.574
 7839SOL    HW224417   6.051   4.841   4.593
 7840SOL     OW24418   6.172   2.881   3.870
 7840SOL    HW124419   6.113   2.959   3.851
 7840SOL    HW224420   6.136   2.800   3.822
 7841SOL     OW24421   3.791   2.003   6.853
 7841SOL    HW124422   3.778   2.099   6.828
 7841SOL    HW224423   3.707   1.952   6.833
 7842SOL     OW24424   2.029   1.995   2.840
 7842SOL    HW124425   2.017   1.906   2.885
 7842SOL    HW224426   1.983   1.994   2.751
 7843SOL     OW24427   6.198   5.545   2.644
 7843SOL    HW124428   6.173   5.581   2.554
 7843SOL    HW224429   6.201   5.445   2.639
 7844SOL     OW24430   3.890   6.228   2.302
 7844SOL    HW124431   3.807   6.261   2.347
 7844SOL    HW224432   3.952   6.305   2.285
 7845SOL     OW24433   5.159   1.680   3.695
 7845SOL    HW124434   5.072   1.719   3.667
 7845SOL    HW224435   5.143   1.601   3.754
 7846SOL     OW24436   0.991   0.709   2.663
 7846SOL    HW124437   1.032   0.764   2.736
 7846SOL    HW224438   0.902   0.747   2.638
 7847SOL     OW24439   0.070   1.843   2.857
 7847SOL    HW124440   0.104   1.752   2.882
 7847SOL    HW224441   6.999   1.835   2.823
 7848SOL     OW24442   3.491   3.250   0.498
 7848SOL    HW124443   3.541   3.335   0.476
 7848SOL    HW224444   3.399   3.255   0.461
 7849SOL     OW24445   5.774   4.080   3.577
 7849SOL    HW124446   5.687   4.116   3.545
 7849SOL    HW224447   5.786   4.101   3.674
 7850SOL     OW24448   0.189   2.276   5.558
 7850SOL    HW124449   0.117   2.278   5.627
 7850SOL    HW224450   0.197   2.184   5.520
 7851SOL     OW24451   6.623   1.274   2.304
 7851SOL    HW124452   6.671   1.239   2.224
 7851SOL    HW224453   6.689   1.300   2.374
 7852SOL     OW24454   2.443   1.562   5.662
 7852SOL    HW124455   2.451   1.491   5.733
 7852SOL    HW224456   2.510   1.545   5.591
 7853SOL     OW24457   4.473   2.197   1.426
 7853SOL    HW124458   4.550   2.234   1.374
 7853SOL    HW224459   4.399   2.173   1.363
 7854SOL     OW24460   3.933   3.514   0.080
 7854SOL    HW124461   3.983   3.554   0.158
 7854SOL    HW224462   3.951   3.568   7.021
 7855SOL     OW24463   4.633   5.363   4.810
 7855SOL    HW124464   4.594   5.447   4.848
 7855SOL    HW224465   4.595   5.284   4.858
 7856SOL     OW24466   6.231   4.826   5.031
 7856SOL    HW124467   6.279   4.789   4.951
 7856SOL    HW224468   6.264   4.919   5.049
 7857SOL     OW24469   5.629   1.969   5.217
 7857SOL    HW124470   5.595   1.918   5.296
 7857SOL    HW224471   5.683   1.908   5.159
 7858SOL     OW24472   5.286   5.924   4.022
 7858SOL    HW124473   5.198   5.972   4.024
 7858SOL    HW224474   5.291   5.861   4.099
 7859SOL     OW24475   4.868   2.542   6.473
 7859SOL    HW124476   4.786   2.599   6.483
 7859SOL    HW224477   4.898   2.510   6.563
 7860SOL     OW24478   3.807   0.338   2.352
 7860SOL    HW124479   3.809   0.238   2.350
 7860SOL    HW224480   3.714   0.369   2.373
 7861SOL     OW24481   3.692   4.907   1.695
 7861SOL    HW124482   3.780   4.878   1.658
 7861SOL    HW224483   3.681   4.868   1.787
 7862SOL     OW24484   2.568   3.522   1.527
 7862SOL    HW124485   2.538   3.607   1.571
 7862SOL    HW224486   2.599   3.457   1.597
 7863SOL     OW24487   0.820   5.194   4.081
 7863SOL    HW124488   0.824   5.189   4.181
 7863SOL    HW224489   0.729   5.167   4.049
 7864SOL     OW24490   0.440   5.488   4.958
 7864SOL    HW124491   0.429   5.574   4.907
 7864SOL    HW224492   0.350   5.454   4.987
 7865SOL     OW24493   6.196   6.554   4.051
 7865SOL    HW124494   6.281   6.578   4.098
 7865SOL    HW224495   6.211   6.554   3.952
 7866SOL     OW24496   1.598   1.563   6.217
 7866SOL    HW124497   1.650   1.497   6.163
 7866SOL    HW224498   1.564   1.636   6.157
 7867SOL     OW24499   5.875   6.438   3.263
 7867SOL    HW124500   5.834   6.486   3.185
 7867SOL    HW224501   5.808   6.434   3.337
 7868SOL     OW24502   5.862   6.836   1.756
 7868SOL    HW124503   5.786   6.786   1.712
 7868SOL    HW224504   5.831   6.874   1.842
 7869SOL     OW24505   6.448   3.797   0.111
 7869SOL    HW124506   6.433   3.841   0.023
 7869SOL    HW224507   6.485   3.705   0.097
 7870SOL     OW24508   4.150   4.766   3.970
 7870SOL    HW124509   4.150   4.733   3.875
 7870SOL    HW224510   4.222   4.835   3.981
 7871SOL     OW24511   5.027   2.953   2.418
 7871SOL    HW124512   4.948   2.912   2.374
 7871SOL    HW224513   5.071   3.018   2.355
 7872SOL     OW24514   2.517   4.519   3.353
 7872SOL    HW124515   2.553   4.544   3.443
 7872SOL    HW224516   2.564   4.572   3.283
 7873SOL     OW24517   5.538   0.541   5.824
 7873SOL    HW124518   5.484   0.624   5.810
 7873SOL    HW224519   5.603   0.530   5.749
 7874SOL     OW24520   5.377   1.947   0.371
 7874SOL    HW124521   5.324   1.919   0.291
 7874SOL    HW224522   5.456   1.886   0.381
 7875SOL     OW24523   5.216   2.583   6.803
 7875SOL    HW124524   5.310   2.589   6.768
 7875SOL    HW224525   5.217   2.595   6.903
 7876SOL     OW24526   1.089   0.402   4.666
 7876SOL    HW124527   1.106   0.379   4.571
 7876SOL    HW224528   0.993   0.384   4.688
 7877SOL     OW24529   0.728   2.413   3.141
 7877SOL    HW124530   0.713   2.325   3.095
 7877SOL    HW224531   0.732   2.486   3.073
 7878SOL     OW24532   5.930   5.146   4.213
 7878SOL    HW124533   5.970   5.059   4.242
 7878SOL    HW224534   5.872   5.131   4.133
 7879SOL     OW24535   4.854   4.775   4.014
 7879SOL    HW124536   4.767   4.755   4.059
 7879SOL    HW224537   4.898   4.852   4.059
 7880SOL     OW24538   2.004   5.093   0.771
 7880SOL    HW124539   1.961   5.072   0.684
 7880SOL    HW224540   2.059   5.176   0.762
 7881SOL     OW24541   6.132   4.361   4.563
 7881SOL    HW124542   6.038   4.394   4.556
 7881SOL    HW224543   6.186   4.399   4.489
 7882SOL     OW24544   0.987   3.137   2.428
 7882SOL    HW124545   0.897   3.098   2.449
 7882SOL    HW224546   0.977   3.231   2.397
 7883SOL     OW24547   0.757   0.607   0.915
 7883SOL    HW124548   0.748   0.633   1.011
 7883SOL    HW224549   0.757   0.507   0.907
 7884SOL     OW24550   2.178   3.904   4.047
 7884SOL    HW124551   2.186   3.926   3.950
 7884SOL    HW224552   2.201   3.808   4.062
 7885SOL     OW24553   6.227   4.919   2.015
 7885SOL    HW124554   6.237   5.013   2.048
 7885SOL    HW224555   6.224   4.856   2.093
 7886SOL     OW24556   3.414   5.270   0.041
 7886SOL    HW124557   3.426   5.239   0.136
 7886SOL    HW224558   3.378   5.363   0.041
 7887SOL     OW24559   3.292   2.526   5.393
 7887SOL    HW124560   3.233   2.607   5.395
 7887SOL    HW224561   3.269   2.469   5.315
 7888SOL     OW24562   6.430   0.147   4.768
 7888SOL    HW124563   6.499   0.174   4.834
 7888SOL    HW224564   6.400   0.227   4.716
 7889SOL     OW24565   1.829   5.129   0.540
 7889SOL    HW124566   1.744   5.168   0.577
 7889SOL    HW224567   1.871   5.194   0.477
 7890SOL     OW24568   0.921   3.041   3.383
 7890SOL    HW124569   0.918   3.141   3.387
 7890SOL    HW224570   0.914   3.004   3.475
 7891SOL     OW24571   2.444   4.532   4.076
 7891SOL    HW124572   2.356   4.530   4.123
 7891SOL    HW224573   2.463   4.441   4.037
 7892SOL     OW24574   2.112   1.067   3.739
 7892SOL    HW124575   2.037   1.002   3.748
 7892SOL    HW224576   2.130   1.109   3.828
 7893SOL     OW24577   6.815   6.295   2.002
 7893SOL    HW124578   6.734   6.349   1.980
 7893SOL    HW224579   6.810   6.207   1.954
 7894SOL     OW24580   3.887   6.553   0.240
 7894SOL    HW124581   3.951   6.624   0.272
 7894SOL    HW224582   3.822   6.531   0.313
 7895SOL     OW24583   5.623   0.665   5.576
 7895SOL    HW124584   5.717   0.688   5.600
 7895SOL    HW224585   5.589   0.728   5.506
 7896SOL     OW24586   4.152   3.583   1.319
 7896SOL    HW124587   4.246   3.559   1.344
 7896SOL    HW224588   4.130   3.543   1.230
 7897SOL     OW24589   2.982   3.551   0.627
 7897SOL    HW124590   3.026   3.516   0.544
 7897SOL    HW224591   2.887   3.521   0.630
 7898SOL     OW24592   4.105   1.831   3.206
 7898SOL    HW124593   4.182   1.788   3.159
 7898SOL    HW224594   4.060   1.896   3.144
 7899SOL     OW24595   5.627   7.019   1.612
 7899SOL    HW124596   5.627   6.951   1.685
 7899SOL    HW224597   5.720   0.030   1.598
 7900SOL     OW24598   1.483   4.940   2.344
 7900SOL    HW124599   1.444   4.943   2.252
 7900SOL    HW224600   1.573   4.984   2.343
 7901SOL     OW24601   4.915   1.710   6.471
 7901SOL    HW124602   4.962   1.773   6.409
 7901SOL    HW224603   4.982   1.671   6.535
 7902SOL     OW24604   6.020   6.665   1.295
 7902SOL    HW124605   6.036   6.639   1.390
 7902SOL    HW224606   6.102   6.706   1.257
 7903SOL     OW24607   5.210   1.156   1.247
 7903SOL    HW124608   5.214   1.056   1.245
 7903SOL    HW224609   5.259   1.189   1.327
 7904SOL     OW24610   5.494   7.009   3.585
 7904SOL    HW124611   5.532   0.006   3.676
 7904SOL    HW224612   5.431   0.059   3.559
 7905SOL     OW24613   5.322   2.224   0.275
 7905SOL    HW124614   5.369   2.142   0.307
 7905SOL    HW224615   5.322   2.293   0.347
 7906SOL     OW24616   0.710   5.820   0.662
 7906SOL    HW124617   0.772   5.884   0.706
 7906SOL    HW224618   0.708   5.836   0.564
 7907SOL     OW24619   5.144   1.956   2.391
 7907SOL    HW124620   5.119   2.046   2.427
 7907SOL    HW224621   5.244   1.947   2.392
 7908SOL     OW24622   1.593   1.016   5.662
 7908SOL    HW124623   1.589   0.980   5.756
 7908SOL    HW224624   1.535   1.098   5.656
 7909SOL     OW24625   5.299   4.622   4.458
 7909SOL    HW124626   5.254   4.654   4.375
 7909SOL    HW224627   5.256   4.538   4.490
 7910SOL     OW24628   2.979   3.616   5.700
 7910SOL    HW124629   3.079   3.617   5.692
 7910SOL    HW224630   2.939   3.595   5.611
 7911SOL     OW24631   2.036   4.026   6.986
 7911SOL    HW124632   2.103   4.042   0.035
 7911SOL    HW224633   1.945   4.013   0.003
 7912SOL     OW24634   6.988   5.124   1.030
 7912SOL    HW124635   0.050   5.085   1.066
 7912SOL    HW224636   6.986   5.222   1.050
 7913SOL     OW24637   1.311   4.647   0.669
 7913SOL    HW124638   1.297   4.548   0.661
 7913SOL    HW224639   1.372   4.666   0.746
 7914SOL     OW24640   0.336   4.140   0.359
 7914SOL    HW124641   0.317   4.143   0.458
 7914SOL    HW224642   0.299   4.056   0.320
 7915SOL     OW24643   5.008   2.301   1.706
 7915SOL    HW124644   4.966   2.382   1.665
 7915SOL    HW224645   5.107   2.315   1.712
 7916SOL     OW24646   0.886   4.156   4.771
 7916SOL    HW124647   0.819   4.219   4.733
 7916SOL    HW224648   0.883   4.161   4.871
 7917SOL     OW24649   4.011   3.383   4.670
 7917SOL    HW124650   3.956   3.406   4.590
 7917SOL    HW224651   4.092   3.440   4.673
 7918SOL     OW24652   0.222   1.448   5.773
 7918SOL    HW124653   0.131   1.482   5.750
 7918SOL    HW224654   0.290   1.491   5.713
 7919SOL     OW24655   2.355   4.319   3.173
 7919SOL    HW124656   2.287   4.274   3.231
 7919SOL    HW224657   2.425   4.361   3.231
 7920SOL     OW24658   0.125   6.595   0.439
 7920SOL    HW124659   0.047   6.654   0.462
 7920SOL    HW224660   0.127   6.581   0.340
 7921SOL     OW24661   5.409   6.432   1.021
 7921SOL    HW124662   5.330   6.488   1.045
 7921SOL    HW224663   5.410   6.350   1.078
 7922SOL     OW24664   6.820   6.584   0.493
 7922SOL    HW124665   6.856   6.631   0.574
 7922SOL    HW224666   6.878   6.506   0.470
 7923SOL     OW24667   3.435   6.818   1.448
 7923SOL    HW124668   3.477   6.772   1.369
 7923SOL    HW224669   3.343   6.783   1.462
 7924SOL     OW24670   4.436   6.771   1.857
 7924SOL    HW124671   4.513   6.739   1.913
 7924SOL    HW224672   4.446   6.736   1.765
 7925SOL     OW24673   1.173   1.525   6.062
 7925SOL    HW124674   1.087   1.559   6.026
 7925SOL    HW224675   1.157   1.440   6.114
 7926SOL     OW24676   4.675   1.732   5.285
 7926SOL    HW124677   4.636   1.800   5.222
 7926SOL    HW224678   4.708   1.653   5.233
 7927SOL     OW24679   4.448   5.573   2.639
 7927SOL    HW124680   4.518   5.641   2.659
 7927SOL    HW224681   4.373   5.581   2.706
 7928SOL     OW24682   1.330   1.765   4.988
 7928SOL    HW124683   1.306   1.669   4.980
 7928SOL    HW224684   1.261   1.812   5.043
 7929SOL     OW24685   4.352   4.520   5.755
 7929SOL    HW124686   4.257   4.514   5.785
 7929SOL    HW224687   4.371   4.449   5.688
 7930SOL     OW24688   4.128   5.496   4.742
 7930SOL    HW124689   4.204   5.498   4.677
 7930SOL    HW224690   4.139   5.418   4.803
 7931SOL     OW24691   2.326   2.792   0.099
 7931SOL    HW124692   2.363   2.734   0.171
 7931SOL    HW224693   2.380   2.779   0.015
 7932SOL     OW24694   1.483   6.517   6.459
 7932SOL    HW124695   1.548   6.586   6.427
 7932SOL    HW224696   1.530   6.450   6.516
 7933SOL     OW24697   0.452   5.938   5.853
 7933SOL    HW124698   0.506   5.934   5.937
 7933SOL    HW224699   0.507   5.907   5.776
 7934SOL     OW24700   2.596   5.174   6.811
 7934SOL    HW124701   2.533   5.153   6.736
 7934SOL    HW224702   2.597   5.099   6.877
 7935SOL     OW24703   6.182   6.012   0.378
 7935SOL    HW124704   6.203   6.087   0.442
 7935SOL    HW224705   6.141   6.050   0.295
 7936SOL     OW24706   3.923   5.959   2.449
 7936SOL    HW124707   3.940   5.986   2.543
 7936SOL    HW224708   3.874   6.032   2.401
 7937SOL     OW24709   6.739   6.438   3.326
 7937SOL    HW124710   6.738   6.469   3.422
 7937SOL    HW224711   6.756   6.340   3.323
 7938SOL     OW24712   6.374   5.343   3.700
 7938SOL    HW124713   6.421   5.428   3.678
 7938SOL    HW224714   6.351   5.341   3.797
 7939SOL     OW24715   1.665   2.883   5.380
 7939SOL    HW124716   1.654   2.923   5.290
 7939SOL    HW224717   1.693   2.787   5.372
 7940SOL     OW24718   1.828   3.673   1.809
 7940SOL    HW124719   1.738   3.629   1.817
 7940SOL    HW224720   1.900   3.603   1.815
 7941SOL     OW24721   5.725   0.957   1.039
 7941SOL    HW124722   5.777   0.959   0.954
 7941SOL    HW224723   5.668   0.875   1.042
 7942SOL     OW24724   6.722   5.764   2.587
 7942SOL    HW124725   6.623   5.752   2.594
 7942SOL    HW224726   6.758   5.700   2.519
 7943SOL     OW24727   6.218   3.483   0.266
 7943SOL    HW124728   6.258   3.411   0.210
 7943SOL    HW224729   6.224   3.570   0.217
 7944SOL     OW24730   0.346   2.455   1.619
 7944SOL    HW124731   0.260   2.484   1.577
 7944SOL    HW224732   0.333   2.365   1.661
 7945SOL     OW24733   5.762   5.333   1.289
 7945SOL    HW124734   5.763   5.429   1.260
 7945SOL    HW224735   5.758   5.274   1.208
 7946SOL     OW24736   2.214   1.275   5.401
 7946SOL    HW124737   2.158   1.200   5.435
 7946SOL    HW224738   2.215   1.274   5.301
 7947SOL     OW24739   4.176   2.017   6.039
 7947SOL    HW124740   4.236   1.958   6.093
 7947SOL    HW224741   4.217   2.031   5.948
 7948SOL     OW24742   0.975   6.811   0.979
 7948SOL    HW124743   0.971   6.905   1.011
 7948SOL    HW224744   1.043   6.761   1.032
 7949SOL     OW24745   4.534   4.705   4.812
 7949SOL    HW124746   4.520   4.802   4.833
 7949SOL    HW224747   4.459   4.652   4.852
 7950SOL     OW24748   5.505   5.235   4.195
 7950SOL    HW124749   5.555   5.266   4.276
 7950SOL    HW224750   5.535   5.287   4.115
 7951SOL     OW24751   1.991   4.008   1.815
 7951SOL    HW124752   2.058   4.023   1.888
 7951SOL    HW224753   2.037   3.992   1.728
 7952SOL     OW24754   0.798   3.364   0.122
 7952SOL    HW124755   0.809   3.280   0.069
 7952SOL    HW224756   0.879   3.421   0.110
 7953SOL     OW24757   2.249   2.351   4.125
 7953SOL    HW124758   2.261   2.434   4.180
 7953SOL    HW224759   2.214   2.375   4.035
 7954SOL     OW24760   3.965   4.076   6.206
 7954SOL    HW124761   4.025   4.076   6.285
 7954SOL    HW224762   3.874   4.109   6.232
 7955SOL     OW24763   1.526   6.648   6.919
 7955SOL    HW124764   1.467   6.690   6.850
 7955SOL    HW224765   1.552   6.718   6.986
 7956SOL     OW24766   3.930   6.049   2.708
 7956SOL    HW124767   3.946   6.136   2.755
 7956SOL    HW224768   3.842   6.011   2.737
 7957SOL     OW24769   1.104   0.797   1.878
 7957SOL    HW124770   1.083   0.727   1.810
 7957SOL    HW224771   1.020   0.831   1.919
 7958SOL     OW24772   3.354   4.969   4.536
 7958SOL    HW124773   3.320   5.064   4.537
 7958SOL    HW224774   3.294   4.912   4.592
 7959SOL     OW24775   4.322   5.893   0.757
 7959SOL    HW124776   4.392   5.964   0.757
 7959SOL    HW224777   4.241   5.925   0.708
 7960SOL     OW24778   2.698   1.029   6.926
 7960SOL    HW124779   2.699   0.945   6.872
 7960SOL    HW224780   2.623   1.088   6.895
 7961SOL     OW24781   0.094   1.004   1.170
 7961SOL    HW124782   0.008   1.044   1.201
 7961SOL    HW224783   0.164   1.019   1.240
 7962SOL     OW24784   1.003   0.590   7.007
 7962SOL    HW124785   0.955   0.508   0.016
 7962SOL    HW224786   0.993   0.663   0.051
 7963SOL     OW24787   6.821   6.615   4.057
 7963SOL    HW124788   6.801   6.616   4.155
 7963SOL    HW224789   6.888   6.686   4.036
 7964SOL     OW24790   0.333   4.758   3.559
 7964SOL    HW124791   0.423   4.733   3.595
 7964SOL    HW224792   0.332   4.747   3.460
 7965SOL     OW24793   3.804   2.220   5.940
 7965SOL    HW124794   3.705   2.227   5.927
 7965SOL    HW224795   3.824   2.165   6.020
 7966SOL     OW24796   1.255   2.958   5.569
 7966SOL    HW124797   1.203   3.014   5.504
 7966SOL    HW224798   1.342   3.002   5.589
 7967SOL     OW24799   2.742   6.704   3.411
 7967SOL    HW124800   2.688   6.750   3.481
 7967SOL    HW224801   2.832   6.681   3.448
 7968SOL     OW24802   1.883   3.035   3.885
 7968SOL    HW124803   1.918   3.035   3.791
 7968SOL    HW224804   1.905   2.948   3.928
 7969SOL     OW24805   4.180   6.113   0.592
 7969SOL    HW124806   4.208   6.071   0.505
 7969SOL    HW224807   4.144   6.204   0.574
 7970SOL     OW24808   6.640   2.817   2.676
 7970SOL    HW124809   6.568   2.885   2.688
 7970SOL    HW224810   6.645   2.758   2.756
 7971SOL     OW24811   3.719   2.237   0.510
 7971SOL    HW124812   3.789   2.218   0.442
 7971SOL    HW224813   3.712   2.336   0.523
 7972SOL     OW24814   1.842   3.253   0.909
 7972SOL    HW124815   1.796   3.186   0.852
 7972SOL    HW224816   1.838   3.343   0.865
 7973SOL     OW24817   4.144   4.821   4.282
 7973SOL    HW124818   4.126   4.777   4.194
 7973SOL    HW224819   4.147   4.920   4.270
 7974SOL     OW24820   6.052   1.548   5.392
 7974SOL    HW124821   6.104   1.632   5.376
 7974SOL    HW224822   6.094   1.473   5.340
 7975SOL     OW24823   5.966   1.690   2.281
 7975SOL    HW124824   5.929   1.712   2.191
 7975SOL    HW224825   6.043   1.626   2.271
 7976SOL     OW24826   0.882   0.729   6.131
 7976SOL    HW124827   0.954   0.725   6.201
 7976SOL    HW224828   0.813   0.796   6.157
 7977SOL     OW24829   4.939   6.401   2.153
 7977SOL    HW124830   4.946   6.422   2.056
 7977SOL    HW224831   4.973   6.308   2.170
 7978SOL     OW24832   6.057   3.763   6.784
 7978SOL    HW124833   6.110   3.696   6.837
 7978SOL    HW224834   6.119   3.814   6.724
 7979SOL     OW24835   4.385   6.111   5.458
 7979SOL    HW124836   4.420   6.019   5.440
 7979SOL    HW224837   4.289   6.105   5.484
 7980SOL     OW24838   2.852   5.214   6.732
 7980SOL    HW124839   2.874   5.156   6.653
 7980SOL    HW224840   2.756   5.199   6.757
 7981SOL     OW24841   0.847   5.642   1.603
 7981SOL    HW124842   0.863   5.556   1.651
 7981SOL    HW224843   0.876   5.633   1.508
 7982SOL     OW24844   0.257   1.584   0.195
 7982SOL    HW124845   0.282   1.542   0.282
 7982SOL    HW224846   0.335   1.582   0.133
 7983SOL     OW24847   5.977   2.099   1.590
 7983SOL    HW124848   5.992   2.167   1.519
 7983SOL    HW224849   5.891   2.119   1.638
 7984SOL     OW24850   1.584   1.087   1.088
 7984SOL    HW124851   1.586   1.180   1.050
 7984SOL    HW224852   1.498   1.073   1.137
 7985SOL     OW24853   3.128   1.053   3.886
 7985SOL    HW124854   3.055   1.120   3.897
 7985SOL    HW224855   3.151   1.043   3.789
 7986SOL     OW24856   3.191   1.602   6.846
 7986SOL    HW124857   3.130   1.542   6.899
 7986SOL    HW224858   3.138   1.645   6.773
 7987SOL     OW24859   1.472   2.727   6.192
 7987SOL    HW124860   1.483   2.783   6.110
 7987SOL    HW224861   1.498   2.633   6.172
 7988SOL     OW24862   0.902   2.399   3.863
 7988SOL    HW124863   0.938   2.465   3.930
 7988SOL    HW224864   0.887   2.311   3.908
 7989SOL     OW24865   3.552   2.940   5.519
 7989SOL    HW124866   3.593   2.952   5.428
 7989SOL    HW224867   3.505   3.023   5.546
 7990SOL     OW24868   0.127   2.993   3.910
 7990SOL    HW124869   0.046   3.053   3.920
 7990SOL    HW224870   0.099   2.898   3.921
 7991SOL     OW24871   5.768   6.783   3.630
 7991SOL    HW124872   5.730   6.718   3.564
 7991SOL    HW224873   5.863   6.803   3.605
 7992SOL     OW24874   1.867   6.447   1.587
 7992SOL    HW124875   1.916   6.534   1.589
 7992SOL    HW224876   1.771   6.463   1.566
 7993SOL     OW24877   0.299   6.831   6.316
 7993SOL    HW124878   0.306   6.915   6.262
 7993SOL    HW224879   0.261   6.853   6.406
 7994SOL     OW24880   4.540   6.383   3.411
 7994SOL    HW124881   4.481   6.422   3.340
 7994SOL    HW224882   4.611   6.328   3.367
 7995SOL     OW24883   4.744   5.397   3.572
 7995SOL    HW124884   4.767   5.381   3.476
 7995SOL    HW224885   4.688   5.479   3.581
 7996SOL     OW24886   3.525   0.168   4.588
 7996SOL    HW124887   3.459   0.190   4.516
 7996SOL    HW224888   3.596   0.238   4.591
 7997SOL     OW24889   0.454   1.472   1.652
 7997SOL    HW124890   0.465   1.551   1.591
 7997SOL    HW224891   0.470   1.388   1.600
 7998SOL     OW24892   3.360   5.738   1.569
 7998SOL    HW124893   3.282   5.676   1.566
 7998SOL    HW224894   3.334   5.822   1.616
 7999SOL     OW24895   0.401   0.060   5.952
 7999SOL    HW124896   0.350   0.052   6.038
 7999SOL    HW224897   0.389   6.999   5.899
 8000SOL     OW24898   5.333   0.373   6.770
 8000SOL    HW124899   5.235   0.395   6.779
 8000SOL    HW224900   5.383   0.416   6.845
 8001SOL     OW24901   3.802   6.086   0.917
 8001SOL    HW124902   3.890   6.099   0.870
 8001SOL    HW224903   3.818   6.085   1.016
 8002SOL     OW24904   0.874   2.399   6.057
 8002SOL    HW124905   0.945   2.380   6.124
 8002SOL    HW224906   0.909   2.462   5.988
 8003SOL     OW24907   3.225   5.308   2.980
 8003SOL    HW124908   3.234   5.348   3.070
 8003SOL    HW224909   3.145   5.346   2.933
 8004SOL     OW24910   1.932   3.386   3.681
 8004SOL    HW124911   2.026   3.409   3.704
 8004SOL    HW224912   1.920   3.388   3.582
 8005SOL     OW24913   3.433   0.435   1.734
 8005SOL    HW124914   3.439   0.462   1.638
 8005SOL    HW224915   3.351   0.379   1.747
 8006SOL     OW24916   1.821   0.330   6.663
 8006SOL    HW124917   1.899   0.321   6.724
 8006SOL    HW224918   1.777   0.419   6.677
 8007SOL     OW24919   6.394   0.790   4.322
 8007SOL    HW124920   6.336   0.787   4.404
 8007SOL    HW224921   6.430   0.883   4.310
 8008SOL     OW24922   4.556   5.521   5.908
 8008SOL    HW124923   4.475   5.524   5.850
 8008SOL    HW224924   4.602   5.610   5.907
 8009SOL     OW24925   5.612   1.057   3.170
 8009SOL    HW124926   5.610   1.087   3.266
 8009SOL    HW224927   5.580   1.131   3.111
 8010SOL     OW24928   0.841   1.067   6.805
 8010SOL    HW124929   0.858   1.016   6.889
 8010SOL    HW224930   0.790   1.010   6.741
 8011SOL     OW24931   3.244   2.208   0.790
 8011SOL    HW124932   3.320   2.189   0.728
 8011SOL    HW224933   3.211   2.301   0.775
 8012SOL     OW24934   1.539   3.987   1.561
 8012SOL    HW124935   1.589   3.930   1.495
 8012SOL    HW224936   1.604   4.031   1.622
 8013SOL     OW24937   0.972   5.233   3.659
 8013SOL    HW124938   1.044   5.195   3.601
 8013SOL    HW224939   0.888   5.180   3.647
 8014SOL     OW24940   1.255   6.425   5.305
 8014SOL    HW124941   1.184   6.364   5.271
 8014SOL    HW224942   1.293   6.477   5.229
 8015SOL     OW24943   2.388   0.979   0.351
 8015SOL    HW124944   2.468   1.015   0.399
 8015SOL    HW224945   2.307   1.032   0.376
 8016SOL     OW24946   5.480   0.103   5.894
 8016SOL    HW124947   5.564   0.048   5.898
 8016SOL    HW224948   5.500   0.195   5.930
 8017SOL     OW24949   5.899   7.022   0.840
 8017SOL    HW124950   5.973   6.969   0.800
 8017SOL    HW224951   5.903   7.016   0.940
 8018SOL     OW24952   3.167   1.909   5.359
 8018SOL    HW124953   3.184   1.945   5.267
 8018SOL    HW224954   3.071   1.883   5.368
 8019SOL     OW24955   2.181   4.550   6.386
 8019SOL    HW124956   2.172   4.482   6.313
 8019SOL    HW224957   2.245   4.621   6.357
 8020SOL     OW24958   5.822   0.254   0.826
 8020SOL    HW124959   5.873   0.169   0.831
 8020SOL    HW224960   5.764   0.263   0.908
 8021SOL     OW24961   1.339   2.529   1.071
 8021SOL    HW124962   1.393   2.612   1.066
 8021SOL    HW224963   1.350   2.476   0.987
 8022SOL     OW24964   5.357   6.398   2.863
 8022SOL    HW124965   5.283   6.428   2.803
 8022SOL    HW224966   5.329   6.409   2.959
 8023SOL     OW24967   5.786   5.508   2.971
 8023SOL    HW124968   5.741   5.467   2.891
 8023SOL    HW224969   5.725   5.501   3.050
 8024SOL     OW24970   2.984   5.215   6.960
 8024SOL    HW124971   2.913   5.235   0.004
 8024SOL    HW224972   2.942   5.198   6.871
 8025SOL     OW24973   2.357   6.494   6.983
 8025SOL    HW124974   2.361   6.571   6.919
 8025SOL    HW224975   2.447   6.450   6.987
 8026SOL     OW24976   0.818   4.446   6.644
 8026SOL    HW124977   0.918   4.452   6.654
 8026SOL    HW224978   0.786   4.362   6.688
 8027SOL     OW24979   4.809   0.901   5.517
 8027SOL    HW124980   4.813   0.930   5.421
 8027SOL    HW224981   4.853   0.970   5.575
 8028SOL     OW24982   3.014   5.263   4.918
 8028SOL    HW124983   2.949   5.230   4.986
 8028SOL    HW224984   2.974   5.256   4.827
 8029SOL     OW24985   4.956   3.246   1.515
 8029SOL    HW124986   5.012   3.167   1.490
 8029SOL    HW224987   4.911   3.229   1.602
 8030SOL     OW24988   4.191   4.657   0.907
 8030SOL    HW124989   4.216   4.737   0.962
 8030SOL    HW224990   4.146   4.687   0.823
 8031SOL     OW24991   5.748   6.886   2.550
 8031SOL    HW124992   5.772   6.865   2.456
 8031SOL    HW224993   5.831   6.910   2.601
 8032SOL     OW24994   6.597   5.206   0.555
 8032SOL    HW124995   6.644   5.190   0.469
 8032SOL    HW224996   6.568   5.119   0.594
 8033SOL     OW24997   4.933   2.013   5.683
 8033SOL    HW124998   5.013   2.063   5.649
 8033SOL    HW224999   4.962   1.923   5.717
 8034SOL     OW25000   5.657   6.704   4.756
 8034SOL    HW125001   5.723   6.779   4.768
 8034SOL    HW225002   5.574   6.725   4.807
 8035SOL     OW25003   5.057   1.656   4.300
 8035SOL    HW125004   5.029   1.751   4.288
 8035SOL    HW225005   5.074   1.615   4.210
 8036SOL     OW25006   0.721   4.253   2.939
 8036SOL    HW125007   0.720   4.242   2.840
 8036SOL    HW225008   0.635   4.221   2.977
 8037SOL     OW25009   1.545   2.991   1.184
 8037SOL    HW125010   1.485   3.006   1.263
 8037SOL    HW225011   1.629   3.044   1.196
 8038SOL     OW25012   3.742   0.073   2.220
 8038SOL    HW125013   3.752   0.077   2.120
 8038SOL    HW225014   3.649   0.098   2.245
 8039SOL     OW25015   0.651   1.851   4.458
 8039SOL    HW125016   0.736   1.842   4.509
 8039SOL    HW225017   0.640   1.945   4.427
 8040SOL     OW25018   1.770   6.062   0.060
 8040SOL    HW125019   1.755   6.099   0.152
 8040SOL    HW225020   1.864   6.029   0.053
 8041SOL     OW25021   3.002   1.709   1.903
 8041SOL    HW125022   3.026   1.680   1.996
 8041SOL    HW225023   2.997   1.809   1.899
 8042SOL     OW25024   2.922   3.558   3.749
 8042SOL    HW125025   2.870   3.572   3.833
 8042SOL    HW225026   2.938   3.646   3.705
 8043SOL     OW25027   4.262   6.825   2.442
 8043SOL    HW125028   4.335   6.820   2.510
 8043SOL    HW225029   4.174   6.833   2.488
 8044SOL     OW25030   3.939   2.776   1.180
 8044SOL    HW125031   3.993   2.824   1.110
 8044SOL    HW225032   3.973   2.801   1.270
 8045SOL     OW25033   5.139   1.262   2.094
 8045SOL    HW125034   5.149   1.333   2.024
 8045SOL    HW225035   5.125   1.305   2.183
 8046SOL     OW25036   0.366   5.206   0.667
 8046SOL    HW125037   0.415   5.163   0.743
 8046SOL    HW225038   0.281   5.156   0.649
 8047SOL     OW25039   3.973   5.548   4.150
 8047SOL    HW125040   4.035   5.549   4.071
 8047SOL    HW225041   4.012   5.492   4.223
 8048SOL     OW25042   5.094   1.001   5.788
 8048SOL    HW125043   5.149   1.060   5.847
 8048SOL    HW225044   5.060   0.923   5.841
 8049SOL     OW25045   0.628   0.107   6.937
 8049SOL    HW125046   0.532   0.094   6.912
 8049SOL    HW225047   0.686   0.085   6.858
 8050SOL     OW25048   1.720   3.858   3.060
 8050SOL    HW125049   1.695   3.946   3.101
 8050SOL    HW225050   1.798   3.870   2.999
 8051SOL     OW25051   4.511   5.750   3.083
 8051SOL    HW125052   4.547   5.841   3.102
 8051SOL    HW225053   4.520   5.730   2.985
 8052SOL     OW25054   4.598   1.668   1.758
 8052SOL    HW125055   4.536   1.745   1.746
 8052SOL    HW225056   4.545   1.584   1.770
 8053SOL     OW25057   2.913   3.679   3.010
 8053SOL    HW125058   2.872   3.768   3.033
 8053SOL    HW225059   2.991   3.693   2.949
 8054SOL     OW25060   4.947   0.241   4.885
 8054SOL    HW125061   5.017   0.252   4.814
 8054SOL    HW225062   4.989   0.201   4.967
 8055SOL     OW25063   6.852   0.269   5.381
 8055SOL    HW125064   6.921   0.225   5.324
 8055SOL    HW225065   6.793   0.199   5.422
 8056SOL     OW25066   3.475   1.968   4.193
 8056SOL    HW125067   3.500   1.944   4.286
 8056SOL    HW225068   3.549   2.020   4.150
 8057SOL     OW25069   3.076   1.465   3.271
 8057SOL    HW125070   3.149   1.442   3.207
 8057SOL    HW225071   3.007   1.520   3.224
 8058SOL     OW25072   4.369   0.648   1.843
 8058SOL    HW125073   4.305   0.642   1.767
 8058SOL    HW225074   4.335   0.715   1.909
 8059SOL     OW25075   3.813   1.614   4.620
 8059SOL    HW125076   3.800   1.516   4.634
 8059SOL    HW225077   3.796   1.663   4.705
 8060SOL     OW25078   6.317   2.222   3.789
 8060SOL    HW125079   6.244   2.286   3.815
 8060SOL    HW225080   6.404   2.271   3.786
 8061SOL     OW25081   0.503   1.188   2.917
 8061SOL    HW125082   0.561   1.270   2.916
 8061SOL    HW225083   0.420   1.207   2.969
 8062SOL     OW25084   3.575   5.388   4.341
 8062SOL    HW125085   3.628   5.305   4.321
 8062SOL    HW225086   3.634   5.468   4.328
 8063SOL     OW25087   0.875   2.074   1.547
 8063SOL    HW125088   0.798   2.050   1.606
 8063SOL    HW225089   0.928   2.147   1.588
 8064SOL     OW25090   0.083   4.186   2.069
 8064SOL    HW125091   0.138   4.131   2.006
 8064SOL    HW225092   7.013   4.150   2.073
 8065SOL     OW25093   2.798   5.717   3.845
 8065SOL    HW125094   2.871   5.786   3.848
 8065SOL    HW225095   2.709   5.763   3.849
 8066SOL     OW25096   6.965   2.345   5.721
 8066SOL    HW125097   6.928   2.287   5.793
 8066SOL    HW225098   6.932   2.313   5.632
 8067SOL     OW25099   4.660   2.804   1.753
 8067SOL    HW125100   4.672   2.869   1.828
 8067SOL    HW225101   4.702   2.716   1.777
 8068SOL     OW25102   6.725   4.387   0.914
 8068SOL    HW125103   6.721   4.450   0.836
 8068SOL    HW225104   6.734   4.439   0.998
 8069SOL     OW25105   1.955   6.321   1.258
 8069SOL    HW125106   2.032   6.297   1.198
 8069SOL    HW225107   1.978   6.298   1.353
 8070SOL     OW25108   3.356   3.203   6.930
 8070SOL    HW125109   3.413   3.274   6.970
 8070SOL    HW225110   3.299   3.161   7.001
 8071SOL     OW25111   2.584   6.611   5.051
 8071SOL    HW125112   2.498   6.580   5.093
 8071SOL    HW225113   2.655   6.543   5.067
 8072SOL     OW25114   3.005   0.708   0.106
 8072SOL    HW125115   2.972   0.795   0.066
 8072SOL    HW225116   2.987   0.708   0.204
 8073SOL     OW25117   3.597   5.866   4.864
 8073SOL    HW125118   3.656   5.798   4.821
 8073SOL    HW225119   3.514   5.821   4.898
 8074SOL     OW25120   4.057   2.285   0.867
 8074SOL    HW125121   4.052   2.312   0.963
 8074SOL    HW225122   4.148   2.305   0.831
 8075SOL     OW25123   0.295   0.787   1.153
 8075SOL    HW125124   0.222   0.855   1.140
 8075SOL    HW225125   0.380   0.821   1.113
 8076SOL     OW25126   5.976   1.891   5.425
 8076SOL    HW125127   5.895   1.865   5.373
 8076SOL    HW225128   5.987   1.991   5.422
 8077SOL     OW25129   2.802   5.644   1.510
 8077SOL    HW125130   2.849   5.671   1.425
 8077SOL    HW225131   2.729   5.580   1.488
 8078SOL     OW25132   6.623   1.513   7.018
 8078SOL    HW125133   6.535   1.466   0.003
 8078SOL    HW225134   6.697   1.446   7.018
 8079SOL     OW25135   4.654   1.150   3.186
 8079SOL    HW125136   4.711   1.098   3.123
 8079SOL    HW225137   4.624   1.235   3.141
 8080SOL     OW25138   0.477   2.758   0.471
 8080SOL    HW125139   0.492   2.776   0.569
 8080SOL    HW225140   0.514   2.669   0.447
 8081SOL     OW25141   5.051   6.428   4.527
 8081SOL    HW125142   5.123   6.363   4.504
 8081SOL    HW225143   5.076   6.477   4.611
 8082SOL     OW25144   5.169   6.348   1.769
 8082SOL    HW125145   5.127   6.424   1.819
 8082SOL    HW225146   5.265   6.370   1.750
 8083SOL     OW25147   4.861   3.910   2.574
 8083SOL    HW125148   4.955   3.903   2.543
 8083SOL    HW225149   4.844   3.843   2.647
 8084SOL     OW25150   5.175   0.102   0.469
 8084SOL    HW125151   5.095   0.044   0.453
 8084SOL    HW225152   5.148   0.198   0.463
 8085SOL     OW25153   6.332   6.078   2.018
 8085SOL    HW125154   6.401   6.081   1.945
 8085SOL    HW225155   6.339   6.160   2.074
 8086SOL     OW25156   4.855   1.012   3.455
 8086SOL    HW125157   4.947   0.999   3.490
 8086SOL    HW225158   4.836   1.110   3.446
 8087SOL     OW25159   2.303   1.363   0.603
 8087SOL    HW125160   2.364   1.353   0.681
 8087SOL    HW225161   2.248   1.445   0.614
 8088SOL     OW25162   5.269   2.768   1.616
 8088SOL    HW125163   5.278   2.866   1.634
 8088SOL    HW225164   5.208   2.727   1.684
 8089SOL     OW25165   5.200   2.031   0.760
 8089SOL    HW125166   5.163   2.022   0.667
 8089SOL    HW225167   5.219   2.127   0.778
 8090SOL     OW25168   4.848   1.772   0.091
 8090SOL    HW125169   4.932   1.737   0.132
 8090SOL    HW225170   4.828   1.722   0.007
 8091SOL     OW25171   2.311   3.852   5.660
 8091SOL    HW125172   2.373   3.901   5.599
 8091SOL    HW225173   2.236   3.912   5.688
 8092SOL     OW25174   6.448   2.688   5.243
 8092SOL    HW125175   6.371   2.643   5.199
 8092SOL    HW225176   6.483   2.629   5.316
 8093SOL     OW25177   4.110   5.162   2.752
 8093SOL    HW125178   4.081   5.124   2.840
 8093SOL    HW225179   4.129   5.087   2.689
 8094SOL     OW25180   1.568   3.792   5.253
 8094SOL    HW125181   1.653   3.833   5.222
 8094SOL    HW225182   1.491   3.849   5.226
 8095SOL     OW25183   6.752   4.438   5.542
 8095SOL    HW125184   6.715   4.506   5.604
 8095SOL    HW225185   6.791   4.483   5.462
 8096SOL     OW25186   2.835   6.316   3.341
 8096SOL    HW125187   2.858   6.236   3.285
 8096SOL    HW225188   2.919   6.357   3.377
 8097SOL     OW25189   4.231   6.699   3.640
 8097SOL    HW125190   4.216   6.673   3.735
 8097SOL    HW225191   4.190   6.630   3.580
 8098SOL     OW25192   1.568   0.078   3.556
 8098SOL    HW125193   1.647   0.127   3.520
 8098SOL    HW225194   1.520   0.135   3.622
 8099SOL     OW25195   4.318   0.365   4.165
 8099SOL    HW125196   4.233   0.312   4.167
 8099SOL    HW225197   4.300   0.457   4.201
 8100SOL     OW25198   5.911   0.210   0.560
 8100SOL    HW125199   5.954   0.251   0.640
 8100SOL    HW225200   5.827   0.163   0.587
 8101SOL     OW25201   2.056   0.453   3.639
 8101SOL    HW125202   2.066   0.354   3.644
 8101SOL    HW225203   2.039   0.481   3.545
 8102SOL     OW25204   0.525   4.896   4.266
 8102SOL    HW125205   0.623   4.879   4.271
 8102SOL    HW225206   0.477   4.829   4.323
 8103SOL     OW25207   4.246   0.145   1.361
 8103SOL    HW125208   4.194   0.072   1.406
 8103SOL    HW225209   4.238   0.229   1.413
 8104SOL     OW25210   3.216   0.378   5.886
 8104SOL    HW125211   3.228   0.389   5.787
 8104SOL    HW225212   3.189   0.466   5.926
 8105SOL     OW25213   0.819   2.269   3.367
 8105SOL    HW125214   0.760   2.323   3.307
 8105SOL    HW225215   0.800   2.292   3.462
 8106SOL     OW25216   1.935   6.182   2.865
 8106SOL    HW125217   2.032   6.196   2.843
 8106SOL    HW225218   1.879   6.227   2.796
 8107SOL     OW25219   0.267   5.391   4.523
 8107SOL    HW125220   0.343   5.377   4.586
 8107SOL    HW225221   0.302   5.404   4.430
 8108SOL     OW25222   6.203   3.186   5.330
 8108SOL    HW125223   6.146   3.192   5.412
 8108SOL    HW225224   6.144   3.183   5.249
 8109SOL     OW25225   1.859   4.005   4.234
 8109SOL    HW125226   1.863   3.993   4.135
 8109SOL    HW225227   1.908   3.930   4.279
 8110SOL     OW25228   3.175   6.396   0.673
 8110SOL    HW125229   3.086   6.428   0.706
 8110SOL    HW225230   3.206   6.319   0.729
 8111SOL     OW25231   4.427   0.588   4.704
 8111SOL    HW125232   4.516   0.613   4.665
 8111SOL    HW225233   4.415   0.489   4.699
 8112SOL     OW25234   2.471   2.516   4.789
 8112SOL    HW125235   2.407   2.443   4.766
 8112SOL    HW225236   2.480   2.579   4.711
 8113SOL     OW25237   3.006   3.400   1.014
 8113SOL    HW125238   3.002   3.308   1.054
 8113SOL    HW225239   2.945   3.404   0.935
 8114SOL     OW25240   2.182   3.751   1.928
 8114SOL    HW125241   2.196   3.655   1.952
 8114SOL    HW225242   2.087   3.777   1.947
 8115SOL     OW25243   3.352   0.313   0.267
 8115SOL    HW125244   3.339   0.302   0.168
 8115SOL    HW225245   3.304   0.395   0.298
 8116SOL     OW25246   4.511   5.903   5.695
 8116SOL    HW125247   4.577   5.928   5.625
 8116SOL    HW225248   4.422   5.884   5.653
 8117SOL     OW25249   1.972   0.950   4.077
 8117SOL    HW125250   2.051   0.982   4.025
 8117SOL    HW225251   1.890   0.999   4.046
 8118SOL     OW25252   5.799   4.028   5.950
 8118SOL    HW125253   5.738   3.990   6.020
 8118SOL    HW225254   5.860   4.095   5.992
 8119SOL     OW25255   6.033   6.158   5.575
 8119SOL    HW125256   6.023   6.183   5.479
 8119SOL    HW225257   5.989   6.227   5.632
 8120SOL     OW25258   2.352   4.886   7.003
 8120SOL    HW125259   2.308   4.852   0.063
 8120SOL    HW225260   2.393   4.809   6.953
 8121SOL     OW25261   0.541   4.623   1.780
 8121SOL    HW125262   0.560   4.553   1.849
 8121SOL    HW225263   0.581   4.594   1.692
 8122SOL     OW25264   1.726   5.804   2.208
 8122SOL    HW125265   1.690   5.836   2.120
 8122SOL    HW225266   1.752   5.708   2.199
 8123SOL     OW25267   6.566   0.633   6.995
 8123SOL    HW125268   6.550   0.619   6.897
 8123SOL    HW225269   6.664   0.626   7.014
 8124SOL     OW25270   6.877   6.260   1.034
 8124SOL    HW125271   6.878   6.277   0.935
 8124SOL    HW225272   6.808   6.191   1.056
 8125SOL     OW25273   1.177   0.737   4.201
 8125SOL    HW125274   1.121   0.704   4.277
 8125SOL    HW225275   1.255   0.676   4.188
 8126SOL     OW25276   5.457   4.539   2.613
 8126SOL    HW125277   5.441   4.465   2.678
 8126SOL    HW225278   5.547   4.579   2.629
 8127SOL     OW25279   2.930   6.405   6.617
 8127SOL    HW125280   3.020   6.372   6.591
 8127SOL    HW225281   2.926   6.505   6.608
 8128SOL     OW25282   2.656   2.478   1.565
 8128SOL    HW125283   2.742   2.469   1.515
 8128SOL    HW225284   2.668   2.442   1.658
 8129SOL     OW25285   4.378   0.867   6.115
 8129SOL    HW125286   4.316   0.915   6.177
 8129SOL    HW225287   4.360   0.894   6.021
 8130SOL     OW25288   0.199   4.031   6.867
 8130SOL    HW125289   0.172   4.004   6.775
 8130SOL    HW225290   0.154   4.117   6.892
 8131SOL     OW25291   3.311   1.526   0.581
 8131SOL    HW125292   3.399   1.570   0.562
 8131SOL    HW225293   3.239   1.595   0.584
 8132SOL     OW25294   5.393   6.296   5.918
 8132SOL    HW125295   5.415   6.384   5.877
 8132SOL    HW225296   5.459   6.228   5.885
 8133SOL     OW25297   2.830   4.715   1.526
 8133SOL    HW125298   2.909   4.763   1.564
 8133SOL    HW225299   2.769   4.687   1.600
 8134SOL     OW25300   0.949   2.712   5.191
 8134SOL    HW125301   0.932   2.722   5.289
 8134SOL    HW225302   0.863   2.705   5.142
 8135SOL     OW25303   2.524   5.986   0.961
 8135SOL    HW125304   2.458   6.060   0.964
 8135SOL    HW225305   2.518   5.938   0.874
 8136SOL     OW25306   4.724   4.739   3.205
 8136SOL    HW125307   4.746   4.729   3.303
 8136SOL    HW225308   4.633   4.779   3.196
 8137SOL     OW25309   3.339   1.383   4.891
 8137SOL    HW125310   3.319   1.292   4.927
 8137SOL    HW225311   3.298   1.452   4.951
 8138SOL     OW25312   5.899   2.306   0.129
 8138SOL    HW125313   5.906   2.223   0.074
 8138SOL    HW225314   5.864   2.381   0.073
 8139SOL     OW25315   1.452   1.358   3.992
 8139SOL    HW125316   1.499   1.270   3.983
 8139SOL    HW225317   1.421   1.369   4.086
 8140SOL     OW25318   4.577   0.009   1.108
 8140SOL    HW125319   4.657   6.993   1.153
 8140SOL    HW225320   4.553   6.976   1.029
 8141SOL     OW25321   4.647   6.389   5.131
 8141SOL    HW125322   4.678   6.296   5.152
 8141SOL    HW225323   4.560   6.406   5.178
 8142SOL     OW25324   1.647   5.165   0.115
 8142SOL    HW125325   1.716   5.120   0.173
 8142SOL    HW225326   1.693   5.209   0.038
 8143SOL     OW25327   6.398   4.770   0.119
 8143SOL    HW125328   6.368   4.678   0.094
 8143SOL    HW225329   6.318   4.830   0.129
 8144SOL     OW25330   0.372   6.328   5.867
 8144SOL    HW125331   0.317   6.393   5.814
 8144SOL    HW225332   0.311   6.276   5.928
 8145SOL     OW25333   5.872   5.214   0.882
 8145SOL    HW125334   5.859   5.211   0.783
 8145SOL    HW225335   5.904   5.124   0.914
 8146SOL     OW25336   5.280   0.730   5.565
 8146SOL    HW125337   5.195   0.732   5.618
 8146SOL    HW225338   5.309   0.635   5.553
 8147SOL     OW25339   6.449   1.466   2.395
 8147SOL    HW125340   6.497   1.384   2.365
 8147SOL    HW225341   6.510   1.545   2.385
 8148SOL     OW25342   5.317   4.751   0.575
 8148SOL    HW125343   5.272   4.785   0.493
 8148SOL    HW225344   5.412   4.728   0.554
 8149SOL     OW25345   2.197   6.457   3.326
 8149SOL    HW125346   2.158   6.434   3.237
 8149SOL    HW225347   2.175   6.552   3.349
 8150SOL     OW25348   2.102   3.274   1.038
 8150SOL    HW125349   2.028   3.289   0.973
 8150SOL    HW225350   2.072   3.210   1.109
 8151SOL     OW25351   5.980   4.947   2.971
 8151SOL    HW125352   5.947   4.987   3.057
 8151SOL    HW225353   6.026   4.861   2.991
 8152SOL     OW25354   6.180   2.728   3.204
 8152SOL    HW125355   6.143   2.665   3.273
 8152SOL    HW225356   6.150   2.821   3.224
 8153SOL     OW25357   1.270   1.779   3.867
 8153SOL    HW125358   1.347   1.736   3.914
 8153SOL    HW225359   1.236   1.718   3.796
 8154SOL     OW25360   3.657   6.334   2.423
 8154SOL    HW125361   3.569   6.300   2.458
 8154SOL    HW225362   3.645   6.427   2.389
 8155SOL     OW25363   1.639   3.463   1.851
 8155SOL    HW125364   1.676   3.374   1.878
 8155SOL    HW225365   1.572   3.494   1.918
 8156SOL     OW25366   5.008   6.294   0.575
 8156SOL    HW125367   5.015   6.198   0.549
 8156SOL    HW225368   5.052   6.308   0.664
 8157SOL     OW25369   6.718   4.822   6.176
 8157SOL    HW125370   6.645   4.888   6.156
 8157SOL    HW225371   6.709   4.792   6.271
 8158SOL     OW25372   4.986   4.375   0.401
 8158SOL    HW125373   5.044   4.406   0.475
 8158SOL    HW225374   4.984   4.275   0.399
 8159SOL     OW25375   2.211   5.628   2.916
 8159SOL    HW125376   2.308   5.604   2.914
 8159SOL    HW225377   2.201   5.727   2.921
 8160SOL     OW25378   5.494   0.749   4.031
 8160SOL    HW125379   5.405   0.731   3.990
 8160SOL    HW225380   5.552   0.799   3.966
 8161SOL     OW25381   6.506   2.960   6.558
 8161SOL    HW125382   6.520   3.040   6.616
 8161SOL    HW225383   6.522   2.877   6.611
 8162SOL     OW25384   5.888   6.663   6.788
 8162SOL    HW125385   5.887   6.618   6.877
 8162SOL    HW225386   5.974   6.713   6.776
 8163SOL     OW25387   2.578   4.401   5.277
 8163SOL    HW125388   2.629   4.325   5.318
 8163SOL    HW225389   2.639   4.479   5.266
 8164SOL     OW25390   5.665   2.494   0.235
 8164SOL    HW125391   5.689   2.452   0.323
 8164SOL    HW225392   5.575   2.538   0.243
 8165SOL     OW25393   0.120   3.907   5.880
 8165SOL    HW125394   0.157   3.815   5.875
 8165SOL    HW225395   0.020   3.903   5.884
 8166SOL     OW25396   1.273   0.434   3.832
 8166SOL    HW125397   1.180   0.451   3.865
 8166SOL    HW225398   1.332   0.512   3.854
 8167SOL     OW25399   6.899   0.384   3.854
 8167SOL    HW125400   6.870   0.316   3.921
 8167SOL    HW225401   6.821   0.411   3.798
 8168SOL     OW25402   2.887   1.732   2.555
 8168SOL    HW125403   2.879   1.813   2.612
 8168SOL    HW225404   2.922   1.758   2.465
 8169SOL     OW25405   4.724   2.314   0.450
 8169SOL    HW125406   4.627   2.337   0.435
 8169SOL    HW225407   4.749   2.339   0.543
 8170SOL     OW25408   1.344   5.635   1.982
 8170SOL    HW125409   1.324   5.595   2.072
 8170SOL    HW225410   1.437   5.672   1.983
 8171SOL     OW25411   1.843   1.895   6.116
 8171SOL    HW125412   1.849   1.891   6.215
 8171SOL    HW225413   1.763   1.843   6.085
 8172SOL     OW25414   0.433   1.959   2.557
 8172SOL    HW125415   0.343   1.922   2.534
 8172SOL    HW225416   0.422   2.052   2.592
 8173SOL     OW25417   5.575   2.020   1.914
 8173SOL    HW125418   5.535   2.007   2.004
 8173SOL    HW225419   5.504   2.011   1.844
 8174SOL     OW25420   6.413   1.143   2.956
 8174SOL    HW125421   6.477   1.217   2.935
 8174SOL    HW225422   6.379   1.103   2.871
 8175SOL     OW25423   0.321   3.043   5.967
 8175SOL    HW125424   0.388   3.060   6.040
 8175SOL    HW225425   0.239   3.002   6.007
 8176SOL     OW25426   1.985   4.890   0.959
 8176SOL    HW125427   2.076   4.856   0.984
 8176SOL    HW225428   1.992   4.946   0.876
 8177SOL     OW25429   3.399   6.496   3.378
 8177SOL    HW125430   3.481   6.544   3.408
 8177SOL    HW225431   3.390   6.410   3.429
 8178SOL     OW25432   2.996   6.691   0.568
 8178SOL    HW125433   2.972   6.667   0.662
 8178SOL    HW225434   2.951   6.629   0.504
 8179SOL     OW25435   4.618   1.895   4.597
 8179SOL    HW125436   4.670   1.942   4.668
 8179SOL    HW225437   4.669   1.816   4.565
 8180SOL     OW25438   6.393   1.013   5.354
 8180SOL    HW125439   6.382   0.947   5.280
 8180SOL    HW225440   6.303   1.036   5.391
 8181SOL     OW25441   1.425   1.664   0.403
 8181SOL    HW125442   1.335   1.695   0.433
 8181SOL    HW225443   1.482   1.744   0.383
 8182SOL     OW25444   3.490   3.524   5.830
 8182SOL    HW125445   3.497   3.598   5.898
 8182SOL    HW225446   3.396   3.518   5.798
 8183SOL     OW25447   6.542   2.421   4.830
 8183SOL    HW125448   6.457   2.473   4.835
 8183SOL    HW225449   6.521   2.327   4.805
 8184SOL     OW25450   6.552   0.817   0.603
 8184SOL    HW125451   6.617   0.779   0.537
 8184SOL    HW225452   6.574   0.912   0.621
 8185SOL     OW25453   1.741   0.034   0.247
 8185SOL    HW125454   1.695   0.069   0.166
 8185SOL    HW225455   1.826   7.011   0.221
 8186SOL     OW25456   3.641   4.563   5.373
 8186SOL    HW125457   3.654   4.660   5.353
 8186SOL    HW225458   3.552   4.534   5.339
 8187SOL     OW25459   1.940   1.764   5.211
 8187SOL    HW125460   1.886   1.693   5.255
 8187SOL    HW225461   1.878   1.830   5.166
 8188SOL     OW25462   5.848   2.975   2.996
 8188SOL    HW125463   5.901   3.033   3.058
 8188SOL    HW225464   5.909   2.933   2.929
 8189SOL     OW25465   5.184   4.791   3.006
 8189SOL    HW125466   5.192   4.694   2.982
 8189SOL    HW225467   5.222   4.846   2.932
 8190SOL     OW25468   4.798   4.711   4.431
 8190SOL    HW125469   4.707   4.746   4.410
 8190SOL    HW225470   4.815   4.627   4.379
 8191SOL     OW25471   3.630   5.823   1.706
 8191SOL    HW125472   3.698   5.751   1.695
 8191SOL    HW225473   3.541   5.789   1.678
 8192SOL     OW25474   3.656   5.254   0.501
 8192SOL    HW125475   3.583   5.320   0.487
 8192SOL    HW225476   3.730   5.296   0.554
 8193SOL     OW25477   6.654   5.959   5.536
 8193SOL    HW125478   6.647   5.911   5.623
 8193SOL    HW225479   6.741   6.009   5.533
 8194SOL     OW25480   4.996   2.179   0.900
 8194SOL    HW125481   4.990   2.176   0.801
 8194SOL    HW225482   4.987   2.274   0.931
 8195SOL     OW25483   1.471   0.281   2.738
 8195SOL    HW125484   1.462   0.183   2.751
 8195SOL    HW225485   1.401   0.328   2.791
 8196SOL     OW25486   4.055   5.808   5.857
 8196SOL    HW125487   4.104   5.823   5.943
 8196SOL    HW225488   3.957   5.817   5.872
 8197SOL     OW25489   4.522   1.765   0.372
 8197SOL    HW125490   4.525   1.717   0.284
 8197SOL    HW225491   4.463   1.715   0.435
 8198SOL     OW25492   3.099   6.868   2.696
 8198SOL    HW125493   3.059   6.811   2.768
 8198SOL    HW225494   3.047   6.953   2.688
 8199SOL     OW25495   6.284   3.247   6.332
 8199SOL    HW125496   6.243   3.277   6.418
 8199SOL    HW225497   6.247   3.301   6.257
 8200SOL     OW25498   5.733   4.771   2.017
 8200SOL    HW125499   5.634   4.760   2.028
 8200SOL    HW225500   5.758   4.761   1.921
 8201SOL     OW25501   5.750   0.693   4.126
 8201SOL    HW125502   5.655   0.703   4.096
 8201SOL    HW225503   5.762   0.740   4.214
 8202SOL     OW25504   0.347   5.794   3.735
 8202SOL    HW125505   0.445   5.774   3.744
 8202SOL    HW225506   0.297   5.751   3.810
 8203SOL     OW25507   3.981   2.795   0.188
 8203SOL    HW125508   4.003   2.892   0.196
 8203SOL    HW225509   4.029   2.756   0.110
 8204SOL     OW25510   3.216   4.834   6.679
 8204SOL    HW125511   3.292   4.891   6.711
 8204SOL    HW225512   3.181   4.870   6.593
 8205SOL     OW25513   0.571   4.592   0.683
 8205SOL    HW125514   0.541   4.684   0.656
 8205SOL    HW225515   0.523   4.565   0.766
 8206SOL     OW25516   5.138   2.599   6.336
 8206SOL    HW125517   5.052   2.558   6.365
 8206SOL    HW225518   5.136   2.698   6.353
 8207SOL     OW25519   3.406   4.157   4.032
 8207SOL    HW125520   3.447   4.210   4.107
 8207SOL    HW225521   3.475   4.099   3.990
 8208SOL     OW25522   2.050   0.196   1.408
 8208SOL    HW125523   1.991   0.176   1.330
 8208SOL    HW225524   2.008   0.267   1.464
 8209SOL     OW25525   0.552   1.061   5.126
 8209SOL    HW125526   0.554   1.026   5.220
 8209SOL    HW225527   0.503   0.996   5.067
 8210SOL     OW25528   1.903   1.354   1.459
 8210SOL    HW125529   1.831   1.353   1.389
 8210SOL    HW225530   1.977   1.294   1.432
 8211SOL     OW25531   3.760   4.146   1.721
 8211SOL    HW125532   3.807   4.232   1.744
 8211SOL    HW225533   3.686   4.166   1.657
 8212SOL     OW25534   2.342   1.494   2.172
 8212SOL    HW125535   2.369   1.409   2.217
 8212SOL    HW225536   2.358   1.571   2.233
 8213SOL     OW25537   6.691   4.402   2.547
 8213SOL    HW125538   6.731   4.323   2.501
 8213SOL    HW225539   6.745   4.483   2.526
 8214SOL     OW25540   6.702   5.328   5.008
 8214SOL    HW125541   6.712   5.292   5.101
 8214SOL    HW225542   6.620   5.385   5.004
 8215SOL     OW25543   2.388   5.750   5.818
 8215SOL    HW125544   2.289   5.746   5.828
 8215SOL    HW225545   2.412   5.763   5.722
 8216SOL     OW25546   5.281   5.250   3.739
 8216SOL    HW125547   5.339   5.323   3.702
 8216SOL    HW225548   5.246   5.278   3.828
 8217SOL     OW25549   2.100   3.705   0.843
 8217SOL    HW125550   2.049   3.790   0.860
 8217SOL    HW225551   2.116   3.658   0.930
 8218SOL     OW25552   0.034   0.108   5.260
 8218SOL    HW125553   0.098   0.066   5.196
 8218SOL    HW225554   7.013   0.036   5.315
 8219SOL     OW25555   3.956   3.255   0.190
 8219SOL    HW125556   3.922   3.349   0.183
 8219SOL    HW225557   3.953   3.225   0.286
 8220SOL     OW25558   3.153   4.073   3.998
 8220SOL    HW125559   3.088   4.108   4.065
 8220SOL    HW225560   3.246   4.100   4.025
 8221SOL     OW25561   5.794   6.159   3.450
 8221SOL    HW125562   5.795   6.203   3.360
 8221SOL    HW225563   5.836   6.068   3.442
 8222SOL     OW25564   5.122   1.434   1.224
 8222SOL    HW125565   5.083   1.455   1.134
 8222SOL    HW225566   5.115   1.336   1.242
 8223SOL     OW25567   0.853   4.459   5.219
 8223SOL    HW125568   0.887   4.510   5.140
 8223SOL    HW225569   0.885   4.503   5.303
 8224SOL     OW25570   5.411   2.266   2.470
 8224SOL    HW125571   5.390   2.362   2.454
 8224SOL    HW225572   5.409   2.217   2.383
 8225SOL     OW25573   3.386   1.776   1.393
 8225SOL    HW125574   3.298   1.744   1.357
 8225SOL    HW225575   3.377   1.871   1.423
 8226SOL     OW25576   3.880   6.177   6.954
 8226SOL    HW125577   3.930   6.254   6.993
 8226SOL    HW225578   3.783   6.201   6.946
 8227SOL     OW25579   0.255   1.285   2.290
 8227SOL    HW125580   0.310   1.213   2.332
 8227SOL    HW225581   0.276   1.373   2.334
 8228SOL     OW25582   6.656   1.531   6.079
 8228SOL    HW125583   6.726   1.461   6.094
 8228SOL    HW225584   6.672   1.575   5.991
 8229SOL     OW25585   4.502   3.765   1.209
 8229SOL    HW125586   4.508   3.665   1.219
 8229SOL    HW225587   4.578   3.808   1.258
 8230SOL     OW25588   3.675   0.153   4.902
 8230SOL    HW125589   3.598   0.089   4.904
 8230SOL    HW225590   3.640   0.247   4.899
 8231SOL     OW25591   2.893   3.178   1.142
 8231SOL    HW125592   2.900   3.145   1.236
 8231SOL    HW225593   2.811   3.233   1.132
 8232SOL     OW25594   4.594   2.314   1.772
 8232SOL    HW125595   4.610   2.231   1.718
 8232SOL    HW225596   4.581   2.290   1.868
 8233SOL     OW25597   1.062   6.556   6.337
 8233SOL    HW125598   1.001   6.496   6.389
 8233SOL    HW225599   1.012   6.596   6.260
 8234SOL     OW25600   2.919   3.423   6.736
 8234SOL    HW125601   2.951   3.458   6.648
 8234SOL    HW225602   2.968   3.338   6.757
 8235SOL     OW25603   0.580   2.909   6.715
 8235SOL    HW125604   0.663   2.964   6.716
 8235SOL    HW225605   0.583   2.844   6.639
 8236SOL     OW25606   0.754   4.486   0.867
 8236SOL    HW125607   0.717   4.472   0.959
 8236SOL    HW225608   0.682   4.516   0.805
 8237SOL     OW25609   4.735   6.102   5.617
 8237SOL    HW125610   4.756   6.161   5.539
 8237SOL    HW225611   4.637   6.105   5.637
 8238SOL     OW25612   0.618   5.245   6.259
 8238SOL    HW125613   0.661   5.183   6.193
 8238SOL    HW225614   0.525   5.267   6.227
 8239SOL     OW25615   0.345   1.048   5.635
 8239SOL    HW125616   0.330   1.037   5.733
 8239SOL    HW225617   0.294   0.977   5.585
 8240SOL     OW25618   3.647   3.898   2.607
 8240SOL    HW125619   3.657   3.901   2.707
 8240SOL    HW225620   3.553   3.872   2.585
 8241SOL     OW25621   3.407   6.136   5.594
 8241SOL    HW125622   3.476   6.100   5.531
 8241SOL    HW225623   3.412   6.085   5.680
 8242SOL     OW25624   0.145   4.022   6.143
 8242SOL    HW125625   0.154   4.000   6.045
 8242SOL    HW225626   0.164   4.119   6.157
 8243SOL     OW25627   0.626   3.148   0.523
 8243SOL    HW125628   0.579   3.120   0.439
 8243SOL    HW225629   0.658   3.068   0.573
 8244SOL     OW25630   0.348   0.963   3.747
 8244SOL    HW125631   0.303   0.896   3.806
 8244SOL    HW225632   0.380   1.040   3.802
 8245SOL     OW25633   4.013   1.968   2.093
 8245SOL    HW125634   3.949   1.989   2.019
 8245SOL    HW225635   4.005   1.872   2.117
 8246SOL     OW25636   0.776   3.806   6.121
 8246SOL    HW125637   0.746   3.777   6.030
 8246SOL    HW225638   0.842   3.881   6.111
 8247SOL     OW25639   2.139   0.585   2.883
 8247SOL    HW125640   2.104   0.554   2.794
 8247SOL    HW225641   2.062   0.607   2.943
 8248SOL     OW25642   6.717   4.885   4.403
 8248SOL    HW125643   6.693   4.941   4.482
 8248SOL    HW225644   6.809   4.849   4.415
 8249SOL     OW25645   1.804   2.234   5.946
 8249SOL    HW125646   1.892   2.279   5.933
 8249SOL    HW225647   1.792   2.164   5.875
 8250SOL     OW25648   2.985   2.761   1.619
 8250SOL    HW125649   2.906   2.781   1.676
 8250SOL    HW225650   3.059   2.826   1.639
 8251SOL     OW25651   4.925   3.255   4.664
 8251SOL    HW125652   4.890   3.231   4.754
 8251SOL    HW225653   4.973   3.343   4.669
 8252SOL     OW25654   3.310   1.699   5.830
 8252SOL    HW125655   3.332   1.608   5.796
 8252SOL    HW225656   3.366   1.767   5.783
 8253SOL     OW25657   4.210   5.326   6.017
 8253SOL    HW125658   4.168   5.408   5.978
 8253SOL    HW225659   4.284   5.353   6.078
 8254SOL     OW25660   4.349   4.657   5.401
 8254SOL    HW125661   4.438   4.677   5.442
 8254SOL    HW225662   4.345   4.560   5.376
 8255SOL     OW25663   1.743   6.401   5.129
 8255SOL    HW125664   1.827   6.455   5.123
 8255SOL    HW225665   1.694   6.404   5.042
 8256SOL     OW25666   0.121   6.245   1.664
 8256SOL    HW125667   0.190   6.226   1.734
 8256SOL    HW225668   0.165   6.247   1.574
 8257SOL     OW25669   5.118   3.983   2.536
 8257SOL    HW125670   5.212   3.951   2.527
 8257SOL    HW225671   5.110   4.041   2.617
 8258SOL     OW25672   5.131   3.066   1.420
 8258SOL    HW125673   5.193   3.034   1.348
 8258SOL    HW225674   5.175   3.055   1.509
 8259SOL     OW25675   3.685   1.868   4.876
 8259SOL    HW125676   3.754   1.806   4.915
 8259SOL    HW225677   3.723   1.913   4.796
 8260SOL     OW25678   2.224   6.735   1.034
 8260SOL    HW125679   2.274   6.649   1.044
 8260SOL    HW225680   2.180   6.758   1.120
 8261SOL     OW25681   5.524   6.737   2.671
 8261SOL    HW125682   5.605   6.780   2.632
 8261SOL    HW225683   5.470   6.694   2.598
 8262SOL     OW25684   1.050   3.045   0.158
 8262SOL    HW125685   0.998   2.964   0.184
 8262SOL    HW225686   1.147   3.021   0.151
 8263SOL     OW25687   0.341   2.499   6.227
 8263SOL    HW125688   0.367   2.586   6.269
 8263SOL    HW225689   0.339   2.428   6.297
 8264SOL     OW25690   2.172   6.210   1.150
 8264SOL    HW125691   2.202   6.239   1.059
 8264SOL    HW225692   2.175   6.110   1.156
 8265SOL     OW25693   6.982   0.782   1.545
 8265SOL    HW125694   6.954   0.877   1.530
 8265SOL    HW225695   0.010   0.750   1.465
 8266SOL     OW25696   2.244   1.056   4.873
 8266SOL    HW125697   2.328   1.005   4.854
 8266SOL    HW225698   2.263   1.154   4.869
 8267SOL     OW25699   1.819   3.751   1.190
 8267SOL    HW125700   1.904   3.804   1.201
 8267SOL    HW225701   1.759   3.768   1.269
 8268SOL     OW25702   2.574   6.682   5.937
 8268SOL    HW125703   2.649   6.648   5.881
 8268SOL    HW225704   2.584   6.646   6.030
 8269SOL     OW25705   4.140   1.624   2.319
 8269SOL    HW125706   4.216   1.666   2.368
 8269SOL    HW225707   4.132   1.528   2.347
 8270SOL     OW25708   2.903   6.483   4.530
 8270SOL    HW125709   2.824   6.464   4.589
 8270SOL    HW225710   2.875   6.543   4.455
 8271SOL     OW25711   0.426   7.022   2.923
 8271SOL    HW125712   0.450   6.946   2.983
 8271SOL    HW225713   0.331   0.026   2.940
 8272SOL     OW25714   6.202   1.385   2.781
 8272SOL    HW125715   6.128   1.446   2.752
 8272SOL    HW225716   6.238   1.415   2.869
 8273SOL     OW25717   2.449   1.360   0.845
 8273SOL    HW125718   2.463   1.459   0.849
 8273SOL    HW225719   2.534   1.315   0.815
 8274SOL     OW25720   4.072   5.387   4.392
 8274SOL    HW125721   4.079   5.360   4.489
 8274SOL    HW225722   4.151   5.353   4.343
 8275SOL     OW25723   5.249   0.741   4.472
 8275SOL    HW125724   5.263   0.657   4.525
 8275SOL    HW225725   5.246   0.719   4.375
 8276SOL     OW25726   0.534   2.072   5.145
 8276SOL    HW125727   0.604   2.066   5.216
 8276SOL    HW225728   0.560   2.143   5.079
 8277SOL     OW25729   1.218   6.268   5.862
 8277SOL    HW125730   1.281   6.247   5.937
 8277SOL    HW225731   1.126   6.280   5.898
 8278SOL     OW25732   3.408   1.436   6.806
 8278SOL    HW125733   3.430   1.365   6.873
 8278SOL    HW225734   3.354   1.507   6.849
 8279SOL     OW25735   0.715   6.912   4.496
 8279SOL    HW125736   0.814   6.929   4.495
 8279SOL    HW225737   0.684   6.899   4.590
 8280SOL     OW25738   2.760   2.758   0.741
 8280SOL    HW125739   2.780   2.661   0.756
 8280SOL    HW225740   2.816   2.813   0.801
 8281SOL     OW25741   2.265   4.368   1.656
 8281SOL    HW125742   2.298   4.459   1.630
 8281SOL    HW225743   2.166   4.365   1.649
 8282SOL     OW25744   4.592   3.945   6.992
 8282SOL    HW125745   4.654   3.981   0.039
 8282SOL    HW225746   4.608   3.991   6.905
 8283SOL     OW25747   1.516   4.899   4.984
 8283SOL    HW125748   1.480   4.820   5.034
 8283SOL    HW225749   1.440   4.952   4.947
 8284SOL     OW25750   0.954   3.657   1.898
 8284SOL    HW125751   1.046   3.642   1.935
 8284SOL    HW225752   0.886   3.631   1.967
 8285SOL     OW25753   3.846   4.052   4.480
 8285SOL    HW125754   3.845   4.077   4.577
 8285SOL    HW225755   3.771   4.100   4.433
 8286SOL     OW25756   5.166   1.851   4.681
 8286SOL    HW125757   5.228   1.893   4.746
 8286SOL    HW225758   5.092   1.915   4.659
 8287SOL     OW25759   1.212   4.902   4.469
 8287SOL    HW125760   1.150   4.881   4.545
 8287SOL    HW225761   1.300   4.857   4.483
 8288SOL     OW25762   2.641   2.388   2.219
 8288SOL    HW125763   2.650   2.359   2.315
 8288SOL    HW225764   2.730   2.378   2.173
 8289SOL     OW25765   0.789   6.442   6.250
 8289SOL    HW125766   0.784   6.342   6.257
 8289SOL    HW225767   0.743   6.483   6.328
 8290SOL     OW25768   5.348   1.552   1.104
 8290SOL    HW125769   5.331   1.584   1.011
 8290SOL    HW225770   5.279   1.483   1.128
 8291SOL     OW25771   4.920   4.923   5.160
 8291SOL    HW125772   4.915   4.877   5.071
 8291SOL    HW225773   5.007   4.971   5.167
 8292SOL     OW25774   3.067   6.171   6.307
 8292SOL    HW125775   3.123   6.141   6.229
 8292SOL    HW225776   2.970   6.157   6.286
 8293SOL     OW25777   1.995   5.585   0.892
 8293SOL    HW125778   2.032   5.532   0.968
 8293SOL    HW225779   1.899   5.605   0.909
 8294SOL     OW25780   5.588   4.172   5.293
 8294SOL    HW125781   5.607   4.215   5.381
 8294SOL    HW225782   5.562   4.077   5.306
 8295SOL     OW25783   5.133   4.286   2.058
 8295SOL    HW125784   5.120   4.261   2.154
 8295SOL    HW225785   5.162   4.205   2.006
 8296SOL     OW25786   2.654   4.955   6.966
 8296SOL    HW125787   2.641   4.883   6.898
 8296SOL    HW225788   2.689   4.915   0.027
 8297SOL     OW25789   0.287   3.148   2.804
 8297SOL    HW125790   0.256   3.074   2.745
 8297SOL    HW225791   0.386   3.145   2.813
 8298SOL     OW25792   6.111   1.694   1.141
 8298SOL    HW125793   6.204   1.680   1.106
 8298SOL    HW225794   6.056   1.612   1.123
 8299SOL     OW25795   0.899   2.302   2.518
 8299SOL    HW125796   0.900   2.221   2.577
 8299SOL    HW225797   0.965   2.289   2.444
 8300SOL     OW25798   6.970   5.586   3.742
 8300SOL    HW125799   6.900   5.518   3.765
 8300SOL    HW225800   6.968   5.660   3.809
 8301SOL     OW25801   3.854   0.741   0.545
 8301SOL    HW125802   3.918   0.673   0.509
 8301SOL    HW225803   3.865   0.748   0.644
 8302SOL     OW25804   5.216   6.471   6.354
 8302SOL    HW125805   5.310   6.473   6.318
 8302SOL    HW225806   5.170   6.557   6.330
 8303SOL     OW25807   5.805   0.364   3.850
 8303SOL    HW125808   5.711   0.363   3.886
 8303SOL    HW225809   5.859   0.432   3.899
 8304SOL     OW25810   5.837   3.458   1.420
 8304SOL    HW125811   5.754   3.497   1.379
 8304SOL    HW225812   5.899   3.532   1.446
 8305SOL     OW25813   4.650   4.509   3.829
 8305SOL    HW125814   4.565   4.560   3.816
 8305SOL    HW225815   4.722   4.549   3.772
 8306SOL     OW25816   5.729   1.375   4.241
 8306SOL    HW125817   5.797   1.442   4.270
 8306SOL    HW225818   5.665   1.359   4.316
 8307SOL     OW25819   3.613   5.164   1.596
 8307SOL    HW125820   3.650   5.072   1.613
 8307SOL    HW225821   3.630   5.190   1.501
 8308SOL     OW25822   2.374   5.617   0.480
 8308SOL    HW125823   2.355   5.590   0.574
 8308SOL    HW225824   2.472   5.608   0.461
 8309SOL     OW25825   6.654   6.115   2.849
 8309SOL    HW125826   6.728   6.048   2.853
 8309SOL    HW225827   6.688   6.204   2.879
 8310SOL     OW25828   0.632   5.485   1.135
 8310SOL    HW125829   0.581   5.565   1.167
 8310SOL    HW225830   0.681   5.509   1.051
 8311SOL     OW25831   6.644   2.175   5.717
 8311SOL    HW125832   6.720   2.209   5.773
 8311SOL    HW225833   6.559   2.183   5.767
 8312SOL     OW25834   4.469   0.504   6.982
 8312SOL    HW125835   4.425   0.422   7.019
 8312SOL    HW225836   4.401   0.563   6.940
 8313SOL     OW25837   5.674   0.027   6.742
 8313SOL    HW125838   5.723   0.051   6.826
 8313SOL    HW225839   5.576   0.044   6.754
 8314SOL     OW25840   5.698   6.607   6.580
 8314SOL    HW125841   5.761   6.584   6.654
 8314SOL    HW225842   5.714   6.701   6.550
 8315SOL     OW25843   3.967   3.481   2.349
 8315SOL    HW125844   3.902   3.413   2.382
 8315SOL    HW225845   3.924   3.536   2.277
 8316SOL     OW25846   1.420   2.993   2.411
 8316SOL    HW125847   1.338   3.002   2.468
 8316SOL    HW225848   1.483   2.928   2.453
 8317SOL     OW25849   1.574   2.730   2.868
 8317SOL    HW125850   1.545   2.642   2.906
 8317SOL    HW225851   1.663   2.755   2.906
 8318SOL     OW25852   4.079   2.266   5.882
 8318SOL    HW125853   3.988   2.293   5.912
 8318SOL    HW225854   4.105   2.320   5.802
 8319SOL     OW25855   0.718   1.397   1.356
 8319SOL    HW125856   0.655   1.325   1.328
 8319SOL    HW225857   0.697   1.481   1.307
 8320SOL     OW25858   2.987   3.777   2.611
 8320SOL    HW125859   3.008   3.701   2.672
 8320SOL    HW225860   2.999   3.864   2.659
 8321SOL     OW25861   6.261   6.966   6.358
 8321SOL    HW125862   6.300   0.035   6.355
 8321SOL    HW225863   6.302   6.914   6.433
 8322SOL     OW25864   6.650   0.712   0.833
 8322SOL    HW125865   6.570   0.682   0.885
 8322SOL    HW225866   6.628   0.711   0.736
 8323SOL     OW25867   4.842   5.013   1.854
 8323SOL    HW125868   4.882   4.945   1.793
 8323SOL    HW225869   4.814   4.970   1.939
 8324SOL     OW25870   6.071   6.784   1.592
 8324SOL    HW125871   6.131   6.864   1.582
 8324SOL    HW225872   5.995   6.808   1.653
 8325SOL     OW25873   1.552   3.409   5.189
 8325SOL    HW125874   1.543   3.483   5.122
 8325SOL    HW225875   1.630   3.352   5.166
 8326SOL     OW25876   4.729   3.828   5.803
 8326SOL    HW125877   4.639   3.868   5.788
 8326SOL    HW225878   4.784   3.888   5.860
 8327SOL     OW25879   6.910   0.349   5.891
 8327SOL    HW125880   6.955   0.370   5.804
 8327SOL    HW225881   6.891   0.251   5.896
 8328SOL     OW25882   2.626   5.850   6.906
 8328SOL    HW125883   2.542   5.821   6.952
 8328SOL    HW225884   2.625   5.817   6.811
 8329SOL     OW25885   0.965   3.050   6.053
 8329SOL    HW125886   0.969   2.989   5.974
 8329SOL    HW225887   0.929   3.001   6.132
 8330SOL     OW25888   2.587   1.028   6.254
 8330SOL    HW125889   2.523   0.952   6.259
 8330SOL    HW225890   2.677   0.998   6.285
 8331SOL     OW25891   3.196   0.961   1.072
 8331SOL    HW125892   3.225   1.056   1.067
 8331SOL    HW225893   3.246   0.915   1.145
 8332SOL     OW25894   5.527   5.590   2.549
 8332SOL    HW125895   5.470   5.619   2.472
 8332SOL    HW225896   5.587   5.665   2.575
 8333SOL     OW25897   0.274   5.637   6.166
 8333SOL    HW125898   0.196   5.592   6.124
 8333SOL    HW225899   0.358   5.609   6.120
 8334SOL     OW25900   3.800   1.647   4.323
 8334SOL    HW125901   3.775   1.739   4.294
 8334SOL    HW225902   3.786   1.638   4.422
 8335SOL     OW25903   5.196   0.813   0.660
 8335SOL    HW125904   5.276   0.766   0.622
 8335SOL    HW225905   5.157   0.873   0.590
 8336SOL     OW25906   0.914   4.952   3.402
 8336SOL    HW125907   0.946   5.041   3.371
 8336SOL    HW225908   0.916   4.887   3.326
 8337SOL     OW25909   1.383   6.102   3.599
 8337SOL    HW125910   1.460   6.152   3.558
 8337SOL    HW225911   1.417   6.019   3.642
 8338SOL     OW25912   4.084   5.072   1.636
 8338SOL    HW125913   4.094   4.984   1.683
 8338SOL    HW225914   4.148   5.076   1.560
 8339SOL     OW25915   6.699   0.744   1.671
 8339SOL    HW125916   6.795   0.756   1.696
 8339SOL    HW225917   6.690   0.744   1.572
 8340SOL     OW25918   5.234   3.679   1.028
 8340SOL    HW125919   5.303   3.728   0.974
 8340SOL    HW225920   5.278   3.603   1.076
 8341SOL     OW25921   3.105   6.975   6.770
 8341SOL    HW125922   3.186   0.006   6.791
 8341SOL    HW225923   3.085   6.912   6.845
 8342SOL     OW25924   5.047   6.879   6.903
 8342SOL    HW125925   4.968   6.829   6.936
 8342SOL    HW225926   5.124   6.816   6.892
 8343SOL     OW25927   0.646   5.746   3.777
 8343SOL    HW125928   0.692   5.727   3.863
 8343SOL    HW225929   0.675   5.679   3.708
 8344SOL     OW25930   5.826   6.002   4.545
 8344SOL    HW125931   5.858   5.921   4.496
 8344SOL    HW225932   5.742   6.036   4.503
 8345SOL     OW25933   3.840   2.043   2.354
 8345SOL    HW125934   3.746   2.055   2.321
 8345SOL    HW225935   3.902   2.039   2.276
 8346SOL     OW25936   3.920   4.829   0.100
 8346SOL    HW125937   3.885   4.879   0.180
 8346SOL    HW225938   3.990   4.764   0.129
 8347SOL     OW25939   3.380   6.573   4.306
 8347SOL    HW125940   3.313   6.647   4.321
 8347SOL    HW225941   3.333   6.492   4.273
 8348SOL     OW25942   2.278   1.356   1.362
 8348SOL    HW125943   2.228   1.425   1.310
 8348SOL    HW225944   2.344   1.401   1.421
 8349SOL     OW25945   6.569   6.894   2.096
 8349SOL    HW125946   6.612   6.971   2.050
 8349SOL    HW225947   6.518   6.839   2.030
 8350SOL     OW25948   3.193   6.271   5.698
 8350SOL    HW125949   3.260   6.232   5.635
 8350SOL    HW225950   3.111   6.214   5.699
 8351SOL     OW25951   5.832   5.159   4.601
 8351SOL    HW125952   5.801   5.194   4.513
 8351SOL    HW225953   5.868   5.234   4.657
 8352SOL     OW25954   6.928   0.100   3.608
 8352SOL    HW125955   6.885   0.112   3.519
 8352SOL    HW225956   7.019   0.141   3.606
 8353SOL     OW25957   6.830   3.896   1.204
 8353SOL    HW125958   6.859   3.959   1.132
 8353SOL    HW225959   6.789   3.947   1.279
 8354SOL     OW25960   3.806   0.062   4.691
 8354SOL    HW125961   3.774   0.090   4.781
 8354SOL    HW225962   3.745   0.100   4.621
 8355SOL     OW25963   3.000   0.712   5.869
 8355SOL    HW125964   2.902   0.728   5.870
 8355SOL    HW225965   3.034   0.714   5.775
 8356SOL     OW25966   0.601   6.946   1.487
 8356SOL    HW125967   0.614   6.848   1.467
 8356SOL    HW225968   0.591   6.958   1.586
 8357SOL     OW25969   3.836   0.067   5.119
 8357SOL    HW125970   3.928   0.043   5.089
 8357SOL    HW225971   3.787   0.111   5.045
 8358SOL     OW25972   1.782   4.518   4.920
 8358SOL    HW125973   1.738   4.600   4.883
 8358SOL    HW225974   1.868   4.543   4.964
 8359SOL     OW25975   3.438   0.771   5.133
 8359SOL    HW125976   3.509   0.828   5.093
 8359SOL    HW225977   3.353   0.823   5.140
 8360SOL     OW25978   3.724   6.615   0.791
 8360SOL    HW125979   3.705   6.657   0.880
 8360SOL    HW225980   3.639   6.608   0.739
 8361SOL     OW25981   3.411   0.010   1.611
 8361SOL    HW125982   3.503   0.041   1.635
 8361SOL    HW225983   3.417   6.949   1.558
 8362SOL     OW25984   4.027   1.532   1.057
 8362SOL    HW125985   4.029   1.487   0.967
 8362SOL    HW225986   3.969   1.479   1.119
 8363SOL     OW25987   5.238   3.097   6.924
 8363SOL    HW125988   5.198   3.075   6.835
 8363SOL    HW225989   5.323   3.148   6.910
 8364SOL     OW25990   0.767   2.379   3.596
 8364SOL    HW125991   0.688   2.439   3.594
 8364SOL    HW225992   0.782   2.346   3.690
 8365SOL     OW25993   1.838   3.232   2.418
 8365SOL    HW125994   1.740   3.233   2.395
 8365SOL    HW225995   1.889   3.195   2.340
 8366SOL     OW25996   1.995   5.359   1.336
 8366SOL    HW125997   1.902   5.345   1.369
 8366SOL    HW225998   2.032   5.273   1.303
 8367SOL     OW25999   4.508   5.840   5.055
 8367SOL    HW126000   4.447   5.765   5.078
 8367SOL    HW226001   4.475   5.924   5.097
 8368SOL     OW26002   1.141   0.131   6.780
 8368SOL    HW126003   1.171   0.225   6.766
 8368SOL    HW226004   1.171   0.074   6.703
 8369SOL     OW26005   0.892   0.085   6.261
 8369SOL    HW126006   0.930   0.003   6.217
 8369SOL    HW226007   0.916   0.166   6.207
 8370SOL     OW26008   3.190   1.178   5.852
 8370SOL    HW126009   3.161   1.260   5.902
 8370SOL    HW226010   3.186   1.099   5.912
 8371SOL     OW26011   2.184   4.404   0.648
 8371SOL    HW126012   2.161   4.454   0.565
 8371SOL    HW226013   2.182   4.306   0.629
 8372SOL     OW26014   1.310   4.981   1.779
 8372SOL    HW126015   1.270   4.967   1.869
 8372SOL    HW226016   1.401   5.021   1.788
 8373SOL     OW26017   1.988   0.357   4.233
 8373SOL    HW126018   2.021   0.418   4.305
 8373SOL    HW226019   1.917   0.404   4.180
 8374SOL     OW26020   0.126   0.839   4.982
 8374SOL    HW126021   0.154   0.743   4.978
 8374SOL    HW226022   0.174   0.884   5.057
 8375SOL     OW26023   3.611   6.513   5.240
 8375SOL    HW126024   3.552   6.438   5.271
 8375SOL    HW226025   3.693   6.475   5.197
 8376SOL     OW26026   0.395   1.234   4.419
 8376SOL    HW126027   0.306   1.204   4.384
 8376SOL    HW226028   0.465   1.170   4.388
 8377SOL     OW26029   5.060   5.835   0.756
 8377SOL    HW126030   5.109   5.873   0.834
 8377SOL    HW226031   5.078   5.737   0.749
 8378SOL     OW26032   4.445   4.873   3.072
 8378SOL    HW126033   4.395   4.950   3.114
 8378SOL    HW226034   4.386   4.792   3.071
 8379SOL     OW26035   5.510   3.099   1.298
 8379SOL    HW126036   5.425   3.079   1.250
 8379SOL    HW226037   5.490   3.123   1.393
 8380SOL     OW26038   0.632   0.577   2.502
 8380SOL    HW126039   0.716   0.589   2.450
 8380SOL    HW226040   0.553   0.594   2.442
 8381SOL     OW26041   0.143   2.725   4.414
 8381SOL    HW126042   0.218   2.792   4.409
 8381SOL    HW226043   0.062   2.763   4.369
 8382SOL     OW26044   2.562   6.970   2.720
 8382SOL    HW126045   2.540   0.044   2.713
 8382SOL    HW226046   2.573   6.931   2.629
 8383SOL     OW26047   2.873   6.716   5.662
 8383SOL    HW126048   2.967   6.729   5.632
 8383SOL    HW226049   2.820   6.798   5.643
 8384SOL     OW26050   6.431   0.999   1.536
 8384SOL    HW126051   6.489   0.966   1.462
 8384SOL    HW226052   6.465   1.087   1.570
 8385SOL     OW26053   5.673   2.356   0.491
 8385SOL    HW126054   5.760   2.353   0.540
 8385SOL    HW226055   5.640   2.450   0.487
 8386SOL     OW26056   1.719   5.775   1.762
 8386SOL    HW126057   1.767   5.861   1.781
 8386SOL    HW226058   1.621   5.794   1.751
 8387SOL     OW26059   1.223   1.262   1.632
 8387SOL    HW126060   1.179   1.279   1.721
 8387SOL    HW226061   1.152   1.252   1.562
 8388SOL     OW26062   2.250   6.966   0.617
 8388SOL    HW126063   2.298   0.011   0.672
 8388SOL    HW226064   2.217   7.009   0.533
 8389SOL     OW26065   0.128   3.561   3.486
 8389SOL    HW126066   0.208   3.502   3.478
 8389SOL    HW226067   0.157   3.656   3.497
 8390SOL     OW26068   4.429   0.567   0.241
 8390SOL    HW126069   4.478   0.653   0.257
 8390SOL    HW226070   4.454   0.531   0.151
 8391SOL     OW26071   6.205   5.242   1.191
 8391SOL    HW126072   6.165   5.183   1.261
 8391SOL    HW226073   6.282   5.196   1.147
 8392SOL     OW26074   6.968   4.634   5.222
 8392SOL    HW126075   0.024   4.583   5.257
 8392SOL    HW226076   6.889   4.572   5.217
 8393SOL     OW26077   0.569   6.985   2.675
 8393SOL    HW126078   0.516   6.971   2.758
 8393SOL    HW226079   0.521   6.946   2.597
 8394SOL     OW26080   6.702   2.749   2.176
 8394SOL    HW126081   6.670   2.656   2.193
 8394SOL    HW226082   6.801   2.747   2.160
 8395SOL     OW26083   1.880   6.900   4.959
 8395SOL    HW126084   1.881   6.878   4.861
 8395SOL    HW226085   1.955   6.853   5.004
 8396SOL     OW26086   4.461   5.286   2.619
 8396SOL    HW126087   4.471   5.381   2.647
 8396SOL    HW226088   4.407   5.282   2.535
 8397SOL     OW26089   2.666   0.445   2.765
 8397SOL    HW126090   2.595   0.511   2.790
 8397SOL    HW226091   2.670   0.372   2.833
 8398SOL     OW26092   4.294   1.947   6.651
 8398SOL    HW126093   4.304   1.989   6.741
 8398SOL    HW226094   4.220   1.880   6.654
 8399SOL     OW26095   5.926   5.878   6.740
 8399SOL    HW126096   5.979   5.918   6.665
 8399SOL    HW226097   5.989   5.851   6.814
 8400SOL     OW26098   1.402   1.697   4.462
 8400SOL    HW126099   1.328   1.745   4.509
 8400SOL    HW226100   1.484   1.699   4.519
 8401SOL     OW26101   2.754   1.344   6.658
 8401SOL    HW126102   2.775   1.405   6.583
 8401SOL    HW226103   2.736   1.397   6.741
 8402SOL     OW26104   3.718   2.034   5.543
 8402SOL    HW126105   3.760   2.030   5.634
 8402SOL    HW226106   3.667   1.949   5.526
 8403SOL     OW26107   1.140   2.067   4.337
 8403SOL    HW126108   1.053   2.090   4.379
 8403SOL    HW226109   1.213   2.075   4.404
 8404SOL     OW26110   4.473   6.703   5.475
 8404SOL    HW126111   4.395   6.686   5.535
 8404SOL    HW226112   4.442   6.753   5.394
 8405SOL     OW26113   2.229   0.398   5.662
 8405SOL    HW126114   2.196   0.308   5.632
 8405SOL    HW226115   2.200   0.467   5.596
 8406SOL     OW26116   5.685   0.233   0.305
 8406SOL    HW126117   5.777   0.201   0.326
 8406SOL    HW226118   5.618   0.169   0.343
 8407SOL     OW26119   3.293   6.434   3.937
 8407SOL    HW126120   3.217   6.407   3.879
 8407SOL    HW226121   3.359   6.359   3.943
 8408SOL     OW26122   5.667   3.849   2.270
 8408SOL    HW126123   5.709   3.873   2.358
 8408SOL    HW226124   5.567   3.852   2.279
 8409SOL     OW26125   5.758   2.658   3.517
 8409SOL    HW126126   5.781   2.585   3.582
 8409SOL    HW226127   5.668   2.695   3.539
 8410SOL     OW26128   5.668   0.846   1.851
 8410SOL    HW126129   5.683   0.942   1.872
 8410SOL    HW226130   5.570   0.829   1.841
 8411SOL     OW26131   0.393   4.622   6.748
 8411SOL    HW126132   0.324   4.692   6.768
 8411SOL    HW226133   0.472   4.664   6.704
 8412SOL     OW26134   2.975   1.510   1.129
 8412SOL    HW126135   2.959   1.563   1.046
 8412SOL    HW226136   2.890   1.506   1.182
 8413SOL     OW26137   4.317   5.465   6.779
 8413SOL    HW126138   4.329   5.400   6.703
 8413SOL    HW226139   4.333   5.418   6.865
 8414SOL     OW26140   3.471   4.928   3.593
 8414SOL    HW126141   3.449   4.916   3.496
 8414SOL    HW226142   3.391   4.906   3.649
 8415SOL     OW26143   6.899   6.038   4.322
 8415SOL    HW126144   6.888   6.102   4.246
 8415SOL    HW226145   6.970   5.971   4.300
 8416SOL     OW26146   5.388   3.615   2.074
 8416SOL    HW126147   5.386   3.674   2.155
 8416SOL    HW226148   5.477   3.572   2.066
 8417SOL     OW26149   1.437   4.070   5.965
 8417SOL    HW126150   1.503   4.145   5.968
 8417SOL    HW226151   1.441   4.025   5.876
 8418SOL     OW26152   5.962   4.961   0.925
 8418SOL    HW126153   6.060   4.975   0.906
 8418SOL    HW226154   5.948   4.865   0.951
 8419SOL     OW26155   5.339   0.400   2.358
 8419SOL    HW126156   5.318   0.438   2.448
 8419SOL    HW226157   5.342   0.300   2.364
 8420SOL     OW26158   4.579   6.841   0.324
 8420SOL    HW126159   4.516   6.910   0.359
 8420SOL    HW226160   4.546   6.806   0.236
 8421SOL     OW26161   1.143   5.443   6.855
 8421SOL    HW126162   1.235   5.416   6.883
 8421SOL    HW226163   1.145   5.538   6.822
 8422SOL     OW26164   3.781   1.268   0.947
 8422SOL    HW126165   3.795   1.331   1.024
 8422SOL    HW226166   3.697   1.216   0.962
 8423SOL     OW26167   3.206   4.275   5.880
 8423SOL    HW126168   3.286   4.249   5.934
 8423SOL    HW226169   3.125   4.229   5.917
 8424SOL     OW26170   2.016   2.429   2.354
 8424SOL    HW126171   2.016   2.369   2.434
 8424SOL    HW226172   2.057   2.517   2.378
 8425SOL     OW26173   4.874   5.107   6.542
 8425SOL    HW126174   4.887   5.115   6.443
 8425SOL    HW226175   4.960   5.126   6.589
 8426SOL     OW26176   3.505   3.558   3.575
 8426SOL    HW126177   3.548   3.579   3.487
 8426SOL    HW226178   3.502   3.459   3.588
 8427SOL     OW26179   4.162   3.617   4.665
 8427SOL    HW126180   4.157   3.646   4.570
 8427SOL    HW226181   4.127   3.689   4.724
 8428SOL     OW26182   0.538   5.126   1.394
 8428SOL    HW126183   0.602   5.136   1.318
 8428SOL    HW226184   0.579   5.163   1.477
 8429SOL     OW26185   1.862   5.771   4.444
 8429SOL    HW126186   1.898   5.800   4.532
 8429SOL    HW226187   1.927   5.708   4.400
 8430SOL     OW26188   3.509   5.167   3.526
 8430SOL    HW126189   3.487   5.074   3.557
 8430SOL    HW226190   3.498   5.172   3.427
 8431SOL     OW26191   3.043   4.288   0.328
 8431SOL    HW126192   3.122   4.343   0.358
 8431SOL    HW226193   2.987   4.265   0.408
 8432SOL     OW26194   5.159   6.894   6.200
 8432SOL    HW126195   5.240   6.845   6.168
 8432SOL    HW226196   5.077   6.842   6.176
 8433SOL     OW26197   5.112   2.869   0.625
 8433SOL    HW126198   5.198   2.916   0.604
 8433SOL    HW226199   5.045   2.890   0.555
 8434SOL     OW26200   2.679   6.475   4.727
 8434SOL    HW126201   2.636   6.544   4.786
 8434SOL    HW226202   2.704   6.395   4.781
 8435SOL     OW26203   6.190   1.135   1.793
 8435SOL    HW126204   6.192   1.197   1.714
 8435SOL    HW226205   6.139   1.053   1.769
 8436SOL     OW26206   3.494   0.122   3.269
 8436SOL    HW126207   3.553   0.046   3.294
 8436SOL    HW226208   3.431   0.092   3.197
 8437SOL     OW26209   2.240   0.462   4.375
 8437SOL    HW126210   2.250   0.365   4.396
 8437SOL    HW226211   2.157   0.498   4.419
 8438SOL     OW26212   2.432   4.482   2.355
 8438SOL    HW126213   2.475   4.530   2.431
 8438SOL    HW226214   2.502   4.443   2.296
 8439SOL     OW26215   6.529   4.925   2.349
 8439SOL    HW126216   6.487   4.997   2.295
 8439SOL    HW226217   6.618   4.901   2.310
 8440SOL     OW26218   1.214   2.532   3.653
 8440SOL    HW126219   1.121   2.538   3.617
 8440SOL    HW226220   1.259   2.451   3.616
 8441SOL     OW26221   5.915   6.891   0.498
 8441SOL    HW126222   5.906   6.872   0.400
 8441SOL    HW226223   6.007   6.923   0.518
 8442SOL     OW26224   2.986   1.496   4.847
 8442SOL    HW126225   3.039   1.548   4.781
 8442SOL    HW226226   3.005   1.399   4.837
 8443SOL     OW26227   2.465   5.068   3.812
 8443SOL    HW126228   2.409   5.049   3.892
 8443SOL    HW226229   2.523   5.148   3.828
 8444SOL     OW26230   2.585   6.079   3.812
 8444SOL    HW126231   2.631   6.107   3.728
 8444SOL    HW226232   2.503   6.135   3.825
 8445SOL     OW26233   3.970   6.482   0.787
 8445SOL    HW126234   3.977   6.406   0.723
 8445SOL    HW226235   3.875   6.516   0.788
 8446SOL     OW26236   4.422   4.424   6.732
 8446SOL    HW126237   4.378   4.415   6.821
 8446SOL    HW226238   4.425   4.520   6.705
 8447SOL     OW26239   4.960   2.140   2.049
 8447SOL    HW126240   4.977   2.232   2.014
 8447SOL    HW226241   4.863   2.117   2.037
 8448SOL     OW26242   4.432   5.760   4.061
 8448SOL    HW126243   4.465   5.853   4.046
 8448SOL    HW226244   4.371   5.734   3.987
 8449SOL     OW26245   6.741   2.600   3.688
 8449SOL    HW126246   6.752   2.635   3.595
 8449SOL    HW226247   6.680   2.659   3.740
 8450SOL     OW26248   0.426   6.379   0.854
 8450SOL    HW126249   0.496   6.450   0.847
 8450SOL    HW226250   0.465   6.291   0.827
 8451SOL     OW26251   3.789   1.979   0.558
 8451SOL    HW126252   3.801   2.073   0.527
 8451SOL    HW226253   3.695   1.965   0.588
 8452SOL     OW26254   5.782   1.698   2.933
 8452SOL    HW126255   5.715   1.645   2.881
 8452SOL    HW226256   5.737   1.776   2.977
 8453SOL     OW26257   0.171   4.324   6.476
 8453SOL    HW126258   0.264   4.342   6.509
 8453SOL    HW226259   0.112   4.401   6.500
 8454SOL     OW26260   6.723   6.674   1.372
 8454SOL    HW126261   6.791   6.602   1.388
 8454SOL    HW226262   6.659   6.678   1.449
 8455SOL     OW26263   6.519   2.796   1.848
 8455SOL    HW126264   6.433   2.766   1.807
 8455SOL    HW226265   6.553   2.725   1.909
 8456SOL     OW26266   3.906   6.200   2.966
 8456SOL    HW126267   3.916   6.261   3.045
 8456SOL    HW226268   3.911   6.105   2.995
 8457SOL     OW26269   6.828   6.708   4.854
 8457SOL    HW126270   6.898   6.638   4.842
 8457SOL    HW226271   6.739   6.672   4.829
 8458SOL     OW26272   3.190   1.365   6.624
 8458SOL    HW126273   3.143   1.440   6.579
 8458SOL    HW226274   3.262   1.401   6.684
 8459SOL     OW26275   3.021   5.816   2.168
 8459SOL    HW126276   3.081   5.834   2.246
 8459SOL    HW226277   3.019   5.717   2.150
 8460SOL     OW26278   4.399   3.814   5.537
 8460SOL    HW126279   4.321   3.753   5.521
 8460SOL    HW226280   4.481   3.776   5.496
 8461SOL     OW26281   6.983   4.203   3.954
 8461SOL    HW126282   6.985   4.118   4.007
 8461SOL    HW226283   7.011   4.280   4.013
 8462SOL     OW26284   2.983   2.714   6.395
 8462SOL    HW126285   2.944   2.756   6.477
 8462SOL    HW226286   2.966   2.615   6.397
 8463SOL     OW26287   6.633   0.063   1.192
 8463SOL    HW126288   6.554   0.002   1.197
 8463SOL    HW226289   6.604   0.157   1.211
 8464SOL     OW26290   5.413   3.380   4.784
 8464SOL    HW126291   5.512   3.393   4.777
 8464SOL    HW226292   5.367   3.469   4.783
 8465SOL     OW26293   0.762   2.516   1.019
 8465SOL    HW126294   0.781   2.429   1.064
 8465SOL    HW226295   0.848   2.565   1.002
 8466SOL     OW26296   0.215   0.004   4.379
 8466SOL    HW126297   0.218   0.101   4.402
 8466SOL    HW226298   0.303   6.985   4.402
 8467SOL     OW26299   4.464   6.941   0.644
 8467SOL    HW126300   4.375   6.960   0.685
 8467SOL    HW226301   4.517   6.881   0.704
 8468SOL     OW26302   3.830   2.311   6.753
 8468SOL    HW126303   3.892   2.318   6.831
 8468SOL    HW226304   3.738   2.336   6.781
 8469SOL     OW26305   3.179   1.564   6.419
 8469SOL    HW126306   3.113   1.498   6.384
 8469SOL    HW226307   3.171   1.650   6.368
 8470SOL     OW26308   1.770   3.920   0.274
 8470SOL    HW126309   1.831   3.844   0.252
 8470SOL    HW226310   1.789   3.996   0.213
 8471SOL     OW26311   3.511   1.075   3.456
 8471SOL    HW126312   3.587   1.085   3.391
 8471SOL    HW226313   3.503   0.978   3.482
 8472SOL     OW26314   6.749   1.053   5.390
 8472SOL    HW126315   6.749   0.954   5.377
 8472SOL    HW226316   6.781   1.074   5.483
 8473SOL     OW26317   6.452   6.116   6.826
 8473SOL    HW126318   6.400   6.036   6.797
 8473SOL    HW226319   6.512   6.145   6.751
 8474SOL     OW26320   3.612   3.139   1.622
 8474SOL    HW126321   3.671   3.219   1.633
 8474SOL    HW226322   3.670   3.059   1.605
 8475SOL     OW26323   6.867   2.358   3.751
 8475SOL    HW126324   6.872   2.318   3.843
 8475SOL    HW226325   6.858   2.457   3.758
 8476SOL     OW26326   6.671   2.008   1.054
 8476SOL    HW126327   6.624   2.031   0.968
 8476SOL    HW226328   6.769   2.001   1.037
 8477SOL     OW26329   5.165   6.677   0.837
 8477SOL    HW126330   5.136   6.705   0.745
 8477SOL    HW226331   5.243   6.732   0.865
 8478SOL     OW26332   0.709   6.701   5.910
 8478SOL    HW126333   0.792   6.686   5.964
 8478SOL    HW226334   0.644   6.628   5.927
 8479SOL     OW26335   0.649   2.571   1.374
 8479SOL    HW126336   0.739   2.549   1.337
 8479SOL    HW226337   0.581   2.508   1.335
 8480SOL     OW26338   4.636   1.615   0.146
 8480SOL    HW126339   4.557   1.631   0.086
 8480SOL    HW226340   4.704   1.687   0.130
 8481SOL     OW26341   3.944   2.203   3.832
 8481SOL    HW126342   3.952   2.159   3.922
 8481SOL    HW226343   3.980   2.296   3.837
 8482SOL     OW26344   4.482   6.020   1.802
 8482SOL    HW126345   4.464   5.965   1.721
 8482SOL    HW226346   4.580   6.040   1.807
 8483SOL     OW26347   4.876   6.397   2.619
 8483SOL    HW126348   4.855   6.431   2.528
 8483SOL    HW226349   4.928   6.466   2.670
 8484SOL     OW26350   0.742   6.099   3.553
 8484SOL    HW126351   0.786   6.010   3.547
 8484SOL    HW226352   0.669   6.104   3.484
 8485SOL     OW26353   4.147   3.024   6.906
 8485SOL    HW126354   4.085   2.972   6.848
 8485SOL    HW226355   4.204   2.961   6.959
 8486SOL     OW26356   3.384   0.828   2.535
 8486SOL    HW126357   3.438   0.910   2.513
 8486SOL    HW226358   3.407   0.755   2.470
 8487SOL     OW26359   5.749   1.645   6.039
 8487SOL    HW126360   5.840   1.654   6.079
 8487SOL    HW226361   5.746   1.565   5.980
 8488SOL     OW26362   5.589   5.875   0.104
 8488SOL    HW126363   5.505   5.846   0.149
 8488SOL    HW226364   5.610   5.969   0.130
 8489SOL     OW26365   6.012   1.920   1.029
 8489SOL    HW126366   6.046   1.829   1.051
 8489SOL    HW226367   6.017   1.979   1.110
 8490SOL     OW26368   4.456   6.404   4.068
 8490SOL    HW126369   4.550   6.369   4.070
 8490SOL    HW226370   4.455   6.491   4.019
 8491SOL     OW26371   2.378   6.198   0.498
 8491SOL    HW126372   2.391   6.174   0.402
 8491SOL    HW226373   2.307   6.140   0.537
 8492SOL     OW26374   4.803   4.035   6.361
 8492SOL    HW126375   4.804   3.951   6.308
 8492SOL    HW226376   4.709   4.058   6.386
 8493SOL     OW26377   2.577   2.667   6.558
 8493SOL    HW126378   2.577   2.592   6.623
 8493SOL    HW226379   2.483   2.698   6.542
 8494SOL     OW26380   3.413   5.450   0.920
 8494SOL    HW126381   3.378   5.360   0.892
 8494SOL    HW226382   3.506   5.461   0.886
 8495SOL     OW26383   6.423   5.120   2.183
 8495SOL    HW126384   6.379   5.190   2.239
 8495SOL    HW226385   6.490   5.163   2.122
 8496SOL     OW26386   0.840   1.959   2.179
 8496SOL    HW126387   0.752   1.994   2.212
 8496SOL    HW226388   0.854   1.988   2.085
 8497SOL     OW26389   6.304   0.917   3.762
 8497SOL    HW126390   6.321   1.011   3.733
 8497SOL    HW226391   6.230   0.915   3.829
 8498SOL     OW26392   6.818   6.450   2.466
 8498SOL    HW126393   6.766   6.533   2.486
 8498SOL    HW226394   6.765   6.369   2.495
 8499SOL     OW26395   2.381   4.760   6.616
 8499SOL    HW126396   2.418   4.729   6.529
 8499SOL    HW226397   2.401   4.857   6.629
 8500SOL     OW26398   1.565   6.350   5.339
 8500SOL    HW126399   1.599   6.372   5.430
 8500SOL    HW226400   1.629   6.383   5.270
 8501SOL     OW26401   0.435   1.695   6.842
 8501SOL    HW126402   0.503   1.647   6.787
 8501SOL    HW226403   0.385   1.760   6.784
 8502SOL     OW26404   1.181   4.129   1.176
 8502SOL    HW126405   1.246   4.101   1.106
 8502SOL    HW226406   1.204   4.087   1.263
 8503SOL     OW26407   1.900   0.095   4.227
 8503SOL    HW126408   1.950   0.023   4.178
 8503SOL    HW226409   1.948   0.182   4.216
 8504SOL     OW26410   2.640   5.040   2.417
 8504SOL    HW126411   2.601   4.949   2.406
 8504SOL    HW226412   2.649   5.083   2.327
 8505SOL     OW26413   4.797   3.015   3.866
 8505SOL    HW126414   4.854   2.944   3.907
 8505SOL    HW226415   4.806   3.100   3.918
 8506SOL     OW26416   6.949   0.966   6.335
 8506SOL    HW126417   6.868   0.952   6.279
 8506SOL    HW226418   6.945   1.057   6.377
 8507SOL     OW26419   3.670   1.100   5.411
 8507SOL    HW126420   3.638   1.141   5.326
 8507SOL    HW226421   3.759   1.056   5.395
 8508SOL     OW26422   6.459   1.728   5.734
 8508SOL    HW126423   6.422   1.666   5.665
 8508SOL    HW226424   6.385   1.779   5.776
 8509SOL     OW26425   4.073   1.447   3.709
 8509SOL    HW126426   4.018   1.417   3.631
 8509SOL    HW226427   4.065   1.379   3.782
 8510SOL     OW26428   5.928   4.189   3.362
 8510SOL    HW126429   5.882   4.131   3.429
 8510SOL    HW226430   5.861   4.223   3.296
 8511SOL     OW26431   6.376   3.857   2.001
 8511SOL    HW126432   6.282   3.888   1.988
 8511SOL    HW226433   6.392   3.838   2.098
 8512SOL     OW26434   3.555   2.251   1.670
 8512SOL    HW126435   3.603   2.249   1.758
 8512SOL    HW226436   3.459   2.273   1.685
 8513SOL     OW26437   5.485   4.263   1.226
 8513SOL    HW126438   5.478   4.288   1.322
 8513SOL    HW226439   5.581   4.257   1.199
 8514SOL     OW26440   2.456   2.597   3.834
 8514SOL    HW126441   2.398   2.633   3.761
 8514SOL    HW226442   2.548   2.582   3.798
 8515SOL     OW26443   5.741   1.633   0.842
 8515SOL    HW126444   5.704   1.540   0.839
 8515SOL    HW226445   5.727   1.672   0.933
 8516SOL     OW26446   6.366   2.573   1.344
 8516SOL    HW126447   6.308   2.611   1.272
 8516SOL    HW226448   6.392   2.646   1.408
 8517SOL     OW26449   1.531   3.044   6.172
 8517SOL    HW126450   1.607   3.003   6.121
 8517SOL    HW226451   1.445   3.020   6.129
 8518SOL     OW26452   4.705   4.127   0.149
 8518SOL    HW126453   4.793   4.099   0.187
 8518SOL    HW226454   4.716   4.215   0.103
 8519SOL     OW26455   1.126   3.957   1.667
 8519SOL    HW126456   1.168   4.048   1.668
 8519SOL    HW226457   1.174   3.898   1.732
 8520SOL     OW26458   3.968   2.834   6.803
 8520SOL    HW126459   3.970   2.766   6.877
 8520SOL    HW226460   4.011   2.796   6.721
 8521SOL     OW26461   1.938   5.001   6.110
 8521SOL    HW126462   2.017   5.012   6.049
 8521SOL    HW226463   1.854   4.997   6.055
 8522SOL     OW26464   1.607   6.525   1.497
 8522SOL    HW126465   1.610   6.624   1.487
 8522SOL    HW226466   1.525   6.489   1.454
 8523SOL     OW26467   2.029   6.462   6.841
 8523SOL    HW126468   2.019   6.561   6.842
 8523SOL    HW226469   1.940   6.419   6.825
 8524SOL     OW26470   0.581   2.712   4.798
 8524SOL    HW126471   0.616   2.669   4.714
 8524SOL    HW226472   0.563   2.809   4.781
 8525SOL     OW26473   5.980   3.811   3.076
 8525SOL    HW126474   6.065   3.766   3.102
 8525SOL    HW226475   5.929   3.751   3.014
 8526SOL     OW26476   3.710   5.711   6.758
 8526SOL    HW126477   3.643   5.747   6.694
 8526SOL    HW226478   3.700   5.611   6.765
 8527SOL     OW26479   2.812   0.846   6.268
 8527SOL    HW126480   2.797   0.767   6.208
 8527SOL    HW226481   2.908   0.850   6.294
 8528SOL     OW26482   3.774   2.008   6.184
 8528SOL    HW126483   3.852   2.047   6.232
 8528SOL    HW226484   3.795   1.915   6.156
 8529SOL     OW26485   0.872   0.441   1.318
 8529SOL    HW126486   0.796   0.471   1.260
 8529SOL    HW226487   0.885   0.507   1.392
 8530SOL     OW26488   3.459   4.142   4.685
 8530SOL    HW126489   3.367   4.176   4.666
 8530SOL    HW226490   3.503   4.115   4.599
 8531SOL     OW26491   6.789   5.305   2.539
 8531SOL    HW126492   6.744   5.320   2.452
 8531SOL    HW226493   6.879   5.264   2.523
 8532SOL     OW26494   3.621   4.968   4.611
 8532SOL    HW126495   3.669   4.974   4.524
 8532SOL    HW226496   3.527   4.940   4.595
 8533SOL     OW26497   1.633   0.290   6.424
 8533SOL    HW126498   1.571   0.331   6.492
 8533SOL    HW226499   1.726   0.290   6.460
 8534SOL     OW26500   6.398   2.965   3.998
 8534SOL    HW126501   6.451   2.887   4.032
 8534SOL    HW226502   6.329   2.933   3.934
 8535SOL     OW26503   6.465   1.394   4.670
 8535SOL    HW126504   6.505   1.486   4.673
 8535SOL    HW226505   6.409   1.379   4.751
 8536SOL     OW26506   6.259   2.419   5.026
 8536SOL    HW126507   6.283   2.486   4.956
 8536SOL    HW226508   6.273   2.327   4.990
 8537SOL     OW26509   5.247   1.569   2.177
 8537SOL    HW126510   5.274   1.539   2.268
 8537SOL    HW226511   5.179   1.642   2.184
 8538SOL     OW26512   0.750   0.821   6.701
 8538SOL    HW126513   0.796   0.792   6.786
 8538SOL    HW226514   0.786   0.768   6.624
 8539SOL     OW26515   5.784   1.132   2.122
 8539SOL    HW126516   5.853   1.184   2.173
 8539SOL    HW226517   5.762   1.048   2.172
 8540SOL     OW26518   4.714   0.595   6.981
 8540SOL    HW126519   4.764   0.591   0.045
 8540SOL    HW226520   4.622   0.558   6.994
 8541SOL     OW26521   2.684   1.807   4.879
 8541SOL    HW126522   2.619   1.873   4.917
 8541SOL    HW226523   2.777   1.837   4.899
 8542SOL     OW26524   3.805   4.708   6.635
 8542SOL    HW126525   3.762   4.763   6.706
 8542SOL    HW226526   3.806   4.612   6.662
 8543SOL     OW26527   3.238   0.431   0.672
 8543SOL    HW126528   3.179   0.510   0.692
 8543SOL    HW226529   3.222   0.401   0.577
 8544SOL     OW26530   5.445   3.113   4.877
 8544SOL    HW126531   5.349   3.089   4.860
 8544SOL    HW226532   5.462   3.206   4.845
 8545SOL     OW26533   4.679   6.579   4.735
 8545SOL    HW126534   4.588   6.616   4.719
 8545SOL    HW226535   4.746   6.633   4.684
 8546SOL     OW26536   0.225   0.644   3.186
 8546SOL    HW126537   0.225   0.671   3.282
 8546SOL    HW226538   0.132   0.620   3.158
 8547SOL     OW26539   1.325   6.564   6.233
 8547SOL    HW126540   1.233   6.564   6.272
 8547SOL    HW226541   1.392   6.545   6.306
 8548SOL     OW26542   6.144   3.438   5.430
 8548SOL    HW126543   6.175   3.532   5.415
 8548SOL    HW226544   6.211   3.375   5.392
 8549SOL     OW26545   1.110   2.936   4.566
 8549SOL    HW126546   1.150   3.021   4.531
 8549SOL    HW226547   1.031   2.958   4.624
 8550SOL     OW26548   1.623   4.646   6.754
 8550SOL    HW126549   1.524   4.657   6.762
 8550SOL    HW226550   1.667   4.735   6.752
 8551SOL     OW26551   2.820   3.608   6.516
 8551SOL    HW126552   2.869   3.596   6.429
 8551SOL    HW226553   2.885   3.620   6.590
 8552SOL     OW26554   2.902   0.554   3.716
 8552SOL    HW126555   2.938   0.507   3.797
 8552SOL    HW226556   2.973   0.557   3.645
 8553SOL     OW26557   4.187   3.728   6.685
 8553SOL    HW126558   4.200   3.662   6.611
 8553SOL    HW226559   4.275   3.748   6.727
 8554SOL     OW26560   0.909   4.576   0.645
 8554SOL    HW126561   0.976   4.645   0.673
 8554SOL    HW226562   0.860   4.542   0.725
 8555SOL     OW26563   2.327   1.388   3.681
 8555SOL    HW126564   2.323   1.464   3.616
 8555SOL    HW226565   2.254   1.398   3.748
 8556SOL     OW26566   1.265   5.785   5.070
 8556SOL    HW126567   1.358   5.750   5.061
 8556SOL    HW226568   1.257   5.871   5.020
 8557SOL     OW26569   5.746   6.567   3.030
 8557SOL    HW126570   5.694   6.541   2.949
 8557SOL    HW226571   5.710   6.653   3.067
 8558SOL     OW26572   2.189   4.541   3.090
 8558SOL    HW126573   2.221   4.569   3.180
 8558SOL    HW226574   2.245   4.465   3.057
 8559SOL     OW26575   1.551   0.321   2.477
 8559SOL    HW126576   1.491   0.257   2.430
 8559SOL    HW226577   1.517   0.336   2.571
 8560SOL     OW26578   6.652   6.307   1.642
 8560SOL    HW126579   6.658   6.237   1.571
 8560SOL    HW226580   6.743   6.325   1.679
 8561SOL     OW26581   3.592   0.577   2.118
 8561SOL    HW126582   3.647   0.502   2.154
 8561SOL    HW226583   3.606   0.659   2.173
 8562SOL     OW26584   4.124   6.361   5.902
 8562SOL    HW126585   4.137   6.448   5.950
 8562SOL    HW226586   4.191   6.295   5.935
 8563SOL     OW26587   1.667   4.219   0.294
 8563SOL    HW126588   1.654   4.278   0.373
 8563SOL    HW226589   1.581   4.173   0.272
 8564SOL     OW26590   3.625   0.914   4.951
 8564SOL    HW126591   3.701   0.863   4.910
 8564SOL    HW226592   3.622   1.006   4.913
 8565SOL     OW26593   3.780   5.304   1.063
 8565SOL    HW126594   3.694   5.253   1.060
 8565SOL    HW226595   3.848   5.252   1.115
 8566SOL     OW26596   1.942   0.252   1.123
 8566SOL    HW126597   1.905   0.341   1.147
 8566SOL    HW226598   1.935   0.238   1.025
 8567SOL     OW26599   0.713   2.685   3.022
 8567SOL    HW126600   0.669   2.747   3.086
 8567SOL    HW226601   0.794   2.729   2.983
 8568SOL     OW26602   5.717   1.298   0.065
 8568SOL    HW126603   5.815   1.282   0.053
 8568SOL    HW226604   5.666   1.224   0.022
 8569SOL     OW26605   5.044   1.038   6.181
 8569SOL    HW126606   4.995   1.002   6.260
 8569SOL    HW226607   5.135   0.996   6.176
 8570SOL     OW26608   1.650   1.739   5.038
 8570SOL    HW126609   1.620   1.680   5.113
 8570SOL    HW226610   1.590   1.726   4.959
 8571SOL     OW26611   1.607   5.894   5.135
 8571SOL    HW126612   1.573   5.804   5.159
 8571SOL    HW226613   1.669   5.887   5.056
 8572SOL     OW26614   3.469   4.850   6.431
 8572SOL    HW126615   3.562   4.839   6.395
 8572SOL    HW226616   3.474   4.864   6.530
 8573SOL     OW26617   3.303   6.029   0.011
 8573SOL    HW126618   3.209   6.052   7.009
 8573SOL    HW226619   3.303   5.973   0.093
 8574SOL     OW26620   0.006   5.915   5.785
 8574SOL    HW126621   7.017   5.925   5.883
 8574SOL    HW226622   0.091   5.959   5.757
 8575SOL     OW26623   2.206   3.003   4.483
 8575SOL    HW126624   2.186   2.912   4.520
 8575SOL    HW226625   2.137   3.068   4.514
 8576SOL     OW26626   1.455   5.280   6.289
 8576SOL    HW126627   1.398   5.198   6.287
 8576SOL    HW226628   1.545   5.259   6.251
 8577SOL     OW26629   0.665   6.600   5.044
 8577SOL    HW126630   0.628   6.647   5.124
 8577SOL    HW226631   0.669   6.502   5.061
 8578SOL     OW26632   5.310   6.662   3.839
 8578SOL    HW126633   5.265   6.599   3.902
 8578SOL    HW226634   5.403   6.681   3.870
 8579SOL     OW26635   2.244   6.832   2.221
 8579SOL    HW126636   2.258   6.931   2.232
 8579SOL    HW226637   2.204   6.814   2.132
 8580SOL     OW26638   1.989   5.913   2.078
 8580SOL    HW126639   1.991   5.875   2.171
 8580SOL    HW226640   2.033   6.003   2.079
 8581SOL     OW26641   3.259   4.111   1.919
 8581SOL    HW126642   3.345   4.117   1.971
 8581SOL    HW226643   3.187   4.074   1.977
 8582SOL     OW26644   4.394   4.626   3.779
 8582SOL    HW126645   4.305   4.660   3.747
 8582SOL    HW226646   4.402   4.641   3.877
 8583SOL     OW26647   5.508   0.564   4.374
 8583SOL    HW126648   5.471   0.509   4.299
 8583SOL    HW226649   5.486   0.660   4.360
 8584SOL     OW26650   0.995   4.919   5.608
 8584SOL    HW126651   0.918   4.860   5.634
 8584SOL    HW226652   1.053   4.936   5.688
 8585SOL     OW26653   0.590   6.121   5.506
 8585SOL    HW126654   0.642   6.194   5.551
 8585SOL    HW226655   0.588   6.040   5.565
 8586SOL     OW26656   3.044   6.646   2.330
 8586SOL    HW126657   3.108   6.678   2.400
 8586SOL    HW226658   3.083   6.567   2.284
 8587SOL     OW26659   1.237   6.747   3.892
 8587SOL    HW126660   1.156   6.694   3.915
 8587SOL    HW226661   1.237   6.765   3.793
 8588SOL     OW26662   2.610   1.110   0.155
 8588SOL    HW126663   2.630   1.050   0.078
 8588SOL    HW226664   2.695   1.150   0.189
 8589SOL     OW26665   4.672   3.111   5.511
 8589SOL    HW126666   4.637   3.185   5.568
 8589SOL    HW226667   4.734   3.054   5.566
 8590SOL     OW26668   6.832   6.208   4.104
 8590SOL    HW126669   6.767   6.259   4.160
 8590SOL    HW226670   6.888   6.272   4.051
 8591SOL     OW26671   0.547   3.927   0.065
 8591SOL    HW126672   0.640   3.896   0.087
 8591SOL    HW226673   0.546   4.026   0.056
 8592SOL     OW26674   6.717   2.932   6.285
 8592SOL    HW126675   6.736   2.843   6.327
 8592SOL    HW226676   6.619   2.950   6.290
 8593SOL     OW26677   2.428   1.139   1.273
 8593SOL    HW126678   2.387   1.227   1.294
 8593SOL    HW226679   2.366   1.086   1.216
 8594SOL     OW26680   4.448   2.351   5.486
 8594SOL    HW126681   4.477   2.260   5.515
 8594SOL    HW226682   4.482   2.419   5.551
 8595SOL     OW26683   0.605   2.043   3.214
 8595SOL    HW126684   0.650   2.026   3.302
 8595SOL    HW226685   0.527   2.105   3.228
 8596SOL     OW26686   0.960   5.500   3.238
 8596SOL    HW126687   1.053   5.513   3.205
 8596SOL    HW226688   0.901   5.570   3.199
 8597SOL     OW26689   3.989   1.807   0.922
 8597SOL    HW126690   4.017   1.730   0.980
 8597SOL    HW226691   3.889   1.807   0.914
 8598SOL     OW26692   6.264   0.386   1.030
 8598SOL    HW126693   6.221   0.296   1.035
 8598SOL    HW226694   6.223   0.446   1.098
 8599SOL     OW26695   1.215   2.772   4.832
 8599SOL    HW126696   1.149   2.708   4.793
 8599SOL    HW226697   1.258   2.825   4.759
 8600SOL     OW26698   5.146   4.941   4.877
 8600SOL    HW126699   5.188   4.907   4.793
 8600SOL    HW226700   5.204   4.917   4.955
 8601SOL     OW26701   1.168   1.563   4.257
 8601SOL    HW126702   1.244   1.610   4.212
 8601SOL    HW226703   1.160   1.470   4.221
 8602SOL     OW26704   2.933   5.067   1.845
 8602SOL    HW126705   2.948   4.982   1.895
 8602SOL    HW226706   2.966   5.144   1.901
 8603SOL     OW26707   4.561   6.031   0.801
 8603SOL    HW126708   4.661   6.023   0.795
 8603SOL    HW226709   4.536   6.128   0.809
 8604SOL     OW26710   0.293   3.185   5.352
 8604SOL    HW126711   0.298   3.254   5.425
 8604SOL    HW226712   0.198   3.162   5.335
 8605SOL     OW26713   2.834   6.357   3.665
 8605SOL    HW126714   2.785   6.402   3.739
 8605SOL    HW226715   2.844   6.260   3.685
 8606SOL     OW26716   1.596   3.538   6.571
 8606SOL    HW126717   1.680   3.485   6.578
 8606SOL    HW226718   1.608   3.612   6.505
 8607SOL     OW26719   3.648   6.301   0.622
 8607SOL    HW126720   3.648   6.376   0.556
 8607SOL    HW226721   3.627   6.337   0.713
 8608SOL     OW26722   3.881   4.799   2.529
 8608SOL    HW126723   3.863   4.708   2.490
 8608SOL    HW226724   3.861   4.869   2.461
 8609SOL     OW26725   4.901   0.732   2.640
 8609SOL    HW126726   4.826   0.765   2.583
 8609SOL    HW226727   4.949   0.658   2.593
 8610SOL     OW26728   2.019   2.416   3.049
 8610SOL    HW126729   2.021   2.405   3.148
 8610SOL    HW226730   1.968   2.340   3.008
 8611SOL     OW26731   2.920   1.124   5.126
 8611SOL    HW126732   2.839   1.066   5.140
 8611SOL    HW226733   2.906   1.212   5.171
 8612SOL     OW26734   3.026   3.293   1.373
 8612SOL    HW126735   3.103   3.247   1.332
 8612SOL    HW226736   2.941   3.259   1.333
 8613SOL     OW26737   2.180   1.955   1.368
 8613SOL    HW126738   2.122   1.955   1.288
 8613SOL    HW226739   2.126   1.976   1.449
 8614SOL     OW26740   0.854   2.578   2.458
 8614SOL    HW126741   0.890   2.486   2.477
 8614SOL    HW226742   0.769   2.592   2.509
 8615SOL     OW26743   4.678   1.479   5.210
 8615SOL    HW126744   4.692   1.408   5.279
 8615SOL    HW226745   4.691   1.440   5.119
 8616SOL     OW26746   3.126   4.459   1.625
 8616SOL    HW126747   3.079   4.448   1.712
 8616SOL    HW226748   3.061   4.488   1.555
 8617SOL     OW26749   6.545   1.241   6.656
 8617SOL    HW126750   6.469   1.244   6.590
 8617SOL    HW226751   6.530   1.166   6.720
 8618SOL     OW26752   5.867   6.077   0.628
 8618SOL    HW126753   5.822   6.105   0.712
 8618SOL    HW226754   5.966   6.080   0.640
 8619SOL     OW26755   4.041   4.775   2.240
 8619SOL    HW126756   3.988   4.761   2.156
 8619SOL    HW226757   4.132   4.809   2.216
 8620SOL     OW26758   1.580   0.763   3.774
 8620SOL    HW126759   1.596   0.678   3.722
 8620SOL    HW226760   1.483   0.772   3.793
 8621SOL     OW26761   5.546   1.935   3.133
 8621SOL    HW126762   5.597   2.013   3.096
 8621SOL    HW226763   5.536   1.946   3.232
 8622SOL     OW26764   5.300   3.374   0.854
 8622SOL    HW126765   5.272   3.466   0.829
 8622SOL    HW226766   5.399   3.366   0.850
 8623SOL     OW26767   1.213   3.778   4.388
 8623SOL    HW126768   1.233   3.842   4.313
 8623SOL    HW226769   1.193   3.829   4.471
 8624SOL     OW26770   1.472   3.625   5.042
 8624SOL    HW126771   1.497   3.676   5.124
 8624SOL    HW226772   1.538   3.644   4.970
 8625SOL     OW26773   4.643   0.868   6.097
 8625SOL    HW126774   4.543   0.867   6.098
 8625SOL    HW226775   4.676   0.783   6.057
 8626SOL     OW26776   3.692   3.097   6.006
 8626SOL    HW126777   3.641   3.027   5.956
 8626SOL    HW226778   3.715   3.172   5.943
 8627SOL     OW26779   1.000   1.781   3.536
 8627SOL    HW126780   1.082   1.785   3.593
 8627SOL    HW226781   0.930   1.727   3.582
 8628SOL     OW26782   6.527   6.761   0.868
 8628SOL    HW126783   6.539   6.778   0.770
 8628SOL    HW226784   6.437   6.722   0.884
 8629SOL     OW26785   1.194   5.390   5.065
 8629SOL    HW126786   1.113   5.429   5.108
 8629SOL    HW226787   1.203   5.425   4.972
 8630SOL     OW26788   5.295   4.206   3.732
 8630SOL    HW126789   5.364   4.214   3.803
 8630SOL    HW226790   5.260   4.112   3.729
 8631SOL     OW26791   0.830   4.905   6.104
 8631SOL    HW126792   0.842   4.830   6.040
 8631SOL    HW226793   0.785   4.982   6.058
 8632SOL     OW26794   3.630   5.938   4.317
 8632SOL    HW126795   3.672   5.866   4.261
 8632SOL    HW226796   3.675   6.025   4.298
 8633SOL     OW26797   5.413   1.665   5.799
 8633SOL    HW126798   5.331   1.698   5.752
 8633SOL    HW226799   5.432   1.725   5.878
 8634SOL     OW26800   5.238   3.612   0.730
 8634SOL    HW126801   5.281   3.669   0.799
 8634SOL    HW226802   5.154   3.656   0.698
 8635SOL     OW26803   5.398   4.183   6.476
 8635SOL    HW126804   5.314   4.207   6.426
 8635SOL    HW226805   5.466   4.148   6.412
 8636SOL     OW26806   5.223   5.540   0.728
 8636SOL    HW126807   5.208   5.442   0.725
 8636SOL    HW226808   5.234   5.575   0.635
 8637SOL     OW26809   1.640   1.208   0.518
 8637SOL    HW126810   1.575   1.269   0.471
 8637SOL    HW226811   1.725   1.204   0.465
 8638SOL     OW26812   2.762   3.047   5.609
 8638SOL    HW126813   2.690   3.107   5.646
 8638SOL    HW226814   2.843   3.053   5.668
 8639SOL     OW26815   5.498   2.820   1.061
 8639SOL    HW126816   5.589   2.828   1.020
 8639SOL    HW226817   5.429   2.822   0.989
 8640SOL     OW26818   4.424   3.779   6.817
 8640SOL    HW126819   4.429   3.863   6.871
 8640SOL    HW226820   4.502   3.775   6.754
 8641SOL     OW26821   5.003   4.664   3.831
 8641SOL    HW126822   4.955   4.705   3.909
 8641SOL    HW226823   5.020   4.567   3.849
 8642SOL     OW26824   1.742   6.072   3.096
 8642SOL    HW126825   1.838   6.096   3.110
 8642SOL    HW226826   1.732   6.019   3.012
 8643SOL     OW26827   2.917   0.121   6.683
 8643SOL    HW126828   2.991   0.060   6.710
 8643SOL    HW226829   2.856   0.136   6.761
 8644SOL     OW26830   5.256   2.522   5.265
 8644SOL    HW126831   5.310   2.605   5.274
 8644SOL    HW226832   5.312   2.450   5.223
 8645SOL     OW26833   4.607   4.467   1.582
 8645SOL    HW126834   4.605   4.454   1.483
 8645SOL    HW226835   4.682   4.413   1.621
 8646SOL     OW26836   6.649   1.909   1.481
 8646SOL    HW126837   6.641   1.965   1.398
 8646SOL    HW226838   6.596   1.950   1.555
 8647SOL     OW26839   2.926   5.592   6.433
 8647SOL    HW126840   2.924   5.691   6.444
 8647SOL    HW226841   3.018   5.557   6.455
 8648SOL     OW26842   6.510   0.564   3.299
 8648SOL    HW126843   6.472   0.471   3.293
 8648SOL    HW226844   6.470   0.611   3.378
 8649SOL     OW26845   5.334   5.028   6.074
 8649SOL    HW126846   5.254   5.065   6.121
 8649SOL    HW226847   5.351   5.080   5.990
 8650SOL     OW26848   2.387   5.151   4.936
 8650SOL    HW126849   2.329   5.191   4.866
 8650SOL    HW226850   2.391   5.052   4.924
 8651SOL     OW26851   3.909   0.174   6.928
 8651SOL    HW126852   3.937   0.082   6.958
 8651SOL    HW226853   3.837   0.208   6.987
 8652SOL     OW26854   1.810   4.730   4.219
 8652SOL    HW126855   1.768   4.788   4.149
 8652SOL    HW226856   1.889   4.682   4.179
 8653SOL     OW26857   5.694   0.142   6.256
 8653SOL    HW126858   5.704   0.217   6.191
 8653SOL    HW226859   5.674   0.179   6.347
 8654SOL     OW26860   1.010   4.944   1.488
 8654SOL    HW126861   1.090   4.884   1.484
 8654SOL    HW226862   1.027   5.026   1.432
 8655SOL     OW26863   7.012   1.509   3.873
 8655SOL    HW126864   6.938   1.454   3.833
 8655SOL    HW226865   7.003   1.508   3.973
 8656SOL     OW26866   6.691   0.523   1.348
 8656SOL    HW126867   6.758   0.458   1.383
 8656SOL    HW226868   6.735   0.612   1.333
 8657SOL     OW26869   5.685   4.452   0.470
 8657SOL    HW126870   5.723   4.541   0.496
 8657SOL    HW226871   5.683   4.392   0.549
 8658SOL     OW26872   5.720   6.746   0.178
 8658SOL    HW126873   5.660   6.672   0.209
 8658SOL    HW226874   5.723   6.746   0.078
 8659SOL     OW26875   4.384   1.960   2.496
 8659SOL    HW126876   4.290   1.962   2.530
 8659SOL    HW226877   4.400   1.877   2.443
 8660SOL     OW26878   6.396   4.172   1.979
 8660SOL    HW126879   6.457   4.095   1.959
 8660SOL    HW226880   6.302   4.139   1.980
 8661SOL     OW26881   6.288   3.855   1.111
 8661SOL    HW126882   6.381   3.834   1.141
 8661SOL    HW226883   6.257   3.786   1.046
 8662SOL     OW26884   4.525   5.359   1.418
 8662SOL    HW126885   4.440   5.313   1.445
 8662SOL    HW226886   4.572   5.392   1.500
 8663SOL     OW26887   3.434   6.148   1.536
 8663SOL    HW126888   3.373   6.224   1.556
 8663SOL    HW226889   3.417   6.075   1.602
 8664SOL     OW26890   1.561   6.044   0.778
 8664SOL    HW126891   1.558   6.144   0.786
 8664SOL    HW226892   1.657   6.014   0.776
 8665SOL     OW26893   5.445   6.266   4.786
 8665SOL    HW126894   5.529   6.214   4.793
 8665SOL    HW226895   5.367   6.204   4.779
 8666SOL     OW26896   5.175   1.409   3.806
 8666SOL    HW126897   5.257   1.376   3.760
 8666SOL    HW226898   5.094   1.369   3.763
 8667SOL     OW26899   4.347   2.390   3.010
 8667SOL    HW126900   4.315   2.436   2.927
 8667SOL    HW226901   4.307   2.298   3.014
 8668SOL     OW26902   4.865   3.382   3.267
 8668SOL    HW126903   4.874   3.307   3.202
 8668SOL    HW226904   4.940   3.378   3.334
 8669SOL     OW26905   1.696   6.692   6.374
 8669SOL    HW126906   1.720   6.784   6.345
 8669SOL    HW226907   1.779   6.643   6.402
 8670SOL     OW26908   3.837   4.349   5.324
 8670SOL    HW126909   3.749   4.395   5.339
 8670SOL    HW226910   3.904   4.383   5.389
 8671SOL     OW26911   5.293   1.453   2.427
 8671SOL    HW126912   5.325   1.526   2.487
 8671SOL    HW226913   5.351   1.373   2.436
 8672SOL     OW26914   1.512   5.096   4.532
 8672SOL    HW126915   1.498   4.998   4.518
 8672SOL    HW226916   1.577   5.131   4.465
 8673SOL     OW26917   6.338   2.949   0.012
 8673SOL    HW126918   6.428   2.944   6.992
 8673SOL    HW226919   6.271   2.982   6.968
 8674SOL     OW26920   5.303   5.887   3.280
 8674SOL    HW126921   5.355   5.944   3.343
 8674SOL    HW226922   5.322   5.915   3.186
 8675SOL     OW26923   3.077   2.169   4.061
 8675SOL    HW126924   2.988   2.210   4.042
 8675SOL    HW226925   3.093   2.167   4.160
 8676SOL     OW26926   4.682   0.081   2.189
 8676SOL    HW126927   4.685   0.178   2.169
 8676SOL    HW226928   4.714   0.065   2.282
 8677SOL     OW26929   2.080   5.678   5.862
 8677SOL    HW126930   2.009   5.745   5.886
 8677SOL    HW226931   2.042   5.586   5.867
 8678SOL     OW26932   6.954   0.495   2.062
 8678SOL    HW126933   0.021   0.483   2.020
 8678SOL    HW226934   6.888   0.436   2.016
 8679SOL     OW26935   6.880   1.833   3.330
 8679SOL    HW126936   6.968   1.879   3.323
 8679SOL    HW226937   6.808   1.900   3.348
 8680SOL     OW26938   0.832   3.708   0.563
 8680SOL    HW126939   0.862   3.803   0.574
 8680SOL    HW226940   0.911   3.652   0.539
 8681SOL     OW26941   5.068   5.094   0.522
 8681SOL    HW126942   5.022   5.007   0.543
 8681SOL    HW226943   5.140   5.078   0.455
 8682SOL     OW26944   5.104   6.778   2.218
 8682SOL    HW126945   5.085   6.741   2.126
 8682SOL    HW226946   5.060   6.867   2.227
 8683SOL     OW26947   1.802   2.026   3.978
 8683SOL    HW126948   1.829   2.118   4.007
 8683SOL    HW226949   1.877   1.963   3.996
 8684SOL     OW26950   6.603   2.912   5.216
 8684SOL    HW126951   6.552   2.997   5.208
 8684SOL    HW226952   6.538   2.836   5.228
 8685SOL     OW26953   0.521   1.909   6.382
 8685SOL    HW126954   0.562   1.904   6.473
 8685SOL    HW226955   0.479   1.999   6.370
 8686SOL     OW26956   7.015   1.587   2.479
 8686SOL    HW126957   0.077   1.568   2.528
 8686SOL    HW226958   6.968   1.664   2.521
 8687SOL     OW26959   4.948   4.631   1.447
 8687SOL    HW126960   4.955   4.540   1.487
 8687SOL    HW226961   5.031   4.683   1.467
 8688SOL     OW26962   2.288   5.587   6.931
 8688SOL    HW126963   2.310   5.521   7.002
 8688SOL    HW226964   2.210   5.553   6.877
 8689SOL     OW26965   3.835   3.889   1.521
 8689SOL    HW126966   3.749   3.848   1.553
 8689SOL    HW226967   3.880   3.825   1.459
 8690SOL     OW26968   1.494   3.937   3.327
 8690SOL    HW126969   1.493   3.848   3.374
 8690SOL    HW226970   1.444   3.931   3.241
 8691SOL     OW26971   2.772   1.532   5.778
 8691SOL    HW126972   2.752   1.550   5.682
 8691SOL    HW226973   2.716   1.456   5.810
 8692SOL     OW26974   2.536   1.145   5.157
 8692SOL    HW126975   2.542   1.213   5.229
 8692SOL    HW226976   2.578   1.060   5.188
 8693SOL     OW26977   6.043   0.637   0.208
 8693SOL    HW126978   6.134   0.641   0.166
 8693SOL    HW226979   6.051   0.653   0.306
 8694SOL     OW26980   4.640   1.163   5.143
 8694SOL    HW126981   4.623   1.214   5.058
 8694SOL    HW226982   4.553   1.143   5.188
 8695SOL     OW26983   4.106   3.138   6.188
 8695SOL    HW126984   4.127   3.211   6.253
 8695SOL    HW226985   4.014   3.102   6.206
 8696SOL     OW26986   2.104   4.935   6.665
 8696SOL    HW126987   2.196   4.914   6.696
 8696SOL    HW226988   2.076   4.870   6.595
 8697SOL     OW26989   0.079   2.532   6.302
 8697SOL    HW126990   0.163   2.512   6.253
 8697SOL    HW226991   0.096   2.603   6.370
 8698SOL     OW26992   5.120   6.402   5.377
 8698SOL    HW126993   5.094   6.305   5.382
 8698SOL    HW226994   5.196   6.413   5.313
 8699SOL     OW26995   1.717   2.525   5.280
 8699SOL    HW126996   1.756   2.509   5.371
 8699SOL    HW226997   1.640   2.463   5.265
 8700SOL     OW26998   0.961   1.218   3.964
 8700SOL    HW126999   0.987   1.244   4.058
 8700SOL    HW227000   1.042   1.180   3.918
 8701SOL     OW27001   0.945   0.963   0.665
 8701SOL    HW127002   0.895   1.049   0.671
 8701SOL    HW227003   1.024   0.974   0.605
 8702SOL     OW27004   5.607   5.248   2.051
 8702SOL    HW127005   5.655   5.171   2.093
 8702SOL    HW227006   5.652   5.273   1.966
 8703SOL     OW27007   3.130   4.971   6.459
 8703SOL    HW127008   3.135   4.974   6.359
 8703SOL    HW227009   3.121   5.064   6.495
 8704SOL     OW27010   0.231   3.799   3.542
 8704SOL    HW127011   0.151   3.858   3.544
 8704SOL    HW227012   0.288   3.823   3.463
 8705SOL     OW27013   5.638   1.367   6.211
 8705SOL    HW127014   5.709   1.336   6.274
 8705SOL    HW227015   5.627   1.466   6.220
 8706SOL     OW27016   4.658   1.988   0.022
 8706SOL    HW127017   4.624   2.003   0.114
 8706SOL    HW227018   4.742   1.934   0.026
 8707SOL     OW27019   6.962   1.210   6.523
 8707SOL    HW127020   6.913   1.196   6.609
 8707SOL    HW227021   6.926   1.291   6.477
 8708SOL     OW27022   4.396   1.780   2.690
 8708SOL    HW127023   4.421   1.860   2.635
 8708SOL    HW227024   4.366   1.706   2.630
 8709SOL     OW27025   6.741   6.784   0.059
 8709SOL    HW127026   6.838   6.787   0.033
 8709SOL    HW227027   6.732   6.796   0.157
 8710SOL     OW27028   1.921   3.354   3.944
 8710SOL    HW127029   1.917   3.385   3.849
 8710SOL    HW227030   1.980   3.274   3.950
 8711SOL     OW27031   2.023   0.004   3.084
 8711SOL    HW127032   2.062   0.093   3.060
 8711SOL    HW227033   1.941   7.010   3.028
 8712SOL     OW27034   3.978   2.112   4.782
 8712SOL    HW127035   3.914   2.046   4.743
 8712SOL    HW227036   3.940   2.149   4.867
 8713SOL     OW27037   6.488   3.221   3.948
 8713SOL    HW127038   6.586   3.232   3.962
 8713SOL    HW227039   6.458   3.134   3.987
 8714SOL     OW27040   0.510   0.528   5.831
 8714SOL    HW127041   0.522   0.429   5.825
 8714SOL    HW227042   0.524   0.559   5.925
 8715SOL     OW27043   4.649   0.055   0.524
 8715SOL    HW127044   4.658   0.076   0.427
 8715SOL    HW227045   4.559   0.016   0.542
 8716SOL     OW27046   6.819   6.973   1.334
 8716SOL    HW127047   6.798   6.880   1.366
 8716SOL    HW227048   6.750   7.002   1.269
 8717SOL     OW27049   2.908   3.439   4.353
 8717SOL    HW127050   2.926   3.528   4.396
 8717SOL    HW227051   2.832   3.448   4.289
 8718SOL     OW27052   1.818   3.913   5.215
 8718SOL    HW127053   1.801   3.945   5.122
 8718SOL    HW227054   1.904   3.862   5.217
 8719SOL     OW27055   3.621   0.451   6.523
 8719SOL    HW127056   3.639   0.395   6.604
 8719SOL    HW227057   3.602   0.545   6.551
 8720SOL     OW27058   6.676   5.350   5.800
 8720SOL    HW127059   6.673   5.439   5.755
 8720SOL    HW227060   6.767   5.337   5.841
 8721SOL     OW27061   6.818   3.194   1.867
 8721SOL    HW127062   6.882   3.207   1.943
 8721SOL    HW227063   6.731   3.238   1.888
 8722SOL     OW27064   3.888   1.586   6.821
 8722SOL    HW127065   3.822   1.553   6.753
 8722SOL    HW227066   3.838   1.615   6.903
 8723SOL     OW27067   5.470   5.956   1.198
 8723SOL    HW127068   5.512   5.900   1.270
 8723SOL    HW227069   5.536   5.971   1.125
 8724SOL     OW27070   4.634   6.835   4.978
 8724SOL    HW127071   4.685   6.750   4.991
 8724SOL    HW227072   4.543   6.814   4.943
 8725SOL     OW27073   1.788   6.293   6.042
 8725SOL    HW127074   1.767   6.390   6.055
 8725SOL    HW227075   1.771   6.243   6.127
 8726SOL     OW27076   6.753   1.207   3.351
 8726SOL    HW127077   6.710   1.295   3.369
 8726SOL    HW227078   6.848   1.222   3.322
 8727SOL     OW27079   6.431   6.624   2.011
 8727SOL    HW127080   6.389   6.537   1.983
 8727SOL    HW227081   6.409   6.695   1.944
 8728SOL     OW27082   6.392   0.428   2.262
 8728SOL    HW127083   6.398   0.510   2.318
 8728SOL    HW227084   6.320   0.368   2.298
 8729SOL     OW27085   3.944   5.870   4.878
 8729SOL    HW127086   3.888   5.942   4.919
 8729SOL    HW227087   3.958   5.889   4.781
 8730SOL     OW27088   6.497   4.469   2.737
 8730SOL    HW127089   6.457   4.382   2.767
 8730SOL    HW227090   6.563   4.451   2.664
 8731SOL     OW27091   1.778   2.519   2.937
 8731SOL    HW127092   1.875   2.509   2.957
 8731SOL    HW227093   1.764   2.517   2.838
 8732SOL     OW27094   5.883   5.212   1.678
 8732SOL    HW127095   5.894   5.180   1.772
 8732SOL    HW227096   5.973   5.233   1.639
 8733SOL     OW27097   1.726   5.356   1.415
 8733SOL    HW127098   1.708   5.455   1.415
 8733SOL    HW227099   1.740   5.324   1.509
 8734SOL     OW27100   1.020   4.403   2.056
 8734SOL    HW127101   0.940   4.456   2.084
 8734SOL    HW227102   1.103   4.449   2.087
 8735SOL     OW27103   1.109   2.415   0.790
 8735SOL    HW127104   1.209   2.410   0.786
 8735SOL    HW227105   1.069   2.331   0.754
 8736SOL     OW27106   0.144   5.471   6.802
 8736SOL    HW127107   0.081   5.429   6.735
 8736SOL    HW227108   0.181   5.555   6.763
 8737SOL     OW27109   1.723   6.519   6.797
 8737SOL    HW127110   1.651   6.565   6.848
 8737SOL    HW227111   1.801   6.581   6.785
 8738SOL     OW27112   2.724   5.660   4.557
 8738SOL    HW127113   2.802   5.649   4.496
 8738SOL    HW227114   2.738   5.606   4.640
 8739SOL     OW27115   5.968   5.335   6.565
 8739SOL    HW127116   6.032   5.259   6.568
 8739SOL    HW227117   5.874   5.301   6.574
 8740SOL     OW27118   4.781   1.142   4.609
 8740SOL    HW127119   4.801   1.238   4.590
 8740SOL    HW227120   4.848   1.106   4.675
 8741SOL     OW27121   2.792   1.354   2.571
 8741SOL    HW127122   2.804   1.296   2.490
 8741SOL    HW227123   2.835   1.310   2.650
 8742SOL     OW27124   5.598   6.036   1.709
 8742SOL    HW127125   5.532   5.982   1.761
 8742SOL    HW227126   5.633   5.981   1.632
 8743SOL     OW27127   1.404   0.222   2.270
 8743SOL    HW127128   1.464   0.220   2.190
 8743SOL    HW227129   1.380   0.129   2.296
 8744SOL     OW27130   4.037   2.719   6.554
 8744SOL    HW127131   4.129   2.682   6.547
 8744SOL    HW227132   3.975   2.649   6.588
 8745SOL     OW27133   6.280   2.791   6.757
 8745SOL    HW127134   6.303   2.732   6.679
 8745SOL    HW227135   6.364   2.827   6.797
 8746SOL     OW27136   4.780   5.260   4.290
 8746SOL    HW127137   4.869   5.303   4.305
 8746SOL    HW227138   4.727   5.264   4.374
 8747SOL     OW27139   0.957   2.812   2.874
 8747SOL    HW127140   1.018   2.837   2.948
 8747SOL    HW227141   0.935   2.893   2.819
 8748SOL     OW27142   6.287   1.398   4.886
 8748SOL    HW127143   6.275   1.467   4.958
 8748SOL    HW227144   6.237   1.315   4.912
 8749SOL     OW27145   2.592   0.231   4.916
 8749SOL    HW127146   2.593   0.210   4.818
 8749SOL    HW227147   2.500   0.215   4.952
 8750SOL     OW27148   3.334   3.970   4.859
 8750SOL    HW127149   3.395   4.014   4.794
 8750SOL    HW227150   3.288   3.893   4.816
 8751SOL     OW27151   5.768   1.464   2.408
 8751SOL    HW127152   5.709   1.452   2.328
 8751SOL    HW227153   5.863   1.471   2.378
 8752SOL     OW27154   2.869   3.195   0.237
 8752SOL    HW127155   2.827   3.235   0.155
 8752SOL    HW227156   2.954   3.149   0.212
 8753SOL     OW27157   4.301   2.157   5.828
 8753SOL    HW127158   4.205   2.178   5.847
 8753SOL    HW227159   4.359   2.234   5.856
 8754SOL     OW27160   2.054   3.311   5.874
 8754SOL    HW127161   2.025   3.389   5.929
 8754SOL    HW227162   1.974   3.262   5.840
 8755SOL     OW27163   1.659   0.573   0.623
 8755SOL    HW127164   1.606   0.579   0.708
 8755SOL    HW227165   1.745   0.623   0.634
 8756SOL     OW27166   0.693   3.119   3.842
 8756SOL    HW127167   0.646   3.203   3.868
 8756SOL    HW227168   0.740   3.081   3.922
 8757SOL     OW27169   4.097   5.738   6.278
 8757SOL    HW127170   4.154   5.777   6.350
 8757SOL    HW227171   4.080   5.641   6.298
 8758SOL     OW27172   5.179   5.990   2.210
 8758SOL    HW127173   5.111   5.977   2.282
 8758SOL    HW227174   5.195   5.902   2.164
 8759SOL     OW27175   4.996   2.420   0.331
 8759SOL    HW127176   4.899   2.415   0.356
 8759SOL    HW227177   5.017   2.348   0.266
 8760SOL     OW27178   2.196   0.994   5.159
 8760SOL    HW127179   2.226   1.086   5.186
 8760SOL    HW227180   2.208   0.983   5.061
 8761SOL     OW27181   6.154   2.057   1.806
 8761SOL    HW127182   6.245   2.090   1.780
 8761SOL    HW227183   6.096   2.051   1.725
 8762SOL     OW27184   1.467   4.131   2.931
 8762SOL    HW127185   1.448   4.050   2.986
 8762SOL    HW227186   1.386   4.155   2.877
 8763SOL     OW27187   6.892   6.505   6.004
 8763SOL    HW127188   6.893   6.426   5.943
 8763SOL    HW227189   6.985   6.540   6.014
 8764SOL     OW27190   4.777   0.913   4.890
 8764SOL    HW127191   4.794   0.845   4.961
 8764SOL    HW227192   4.789   0.872   4.799
 8765SOL     OW27193   4.913   6.654   3.755
 8765SOL    HW127194   4.917   6.676   3.853
 8765SOL    HW227195   4.953   6.729   3.702
 8766SOL     OW27196   4.652   4.324   4.046
 8766SOL    HW127197   4.637   4.390   3.973
 8766SOL    HW227198   4.751   4.311   4.060
 8767SOL     OW27199   4.879   5.383   2.894
 8767SOL    HW127200   4.949   5.415   2.957
 8767SOL    HW227201   4.892   5.286   2.876
 8768SOL     OW27202   1.144   2.498   0.441
 8768SOL    HW127203   1.072   2.539   0.497
 8768SOL    HW227204   1.175   2.413   0.484
 8769SOL     OW27205   0.020   0.783   4.172
 8769SOL    HW127206   7.003   0.872   4.151
 8769SOL    HW227207   6.985   0.711   4.136
 8770SOL     OW27208   4.568   4.388   2.501
 8770SOL    HW127209   4.621   4.317   2.548
 8770SOL    HW227210   4.569   4.370   2.403
 8771SOL     OW27211   1.158   1.350   6.519
 8771SOL    HW127212   1.217   1.361   6.440
 8771SOL    HW227213   1.195   1.403   6.596
 8772SOL     OW27214   5.133   0.544   5.946
 8772SOL    HW127215   5.177   0.460   5.977
 8772SOL    HW227216   5.056   0.566   6.006
 8773SOL     OW27217   4.377   2.382   3.587
 8773SOL    HW127218   4.425   2.469   3.601
 8773SOL    HW227219   4.356   2.372   3.490
 8774SOL     OW27220   1.290   0.811   0.236
 8774SOL    HW127221   1.308   0.822   0.138
 8774SOL    HW227222   1.324   0.722   0.265
 8775SOL     OW27223   5.961   6.535   5.272
 8775SOL    HW127224   5.939   6.459   5.211
 8775SOL    HW227225   5.937   6.621   5.227
 8776SOL     OW27226   3.707   2.839   6.768
 8776SOL    HW127227   3.801   2.866   6.785
 8776SOL    HW227228   3.705   2.746   6.731
 8777SOL     OW27229   0.268   4.173   2.552
 8777SOL    HW127230   0.239   4.109   2.481
 8777SOL    HW227231   0.235   4.265   2.529
 8778SOL     OW27232   5.216   2.947   5.324
 8778SOL    HW127233   5.199   2.907   5.234
 8778SOL    HW227234   5.251   3.040   5.313
 8779SOL     OW27235   2.993   5.131   2.462
 8779SOL    HW127236   3.054   5.084   2.526
 8779SOL    HW227237   2.995   5.083   2.374
 8780SOL     OW27238   0.908   6.431   2.627
 8780SOL    HW127239   0.841   6.380   2.680
 8780SOL    HW227240   0.998   6.391   2.639
 8781SOL     OW27241   5.631   1.132   3.434
 8781SOL    HW127242   5.586   1.218   3.455
 8781SOL    HW227243   5.730   1.144   3.437
 8782SOL     OW27244   6.413   6.373   1.416
 8782SOL    HW127245   6.448   6.423   1.495
 8782SOL    HW227246   6.343   6.428   1.370
 8783SOL     OW27247   6.445   4.525   3.704
 8783SOL    HW127248   6.522   4.461   3.696
 8783SOL    HW227249   6.416   4.554   3.613
 8784SOL     OW27250   6.451   3.948   6.045
 8784SOL    HW127251   6.438   4.038   6.087
 8784SOL    HW227252   6.382   3.935   5.974
 8785SOL     OW27253   5.833   3.834   0.033
 8785SOL    HW127254   5.884   3.891   0.098
 8785SOL    HW227255   5.878   3.745   0.026
 8786SOL     OW27256   2.122   0.537   0.468
 8786SOL    HW127257   2.217   0.565   0.485
 8786SOL    HW227258   2.117   0.490   0.379
 8787SOL     OW27259   3.659   1.996   1.568
 8787SOL    HW127260   3.757   2.002   1.551
 8787SOL    HW227261   3.627   2.081   1.609
 8788SOL     OW27262   6.542   1.271   5.564
 8788SOL    HW127263   6.477   1.198   5.588
 8788SOL    HW227264   6.499   1.333   5.498
 8789SOL     OW27265   6.378   6.937   4.684
 8789SOL    HW127266   6.370   6.892   4.773
 8789SOL    HW227267   6.393   0.012   4.698
 8790SOL     OW27268   0.363   0.502   6.876
 8790SOL    HW127269   0.281   0.475   6.826
 8790SOL    HW227270   0.436   0.437   6.857
 8791SOL     OW27271   5.434   6.768   4.891
 8791SOL    HW127272   5.406   6.681   4.850
 8791SOL    HW227273   5.406   6.770   4.987
 8792SOL     OW27274   2.202   6.240   2.864
 8792SOL    HW127275   2.279   6.304   2.867
 8792SOL    HW227276   2.208   6.177   2.941
 8793SOL     OW27277   1.240   4.286   3.135
 8793SOL    HW127278   1.316   4.290   3.201
 8793SOL    HW227279   1.154   4.279   3.184
 8794SOL     OW27280   5.059   0.248   2.571
 8794SOL    HW127281   5.115   0.272   2.650
 8794SOL    HW227282   5.064   0.321   2.503
 8795SOL     OW27283   1.455   5.055   5.836
 8795SOL    HW127284   1.400   5.139   5.835
 8795SOL    HW227285   1.526   5.062   5.907
 8796SOL     OW27286   3.760   1.963   4.586
 8796SOL    HW127287   3.826   1.923   4.523
 8796SOL    HW227288   3.703   2.029   4.536
 8797SOL     OW27289   0.104   7.001   6.748
 8797SOL    HW127290   0.039   0.046   6.715
 8797SOL    HW227291   0.073   6.966   6.837
 8798SOL     OW27292   5.051   5.849   5.981
 8798SOL    HW127293   4.969   5.886   6.024
 8798SOL    HW227294   5.029   5.814   5.890
 8799SOL     OW27295   2.558   4.603   3.676
 8799SOL    HW127296   2.653   4.574   3.665
 8799SOL    HW227297   2.548   4.697   3.643
 8800SOL     OW27298   6.395   3.881   5.331
 8800SOL    HW127299   6.357   3.929   5.410
 8800SOL    HW227300   6.478   3.927   5.299
 8801SOL     OW27301   6.788   1.385   5.094
 8801SOL    HW127302   6.810   1.394   5.191
 8801SOL    HW227303   6.745   1.297   5.077
 8802SOL     OW27304   1.995   6.946   0.230
 8802SOL    HW127305   2.020   7.015   0.299
 8802SOL    HW227306   2.009   6.855   0.268
 8803SOL     OW27307   6.701   6.490   6.915
 8803SOL    HW127308   6.616   6.456   6.874
 8803SOL    HW227309   6.686   6.508   7.012
 8804SOL     OW27310   2.372   6.495   2.183
 8804SOL    HW127311   2.436   6.570   2.169
 8804SOL    HW227312   2.336   6.498   2.277
 8805SOL     OW27313   2.442   6.299   3.870
 8805SOL    HW127314   2.447   6.381   3.926
 8805SOL    HW227315   2.400   6.321   3.782
 8806SOL     OW27316   3.108   5.321   2.310
 8806SOL    HW127317   3.044   5.286   2.378
 8806SOL    HW227318   3.166   5.246   2.278
 8807SOL     OW27319   5.073   0.356   0.352
 8807SOL    HW127320   5.064   0.401   0.263
 8807SOL    HW227321   4.988   0.367   0.403
 8808SOL     OW27322   5.899   2.684   6.794
 8808SOL    HW127323   5.850   2.601   6.766
 8808SOL    HW227324   5.992   2.660   6.822
 8809SOL     OW27325   5.066   5.753   3.349
 8809SOL    HW127326   5.095   5.676   3.406
 8809SOL    HW227327   5.147   5.803   3.319
 8810SOL     OW27328   6.010   0.912   5.028
 8810SOL    HW127329   6.041   0.871   5.113
 8810SOL    HW227330   6.001   0.841   4.958
 8811SOL     OW27331   3.147   0.898   2.627
 8811SOL    HW127332   3.238   0.875   2.593
 8811SOL    HW227333   3.121   0.989   2.595
 8812SOL     OW27334   1.772   0.508   0.900
 8812SOL    HW127335   1.756   0.587   0.959
 8812SOL    HW227336   1.690   0.490   0.845
 8813SOL     OW27337   2.334   4.633   1.557
 8813SOL    HW127338   2.350   4.714   1.615
 8813SOL    HW227339   2.269   4.657   1.485
 8814SOL     OW27340   5.690   6.660   1.159
 8814SOL    HW127341   5.768   6.666   1.220
 8814SOL    HW227342   5.607   6.641   1.212
 8815SOL     OW27343   5.449   0.088   1.320
 8815SOL    HW127344   5.535   0.082   1.370
 8815SOL    HW227345   5.381   0.138   1.374
 8816SOL     OW27346   1.032   6.344   0.406
 8816SOL    HW127347   1.080   6.291   0.336
 8816SOL    HW227348   1.081   6.337   0.493
 8817SOL     OW27349   0.301   4.939   3.982
 8817SOL    HW127350   0.331   4.880   4.057
 8817SOL    HW227351   0.218   4.900   3.940
 8818SOL     OW27352   0.254   4.582   4.312
 8818SOL    HW127353   0.270   4.675   4.347
 8818SOL    HW227354   0.305   4.516   4.367
 8819SOL     OW27355   5.675   5.445   5.238
 8819SOL    HW127356   5.750   5.480   5.294
 8819SOL    HW227357   5.598   5.421   5.297
 8820SOL     OW27358   2.014   0.616   5.252
 8820SOL    HW127359   2.107   0.645   5.233
 8820SOL    HW227360   2.013   0.557   5.333
 8821SOL     OW27361   1.557   6.082   1.113
 8821SOL    HW127362   1.600   6.089   1.022
 8821SOL    HW227363   1.589   5.999   1.158
 8822SOL     OW27364   0.990   6.978   4.002
 8822SOL    HW127365   1.037   6.969   3.914
 8822SOL    HW227366   0.901   7.021   3.987
 8823SOL     OW27367   2.534   0.755   2.554
 8823SOL    HW127368   2.558   0.831   2.614
 8823SOL    HW227369   2.600   0.750   2.479
 8824SOL     OW27370   1.052   2.196   0.629
 8824SOL    HW127371   1.135   2.150   0.595
 8824SOL    HW227372   1.027   2.156   0.717
 8825SOL     OW27373   2.414   1.411   1.805
 8825SOL    HW127374   2.439   1.367   1.892
 8825SOL    HW227375   2.356   1.490   1.824
 8826SOL     OW27376   0.104   3.222   0.262
 8826SOL    HW127377   0.058   3.229   0.350
 8826SOL    HW227378   0.150   3.309   0.241
 8827SOL     OW27379   4.144   1.684   2.044
 8827SOL    HW127380   4.238   1.713   2.026
 8827SOL    HW227381   4.131   1.672   2.142
 8828SOL     OW27382   4.238   5.815   5.652
 8828SOL    HW127383   4.188   5.829   5.566
 8828SOL    HW227384   4.175   5.821   5.729
 8829SOL     OW27385   5.139   3.211   0.705
 8829SOL    HW127386   5.182   3.280   0.763
 8829SOL    HW227387   5.209   3.169   0.646
 8830SOL     OW27388   1.579   1.993   2.851
 8830SOL    HW127389   1.484   1.967   2.834
 8830SOL    HW227390   1.633   1.911   2.874
 8831SOL     OW27391   3.875   2.192   4.259
 8831SOL    HW127392   3.923   2.245   4.189
 8831SOL    HW227393   3.937   2.176   4.336
 8832SOL     OW27394   0.196   6.641   3.105
 8832SOL    HW127395   0.274   6.665   3.163
 8832SOL    HW227396   0.178   6.543   3.114
 8833SOL     OW27397   2.471   5.202   5.744
 8833SOL    HW127398   2.489   5.244   5.655
 8833SOL    HW227399   2.414   5.121   5.731
 8834SOL     OW27400   5.532   4.108   4.585
 8834SOL    HW127401   5.576   4.194   4.612
 8834SOL    HW227402   5.434   4.114   4.604
 8835SOL     OW27403   4.926   1.170   5.365
 8835SOL    HW127404   4.869   1.098   5.325
 8835SOL    HW227405   4.891   1.260   5.339
 8836SOL     OW27406   5.315   2.374   0.500
 8836SOL    HW127407   5.332   2.361   0.598
 8836SOL    HW227408   5.329   2.470   0.477
 8837SOL     OW27409   0.121   6.337   2.044
 8837SOL    HW127410   0.097   6.354   2.140
 8837SOL    HW227411   0.101   6.242   2.021
 8838SOL     OW27412   2.444   5.532   3.519
 8838SOL    HW127413   2.394   5.452   3.552
 8838SOL    HW227414   2.486   5.580   3.596
 8839SOL     OW27415   5.753   5.322   2.472
 8839SOL    HW127416   5.835   5.321   2.529
 8839SOL    HW227417   5.712   5.230   2.471
 8840SOL     OW27418   6.878   1.829   2.543
 8840SOL    HW127419   6.834   1.915   2.519
 8840SOL    HW227420   6.853   1.804   2.637
 8841SOL     OW27421   0.556   0.857   4.903
 8841SOL    HW127422   0.513   0.768   4.919
 8841SOL    HW227423   0.655   0.847   4.914
 8842SOL     OW27424   3.416   2.972   2.768
 8842SOL    HW127425   3.422   2.997   2.672
 8842SOL    HW227426   3.507   2.981   2.810
 8843SOL     OW27427   2.053   3.747   5.658
 8843SOL    HW127428   2.052   3.652   5.627
 8843SOL    HW227429   2.140   3.767   5.703
 8844SOL     OW27430   0.192   1.119   6.586
 8844SOL    HW127431   0.096   1.143   6.570
 8844SOL    HW227432   0.204   1.088   6.680
 8845SOL     OW27433   3.216   3.508   0.754
 8845SOL    HW127434   3.128   3.526   0.709
 8845SOL    HW227435   3.212   3.538   0.849
 8846SOL     OW27436   3.655   5.613   3.954
 8846SOL    HW127437   3.711   5.625   3.873
 8846SOL    HW227438   3.561   5.641   3.935
 8847SOL     OW27439   2.598   0.736   3.026
 8847SOL    HW127440   2.632   0.829   3.013
 8847SOL    HW227441   2.542   0.732   3.108
 8848SOL     OW27442   2.755   2.206   2.414
 8848SOL    HW127443   2.845   2.203   2.371
 8848SOL    HW227444   2.765   2.215   2.513
 8849SOL     OW27445   2.840   6.771   3.135
 8849SOL    HW127446   2.806   6.707   3.205
 8849SOL    HW227447   2.810   6.863   3.158
 8850SOL     OW27448   1.138   1.897   0.021
 8850SOL    HW127449   1.116   1.913   6.948
 8850SOL    HW227450   1.054   1.893   0.074
 8851SOL     OW27451   1.251   4.751   2.428
 8851SOL    HW127452   1.277   4.659   2.457
 8851SOL    HW227453   1.334   4.802   2.401
 8852SOL     OW27454   5.404   3.163   5.622
 8852SOL    HW127455   5.404   3.084   5.684
 8852SOL    HW227456   5.312   3.173   5.582
 8853SOL     OW27457   2.901   1.398   0.778
 8853SOL    HW127458   2.885   1.493   0.808
 8853SOL    HW227459   2.998   1.377   0.786
 8854SOL     OW27460   3.138   2.105   5.543
 8854SOL    HW127461   3.151   2.035   5.473
 8854SOL    HW227462   3.087   2.182   5.503
 8855SOL     OW27463   6.977   5.421   1.567
 8855SOL    HW127464   6.970   5.330   1.526
 8855SOL    HW227465   7.023   5.483   1.503
 8856SOL     OW27466   0.236   6.378   6.162
 8856SOL    HW127467   0.197   6.391   6.253
 8856SOL    HW227468   0.197   6.445   6.099
 8857SOL     OW27469   6.742   1.754   4.519
 8857SOL    HW127470   6.696   1.842   4.515
 8857SOL    HW227471   6.839   1.768   4.539
 8858SOL     OW27472   0.674   3.209   5.821
 8858SOL    HW127473   0.607   3.134   5.818
 8858SOL    HW227474   0.756   3.181   5.772
 8859SOL     OW27475   0.157   0.382   4.015
 8859SOL    HW127476   0.159   0.402   4.112
 8859SOL    HW227477   0.067   0.406   3.977
 8860SOL     OW27478   0.016   2.604   3.144
 8860SOL    HW127479   7.010   2.646   3.058
 8860SOL    HW227480   6.971   2.535   3.171
 8861SOL     OW27481   4.422   1.632   6.248
 8861SOL    HW127482   4.384   1.539   6.252
 8861SOL    HW227483   4.439   1.665   6.341
 8862SOL     OW27484   5.500   0.301   3.963
 8862SOL    HW127485   5.521   0.316   4.060
 8862SOL    HW227486   5.497   0.389   3.916
 8863SOL     OW27487   1.740   4.757   4.493
 8863SOL    HW127488   1.755   4.659   4.508
 8863SOL    HW227489   1.776   4.782   4.403
 8864SOL     OW27490   3.233   4.802   6.244
 8864SOL    HW127491   3.290   4.815   6.325
 8864SOL    HW227492   3.274   4.732   6.185
 8865SOL     OW27493   3.329   0.124   5.824
 8865SOL    HW127494   3.287   0.213   5.845
 8865SOL    HW227495   3.335   0.112   5.725
 8866SOL     OW27496   5.387   0.506   3.171
 8866SOL    HW127497   5.354   0.552   3.089
 8866SOL    HW227498   5.342   0.543   3.252
 8867SOL     OW27499   5.656   4.321   3.039
 8867SOL    HW127500   5.635   4.348   3.133
 8867SOL    HW227501   5.678   4.223   3.037
 8868SOL     OW27502   6.630   2.733   1.265
 8868SOL    HW127503   6.727   2.740   1.289
 8868SOL    HW227504   6.576   2.718   1.348
 8869SOL     OW27505   4.276   5.754   4.748
 8869SOL    HW127506   4.303   5.835   4.799
 8869SOL    HW227507   4.229   5.690   4.809
 8870SOL     OW27508   2.795   0.522   0.971
 8870SOL    HW127509   2.817   0.586   0.897
 8870SOL    HW227510   2.696   0.510   0.976
 8871SOL     OW27511   2.441   1.306   4.382
 8871SOL    HW127512   2.429   1.221   4.434
 8871SOL    HW227513   2.470   1.285   4.289
 8872SOL     OW27514   1.230   4.375   4.841
 8872SOL    HW127515   1.147   4.427   4.827
 8872SOL    HW227516   1.307   4.437   4.858
 8873SOL     OW27517   0.824   6.772   1.702
 8873SOL    HW127518   0.909   6.791   1.653
 8873SOL    HW227519   0.792   6.856   1.747
 8874SOL     OW27520   2.044   6.731   2.828
 8874SOL    HW127521   2.058   6.683   2.914
 8874SOL    HW227522   2.092   6.682   2.754
 8875SOL     OW27523   0.413   4.032   5.035
 8875SOL    HW127524   0.420   3.933   5.047
 8875SOL    HW227525   0.325   4.063   5.070
 8876SOL     OW27526   2.155   6.600   5.445
 8876SOL    HW127527   2.058   6.576   5.452
 8876SOL    HW227528   2.185   6.590   5.350
 8877SOL     OW27529   2.851   2.298   4.454
 8877SOL    HW127530   2.910   2.263   4.382
 8877SOL    HW227531   2.901   2.296   4.541
 8878SOL     OW27532   6.100   4.702   0.689
 8878SOL    HW127533   6.158   4.698   0.607
 8878SOL    HW227534   6.009   4.732   0.663
 8879SOL     OW27535   4.925   4.888   3.014
 8879SOL    HW127536   4.844   4.829   3.005
 8879SOL    HW227537   5.006   4.832   3.031
 8880SOL     OW27538   5.173   6.106   4.779
 8880SOL    HW127539   5.085   6.079   4.739
 8880SOL    HW227540   5.242   6.038   4.756
 8881SOL     OW27541   4.857   6.719   4.032
 8881SOL    HW127542   4.810   6.644   4.078
 8881SOL    HW227543   4.862   6.798   4.093
 8882SOL     OW27544   5.311   1.184   0.980
 8882SOL    HW127545   5.261   1.176   1.067
 8882SOL    HW227546   5.405   1.211   0.999
 8883SOL     OW27547   1.500   6.250   5.960
 8883SOL    HW127548   1.456   6.193   6.030
 8883SOL    HW227549   1.598   6.231   5.958
 8884SOL     OW27550   6.406   4.041   5.557
 8884SOL    HW127551   6.479   4.101   5.524
 8884SOL    HW227552   6.322   4.094   5.569
 8885SOL     OW27553   5.719   4.053   1.886
 8885SOL    HW127554   5.769   4.066   1.971
 8885SOL    HW227555   5.784   4.044   1.810
 8886SOL     OW27556   2.615   6.636   4.515
 8886SOL    HW127557   2.686   6.706   4.517
 8886SOL    HW227558   2.631   6.569   4.588
 8887SOL     OW27559   3.775   0.485   0.149
 8887SOL    HW127560   3.871   0.511   0.154
 8887SOL    HW227561   3.734   0.525   0.067
 8888SOL     OW27562   1.676   1.536   5.665
 8888SOL    HW127563   1.741   1.609   5.686
 8888SOL    HW227564   1.607   1.569   5.601
 8889SOL     OW27565   6.658   0.330   6.726
 8889SOL    HW127566   6.636   0.266   6.799
 8889SOL    HW227567   6.712   0.283   6.656
 8890SOL     OW27568   0.102   5.854   4.805
 8890SOL    HW127569   0.017   5.905   4.798
 8890SOL    HW227570   0.087   5.760   4.775
 8891SOL     OW27571   4.310   2.939   6.697
 8891SOL    HW127572   4.257   2.926   6.613
 8891SOL    HW227573   4.255   2.989   6.764
 8892SOL     OW27574   3.425   5.460   2.873
 8892SOL    HW127575   3.380   5.376   2.902
 8892SOL    HW227576   3.504   5.438   2.816
 8893SOL     OW27577   0.791   5.673   4.018
 8893SOL    HW127578   0.759   5.682   4.112
 8893SOL    HW227579   0.871   5.731   4.003
 8894SOL     OW27580   3.566   2.537   6.501
 8894SOL    HW127581   3.488   2.580   6.547
 8894SOL    HW227582   3.552   2.540   6.402
 8895SOL     OW27583   6.542   2.989   2.108
 8895SOL    HW127584   6.538   2.988   2.008
 8895SOL    HW227585   6.613   2.926   2.140
 8896SOL     OW27586   2.794   3.357   5.361
 8896SOL    HW127587   2.697   3.373   5.378
 8896SOL    HW227588   2.807   3.264   5.326
 8897SOL     OW27589   2.161   3.069   3.167
 8897SOL    HW127590   2.225   3.012   3.218
 8897SOL    HW227591   2.140   3.025   3.079
 8898SOL     OW27592   5.178   3.482   2.349
 8898SOL    HW127593   5.079   3.480   2.360
 8898SOL    HW227594   5.222   3.456   2.435
 8899SOL     OW27595   1.608   5.320   1.676
 8899SOL    HW127596   1.659   5.406   1.674
 8899SOL    HW227597   1.534   5.325   1.743
 8900SOL     OW27598   5.596   2.877   2.785
 8900SOL    HW127599   5.657   2.853   2.710
 8900SOL    HW227600   5.518   2.814   2.786
 8901SOL     OW27601   1.705   0.929   4.980
 8901SOL    HW127602   1.628   0.989   5.001
 8901SOL    HW227603   1.695   0.893   4.887
 8902SOL     OW27604   1.643   6.467   0.494
 8902SOL    HW127605   1.671   6.544   0.438
 8902SOL    HW227606   1.724   6.421   0.530
 8903SOL     OW27607   0.491   1.671   4.592
 8903SOL    HW127608   0.542   1.733   4.532
 8903SOL    HW227609   0.489   1.579   4.552
 8904SOL     OW27610   6.576   0.432   4.383
 8904SOL    HW127611   6.556   0.339   4.415
 8904SOL    HW227612   6.643   0.427   4.309
 8905SOL     OW27613   1.969   4.126   3.477
 8905SOL    HW127614   1.986   4.150   3.572
 8905SOL    HW227615   1.887   4.068   3.471
 8906SOL     OW27616   0.340   6.240   6.719
 8906SOL    HW127617   0.281   6.174   6.673
 8906SOL    HW227618   0.319   6.332   6.686
 8907SOL     OW27619   2.880   2.573   5.433
 8907SOL    HW127620   2.957   2.613   5.384
 8907SOL    HW227621   2.853   2.632   5.509
 8908SOL     OW27622   1.406   5.020   0.074
 8908SOL    HW127623   1.321   5.066   0.099
 8908SOL    HW227624   1.483   5.082   0.090
 8909SOL     OW27625   2.399   1.102   5.654
 8909SOL    HW127626   2.474   1.127   5.592
 8909SOL    HW227627   2.389   1.173   5.723
 8910SOL     OW27628   0.429   2.957   5.490
 8910SOL    HW127629   0.357   2.970   5.422
 8910SOL    HW227630   0.432   3.035   5.551
 8911SOL     OW27631   4.229   2.268   4.823
 8911SOL    HW127632   4.149   2.208   4.818
 8911SOL    HW227633   4.224   2.323   4.906
 8912SOL     OW27634   3.378   3.690   6.275
 8912SOL    HW127635   3.313   3.765   6.287
 8912SOL    HW227636   3.441   3.687   6.352
 8913SOL     OW27637   4.946   5.352   5.371
 8913SOL    HW127638   4.935   5.308   5.461
 8913SOL    HW227639   4.897   5.299   5.302
 8914SOL     OW27640   4.429   0.299   4.698
 8914SOL    HW127641   4.495   0.274   4.769
 8914SOL    HW227642   4.445   0.243   4.617
 8915SOL     OW27643   0.849   2.722   4.030
 8915SOL    HW127644   0.800   2.650   3.981
 8915SOL    HW227645   0.945   2.722   4.003
 8916SOL     OW27646   6.717   2.707   0.605
 8916SOL    HW127647   6.810   2.677   0.626
 8916SOL    HW227648   6.715   2.807   0.600
 8917SOL     OW27649   6.526   3.544   0.075
 8917SOL    HW127650   6.574   3.518   7.013
 8917SOL    HW227651   6.585   3.524   0.153
 8918SOL     OW27652   6.700   3.852   0.923
 8918SOL    HW127653   6.670   3.930   0.978
 8918SOL    HW227654   6.798   3.838   0.936
 8919SOL     OW27655   4.024   4.351   0.797
 8919SOL    HW127656   3.971   4.285   0.851
 8919SOL    HW227657   4.121   4.344   0.821
 8920SOL     OW27658   0.378   1.026   0.092
 8920SOL    HW127659   0.311   1.100   0.080
 8920SOL    HW227660   0.462   1.063   0.131
 8921SOL     OW27661   2.060   2.132   2.290
 8921SOL    HW127662   2.094   2.212   2.241
 8921SOL    HW227663   1.960   2.130   2.285
 8922SOL     OW27664   4.418   4.978   1.313
 8922SOL    HW127665   4.411   4.897   1.254
 8922SOL    HW227666   4.449   4.950   1.404
 8923SOL     OW27667   2.013   2.471   6.629
 8923SOL    HW127668   1.925   2.503   6.663
 8923SOL    HW227669   2.008   2.461   6.529
 8924SOL     OW27670   4.001   5.534   5.166
 8924SOL    HW127671   4.014   5.633   5.175
 8924SOL    HW227672   3.975   5.496   5.254
 8925SOL     OW27673   1.169   1.762   3.073
 8925SOL    HW127674   1.165   1.839   3.137
 8925SOL    HW227675   1.101   1.694   3.098
 8926SOL     OW27676   6.507   2.950   5.829
 8926SOL    HW127677   6.547   2.903   5.750
 8926SOL    HW227678   6.468   3.037   5.800
 8927SOL     OW27679   0.038   0.835   4.723
 8927SOL    HW127680   0.080   0.876   4.642
 8927SOL    HW227681   0.097   0.851   4.802
 8928SOL     OW27682   0.806   6.807   6.385
 8928SOL    HW127683   0.781   6.902   6.365
 8928SOL    HW227684   0.753   6.746   6.326
 8929SOL     OW27685   5.588   1.742   4.359
 8929SOL    HW127686   5.665   1.754   4.296
 8929SOL    HW227687   5.568   1.644   4.368
 8930SOL     OW27688   1.915   3.465   4.570
 8930SOL    HW127689   1.850   3.512   4.510
 8930SOL    HW227690   1.865   3.411   4.638
 8931SOL     OW27691   2.415   3.134   0.709
 8931SOL    HW127692   2.409   3.177   0.799
 8931SOL    HW227693   2.357   3.183   0.644
 8932SOL     OW27694   6.268   1.181   1.307
 8932SOL    HW127695   6.345   1.188   1.371
 8932SOL    HW227696   6.212   1.102   1.330
 8933SOL     OW27697   2.380   2.625   6.206
 8933SOL    HW127698   2.371   2.698   6.273
 8933SOL    HW227699   2.477   2.608   6.188
 8934SOL     OW27700   3.183   5.209   4.517
 8934SOL    HW127701   3.157   5.162   4.433
 8934SOL    HW227702   3.106   5.210   4.580
 8935SOL     OW27703   0.252   4.424   0.200
 8935SOL    HW127704   0.318   4.350   0.214
 8935SOL    HW227705   0.298   4.512   0.210
 8936SOL     OW27706   1.462   3.152   2.664
 8936SOL    HW127707   1.364   3.148   2.683
 8936SOL    HW227708   1.490   3.069   2.616
 8937SOL     OW27709   0.041   0.389   5.698
 8937SOL    HW127710   0.097   0.309   5.717
 8937SOL    HW227711   0.065   0.426   5.608
 8938SOL     OW27712   0.100   6.539   0.803
 8938SOL    HW127713   0.166   6.613   0.819
 8938SOL    HW227714   0.123   6.461   0.861
 8939SOL     OW27715   6.049   4.169   4.232
 8939SOL    HW127716   6.060   4.154   4.134
 8939SOL    HW227717   6.134   4.143   4.279
 8940SOL     OW27718   6.930   0.944   1.800
 8940SOL    HW127719   6.956   0.890   1.881
 8940SOL    HW227720   6.861   1.011   1.827
 8941SOL     OW27721   5.607   2.680   4.790
 8941SOL    HW127722   5.559   2.715   4.870
 8941SOL    HW227723   5.543   2.632   4.730
 8942SOL     OW27724   6.237   5.661   5.683
 8942SOL    HW127725   6.294   5.705   5.613
 8942SOL    HW227726   6.155   5.624   5.640
 8943SOL     OW27727   3.661   5.541   0.127
 8943SOL    HW127728   3.572   5.532   0.083
 8943SOL    HW227729   3.698   5.449   0.146
 8944SOL     OW27730   5.391   5.830   5.579
 8944SOL    HW127731   5.443   5.750   5.611
 8944SOL    HW227732   5.445   5.913   5.595
 8945SOL     OW27733   1.321   0.756   3.238
 8945SOL    HW127734   1.360   0.770   3.148
 8945SOL    HW227735   1.265   0.835   3.263
 8946SOL     OW27736   2.573   1.616   5.073
 8946SOL    HW127737   2.627   1.533   5.082
 8946SOL    HW227738   2.628   1.688   5.031
 8947SOL     OW27739   2.619   2.935   5.985
 8947SOL    HW127740   2.717   2.951   5.980
 8947SOL    HW227741   2.593   2.913   6.079
 8948SOL     OW27742   6.093   6.017   4.712
 8948SOL    HW127743   6.004   6.032   4.669
 8948SOL    HW227744   6.165   6.038   4.646
 8949SOL     OW27745   3.387   6.106   0.323
 8949SOL    HW127746   3.484   6.126   0.314
 8949SOL    HW227747   3.360   6.039   0.255
 8950SOL     OW27748   4.834   4.176   6.691
 8950SOL    HW127749   4.898   4.101   6.711
 8950SOL    HW227750   4.840   4.200   6.595
 8951SOL     OW27751   1.617   1.244   4.814
 8951SOL    HW127752   1.575   1.178   4.752
 8951SOL    HW227753   1.689   1.200   4.867
 8952SOL     OW27754   1.024   6.244   2.021
 8952SOL    HW127755   1.036   6.164   1.961
 8952SOL    HW227756   1.013   6.213   2.116
 8953SOL     OW27757   1.519   3.655   6.926
 8953SOL    HW127758   1.532   3.721   6.852
 8953SOL    HW227759   1.486   3.703   7.008
 8954SOL     OW27760   0.442   6.949   4.756
 8954SOL    HW127761   0.528   6.974   4.802
 8954SOL    HW227762   0.461   6.876   4.690
 8955SOL     OW27763   0.126   5.531   2.515
 8955SOL    HW127764   0.189   5.527   2.437
 8955SOL    HW227765   0.151   5.460   2.581
 8956SOL     OW27766   2.156   0.909   6.913
 8956SOL    HW127767   2.182   0.949   6.825
 8956SOL    HW227768   2.124   0.982   6.974
 8957SOL     OW27769   1.647   4.355   0.983
 8957SOL    HW127770   1.702   4.329   1.062
 8957SOL    HW227771   1.563   4.399   1.013
 8958SOL     OW27772   0.259   1.713   4.733
 8958SOL    HW127773   0.237   1.644   4.803
 8958SOL    HW227774   0.351   1.697   4.698
 8959SOL     OW27775   1.627   4.254   2.210
 8959SOL    HW127776   1.543   4.242   2.262
 8959SOL    HW227777   1.704   4.218   2.264
 8960SOL     OW27778   4.057   5.084   2.998
 8960SOL    HW127779   3.986   5.139   3.041
 8960SOL    HW227780   4.039   4.987   3.016
 8961SOL     OW27781   2.793   0.716   3.899
 8961SOL    HW127782   2.708   0.762   3.874
 8961SOL    HW227783   2.828   0.666   3.819
 8962SOL     OW27784   6.505   5.535   2.849
 8962SOL    HW127785   6.554   5.450   2.866
 8962SOL    HW227786   6.564   5.600   2.802
 8963SOL     OW27787   4.158   6.771   4.619
 8963SOL    HW127788   4.122   6.719   4.542
 8963SOL    HW227789   4.256   6.785   4.607
 8964SOL     OW27790   5.048   3.887   3.069
 8964SOL    HW127791   4.966   3.944   3.068
 8964SOL    HW227792   5.028   3.798   3.027
 8965SOL     OW27793   2.681   4.804   0.826
 8965SOL    HW127794   2.670   4.723   0.883
 8965SOL    HW227795   2.609   4.807   0.757
 8966SOL     OW27796   6.892   4.541   0.372
 8966SOL    HW127797   6.814   4.500   0.323
 8966SOL    HW227798   6.930   4.474   0.436
 8967SOL     OW27799   4.313   6.903   1.030
 8967SOL    HW127800   4.322   6.824   0.969
 8967SOL    HW227801   4.393   6.909   1.090
 8968SOL     OW27802   4.390   5.699   3.329
 8968SOL    HW127803   4.341   5.611   3.326
 8968SOL    HW227804   4.402   5.733   3.236
 8969SOL     OW27805   6.053   0.819   4.254
 8969SOL    HW127806   6.096   0.805   4.165
 8969SOL    HW227807   6.100   0.892   4.303
 8970SOL     OW27808   2.764   3.146   6.761
 8970SOL    HW127809   2.856   3.106   6.755
 8970SOL    HW227810   2.704   3.103   6.693
 8971SOL     OW27811   6.057   4.738   1.611
 8971SOL    HW127812   6.084   4.668   1.545
 8971SOL    HW227813   6.000   4.807   1.565
 8972SOL     OW27814   5.094   3.375   7.020
 8972SOL    HW127815   5.109   3.278   7.003
 8972SOL    HW227816   4.996   3.393   0.003
 8973SOL     OW27817   0.733   3.437   3.223
 8973SOL    HW127818   0.825   3.433   3.183
 8973SOL    HW227819   0.671   3.383   3.167
 8974SOL     OW27820   1.064   4.536   4.687
 8974SOL    HW127821   0.998   4.490   4.627
 8974SOL    HW227822   1.157   4.512   4.658
 8975SOL     OW27823   1.497   6.706   6.056
 8975SOL    HW127824   1.418   6.671   6.107
 8975SOL    HW227825   1.488   6.805   6.046
 8976SOL     OW27826   6.872   5.549   5.522
 8976SOL    HW127827   6.917   5.636   5.505
 8976SOL    HW227828   6.789   5.564   5.575
 8977SOL     OW27829   0.125   3.003   6.949
 8977SOL    HW127830   0.147   3.016   0.022
 8977SOL    HW227831   0.196   2.949   6.905
 8978SOL     OW27832   4.992   6.452   3.606
 8978SOL    HW127833   5.089   6.462   3.585
 8978SOL    HW227834   4.955   6.540   3.635
 8979SOL     OW27835   1.018   3.895   4.955
 8979SOL    HW127836   1.021   3.939   5.045
 8979SOL    HW227837   1.107   3.904   4.911
 8980SOL     OW27838   3.910   3.038   5.494
 8980SOL    HW127839   3.907   2.974   5.572
 8980SOL    HW227840   3.846   3.007   5.424
 8981SOL     OW27841   4.310   1.172   6.075
 8981SOL    HW127842   4.288   1.131   6.163
 8981SOL    HW227843   4.270   1.117   6.001
 8982SOL     OW27844   1.509   2.147   2.032
 8982SOL    HW127845   1.484   2.086   1.957
 8982SOL    HW227846   1.539   2.092   2.110
 8983SOL     OW27847   0.960   5.734   6.427
 8983SOL    HW127848   0.890   5.675   6.467
 8983SOL    HW227849   1.038   5.741   6.489
 8984SOL     OW27850   6.639   0.056   4.040
 8984SOL    HW127851   6.631   0.008   4.127
 8984SOL    HW227852   6.682   7.019   3.972
 8985SOL     OW27853   2.321   2.066   0.766
 8985SOL    HW127854   2.306   2.160   0.735
 8985SOL    HW227855   2.310   2.062   0.865
 8986SOL     OW27856   4.087   5.273   1.841
 8986SOL    HW127857   4.029   5.354   1.849
 8986SOL    HW227858   4.060   5.221   1.759
 8987SOL     OW27859   5.405   6.997   0.774
 8987SOL    HW127860   5.493   6.952   0.790
 8987SOL    HW227861   5.361   6.958   0.693
 8988SOL     OW27862   1.495   4.091   6.585
 8988SOL    HW127863   1.437   4.087   6.504
 8988SOL    HW227864   1.564   4.020   6.580
 8989SOL     OW27865   5.410   3.702   2.350
 8989SOL    HW127866   5.494   3.674   2.396
 8989SOL    HW227867   5.350   3.622   2.338
 8990SOL     OW27868   2.016   5.605   2.328
 8990SOL    HW127869   2.095   5.651   2.288
 8990SOL    HW227870   2.015   5.620   2.427
 8991SOL     OW27871   1.907   2.164   0.075
 8991SOL    HW127872   1.851   2.171   0.157
 8991SOL    HW227873   1.988   2.222   0.084
 8992SOL     OW27874   6.616   2.212   0.089
 8992SOL    HW127875   6.597   2.146   0.016
 8992SOL    HW227876   6.611   2.305   0.051
 8993SOL     OW27877   4.824   2.399   1.979
 8993SOL    HW127878   4.738   2.355   2.004
 8993SOL    HW227879   4.810   2.457   1.898
 8994SOL     OW27880   1.523   5.204   4.761
 8994SOL    HW127881   1.528   5.166   4.668
 8994SOL    HW227882   1.456   5.153   4.814
 8995SOL     OW27883   0.929   2.204   6.743
 8995SOL    HW127884   0.867   2.185   6.666
 8995SOL    HW227885   0.898   2.284   6.793
 8996SOL     OW27886   6.461   5.294   1.747
 8996SOL    HW127887   6.393   5.274   1.676
 8996SOL    HW227888   6.511   5.377   1.724
 8997SOL     OW27889   4.774   1.135   6.537
 8997SOL    HW127890   4.686   1.177   6.558
 8997SOL    HW227891   4.777   1.111   6.440
 8998SOL     OW27892   6.817   3.418   4.715
 8998SOL    HW127893   6.854   3.436   4.624
 8998SOL    HW227894   6.888   3.377   4.772
 8999SOL     OW27895   5.274   6.490   7.012
 8999SOL    HW127896   5.266   6.571   0.047
 8999SOL    HW227897   5.359   6.442   0.010
 9000SOL     OW27898   2.481   4.021   0.184
 9000SOL    HW127899   2.564   3.982   0.143
 9000SOL    HW227900   2.434   3.950   0.237
 9001SOL     OW27901   1.240   5.502   2.224
 9001SOL    HW127902   1.188   5.434   2.276
 9001SOL    HW227903   1.338   5.485   2.237
 9002SOL     OW27904   6.873   4.848   4.856
 9002SOL    HW127905   6.965   4.849   4.894
 9002SOL    HW227906   6.838   4.942   4.850
 9003SOL     OW27907   5.187   3.042   1.687
 9003SOL    HW127908   5.098   2.999   1.693
 9003SOL    HW227909   5.205   3.093   1.771
 9004SOL     OW27910   4.488   6.389   0.865
 9004SOL    HW127911   4.460   6.345   0.780
 9004SOL    HW227912   4.586   6.375   0.880
 9005SOL     OW27913   5.104   2.645   4.365
 9005SOL    HW127914   5.058   2.639   4.453
 9005SOL    HW227915   5.047   2.602   4.294
 9006SOL     OW27916   2.928   6.422   0.789
 9006SOL    HW127917   2.932   6.380   0.880
 9006SOL    HW227918   2.896   6.516   0.797
 9007SOL     OW27919   4.672   0.939   4.170
 9007SOL    HW127920   4.696   0.962   4.075
 9007SOL    HW227921   4.710   1.008   4.231
 9008SOL     OW27922   0.666   5.850   3.205
 9008SOL    HW127923   0.635   5.787   3.276
 9008SOL    HW227924   0.667   5.943   3.241
 9009SOL     OW27925   2.614   1.316   0.471
 9009SOL    HW127926   2.640   1.263   0.552
 9009SOL    HW227927   2.566   1.256   0.406
 9010SOL     OW27928   1.481   6.642   3.967
 9010SOL    HW127929   1.442   6.589   4.042
 9010SOL    HW227930   1.408   6.691   3.920
 9011SOL     OW27931   4.736   2.431   1.506
 9011SOL    HW127932   4.810   2.496   1.521
 9011SOL    HW227933   4.693   2.450   1.418
 9012SOL     OW27934   2.886   3.979   1.146
 9012SOL    HW127935   2.865   3.903   1.084
 9012SOL    HW227936   2.953   4.039   1.104
 9013SOL     OW27937   0.110   6.622   5.036
 9013SOL    HW127938   0.150   6.705   4.996
 9013SOL    HW227939   0.052   6.578   4.967
 9014SOL     OW27940   0.013   1.572   0.449
 9014SOL    HW127941   6.998   1.524   0.370
 9014SOL    HW227942   0.089   1.629   0.420
 9015SOL     OW27943   5.557   1.777   1.506
 9015SOL    HW127944   5.587   1.849   1.442
 9015SOL    HW227945   5.625   1.767   1.579
 9016SOL     OW27946   0.749   6.767   6.941
 9016SOL    HW127947   0.834   6.721   6.965
 9016SOL    HW227948   0.770   6.850   6.888
 9017SOL     OW27949   4.551   2.260   2.035
 9017SOL    HW127950   4.539   2.175   2.087
 9017SOL    HW227951   4.480   2.325   2.061
 9018SOL     OW27952   4.065   1.997   6.860
 9018SOL    HW127953   3.969   2.024   6.862
 9018SOL    HW227954   4.122   2.074   6.832
 9019SOL     OW27955   1.058   0.439   2.004
 9019SOL    HW127956   1.031   0.486   1.920
 9019SOL    HW227957   0.977   0.419   2.058
 9020SOL     OW27958   1.005   3.443   1.417
 9020SOL    HW127959   1.014   3.393   1.330
 9020SOL    HW227960   1.029   3.539   1.402
 9021SOL     OW27961   6.421   0.879   4.056
 9021SOL    HW127962   6.337   0.825   4.058
 9021SOL    HW227963   6.494   0.831   4.105
 9022SOL     OW27964   2.835   1.589   0.221
 9022SOL    HW127965   2.843   1.603   0.122
 9022SOL    HW227966   2.916   1.540   0.255
 9023SOL     OW27967   3.554   3.847   2.216
 9023SOL    HW127968   3.535   3.890   2.304
 9023SOL    HW227969   3.653   3.847   2.200
 9024SOL     OW27970   0.154   4.985   4.843
 9024SOL    HW127971   0.121   5.053   4.778
 9024SOL    HW227972   0.149   4.894   4.802
 9025SOL     OW27973   0.511   5.253   0.038
 9025SOL    HW127974   0.567   5.282   6.984
 9025SOL    HW227975   0.417   5.285   0.024
 9026SOL     OW27976   4.074   3.477   1.065
 9026SOL    HW127977   4.064   3.377   1.065
 9026SOL    HW227978   4.000   3.518   1.013
 9027SOL     OW27979   0.957   2.241   4.115
 9027SOL    HW127980   1.020   2.164   4.116
 9027SOL    HW227981   0.987   2.310   4.181
 9028SOL     OW27982   2.128   3.771   5.953
 9028SOL    HW127983   2.220   3.745   5.982
 9028SOL    HW227984   2.063   3.701   5.984
 9029SOL     OW27985   3.148   6.079   4.705
 9029SOL    HW127986   3.216   6.152   4.700
 9029SOL    HW227987   3.194   5.990   4.698
 9030SOL     OW27988   2.331   2.210   3.517
 9030SOL    HW127989   2.350   2.285   3.453
 9030SOL    HW227990   2.365   2.236   3.608
 9031SOL     OW27991   4.469   5.604   4.324
 9031SOL    HW127992   4.438   5.509   4.312
 9031SOL    HW227993   4.489   5.643   4.234
 9032SOL     OW27994   3.714   3.175   0.083
 9032SOL    HW127995   3.794   3.198   0.138
 9032SOL    HW227996   3.676   3.258   0.043
 9033SOL     OW27997   1.299   5.235   4.020
 9033SOL    HW127998   1.203   5.209   4.017
 9033SOL    HW227999   1.313   5.318   3.964
 9034SOL     OW28000   2.966   0.229   5.740
 9034SOL    HW128001   2.929   0.179   5.818
 9034SOL    HW228002   2.905   0.305   5.717
 9035SOL     OW28003   1.156   4.591   5.978
 9035SOL    HW128004   1.240   4.539   5.963
 9035SOL    HW228005   1.173   4.688   5.965
 9036SOL     OW28006   2.156   1.012   5.578
 9036SOL    HW128007   2.236   1.070   5.595
 9036SOL    HW228008   2.179   0.942   5.511
 9037SOL     OW28009   1.355   4.069   5.557
 9037SOL    HW128010   1.295   3.998   5.521
 9037SOL    HW228011   1.423   4.029   5.617
 9038SOL     OW28012   4.498   6.285   5.877
 9038SOL    HW128013   4.514   6.330   5.789
 9038SOL    HW228014   4.410   6.237   5.875
 9039SOL     OW28015   2.857   4.981   4.860
 9039SOL    HW128016   2.792   4.907   4.846
 9039SOL    HW228017   2.819   5.047   4.925
 9040SOL     OW28018   3.196   2.120   3.137
 9040SOL    HW128019   3.149   2.129   3.050
 9040SOL    HW228020   3.142   2.163   3.209
 9041SOL     OW28021   1.154   2.154   1.975
 9041SOL    HW128022   1.238   2.194   2.011
 9041SOL    HW228023   1.115   2.091   2.043
 9042SOL     OW28024   2.959   6.982   4.017
 9042SOL    HW128025   3.004   0.049   4.015
 9042SOL    HW228026   2.876   6.985   3.962
 9043SOL     OW28027   1.660   1.219   6.924
 9043SOL    HW128028   1.633   1.134   6.879
 9043SOL    HW228029   1.673   1.202   7.022
 9044SOL     OW28030   5.537   0.905   1.481
 9044SOL    HW128031   5.607   0.943   1.542
 9044SOL    HW228032   5.538   0.954   1.394
 9045SOL     OW28033   2.797   0.978   2.496
 9045SOL    HW128034   2.858   1.051   2.467
 9045SOL    HW228035   2.740   1.009   2.572
 9046SOL     OW28036   3.540   3.929   3.645
 9046SOL    HW128037   3.488   3.997   3.592
 9046SOL    HW228038   3.541   3.842   3.596
 9047SOL     OW28039   1.057   3.445   5.668
 9047SOL    HW128040   1.056   3.366   5.730
 9047SOL    HW228041   1.094   3.417   5.580
 9048SOL     OW28042   5.924   2.028   6.181
 9048SOL    HW128043   5.944   2.095   6.252
 9048SOL    HW228044   5.826   2.026   6.163
 9049SOL     OW28045   3.506   6.823   6.376
 9049SOL    HW128046   3.448   6.865   6.446
 9049SOL    HW228047   3.476   6.853   6.285
 9050SOL     OW28048   0.281   3.317   6.883
 9050SOL    HW128049   0.314   3.259   6.958
 9050SOL    HW228050   0.192   3.284   6.852
 9051SOL     OW28051   4.527   6.265   0.609
 9051SOL    HW128052   4.602   6.302   0.554
 9051SOL    HW228053   4.511   6.169   0.585
 9052SOL     OW28054   1.915   2.531   4.308
 9052SOL    HW128055   1.997   2.519   4.363
 9052SOL    HW228056   1.835   2.535   4.368
 9053SOL     OW28057   1.936   1.780   2.980
 9053SOL    HW128058   1.916   1.804   3.075
 9053SOL    HW228059   1.851   1.779   2.927
 9054SOL     OW28060   1.515   6.483   2.286
 9054SOL    HW128061   1.440   6.547   2.300
 9054SOL    HW228062   1.558   6.500   2.197
 9055SOL     OW28063   5.983   3.082   3.915
 9055SOL    HW128064   6.009   3.113   4.007
 9055SOL    HW228065   5.884   3.074   3.909
 9056SOL     OW28066   0.904   0.957   2.019
 9056SOL    HW128067   0.928   1.043   2.063
 9056SOL    HW228068   0.807   0.957   1.995
 9057SOL     OW28069   5.672   5.207   5.990
 9057SOL    HW128070   5.646   5.301   5.968
 9057SOL    HW228071   5.759   5.185   5.947
 9058SOL     OW28072   2.318   2.121   2.932
 9058SOL    HW128073   2.356   2.175   2.857
 9058SOL    HW228074   2.225   2.094   2.908
 9059SOL     OW28075   1.115   2.059   4.726
 9059SOL    HW128076   1.049   2.053   4.651
 9059SOL    HW228077   1.177   1.981   4.721
 9060SOL     OW28078   6.026   2.879   2.795
 9060SOL    HW128079   6.031   2.779   2.798
 9060SOL    HW228080   6.010   2.909   2.701
 9061SOL     OW28081   2.680   5.429   1.847
 9061SOL    HW128082   2.688   5.418   1.748
 9061SOL    HW228083   2.594   5.476   1.869
 9062SOL     OW28084   1.862   6.268   1.840
 9062SOL    HW128085   1.934   6.292   1.775
 9062SOL    HW228086   1.802   6.347   1.854
 9063SOL     OW28087   2.753   0.280   2.959
 9063SOL    HW128088   2.774   0.183   2.957
 9063SOL    HW228089   2.832   0.332   2.927
 9064SOL     OW28090   6.205   2.653   5.547
 9064SOL    HW128091   6.295   2.617   5.574
 9064SOL    HW228092   6.216   2.722   5.476
 9065SOL     OW28093   3.249   6.342   5.946
 9065SOL    HW128094   3.257   6.249   5.984
 9065SOL    HW228095   3.233   6.336   5.847
 9066SOL     OW28096   5.304   6.211   0.471
 9066SOL    HW128097   5.241   6.281   0.437
 9066SOL    HW228098   5.304   6.212   0.571
 9067SOL     OW28099   6.296   0.523   4.301
 9067SOL    HW128100   6.376   0.463   4.300
 9067SOL    HW228101   6.326   0.618   4.294
 9068SOL     OW28102   2.330   6.743   4.935
 9068SOL    HW128103   2.425   6.760   4.962
 9068SOL    HW228104   2.328   6.678   4.859
 9069SOL     OW28105   2.111   2.356   2.001
 9069SOL    HW128106   2.023   2.352   2.047
 9069SOL    HW228107   2.169   2.425   2.045
 9070SOL     OW28108   1.803   4.279   5.023
 9070SOL    HW128109   1.753   4.287   5.109
 9070SOL    HW228110   1.780   4.356   4.964
 9071SOL     OW28111   5.404   6.982   1.086
 9071SOL    HW128112   5.430   0.003   1.172
 9071SOL    HW228113   5.413   0.024   1.011
 9072SOL     OW28114   0.074   1.619   2.225
 9072SOL    HW128115   0.040   1.596   2.317
 9072SOL    HW228116   0.002   1.603   2.158
 9073SOL     OW28117   3.714   6.757   2.019
 9073SOL    HW128118   3.767   6.837   2.047
 9073SOL    HW228119   3.616   6.777   2.029
 9074SOL     OW28120   2.375   1.223   2.062
 9074SOL    HW128121   2.314   1.293   2.100
 9074SOL    HW228122   2.457   1.216   2.119
 9075SOL     OW28123   1.567   1.094   2.916
 9075SOL    HW128124   1.542   1.018   2.855
 9075SOL    HW228125   1.585   1.176   2.862
 9076SOL     OW28126   5.968   2.161   4.749
 9076SOL    HW128127   6.001   2.099   4.820
 9076SOL    HW228128   5.927   2.242   4.792
 9077SOL     OW28129   5.872   0.357   0.110
 9077SOL    HW128130   5.825   0.315   0.187
 9077SOL    HW228131   5.805   0.386   0.042
 9078SOL     OW28132   4.237   3.604   6.375
 9078SOL    HW128133   4.141   3.613   6.348
 9078SOL    HW228134   4.273   3.693   6.401
 9079SOL     OW28135   3.385   0.043   3.946
 9079SOL    HW128136   3.344   0.124   3.989
 9079SOL    HW228137   3.346   0.031   3.854
 9080SOL     OW28138   4.968   2.668   0.060
 9080SOL    HW128139   4.919   2.615   7.015
 9080SOL    HW228140   5.050   2.619   0.088
 9081SOL     OW28141   3.744   6.351   2.707
 9081SOL    HW128142   3.647   6.373   2.695
 9081SOL    HW228143   3.764   6.265   2.660
 9082SOL     OW28144   2.733   0.664   5.875
 9082SOL    HW128145   2.689   0.751   5.900
 9082SOL    HW228146   2.664   0.601   5.840
 9083SOL     OW28147   3.204   5.907   5.890
 9083SOL    HW128148   3.174   5.820   5.928
 9083SOL    HW228149   3.205   5.901   5.790
 9084SOL     OW28150   3.034   3.983   4.780
 9084SOL    HW128151   3.052   4.042   4.858
 9084SOL    HW228152   2.989   3.899   4.811
 9085SOL     OW28153   2.594   4.942   1.346
 9085SOL    HW128154   2.693   4.943   1.333
 9085SOL    HW228155   2.570   5.001   1.423
 9086SOL     OW28156   1.162   4.738   0.422
 9086SOL    HW128157   1.153   4.667   0.352
 9086SOL    HW228158   1.203   4.699   0.504
 9087SOL     OW28159   4.938   2.941   1.744
 9087SOL    HW128160   4.879   2.954   1.665
 9087SOL    HW228161   4.911   3.004   1.817
 9088SOL     OW28162   5.962   6.691   0.938
 9088SOL    HW128163   5.967   6.718   1.034
 9088SOL    HW228164   5.930   6.596   0.932
 9089SOL     OW28165   5.144   5.959   5.590
 9089SOL    HW128166   5.201   5.877   5.577
 9089SOL    HW228167   5.184   6.016   5.661
 9090SOL     OW28168   0.024   0.794   3.674
 9090SOL    HW128169   0.096   0.782   3.742
 9090SOL    HW228170   6.958   0.786   3.718
 9091SOL     OW28171   3.365   4.368   0.183
 9091SOL    HW128172   3.353   4.291   0.247
 9091SOL    HW228173   3.299   4.360   0.109
 9092SOL     OW28174   0.341   1.105   0.575
 9092SOL    HW128175   0.370   1.022   0.621
 9092SOL    HW228176   0.252   1.089   0.531
 9093SOL     OW28177   1.055   6.544   5.861
 9093SOL    HW128178   1.132   6.480   5.853
 9093SOL    HW228179   1.009   6.552   5.773
 9094SOL     OW28180   6.588   5.064   2.851
 9094SOL    HW128181   6.495   5.099   2.861
 9094SOL    HW228182   6.601   5.029   2.758
 9095SOL     OW28183   5.242   4.694   6.217
 9095SOL    HW128184   5.269   4.768   6.278
 9095SOL    HW228185   5.205   4.732   6.133
 9096SOL     OW28186   5.888   4.412   2.535
 9096SOL    HW128187   5.843   4.334   2.579
 9096SOL    HW228188   5.825   4.490   2.534
 9097SOL     OW28189   1.012   1.523   0.894
 9097SOL    HW128190   0.967   1.439   0.922
 9097SOL    HW228191   1.087   1.502   0.831
 9098SOL     OW28192   3.625   1.835   5.186
 9098SOL    HW128193   3.585   1.866   5.272
 9098SOL    HW228194   3.628   1.911   5.121
 9099SOL     OW28195   3.311   2.353   5.607
 9099SOL    HW128196   3.250   2.280   5.575
 9099SOL    HW228197   3.312   2.427   5.539
 9100SOL     OW28198   0.426   3.201   3.322
 9100SOL    HW128199   0.399   3.261   3.398
 9100SOL    HW228200   0.464   3.116   3.358
 9101SOL     OW28201   2.432   2.553   2.809
 9101SOL    HW128202   2.456   2.597   2.896
 9101SOL    HW228203   2.375   2.615   2.755
 9102SOL     OW28204   2.794   6.379   1.669
 9102SOL    HW128205   2.778   6.400   1.572
 9102SOL    HW228206   2.706   6.355   1.712
 9103SOL     OW28207   0.017   3.015   6.541
 9103SOL    HW128208   6.978   3.072   6.487
 9103SOL    HW228209   6.997   2.994   6.629
 9104SOL     OW28210   0.351   5.960   2.415
 9104SOL    HW128211   0.423   5.894   2.392
 9104SOL    HW228212   0.342   5.967   2.514
 9105SOL     OW28213   0.882   1.412   6.410
 9105SOL    HW128214   0.889   1.367   6.321
 9105SOL    HW228215   0.971   1.408   6.456
 9106SOL     OW28216   6.908   3.396   1.121
 9106SOL    HW128217   6.924   3.405   1.219
 9106SOL    HW228218   6.859   3.476   1.087
 9107SOL     OW28219   2.885   0.932   6.755
 9107SOL    HW128220   2.834   0.980   6.683
 9107SOL    HW228221   2.971   0.898   6.718
 9108SOL     OW28222   5.224   4.654   5.221
 9108SOL    HW128223   5.162   4.576   5.229
 9108SOL    HW228224   5.274   4.665   5.307
 9109SOL     OW28225   6.513   3.266   3.627
 9109SOL    HW128226   6.549   3.359   3.621
 9109SOL    HW228227   6.420   3.269   3.663
 9110SOL     OW28228   1.996   4.974   4.198
 9110SOL    HW128229   2.012   5.039   4.124
 9110SOL    HW228230   2.074   4.912   4.205
 9111SOL     OW28231   5.312   2.276   0.842
 9111SOL    HW128232   5.266   2.363   0.826
 9111SOL    HW228233   5.410   2.293   0.855
 9112SOL     OW28234   1.109   5.210   2.900
 9112SOL    HW128235   1.016   5.241   2.918
 9112SOL    HW228236   1.130   5.220   2.803
 9113SOL     OW28237   4.841   2.945   2.661
 9113SOL    HW128238   4.771   2.904   2.602
 9113SOL    HW228239   4.916   2.979   2.605
 9114SOL     OW28240   0.521   5.152   3.537
 9114SOL    HW128241   0.456   5.179   3.607
 9114SOL    HW228242   0.472   5.112   3.459
 9115SOL     OW28243   6.698   6.128   4.857
 9115SOL    HW128244   6.738   6.217   4.838
 9115SOL    HW228245   6.600   6.131   4.839
 9116SOL     OW28246   0.046   6.861   2.818
 9116SOL    HW128247   0.092   6.949   2.804
 9116SOL    HW228248   0.026   6.850   2.916
 9117SOL     OW28249   3.820   2.741   6.332
 9117SOL    HW128250   3.873   2.736   6.416
 9117SOL    HW228251   3.747   2.809   6.342
 9118SOL     OW28252   0.469   2.979   0.337
 9118SOL    HW128253   0.484   2.900   0.396
 9118SOL    HW228254   0.530   2.975   0.258
 9119SOL     OW28255   4.090   0.840   2.474
 9119SOL    HW128256   4.034   0.816   2.553
 9119SOL    HW228257   4.123   0.757   2.430
 9120SOL     OW28258   6.751   1.585   5.492
 9120SOL    HW128259   6.657   1.553   5.500
 9120SOL    HW228260   6.802   1.524   5.431
 9121SOL     OW28261   3.838   6.699   5.001
 9121SOL    HW128262   3.763   6.680   4.938
 9121SOL    HW228263   3.807   6.763   5.072
 9122SOL     OW28264   2.349   4.551   2.078
 9122SOL    HW128265   2.307   4.625   2.026
 9122SOL    HW228266   2.337   4.465   2.028
 9123SOL     OW28267   1.767   0.700   4.764
 9123SOL    HW128268   1.688   0.704   4.703
 9123SOL    HW228269   1.737   0.706   4.859
 9124SOL     OW28270   4.393   5.169   0.231
 9124SOL    HW128271   4.337   5.122   0.162
 9124SOL    HW228272   4.483   5.126   0.235
 9125SOL     OW28273   4.279   4.307   0.864
 9125SOL    HW128274   4.367   4.296   0.818
 9125SOL    HW228275   4.280   4.258   0.950
 9126SOL     OW28276   6.301   3.408   1.476
 9126SOL    HW128277   6.349   3.492   1.498
 9126SOL    HW228278   6.231   3.391   1.546
 9127SOL     OW28279   5.953   1.277   5.988
 9127SOL    HW128280   5.860   1.313   5.981
 9127SOL    HW228281   6.017   1.353   5.998
 9128SOL     OW28282   5.794   2.315   5.290
 9128SOL    HW128283   5.813   2.413   5.292
 9128SOL    HW228284   5.766   2.288   5.198
 9129SOL     OW28285   6.883   1.971   6.813
 9129SOL    HW128286   6.861   2.058   6.770
 9129SOL    HW228287   6.876   1.980   6.913
 9130SOL     OW28288   1.313   4.362   6.424
 9130SOL    HW128289   1.252   4.406   6.359
 9130SOL    HW228290   1.321   4.265   6.403
 9131SOL     OW28291   5.620   3.372   6.214
 9131SOL    HW128292   5.669   3.324   6.141
 9131SOL    HW228293   5.680   3.380   6.294
 9132SOL     OW28294   0.795   5.796   4.327
 9132SOL    HW128295   0.724   5.866   4.330
 9132SOL    HW228296   0.755   5.706   4.342
 9133SOL     OW28297   3.785   6.148   1.204
 9133SOL    HW128298   3.822   6.109   1.288
 9133SOL    HW228299   3.688   6.169   1.217
 9134SOL     OW28300   3.909   5.111   1.260
 9134SOL    HW128301   3.828   5.124   1.316
 9134SOL    HW228302   3.991   5.114   1.318
 9135SOL     OW28303   0.460   0.163   1.433
 9135SOL    HW128304   0.400   0.186   1.356
 9135SOL    HW228305   0.469   0.064   1.440
 9136SOL     OW28306   4.662   6.041   6.303
 9136SOL    HW128307   4.671   6.125   6.357
 9136SOL    HW228308   4.662   6.064   6.206
 9137SOL     OW28309   4.038   0.796   6.334
 9137SOL    HW128310   3.939   0.787   6.348
 9137SOL    HW228311   4.073   0.713   6.290
 9138SOL     OW28312   6.850   4.479   6.262
 9138SOL    HW128313   6.927   4.528   6.222
 9138SOL    HW228314   6.854   4.382   6.237
 9139SOL     OW28315   1.605   1.284   2.735
 9139SOL    HW128316   1.685   1.244   2.689
 9139SOL    HW228317   1.612   1.384   2.734
 9140SOL     OW28318   0.531   3.706   2.483
 9140SOL    HW128319   0.502   3.802   2.476
 9140SOL    HW228320   0.628   3.702   2.505
 9141SOL     OW28321   5.983   6.518   1.535
 9141SOL    HW128322   5.901   6.548   1.487
 9141SOL    HW228323   6.026   6.597   1.579
 9142SOL     OW28324   0.356   4.000   1.653
 9142SOL    HW128325   0.432   3.938   1.634
 9142SOL    HW228326   0.308   4.022   1.568
 9143SOL     OW28327   6.552   3.102   0.439
 9143SOL    HW128328   6.598   3.131   0.355
 9143SOL    HW228329   6.590   3.014   0.468
 9144SOL     OW28330   3.257   5.440   4.946
 9144SOL    HW128331   3.185   5.384   4.906
 9144SOL    HW228332   3.316   5.384   5.003
 9145SOL     OW28333   0.448   5.834   6.522
 9145SOL    HW128334   0.512   5.880   6.583
 9145SOL    HW228335   0.475   5.738   6.511
 9146SOL     OW28336   5.409   3.187   3.040
 9146SOL    HW128337   5.475   3.149   2.975
 9146SOL    HW228338   5.458   3.230   3.115
 9147SOL     OW28339   6.465   0.642   5.546
 9147SOL    HW128340   6.493   0.734   5.574
 9147SOL    HW228341   6.544   0.580   5.552
 9148SOL     OW28342   5.227   6.281   2.487
 9148SOL    HW128343   5.145   6.238   2.449
 9148SOL    HW228344   5.287   6.210   2.524
 9149SOL     OW28345   5.149   3.919   2.173
 9149SOL    HW128346   5.140   3.820   2.166
 9149SOL    HW228347   5.231   3.949   2.125
 9150SOL     OW28348   3.580   4.800   0.984
 9150SOL    HW128349   3.486   4.765   0.983
 9150SOL    HW228350   3.622   4.786   0.895
 9151SOL     OW28351   1.855   4.583   3.761
 9151SOL    HW128352   1.902   4.554   3.677
 9151SOL    HW228353   1.910   4.559   3.840
 9152SOL     OW28354   2.386   4.376   4.715
 9152SOL    HW128355   2.330   4.310   4.664
 9152SOL    HW228356   2.378   4.357   4.813
 9153SOL     OW28357   0.415   2.357   6.449
 9153SOL    HW128358   0.499   2.409   6.467
 9153SOL    HW228359   0.378   2.322   6.535
 9154SOL     OW28360   4.777   4.643   4.702
 9154SOL    HW128361   4.784   4.692   4.615
 9154SOL    HW228362   4.696   4.674   4.752
 9155SOL     OW28363   2.586   4.748   2.346
 9155SOL    HW128364   2.606   4.698   2.262
 9155SOL    HW228365   2.497   4.791   2.338
 9156SOL     OW28366   6.458   1.863   1.203
 9156SOL    HW128367   6.461   1.782   1.262
 9156SOL    HW228368   6.546   1.874   1.156
 9157SOL     OW28369   3.353   3.795   6.857
 9157SOL    HW128370   3.287   3.851   6.807
 9157SOL    HW228371   3.424   3.854   6.895
 9158SOL     OW28372   6.280   4.027   4.289
 9158SOL    HW128373   6.321   4.042   4.379
 9158SOL    HW228374   6.352   4.008   4.223
 9159SOL     OW28375   2.219   0.685   3.733
 9159SOL    HW128376   2.298   0.663   3.790
 9159SOL    HW228377   2.174   0.600   3.705
 9160SOL     OW28378   0.660   6.266   5.760
 9160SOL    HW128379   0.707   6.253   5.848
 9160SOL    HW228380   0.567   6.297   5.776
 9161SOL     OW28381   6.506   4.736   3.223
 9161SOL    HW128382   6.437   4.690   3.279
 9161SOL    HW228383   6.523   4.828   3.260
 9162SOL     OW28384   4.113   0.308   2.714
 9162SOL    HW128385   4.083   0.330   2.622
 9162SOL    HW228386   4.127   0.393   2.766
 9163SOL     OW28387   6.824   3.251   3.654
 9163SOL    HW128388   6.775   3.338   3.661
 9163SOL    HW228389   6.786   3.186   3.720
 9164SOL     OW28390   2.115   0.399   6.806
 9164SOL    HW128391   2.021   0.404   6.840
 9164SOL    HW228392   2.168   0.334   6.861
 9165SOL     OW28393   5.320   2.209   6.059
 9165SOL    HW128394   5.311   2.130   5.998
 9165SOL    HW228395   5.349   2.179   6.150
 9166SOL     OW28396   4.785   5.630   0.766
 9166SOL    HW128397   4.811   5.646   0.861
 9166SOL    HW228398   4.687   5.607   0.762
 9167SOL     OW28399   2.039   2.022   5.937
 9167SOL    HW128400   1.961   1.978   5.981
 9167SOL    HW228401   2.014   2.115   5.910
 9168SOL     OW28402   6.863   6.345   6.396
 9168SOL    HW128403   6.856   6.383   6.488
 9168SOL    HW228404   6.897   6.416   6.334
 9169SOL     OW28405   7.007   6.682   6.249
 9169SOL    HW128406   0.042   6.621   6.194
 9169SOL    HW228407   0.010   6.777   6.232
 9170SOL     OW28408   1.952   0.212   6.339
 9170SOL    HW128409   1.997   0.269   6.407
 9170SOL    HW228410   1.988   0.235   6.248
 9171SOL     OW28411   3.695   6.189   0.284
 9171SOL    HW128412   3.793   6.194   0.263
 9171SOL    HW228413   3.681   6.129   0.362
 9172SOL     OW28414   4.272   1.253   3.797
 9172SOL    HW128415   4.370   1.248   3.777
 9172SOL    HW228416   4.254   1.208   3.885
 9173SOL     OW28417   5.870   3.382   5.415
 9173SOL    HW128418   5.968   3.381   5.435
 9173SOL    HW228419   5.838   3.476   5.409
 9174SOL     OW28420   0.802   5.694   6.762
 9174SOL    HW128421   0.897   5.698   6.793
 9174SOL    HW228422   0.793   5.627   6.689
 9175SOL     OW28423   1.274   0.357   6.742
 9175SOL    HW128424   1.295   0.406   6.826
 9175SOL    HW228425   1.288   0.417   6.663
 9176SOL     OW28426   2.718   0.427   2.070
 9176SOL    HW128427   2.664   0.361   2.122
 9176SOL    HW228428   2.659   0.500   2.037
 9177SOL     OW28429   1.559   2.510   4.198
 9177SOL    HW128430   1.602   2.597   4.174
 9177SOL    HW228431   1.462   2.525   4.219
 9178SOL     OW28432   1.947   6.040   6.321
 9178SOL    HW128433   1.855   6.065   6.293
 9178SOL    HW228434   1.961   5.942   6.309
 9179SOL     OW28435   1.777   5.790   4.929
 9179SOL    HW128436   1.716   5.721   4.890
 9179SOL    HW228437   1.842   5.820   4.860
 9180SOL     OW28438   6.618   2.498   3.287
 9180SOL    HW128439   6.547   2.528   3.223
 9180SOL    HW228440   6.583   2.427   3.346
 9181SOL     OW28441   4.845   2.742   3.683
 9181SOL    HW128442   4.869   2.764   3.778
 9181SOL    HW228443   4.875   2.817   3.624
 9182SOL     OW28444   3.275   0.392   3.035
 9182SOL    HW128445   3.178   0.414   3.021
 9182SOL    HW228446   3.302   0.319   2.973
 9183SOL     OW28447   4.650   4.419   6.549
 9183SOL    HW128448   4.707   4.493   6.584
 9183SOL    HW228449   4.560   4.424   6.592
 9184SOL     OW28450   3.567   2.194   1.062
 9184SOL    HW128451   3.584   2.284   1.022
 9184SOL    HW228452   3.653   2.154   1.092
 9185SOL     OW28453   0.160   0.011   5.556
 9185SOL    HW128454   0.259   0.016   5.545
 9185SOL    HW228455   0.122   6.970   5.489
 9186SOL     OW28456   5.466   0.850   5.267
 9186SOL    HW128457   5.424   0.904   5.341
 9186SOL    HW228458   5.556   0.887   5.246
 9187SOL     OW28459   4.539   2.034   0.282
 9187SOL    HW128460   4.516   1.941   0.312
 9187SOL    HW228461   4.518   2.098   0.356
 9188SOL     OW28462   1.713   0.360   1.842
 9188SOL    HW128463   1.637   0.396   1.788
 9188SOL    HW228464   1.800   0.392   1.804
 9189SOL     OW28465   2.940   6.725   2.895
 9189SOL    HW128466   2.970   6.630   2.904
 9189SOL    HW228467   2.895   6.754   2.980
 9190SOL     OW28468   0.559   3.773   5.054
 9190SOL    HW128469   0.643   3.744   5.009
 9190SOL    HW228470   0.480   3.739   5.002
 9191SOL     OW28471   5.752   1.232   6.641
 9191SOL    HW128472   5.661   1.222   6.600
 9191SOL    HW228473   5.770   1.154   6.701
 9192SOL     OW28474   6.122   3.092   5.586
 9192SOL    HW128475   6.100   3.054   5.676
 9192SOL    HW228476   6.156   3.019   5.527
 9193SOL     OW28477   3.994   3.683   4.004
 9193SOL    HW128478   3.991   3.778   3.973
 9193SOL    HW228479   3.906   3.658   4.044
 9194SOL     OW28480   4.003   5.796   2.217
 9194SOL    HW128481   3.988   5.851   2.299
 9194SOL    HW228482   3.922   5.798   2.159
 9195SOL     OW28483   1.883   2.984   3.212
 9195SOL    HW128484   1.848   3.071   3.178
 9195SOL    HW228485   1.982   2.990   3.226
 9196SOL     OW28486   5.294   0.197   3.455
 9196SOL    HW128487   5.198   0.186   3.426
 9196SOL    HW228488   5.354   0.167   3.381
 9197SOL     OW28489   3.460   5.437   0.453
 9197SOL    HW128490   3.371   5.436   0.498
 9197SOL    HW228491   3.475   5.525   0.409
 9198SOL     OW28492   6.192   4.398   6.360
 9198SOL    HW128493   6.279   4.363   6.394
 9198SOL    HW228494   6.209   4.470   6.292
 9199SOL     OW28495   0.303   2.764   6.321
 9199SOL    HW128496   0.324   2.844   6.265
 9199SOL    HW228497   0.206   2.765   6.346
 9200SOL     OW28498   2.196   5.659   6.121
 9200SOL    HW128499   2.159   5.571   6.149
 9200SOL    HW228500   2.175   5.675   6.025
 9201SOL     OW28501   0.705   2.904   0.623
 9201SOL    HW128502   0.797   2.864   0.619
 9201SOL    HW228503   0.664   2.882   0.712
 9202SOL     OW28504   1.189   5.759   3.739
 9202SOL    HW128505   1.118   5.829   3.747
 9202SOL    HW228506   1.147   5.671   3.714
 9203SOL     OW28507   5.519   2.944   5.806
 9203SOL    HW128508   5.513   2.858   5.756
 9203SOL    HW228509   5.534   2.925   5.903
 9204SOL     OW28510   4.935   3.551   3.991
 9204SOL    HW128511   4.998   3.480   3.961
 9204SOL    HW228512   4.904   3.605   3.912
 9205SOL     OW28513   4.870   5.232   2.505
 9205SOL    HW128514   4.948   5.274   2.552
 9205SOL    HW228515   4.899   5.194   2.418
 9206SOL     OW28516   3.343   0.313   3.445
 9206SOL    HW128517   3.410   0.251   3.404
 9206SOL    HW228518   3.390   0.382   3.499
 9207SOL     OW28519   3.592   5.214   6.551
 9207SOL    HW128520   3.558   5.197   6.458
 9207SOL    HW228521   3.520   5.258   6.605
 9208SOL     OW28522   5.470   4.134   2.416
 9208SOL    HW128523   5.548   4.180   2.375
 9208SOL    HW228524   5.399   4.121   2.347
 9209SOL     OW28525   4.320   0.351   1.618
 9209SOL    HW128526   4.262   0.331   1.697
 9209SOL    HW228527   4.414   0.366   1.648
 9210SOL     OW28528   0.634   0.802   1.571
 9210SOL    HW128529   0.597   0.767   1.657
 9210SOL    HW228530   0.682   0.888   1.588
 9211SOL     OW28531   5.754   3.526   6.426
 9211SOL    HW128532   5.784   3.470   6.504
 9211SOL    HW228533   5.713   3.611   6.460
 9212SOL     OW28534   4.952   4.421   5.087
 9212SOL    HW128535   5.024   4.366   5.044
 9212SOL    HW228536   4.977   4.439   5.182
 9213SOL     OW28537   4.828   5.498   4.588
 9213SOL    HW128538   4.775   5.424   4.547
 9213SOL    HW228539   4.767   5.559   4.638
 9214SOL     OW28540   0.004   2.803   5.173
 9214SOL    HW128541   6.946   2.802   5.114
 9214SOL    HW228542   0.013   2.713   5.217
 9215SOL     OW28543   1.163   4.729   3.103
 9215SOL    HW128544   1.166   4.810   3.044
 9215SOL    HW228545   1.080   4.732   3.159
 9216SOL     OW28546   2.597   6.780   4.164
 9216SOL    HW128547   2.585   6.683   4.189
 9216SOL    HW228548   2.513   6.814   4.123
 9217SOL     OW28549   5.701   1.864   6.971
 9217SOL    HW128550   5.716   1.802   6.894
 9217SOL    HW228551   5.604   1.890   6.975
 9218SOL     OW28552   3.628   0.833   6.738
 9218SOL    HW128553   3.535   0.828   6.774
 9218SOL    HW228554   3.649   0.927   6.713
 9219SOL     OW28555   4.413   3.374   5.960
 9219SOL    HW128556   4.383   3.373   5.865
 9219SOL    HW228557   4.501   3.420   5.967
 9220SOL     OW28558   1.465   6.640   2.580
 9220SOL    HW128559   1.384   6.616   2.634
 9220SOL    HW228560   1.437   6.656   2.485
 9221SOL     OW28561   2.835   6.889   4.268
 9221SOL    HW128562   2.742   6.885   4.233
 9221SOL    HW228563   2.899   6.904   4.191
 9222SOL     OW28564   2.592   4.939   5.030
 9222SOL    HW128565   2.576   4.883   5.111
 9222SOL    HW228566   2.523   4.917   4.960
 9223SOL     OW28567   1.098   2.763   4.316
 9223SOL    HW128568   1.122   2.845   4.369
 9223SOL    HW228569   0.999   2.751   4.316
 9224SOL     OW28570   1.647   4.319   3.499
 9224SOL    HW128571   1.645   4.368   3.586
 9224SOL    HW228572   1.706   4.368   3.435
 9225SOL     OW28573   4.052   5.473   5.860
 9225SOL    HW128574   3.975   5.534   5.879
 9225SOL    HW228575   4.022   5.400   5.799
 9226SOL     OW28576   1.078   0.283   1.223
 9226SOL    HW128577   0.990   0.328   1.240
 9226SOL    HW228578   1.149   0.326   1.279
 9227SOL     OW28579   1.987   6.205   1.537
 9227SOL    HW128580   1.950   6.298   1.542
 9227SOL    HW228581   1.924   6.147   1.485
 9228SOL     OW28582   2.364   2.418   0.118
 9228SOL    HW128583   2.270   2.404   0.088
 9228SOL    HW228584   2.427   2.391   0.045
 9229SOL     OW28585   0.705   5.125   5.999
 9229SOL    HW128586   0.613   5.161   5.982
 9229SOL    HW228587   0.770   5.201   6.002
 9230SOL     OW28588   5.004   3.460   2.837
 9230SOL    HW128589   4.978   3.390   2.770
 9230SOL    HW228590   5.069   3.524   2.796
 9231SOL     OW28591   0.778   3.361   5.129
 9231SOL    HW128592   0.807   3.398   5.041
 9231SOL    HW228593   0.844   3.386   5.200
 9232SOL     OW28594   2.995   5.006   0.955
 9232SOL    HW128595   2.907   5.010   1.003
 9232SOL    HW228596   3.067   4.981   1.019
 9233SOL     OW28597   0.250   6.740   0.977
 9233SOL    HW128598   0.223   6.730   1.073
 9233SOL    HW228599   0.251   6.836   0.952
 9234SOL     OW28600   2.195   6.016   0.630
 9234SOL    HW128601   2.135   6.029   0.551
 9234SOL    HW228602   2.148   5.959   0.698
 9235SOL     OW28603   2.142   3.240   3.396
 9235SOL    HW128604   2.064   3.300   3.378
 9235SOL    HW228605   2.157   3.181   3.317
 9236SOL     OW28606   2.701   3.859   6.469
 9236SOL    HW128607   2.773   3.876   6.403
 9236SOL    HW228608   2.714   3.768   6.510
 9237SOL     OW28609   0.875   5.738   3.093
 9237SOL    HW128610   0.935   5.809   3.058
 9237SOL    HW228611   0.795   5.780   3.136
 9238SOL     OW28612   2.748   2.119   5.979
 9238SOL    HW128613   2.815   2.173   6.029
 9238SOL    HW228614   2.770   2.120   5.881
 9239SOL     OW28615   6.819   4.255   6.461
 9239SOL    HW128616   6.919   4.254   6.463
 9239SOL    HW228617   6.785   4.326   6.523
 9240SOL     OW28618   5.087   2.863   2.045
 9240SOL    HW128619   5.024   2.932   2.011
 9240SOL    HW228620   5.179   2.902   2.055
 9241SOL     OW28621   0.366   5.939   0.655
 9241SOL    HW128622   0.326   6.029   0.636
 9241SOL    HW228623   0.372   5.886   0.570
 9242SOL     OW28624   1.925   3.794   2.021
 9242SOL    HW128625   1.881   3.768   1.935
 9242SOL    HW228626   1.879   3.874   2.059
 9243SOL     OW28627   0.022   0.871   2.237
 9243SOL    HW128628   6.989   0.949   2.266
 9243SOL    HW228629   6.998   0.823   2.163
 9244SOL     OW28630   2.935   6.125   5.684
 9244SOL    HW128631   2.867   6.076   5.629
 9244SOL    HW228632   2.889   6.186   5.748
 9245SOL     OW28633   0.675   4.478   3.788
 9245SOL    HW128634   0.694   4.515   3.879
 9245SOL    HW228635   0.684   4.378   3.790
 9246SOL     OW28636   5.490   0.493   3.767
 9246SOL    HW128637   5.435   0.467   3.688
 9246SOL    HW228638   5.473   0.588   3.791
 9247SOL     OW28639   3.511   5.232   2.395
 9247SOL    HW128640   3.573   5.175   2.448
 9247SOL    HW228641   3.433   5.177   2.365
 9248SOL     OW28642   2.967   2.232   4.714
 9248SOL    HW128643   2.881   2.237   4.765
 9248SOL    HW228644   3.043   2.250   4.776
 9249SOL     OW28645   4.796   5.271   1.807
 9249SOL    HW128646   4.808   5.171   1.812
 9249SOL    HW228647   4.882   5.313   1.778
 9250SOL     OW28648   6.582   2.755   3.814
 9250SOL    HW128649   6.585   2.854   3.801
 9250SOL    HW228650   6.506   2.731   3.875
 9251SOL     OW28651   3.582   1.408   2.147
 9251SOL    HW128652   3.658   1.408   2.082
 9251SOL    HW228653   3.500   1.444   2.102
 9252SOL     OW28654   5.774   0.335   4.909
 9252SOL    HW128655   5.757   0.404   4.980
 9252SOL    HW228656   5.803   0.380   4.825
 9253SOL     OW28657   5.468   5.368   5.371
 9253SOL    HW128658   5.497   5.337   5.461
 9253SOL    HW228659   5.377   5.409   5.377
 9254SOL     OW28660   4.386   4.583   2.983
 9254SOL    HW128661   4.436   4.552   2.902
 9254SOL    HW228662   4.423   4.538   3.064
 9255SOL     OW28663   4.853   3.512   0.346
 9255SOL    HW128664   4.838   3.485   0.251
 9255SOL    HW228665   4.892   3.435   0.396
 9256SOL     OW28666   2.598   0.231   2.221
 9256SOL    HW128667   2.606   0.271   2.312
 9256SOL    HW228668   2.505   0.243   2.186
 9257SOL     OW28669   6.073   5.139   3.650
 9257SOL    HW128670   6.051   5.215   3.712
 9257SOL    HW228671   6.160   5.157   3.605
 9258SOL     OW28672   4.130   3.600   1.706
 9258SOL    HW128673   4.147   3.686   1.658
 9258SOL    HW228674   4.214   3.547   1.711
 9259SOL     OW28675   1.565   1.537   0.955
 9259SOL    HW128676   1.575   1.619   0.898
 9259SOL    HW228677   1.627   1.466   0.921
 9260SOL     OW28678   6.508   2.550   6.108
 9260SOL    HW128679   6.592   2.535   6.056
 9260SOL    HW228680   6.481   2.646   6.101
 9261SOL     OW28681   4.363   1.562   6.895
 9261SOL    HW128682   4.296   1.488   6.894
 9261SOL    HW228683   4.317   1.649   6.878
 9262SOL     OW28684   0.498   6.091   5.025
 9262SOL    HW128685   0.452   6.003   5.025
 9262SOL    HW228686   0.472   6.143   4.944
 9263SOL     OW28687   3.065   5.535   2.134
 9263SOL    HW128688   3.129   5.509   2.062
 9263SOL    HW228689   3.057   5.460   2.200
 9264SOL     OW28690   4.679   3.843   0.323
 9264SOL    HW128691   4.700   3.765   0.382
 9264SOL    HW228692   4.597   3.823   0.269
 9265SOL     OW28693   3.595   2.681   0.324
 9265SOL    HW128694   3.679   2.656   0.275
 9265SOL    HW228695   3.530   2.605   0.318
 9266SOL     OW28696   0.822   5.981   1.237
 9266SOL    HW128697   0.857   6.046   1.168
 9266SOL    HW228698   0.899   5.942   1.287
 9267SOL     OW28699   0.363   1.863   4.208
 9267SOL    HW128700   0.444   1.804   4.200
 9267SOL    HW228701   0.290   1.813   4.253
 9268SOL     OW28702   0.841   0.015   2.723
 9268SOL    HW128703   0.755   7.016   2.677
 9268SOL    HW228704   0.839   0.110   2.754
 9269SOL     OW28705   4.219   0.420   6.038
 9269SOL    HW128706   4.184   0.370   6.117
 9269SOL    HW228707   4.190   0.373   5.954
 9270SOL     OW28708   4.194   7.016   5.764
 9270SOL    HW128709   4.189   6.917   5.755
 9270SOL    HW228710   4.289   0.022   5.770
 9271SOL     OW28711   6.119   0.347   0.679
 9271SOL    HW128712   6.111   0.385   0.771
 9271SOL    HW228713   6.204   0.295   0.672
 9272SOL     OW28714   1.091   6.251   6.282
 9272SOL    HW128715   1.098   6.342   6.323
 9272SOL    HW228716   1.042   6.190   6.344
 9273SOL     OW28717   6.642   5.974   3.564
 9273SOL    HW128718   6.710   6.033   3.606
 9273SOL    HW228719   6.557   5.978   3.616
 9274SOL     OW28720   6.953   1.938   0.085
 9274SOL    HW128721   6.996   1.922   0.174
 9274SOL    HW228722   6.958   1.855   0.029
 9275SOL     OW28723   6.448   0.649   0.408
 9275SOL    HW128724   6.448   0.713   0.485
 9275SOL    HW228725   6.384   0.680   0.339
 9276SOL     OW28726   2.117   4.742   0.543
 9276SOL    HW128727   2.024   4.777   0.529
 9276SOL    HW228728   2.131   4.662   0.484
 9277SOL     OW28729   4.457   5.019   1.950
 9277SOL    HW128730   4.429   4.928   1.919
 9277SOL    HW228731   4.428   5.087   1.884
 9278SOL     OW28732   2.113   0.833   5.861
 9278SOL    HW128733   2.097   0.913   5.918
 9278SOL    HW228734   2.190   0.780   5.897
 9279SOL     OW28735   3.419   6.521   1.647
 9279SOL    HW128736   3.509   6.557   1.622
 9279SOL    HW228737   3.379   6.578   1.719
 9280SOL     OW28738   2.877   1.231   2.778
 9280SOL    HW128739   2.883   1.169   2.856
 9280SOL    HW228740   2.968   1.244   2.739
 9281SOL     OW28741   3.204   4.417   6.977
 9281SOL    HW128742   3.125   4.467   7.010
 9281SOL    HW228743   3.267   4.479   6.930
 9282SOL     OW28744   5.018   1.284   3.607
 9282SOL    HW128745   5.046   1.189   3.594
 9282SOL    HW228746   4.947   1.307   3.541
 9283SOL     OW28747   5.109   0.535   4.765
 9283SOL    HW128748   5.085   0.457   4.707
 9283SOL    HW228749   5.195   0.575   4.734
 9284SOL     OW28750   2.985   3.431   5.165
 9284SOL    HW128751   2.982   3.353   5.103
 9284SOL    HW228752   2.911   3.423   5.232
 9285SOL     OW28753   4.854   3.543   1.240
 9285SOL    HW128754   4.908   3.611   1.191
 9285SOL    HW228755   4.832   3.577   1.332
 9286SOL     OW28756   5.410   5.232   0.841
 9286SOL    HW128757   5.487   5.282   0.800
 9286SOL    HW228758   5.332   5.234   0.779
 9287SOL     OW28759   3.862   4.635   6.016
 9287SOL    HW128760   3.840   4.732   6.021
 9287SOL    HW228761   3.779   4.581   6.031
 9288SOL     OW28762   4.108   1.867   2.655
 9288SOL    HW128763   4.025   1.811   2.647
 9288SOL    HW228764   4.178   1.815   2.704
 9289SOL     OW28765   4.804   0.341   0.896
 9289SOL    HW128766   4.714   0.310   0.925
 9289SOL    HW228767   4.839   0.279   0.825
 9290SOL     OW28768   5.658   0.897   3.829
 9290SOL    HW128769   5.714   0.876   3.748
 9290SOL    HW228770   5.609   0.983   3.814
 9291SOL     OW28771   1.303   5.305   5.857
 9291SOL    HW128772   1.315   5.379   5.791
 9291SOL    HW228773   1.293   5.343   5.949
 9292SOL     OW28774   2.752   2.207   6.711
 9292SOL    HW128775   2.716   2.120   6.745
 9292SOL    HW228776   2.846   2.194   6.681
 9293SOL     OW28777   5.767   4.333   6.866
 9293SOL    HW128778   5.677   4.328   6.910
 9293SOL    HW228779   5.757   4.314   6.768
 9294SOL     OW28780   5.306   1.580   6.274
 9294SOL    HW128781   5.273   1.490   6.246
 9294SOL    HW228782   5.267   1.650   6.214
 9295SOL     OW28783   5.658   0.298   5.740
 9295SOL    HW128784   5.602   0.366   5.788
 9295SOL    HW228785   5.613   0.274   5.654
 9296SOL     OW28786   1.879   4.618   0.286
 9296SOL    HW128787   1.901   4.651   0.194
 9296SOL    HW228788   1.835   4.691   0.338
 9297SOL     OW28789   0.862   0.058   3.062
 9297SOL    HW128790   0.851   6.986   3.032
 9297SOL    HW228791   0.898   0.113   2.986
 9298SOL     OW28792   1.347   6.111   6.168
 9298SOL    HW128793   1.348   6.035   6.233
 9298SOL    HW228794   1.266   6.168   6.184
 9299SOL     OW28795   0.931   2.144   4.506
 9299SOL    HW128796   0.864   2.110   4.572
 9299SOL    HW228797   0.889   2.214   4.449
 9300SOL     OW28798   0.271   5.290   5.386
 9300SOL    HW128799   0.271   5.209   5.328
 9300SOL    HW228800   0.182   5.300   5.431
 9301SOL     OW28801   6.003   4.973   4.678
 9301SOL    HW128802   5.923   5.019   4.638
 9301SOL    HW228803   6.077   5.039   4.688
 9302SOL     OW28804   2.088   3.595   4.735
 9302SOL    HW128805   2.029   3.547   4.670
 9302SOL    HW228806   2.146   3.530   4.783
 9303SOL     OW28807   2.930   3.821   0.713
 9303SOL    HW128808   2.948   3.738   0.660
 9303SOL    HW228809   2.909   3.796   0.807
 9304SOL     OW28810   4.564   5.010   0.515
 9304SOL    HW128811   4.601   5.101   0.535
 9304SOL    HW228812   4.609   4.942   0.572
 9305SOL     OW28813   3.789   0.732   0.817
 9305SOL    HW128814   3.694   0.743   0.786
 9305SOL    HW228815   3.792   0.739   0.917
 9306SOL     OW28816   1.349   4.318   5.392
 9306SOL    HW128817   1.264   4.317   5.339
 9306SOL    HW228818   1.341   4.254   5.468
 9307SOL     OW28819   0.762   3.869   0.235
 9307SOL    HW128820   0.717   3.874   0.324
 9307SOL    HW228821   0.830   3.796   0.237
 9308SOL     OW28822   1.586   3.749   2.430
 9308SOL    HW128823   1.493   3.774   2.405
 9308SOL    HW228824   1.645   3.830   2.426
 9309SOL     OW28825   3.683   5.895   5.746
 9309SOL    HW128826   3.748   5.968   5.725
 9309SOL    HW228827   3.599   5.936   5.783
 9310SOL     OW28828   5.425   6.558   5.671
 9310SOL    HW128829   5.325   6.553   5.680
 9310SOL    HW228830   5.457   6.644   5.712
 9311SOL     OW28831   5.539   4.410   1.514
 9311SOL    HW128832   5.577   4.480   1.574
 9311SOL    HW228833   5.449   4.440   1.480
 9312SOL     OW28834   1.625   2.517   0.837
 9312SOL    HW128835   1.669   2.567   0.912
 9312SOL    HW228836   1.689   2.448   0.802
 9313SOL     OW28837   0.190   7.000   1.833
 9313SOL    HW128838   0.244   6.915   1.832
 9313SOL    HW228839   0.185   0.011   1.927
 9314SOL     OW28840   6.828   3.490   0.124
 9314SOL    HW128841   6.884   3.570   0.107
 9314SOL    HW228842   6.791   3.494   0.217
 9315SOL     OW28843   6.662   6.897   5.634
 9315SOL    HW128844   6.607   6.931   5.710
 9315SOL    HW228845   6.721   6.822   5.665
 9316SOL     OW28846   5.809   6.540   5.523
 9316SOL    HW128847   5.873   6.554   5.447
 9316SOL    HW228848   5.782   6.629   5.561
 9317SOL     OW28849   4.269   5.780   3.867
 9317SOL    HW128850   4.308   5.797   3.777
 9317SOL    HW228851   4.176   5.817   3.871
 9318SOL     OW28852   5.464   0.077   0.117
 9318SOL    HW128853   5.442   0.025   0.035
 9318SOL    HW228854   5.382   0.122   0.151
 9319SOL     OW28855   2.377   2.575   1.046
 9319SOL    HW128856   2.446   2.569   1.119
 9319SOL    HW228857   2.422   2.600   0.960
 9320SOL     OW28858   4.348   0.769   5.434
 9320SOL    HW128859   4.276   0.705   5.461
 9320SOL    HW228860   4.318   0.822   5.355
 9321SOL     OW28861   0.851   1.085   5.155
 9321SOL    HW128862   0.846   1.185   5.152
 9321SOL    HW228863   0.760   1.047   5.138
 9322SOL     OW28864   0.113   4.601   0.002
 9322SOL    HW128865   0.123   4.577   6.928
 9322SOL    HW228866   0.148   4.526   0.058
 9323SOL     OW28867   1.280   1.264   4.673
 9323SOL    HW128868   1.317   1.333   4.611
 9323SOL    HW228869   1.282   1.298   4.766
 9324SOL     OW28870   1.930   3.832   2.873
 9324SOL    HW128871   1.992   3.810   2.949
 9324SOL    HW228872   1.984   3.868   2.796
 9325SOL     OW28873   0.036   0.199   0.749
 9325SOL    HW128874   0.126   0.212   0.708
 9325SOL    HW228875   0.007   0.284   0.792
 9326SOL     OW28876   2.805   4.877   0.171
 9326SOL    HW128877   2.860   4.959   0.158
 9326SOL    HW228878   2.859   4.809   0.222
 9327SOL     OW28879   4.023   6.843   2.584
 9327SOL    HW128880   3.940   6.847   2.640
 9327SOL    HW228881   4.068   6.754   2.598
 9328SOL     OW28882   1.672   0.444   4.969
 9328SOL    HW128883   1.658   0.398   5.057
 9328SOL    HW228884   1.770   0.454   4.952
 9329SOL     OW28885   6.727   5.267   1.280
 9329SOL    HW128886   6.822   5.242   1.298
 9329SOL    HW228887   6.682   5.290   1.366
 9330SOL     OW28888   6.875   0.054   5.886
 9330SOL    HW128889   6.974   0.061   5.874
 9330SOL    HW228890   6.852   6.987   5.924
 9331SOL     OW28891   1.968   1.675   6.405
 9331SOL    HW128892   1.909   1.756   6.398
 9331SOL    HW228893   1.973   1.630   6.315
 9332SOL     OW28894   4.633   5.292   0.593
 9332SOL    HW128895   4.565   5.355   0.555
 9332SOL    HW228896   4.724   5.318   0.561
 9333SOL     OW28897   4.044   5.224   6.219
 9333SOL    HW128898   4.101   5.265   6.148
 9333SOL    HW228899   4.099   5.209   6.302
 9334SOL     OW28900   4.788   6.365   4.526
 9334SOL    HW128901   4.738   6.431   4.582
 9334SOL    HW228902   4.885   6.391   4.522
 9335SOL     OW28903   1.589   1.647   7.008
 9335SOL    HW128904   1.679   1.687   0.004
 9335SOL    HW228905   1.526   1.719   6.978
 9336SOL     OW28906   4.984   6.455   4.179
 9336SOL    HW128907   4.978   6.377   4.241
 9336SOL    HW228908   4.951   6.537   4.226
 9337SOL     OW28909   5.049   1.403   5.733
 9337SOL    HW128910   5.097   1.339   5.793
 9337SOL    HW228911   4.951   1.402   5.756
 9338SOL     OW28912   6.467   6.391   0.931
 9338SOL    HW128913   6.481   6.316   0.995
 9338SOL    HW228914   6.495   6.477   0.973
 9339SOL     OW28915   6.009   5.851   7.010
 9339SOL    HW128916   6.035   5.932   0.039
 9339SOL    HW228917   5.928   5.809   0.028
 9340SOL     OW28918   3.719   4.879   2.818
 9340SOL    HW128919   3.696   4.935   2.738
 9340SOL    HW228920   3.818   4.865   2.821
 9341SOL     OW28921   5.964   4.704   1.023
 9341SOL    HW128922   6.034   4.638   0.995
 9341SOL    HW228923   5.873   4.667   1.003
 9342SOL     OW28924   2.739   0.493   4.690
 9342SOL    HW128925   2.792   0.411   4.672
 9342SOL    HW228926   2.787   0.573   4.655
 9343SOL     OW28927   4.974   3.983   1.863
 9343SOL    HW128928   4.914   4.005   1.940
 9343SOL    HW228929   5.057   4.037   1.869
 9344SOL     OW28930   5.486   5.823   0.793
 9344SOL    HW128931   5.457   5.830   0.698
 9344SOL    HW228932   5.441   5.745   0.837
 9345SOL     OW28933   6.831   4.620   2.088
 9345SOL    HW128934   6.925   4.640   2.064
 9345SOL    HW228935   6.788   4.702   2.126
 9346SOL     OW28936   4.965   0.312   2.150
 9346SOL    HW128937   4.877   0.354   2.172
 9346SOL    HW228938   4.983   0.320   2.052
 9347SOL     OW28939   3.064   6.107   0.360
 9347SOL    HW128940   3.145   6.049   0.351
 9347SOL    HW228941   3.032   6.105   0.455
 9348SOL     OW28942   2.520   5.242   2.538
 9348SOL    HW128943   2.564   5.321   2.496
 9348SOL    HW228944   2.561   5.158   2.502
 9349SOL     OW28945   6.881   5.342   2.779
 9349SOL    HW128946   6.891   5.432   2.823
 9349SOL    HW228947   6.841   5.354   2.688
 9350SOL     OW28948   6.778   1.953   4.218
 9350SOL    HW128949   6.763   1.867   4.170
 9350SOL    HW228950   6.875   1.978   4.214
 9351SOL     OW28951   3.246   0.227   6.453
 9351SOL    HW128952   3.183   0.168   6.403
 9351SOL    HW228953   3.338   0.219   6.413
 9352SOL     OW28954   3.346   2.674   6.018
 9352SOL    HW128955   3.441   2.705   6.023
 9352SOL    HW228956   3.334   2.615   5.938
 9353SOL     OW28957   1.641   4.042   0.782
 9353SOL    HW128958   1.664   4.042   0.684
 9353SOL    HW228959   1.604   4.131   0.807
 9354SOL     OW28960   6.473   2.073   6.909
 9354SOL    HW128961   6.519   1.994   6.869
 9354SOL    HW228962   6.386   2.045   6.948
 9355SOL     OW28963   6.785   1.794   4.921
 9355SOL    HW128964   6.876   1.760   4.947
 9355SOL    HW228965   6.733   1.816   5.003
 9356SOL     OW28966   4.837   5.830   1.607
 9356SOL    HW128967   4.906   5.809   1.538
 9356SOL    HW228968   4.748   5.797   1.576
 9357SOL     OW28969   3.178   3.162   6.334
 9357SOL    HW128970   3.084   3.132   6.346
 9357SOL    HW228971   3.210   3.207   6.418
 9358SOL     OW28972   6.569   3.539   2.616
 9358SOL    HW128973   6.491   3.520   2.556
 9358SOL    HW228974   6.642   3.473   2.600
 9359SOL     OW28975   1.091   3.729   5.677
 9359SOL    HW128976   1.153   3.744   5.599
 9359SOL    HW228977   1.039   3.645   5.662
 9360SOL     OW28978   1.455   6.975   6.077
 9360SOL    HW128979   1.517   0.031   6.075
 9360SOL    HW228980   1.366   7.002   6.040
 9361SOL     OW28981   1.663   6.313   3.140
 9361SOL    HW128982   1.697   6.222   3.117
 9361SOL    HW228983   1.621   6.355   3.060
 9362SOL     OW28984   1.560   2.837   2.204
 9362SOL    HW128985   1.634   2.856   2.269
 9362SOL    HW228986   1.512   2.922   2.184
 9363SOL     OW28987   3.955   5.897   1.752
 9363SOL    HW128988   4.022   5.932   1.818
 9363SOL    HW228989   3.895   5.831   1.797
 9364SOL     OW28990   3.820   2.863   5.675
 9364SOL    HW128991   3.862   2.922   5.744
 9364SOL    HW228992   3.720   2.868   5.685
 9365SOL     OW28993   2.308   2.327   5.254
 9365SOL    HW128994   2.357   2.335   5.167
 9365SOL    HW228995   2.241   2.401   5.262
 9366SOL     OW28996   3.649   0.066   6.976
 9366SOL    HW128997   3.668   0.006   0.030
 9366SOL    HW228998   3.550   0.079   6.968
 9367SOL     OW28999   6.531   6.137   2.348
 9367SOL    HW129000   6.618   6.138   2.299
 9367SOL    HW229001   6.513   6.228   2.385
 9368SOL     OW29002   2.618   1.638   3.768
 9368SOL    HW129003   2.585   1.545   3.778
 9368SOL    HW229004   2.706   1.638   3.720
 9369SOL     OW29005   0.119   0.283   4.994
 9369SOL    HW129006   0.165   0.253   4.910
 9369SOL    HW229007   0.075   0.204   5.037
 9370SOL     OW29008   5.008   0.015   2.187
 9370SOL    HW129009   5.028   0.106   2.150
 9370SOL    HW229010   4.944   0.023   2.263
 9371SOL     OW29011   2.451   4.844   0.623
 9371SOL    HW129012   2.380   4.914   0.633
 9371SOL    HW229013   2.489   4.849   0.531
 9372SOL     OW29014   5.020   6.329   2.903
 9372SOL    HW129015   5.047   6.304   2.810
 9372SOL    HW229016   5.001   6.427   2.907
 9373SOL     OW29017   4.518   2.064   2.254
 9373SOL    HW129018   4.419   2.073   2.243
 9373SOL    HW229019   4.540   2.041   2.349
 9374SOL     OW29020   0.956   3.120   1.013
 9374SOL    HW129021   1.053   3.121   0.988
 9374SOL    HW229022   0.900   3.127   0.930
 9375SOL     OW29023   6.045   1.468   3.110
 9375SOL    HW129024   5.998   1.476   3.022
 9375SOL    HW229025   6.038   1.374   3.144
 9376SOL     OW29026   2.752   3.984   0.844
 9376SOL    HW129027   2.767   3.939   0.756
 9376SOL    HW229028   2.728   4.080   0.829
 9377SOL     OW29029   2.059   5.473   4.042
 9377SOL    HW129030   2.138   5.427   4.002
 9377SOL    HW229031   2.064   5.571   4.021
 9378SOL     OW29032   1.328   1.393   5.161
 9378SOL    HW129033   1.333   1.337   5.244
 9378SOL    HW229034   1.285   1.481   5.182
 9379SOL     OW29035   4.329   6.199   4.953
 9379SOL    HW129036   4.325   6.142   4.871
 9379SOL    HW229037   4.385   6.153   5.023
 9380SOL     OW29038   5.790   4.940   5.206
 9380SOL    HW129039   5.813   4.989   5.122
 9380SOL    HW229040   5.701   4.895   5.196
 9381SOL     OW29041   3.408   2.472   5.837
 9381SOL    HW129042   3.346   2.447   5.763
 9381SOL    HW229043   3.500   2.487   5.801
 9382SOL     OW29044   3.447   0.749   2.787
 9382SOL    HW129045   3.421   0.789   2.699
 9382SOL    HW229046   3.407   0.803   2.861
 9383SOL     OW29047   1.557   5.823   4.597
 9383SOL    HW129048   1.556   5.837   4.498
 9383SOL    HW229049   1.650   5.800   4.626
 9384SOL     OW29050   2.932   6.840   1.765
 9384SOL    HW129051   2.864   6.795   1.707
 9384SOL    HW229052   2.971   6.918   1.717
 9385SOL     OW29053   3.718   0.418   3.080
 9385SOL    HW129054   3.637   0.402   3.136
 9385SOL    HW229055   3.689   0.443   2.987
 9386SOL     OW29056   2.132   6.376   4.979
 9386SOL    HW129057   2.153   6.305   4.912
 9386SOL    HW229058   2.121   6.334   5.069
 9387SOL     OW29059   2.132   1.552   0.175
 9387SOL    HW129060   2.198   1.521   0.243
 9387SOL    HW229061   2.055   1.488   0.173
 9388SOL     OW29062   2.135   5.418   2.735
 9388SOL    HW129063   2.153   5.499   2.791
 9388SOL    HW229064   2.208   5.407   2.667
 9389SOL     OW29065   1.366   0.044   4.404
 9389SOL    HW129066   1.375   6.969   4.423
 9389SOL    HW229067   1.450   0.076   4.360
 9390SOL     OW29068   4.540   4.835   4.400
 9390SOL    HW129069   4.565   4.892   4.478
 9390SOL    HW229070   4.464   4.775   4.426
 9391SOL     OW29071   2.288   1.246   5.126
 9391SOL    HW129072   2.376   1.199   5.119
 9391SOL    HW229073   2.296   1.338   5.087
 9392SOL     OW29074   6.756   0.603   5.953
 9392SOL    HW129075   6.790   0.510   5.945
 9392SOL    HW229076   6.831   0.667   5.938
 9393SOL     OW29077   3.375   6.920   6.084
 9393SOL    HW129078   3.289   6.966   6.063
 9393SOL    HW229079   3.366   6.822   6.064
 9394SOL     OW29080   0.705   1.392   2.258
 9394SOL    HW129081   0.784   1.437   2.217
 9394SOL    HW229082   0.626   1.401   2.197
 9395SOL     OW29083   2.268   1.825   1.022
 9395SOL    HW129084   2.356   1.791   1.055
 9395SOL    HW229085   2.244   1.777   0.938
 9396SOL     OW29086   2.338   5.314   4.246
 9396SOL    HW129087   2.253   5.335   4.295
 9396SOL    HW229088   2.372   5.224   4.276
 9397SOL     OW29089   4.338   0.263   7.022
 9397SOL    HW129090   4.290   0.213   6.950
 9397SOL    HW229091   4.281   0.266   0.081
 9398SOL     OW29092   6.863   0.598   4.721
 9398SOL    HW129093   6.952   0.644   4.718
 9398SOL    HW229094   6.803   0.636   4.651
 9399SOL     OW29095   6.910   1.764   5.866
 9399SOL    HW129096   6.926   1.765   5.965
 9399SOL    HW229097   6.841   1.695   5.845
 9400SOL     OW29098   4.045   1.230   2.142
 9400SOL    HW129099   4.040   1.327   2.120
 9400SOL    HW229100   3.972   1.181   2.094
 9401SOL     OW29101   5.667   0.210   3.619
 9401SOL    HW129102   5.724   0.149   3.674
 9401SOL    HW229103   5.640   0.289   3.674
 9402SOL     OW29104   1.280   5.038   3.815
 9402SOL    HW129105   1.367   5.084   3.826
 9402SOL    HW229106   1.212   5.080   3.875
 9403SOL     OW29107   6.181   1.841   2.992
 9403SOL    HW129108   6.236   1.909   3.041
 9403SOL    HW229109   6.107   1.887   2.943
 9404SOL     OW29110   1.618   3.071   6.821
 9404SOL    HW129111   1.616   3.094   6.918
 9404SOL    HW229112   1.707   3.094   6.783
 9405SOL     OW29113   1.535   5.329   2.495
 9405SOL    HW129114   1.632   5.332   2.474
 9405SOL    HW229115   1.512   5.242   2.539
 9406SOL     OW29116   6.670   3.148   5.589
 9406SOL    HW129117   6.707   3.224   5.537
 9406SOL    HW229118   6.572   3.161   5.604
 9407SOL     OW29119   2.764   5.423   2.810
 9407SOL    HW129120   2.670   5.391   2.798
 9407SOL    HW229121   2.816   5.405   2.727
 9408SOL     OW29122   5.123   2.322   6.525
 9408SOL    HW129123   5.179   2.397   6.489
 9408SOL    HW229124   5.097   2.261   6.450
 9409SOL     OW29125   6.240   5.705   7.013
 9409SOL    HW129126   6.143   5.726   6.998
 9409SOL    HW229127   6.263   5.724   0.086
 9410SOL     OW29128   3.170   0.009   1.762
 9410SOL    HW129129   3.261   0.006   1.720
 9410SOL    HW229130   3.165   6.962   1.834
 9411SOL     OW29131   3.238   3.113   2.103
 9411SOL    HW129132   3.334   3.110   2.128
 9411SOL    HW229133   3.209   3.024   2.067
 9412SOL     OW29134   6.620   2.498   2.240
 9412SOL    HW129135   6.564   2.538   2.312
 9412SOL    HW229136   6.593   2.403   2.225
 9413SOL     OW29137   2.875   6.103   3.719
 9413SOL    HW129138   2.939   6.060   3.655
 9413SOL    HW229139   2.829   6.033   3.773
 9414SOL     OW29140   3.254   0.791   3.485
 9414SOL    HW129141   3.196   0.731   3.540
 9414SOL    HW229142   3.349   0.780   3.512
 9415SOL     OW29143   3.236   6.386   1.914
 9415SOL    HW129144   3.154   6.365   1.861
 9415SOL    HW229145   3.315   6.343   1.870
 9416SOL     OW29146   0.725   2.793   1.107
 9416SOL    HW129147   0.802   2.835   1.154
 9416SOL    HW229148   0.733   2.693   1.111
 9417SOL     OW29149   4.163   0.263   6.264
 9417SOL    HW129150   4.239   0.231   6.322
 9417SOL    HW229151   4.085   0.201   6.274
 9418SOL     OW29152   3.608   6.575   1.056
 9418SOL    HW129153   3.692   6.536   1.094
 9418SOL    HW229154   3.553   6.502   1.015
 9419SOL     OW29155   3.606   5.207   5.761
 9419SOL    HW129156   3.629   5.279   5.827
 9419SOL    HW229157   3.546   5.244   5.691
 9420SOL     OW29158   6.387   3.607   5.462
 9420SOL    HW129159   6.366   3.701   5.435
 9420SOL    HW229160   6.481   3.585   5.437
 9421SOL     OW29161   2.244   6.773   4.347
 9421SOL    HW129162   2.149   6.770   4.313
 9421SOL    HW229163   2.246   6.816   4.437
 9422SOL     OW29164   3.897   5.885   3.249
 9422SOL    HW129165   3.960   5.933   3.310
 9422SOL    HW229166   3.909   5.918   3.155
 9423SOL     OW29167   3.621   0.637   3.893
 9423SOL    HW129168   3.564   0.718   3.880
 9423SOL    HW229169   3.640   0.625   3.991
 9424SOL     OW29170   5.560   1.268   4.468
 9424SOL    HW129171   5.652   1.239   4.495
 9424SOL    HW229172   5.502   1.187   4.456
 9425SOL     OW29173   6.569   3.196   6.666
 9425SOL    HW129174   6.493   3.199   6.732
 9425SOL    HW229175   6.656   3.203   6.715
 9426SOL     OW29176   3.402   2.020   6.474
 9426SOL    HW129177   3.466   2.077   6.526
 9426SOL    HW229178   3.407   2.044   6.377
 9427SOL     OW29179   2.762   4.799   3.446
 9427SOL    HW129180   2.831   4.792   3.517
 9427SOL    HW229181   2.679   4.840   3.484
 9428SOL     OW29182   6.050   0.588   1.456
 9428SOL    HW129183   5.963   0.635   1.445
 9428SOL    HW229184   6.105   0.635   1.525
 9429SOL     OW29185   2.004   3.714   2.468
 9429SOL    HW129186   1.980   3.621   2.439
 9429SOL    HW229187   2.042   3.764   2.390
 9430SOL     OW29188   0.507   4.260   2.726
 9430SOL    HW129189   0.435   4.209   2.679
 9430SOL    HW229190   0.466   4.325   2.790
 9431SOL     OW29191   6.445   4.266   1.303
 9431SOL    HW129192   6.525   4.318   1.273
 9431SOL    HW229193   6.367   4.289   1.246
 9432SOL     OW29194   4.514   0.531   2.842
 9432SOL    HW129195   4.511   0.442   2.888
 9432SOL    HW229196   4.481   0.602   2.904
 9433SOL     OW29197   2.917   5.357   2.599
 9433SOL    HW129198   3.006   5.391   2.629
 9433SOL    HW229199   2.930   5.272   2.547
 9434SOL     OW29200   5.325   4.908   2.800
 9434SOL    HW129201   5.412   4.908   2.751
 9434SOL    HW229202   5.251   4.928   2.737
 9435SOL     OW29203   0.624   2.744   4.490
 9435SOL    HW129204   0.688   2.667   4.492
 9435SOL    HW229205   0.666   2.820   4.441
 9436SOL     OW29206   1.371   2.480   1.773
 9436SOL    HW129207   1.445   2.526   1.723
 9436SOL    HW229208   1.284   2.500   1.728
 9437SOL     OW29209   1.987   5.790   3.158
 9437SOL    HW129210   1.926   5.831   3.227
 9437SOL    HW229211   1.970   5.833   3.069
 9438SOL     OW29212   0.193   0.484   1.911
 9438SOL    HW129213   0.186   0.565   1.851
 9438SOL    HW229214   0.258   0.420   1.871
 9439SOL     OW29215   0.628   3.278   1.304
 9439SOL    HW129216   0.603   3.189   1.341
 9439SOL    HW229217   0.672   3.266   1.215
 9440SOL     OW29218   4.154   4.754   3.695
 9440SOL    HW129219   4.055   4.745   3.692
 9440SOL    HW229220   4.183   4.827   3.633
 9441SOL     OW29221   0.375   3.491   5.098
 9441SOL    HW129222   0.426   3.497   5.013
 9441SOL    HW229223   0.436   3.462   5.172
 9442SOL     OW29224   4.239   2.988   0.536
 9442SOL    HW129225   4.256   3.085   0.524
 9442SOL    HW229226   4.290   2.954   0.615
 9443SOL     OW29227   2.100   5.426   0.672
 9443SOL    HW129228   2.169   5.372   0.720
 9443SOL    HW229229   2.042   5.472   0.739
 9444SOL     OW29230   1.338   3.046   0.130
 9444SOL    HW129231   1.339   2.967   0.191
 9444SOL    HW229232   1.403   3.115   0.163
 9445SOL     OW29233   5.491   3.386   3.533
 9445SOL    HW129234   5.503   3.434   3.447
 9445SOL    HW229235   5.568   3.405   3.594
 9446SOL     OW29236   6.557   5.710   4.267
 9446SOL    HW129237   6.503   5.627   4.277
 9446SOL    HW229238   6.654   5.688   4.273
 9447SOL     OW29239   6.109   3.752   4.772
 9447SOL    HW129240   6.189   3.808   4.794
 9447SOL    HW229241   6.041   3.809   4.726
 9448SOL     OW29242   7.010   0.324   6.823
 9448SOL    HW129243   0.040   0.396   6.778
 9448SOL    HW229244   6.951   0.278   6.756
 9449SOL     OW29245   6.836   6.217   0.229
 9449SOL    HW129246   6.750   6.181   0.265
 9449SOL    HW229247   6.908   6.149   0.243
 9450SOL     OW29248   2.474   5.295   5.174
 9450SOL    HW129249   2.434   5.227   5.112
 9450SOL    HW229250   2.481   5.256   5.266
 9451SOL     OW29251   4.295   6.703   5.780
 9451SOL    HW129252   4.242   6.671   5.859
 9451SOL    HW229253   4.234   6.718   5.702
 9452SOL     OW29254   1.978   4.390   6.884
 9452SOL    HW129255   2.032   4.450   6.825
 9452SOL    HW229256   2.006   4.402   6.979
 9453SOL     OW29257   1.921   4.976   3.415
 9453SOL    HW129258   1.934   4.957   3.513
 9453SOL    HW229259   1.954   4.898   3.362
 9454SOL     OW29260   3.417   3.014   6.764
 9454SOL    HW129261   3.503   2.980   6.800
 9454SOL    HW229262   3.381   3.085   6.824
 9455SOL     OW29263   3.333   1.497   3.381
 9455SOL    HW129264   3.238   1.509   3.353
 9455SOL    HW229265   3.393   1.520   3.304
 9456SOL     OW29266   0.989   2.978   1.247
 9456SOL    HW129267   0.964   3.037   1.324
 9456SOL    HW229268   0.983   3.030   1.162
 9457SOL     OW29269   2.298   3.847   5.366
 9457SOL    HW129270   2.324   3.753   5.385
 9457SOL    HW229271   2.364   3.889   5.304
 9458SOL     OW29272   1.292   2.944   6.723
 9458SOL    HW129273   1.250   3.013   6.664
 9458SOL    HW229274   1.391   2.954   6.722
 9459SOL     OW29275   5.266   4.404   3.399
 9459SOL    HW129276   5.213   4.391   3.316
 9459SOL    HW229277   5.353   4.448   3.377
 9460SOL     OW29278   0.382   2.811   3.924
 9460SOL    HW129279   0.360   2.909   3.923
 9460SOL    HW229280   0.373   2.777   4.018
 9461SOL     OW29281   6.623   1.684   2.382
 9461SOL    HW129282   6.647   1.770   2.426
 9461SOL    HW229283   6.677   1.673   2.299
 9462SOL     OW29284   2.155   3.911   3.432
 9462SOL    HW129285   2.075   3.962   3.402
 9462SOL    HW229286   2.147   3.816   3.403
 9463SOL     OW29287   6.656   0.931   1.894
 9463SOL    HW129288   6.654   0.880   1.808
 9463SOL    HW229289   6.566   0.973   1.910
 9464SOL     OW29290   6.552   0.335   1.175
 9464SOL    HW129291   6.561   0.413   1.238
 9464SOL    HW229292   6.482   0.355   1.107
 9465SOL     OW29293   1.506   4.836   2.756
 9465SOL    HW129294   1.566   4.893   2.813
 9465SOL    HW229295   1.457   4.772   2.815
 9466SOL     OW29296   4.334   4.801   6.175
 9466SOL    HW129297   4.379   4.890   6.165
 9466SOL    HW229298   4.369   4.738   6.107
 9467SOL     OW29299   1.464   2.751   1.907
 9467SOL    HW129300   1.386   2.724   1.851
 9467SOL    HW229301   1.532   2.796   1.849
 9468SOL     OW29302   5.918   3.563   6.202
 9468SOL    HW129303   5.862   3.527   6.277
 9468SOL    HW229304   5.863   3.568   6.119
 9469SOL     OW29305   6.555   5.723   1.944
 9469SOL    HW129306   6.468   5.743   1.899
 9469SOL    HW229307   6.630   5.760   1.889
 9470SOL     OW29308   4.592   3.353   5.682
 9470SOL    HW129309   4.637   3.441   5.698
 9470SOL    HW229310   4.493   3.367   5.674
 9471SOL     OW29311   0.163   2.214   4.744
 9471SOL    HW129312   0.259   2.194   4.763
 9471SOL    HW229313   0.141   2.306   4.777
 9472SOL     OW29314   5.946   3.572   4.888
 9472SOL    HW129315   5.999   3.639   4.837
 9472SOL    HW229316   5.880   3.619   4.946
 9473SOL     OW29317   3.314   5.324   6.281
 9473SOL    HW129318   3.402   5.357   6.316
 9473SOL    HW229319   3.316   5.225   6.272
 9474SOL     OW29320   0.486   2.351   6.887
 9474SOL    HW129321   0.521   2.418   6.952
 9474SOL    HW229322   0.510   2.259   6.917
 9475SOL     OW29323   3.212   3.272   6.080
 9475SOL    HW129324   3.147   3.237   6.148
 9475SOL    HW229325   3.303   3.234   6.098
 9476SOL     OW29326   3.524   4.157   4.375
 9476SOL    HW129327   3.533   4.059   4.357
 9476SOL    HW229328   3.428   4.181   4.385
 9477SOL     OW29329   0.445   3.497   1.451
 9477SOL    HW129330   0.517   3.446   1.403
 9477SOL    HW229331   0.468   3.502   1.548
 9478SOL     OW29332   5.086   3.103   0.331
 9478SOL    HW129333   5.112   3.073   0.238
 9478SOL    HW229334   5.037   3.029   0.376
 9479SOL     OW29335   4.395   6.240   6.800
 9479SOL    HW129336   4.348   6.152   6.804
 9479SOL    HW229337   4.343   6.302   6.741
 9480SOL     OW29338   4.771   3.838   0.823
 9480SOL    HW129339   4.719   3.812   0.741
 9480SOL    HW229340   4.848   3.775   0.834
 9481SOL     OW29341   4.954   3.415   2.057
 9481SOL    HW129342   4.953   3.502   2.107
 9481SOL    HW229343   4.922   3.342   2.116
 9482SOL     OW29344   0.137   0.505   2.821
 9482SOL    HW129345   0.064   0.542   2.878
 9482SOL    HW229346   0.193   0.442   2.874
 9483SOL     OW29347   1.458   1.867   1.907
 9483SOL    HW129348   1.395   1.791   1.921
 9483SOL    HW229349   1.551   1.839   1.932
 9484SOL     OW29350   3.713   1.101   3.265
 9484SOL    HW129351   3.706   1.200   3.280
 9484SOL    HW229352   3.785   1.083   3.198
 9485SOL     OW29353   0.054   0.565   0.855
 9485SOL    HW129354   0.048   0.664   0.850
 9485SOL    HW229355   7.002   0.524   0.802
 9486SOL     OW29356   3.093   6.052   1.032
 9486SOL    HW129357   3.049   6.108   1.103
 9486SOL    HW229358   3.041   5.967   1.020
 9487SOL     OW29359   3.823   3.603   3.369
 9487SOL    HW129360   3.886   3.597   3.292
 9487SOL    HW229361   3.846   3.682   3.426
 9488SOL     OW29362   1.998   6.469   1.000
 9488SOL    HW129363   1.954   6.554   0.969
 9488SOL    HW229364   1.943   6.427   1.071
 9489SOL     OW29365   4.431   4.508   1.799
 9489SOL    HW129366   4.467   4.501   1.706
 9489SOL    HW229367   4.501   4.479   1.864
 9490SOL     OW29368   7.009   5.240   1.334
 9490SOL    HW129369   0.047   5.161   1.338
 9490SOL    HW229370   7.018   5.285   1.246
 9491SOL     OW29371   6.467   4.881   3.795
 9491SOL    HW129372   6.448   4.895   3.698
 9491SOL    HW229373   6.501   4.788   3.809
 9492SOL     OW29374   3.392   2.900   3.323
 9492SOL    HW129375   3.380   2.894   3.224
 9492SOL    HW229376   3.310   2.938   3.364
 9493SOL     OW29377   3.278   5.186   3.692
 9493SOL    HW129378   3.368   5.205   3.652
 9493SOL    HW229379   3.267   5.239   3.776
 9494SOL     OW29380   4.998   4.386   1.541
 9494SOL    HW129381   4.997   4.372   1.640
 9494SOL    HW229382   4.963   4.305   1.495
 9495SOL     OW29383   6.148   1.755   3.410
 9495SOL    HW129384   6.164   1.736   3.507
 9495SOL    HW229385   6.235   1.754   3.361
 9496SOL     OW29386   6.376   4.463   1.493
 9496SOL    HW129387   6.316   4.429   1.566
 9496SOL    HW229388   6.370   4.402   1.414
 9497SOL     OW29389   5.406   6.028   6.509
 9497SOL    HW129390   5.469   6.066   6.442
 9497SOL    HW229391   5.375   6.100   6.571
 9498SOL     OW29392   4.834   6.733   4.594
 9498SOL    HW129393   4.876   6.813   4.638
 9498SOL    HW229394   4.870   6.726   4.500
 9499SOL     OW29395   1.705   5.522   6.464
 9499SOL    HW129396   1.723   5.506   6.367
 9499SOL    HW229397   1.776   5.582   6.502
 9500SOL     OW29398   5.681   0.717   0.806
 9500SOL    HW129399   5.659   0.698   0.901
 9500SOL    HW229400   5.723   0.636   0.764
 9501SOL     OW29401   3.151   1.370   4.458
 9501SOL    HW129402   3.063   1.375   4.505
 9501SOL    HW229403   3.211   1.305   4.505
 9502SOL     OW29404   5.541   2.675   5.200
 9502SOL    HW129405   5.637   2.647   5.207
 9502SOL    HW229406   5.502   2.686   5.291
 9503SOL     OW29407   6.944   1.642   1.722
 9503SOL    HW129408   6.992   1.728   1.707
 9503SOL    HW229409   6.968   1.605   1.812
 9504SOL     OW29410   0.115   2.570   1.232
 9504SOL    HW129411   0.047   2.632   1.193
 9504SOL    HW229412   0.180   2.543   1.161
 9505SOL     OW29413   5.353   4.760   3.203
 9505SOL    HW129414   5.302   4.805   3.276
 9505SOL    HW229415   5.308   4.777   3.115
 9506SOL     OW29416   0.613   2.364   6.059
 9506SOL    HW129417   0.590   2.266   6.055
 9506SOL    HW229418   0.712   2.374   6.059
 9507SOL     OW29419   0.967   2.553   3.505
 9507SOL    HW129420   0.894   2.488   3.525
 9507SOL    HW229421   0.967   2.572   3.406
 9508SOL     OW29422   6.314   2.993   0.548
 9508SOL    HW129423   6.392   3.055   0.536
 9508SOL    HW229424   6.347   2.904   0.580
 9509SOL     OW29425   0.641   0.794   4.046
 9509SOL    HW129426   0.679   0.815   3.956
 9509SOL    HW229427   0.586   0.711   4.041
 9510SOL     OW29428   1.688   3.507   2.741
 9510SOL    HW129429   1.615   3.575   2.751
 9510SOL    HW229430   1.697   3.454   2.825
 9511SOL     OW29431   1.409   0.450   0.996
 9511SOL    HW129432   1.483   0.467   1.061
 9511SOL    HW229433   1.363   0.365   1.021
 9512SOL     OW29434   5.378   1.547   1.452
 9512SOL    HW129435   5.307   1.564   1.383
 9512SOL    HW229436   5.432   1.630   1.465
 9513SOL     OW29437   1.699   3.760   6.218
 9513SOL    HW129438   1.623   3.790   6.161
 9513SOL    HW229439   1.783   3.807   6.191
 9514SOL     OW29440   1.911   5.177   6.617
 9514SOL    HW129441   1.823   5.137   6.590
 9514SOL    HW229442   1.974   5.104   6.644
 9515SOL     OW29443   1.970   5.666   1.366
 9515SOL    HW129444   2.021   5.582   1.388
 9515SOL    HW229445   1.872   5.646   1.365
 9516SOL     OW29446   5.036   4.463   5.343
 9516SOL    HW129447   4.938   4.457   5.362
 9516SOL    HW229448   5.087   4.436   5.424
 9517SOL     OW29449   1.331   4.965   0.918
 9517SOL    HW129450   1.394   5.024   0.968
 9517SOL    HW229451   1.300   5.011   0.835
 9518SOL     OW29452   2.078   2.030   6.911
 9518SOL    HW129453   2.116   1.938   6.923
 9518SOL    HW229454   2.017   2.051   6.987
 9519SOL     OW29455   4.032   3.222   4.324
 9519SOL    HW129456   4.014   3.178   4.411
 9519SOL    HW229457   4.092   3.301   4.338
 9520SOL     OW29458   0.946   1.863   3.238
 9520SOL    HW129459   0.894   1.947   3.253
 9520SOL    HW229460   0.979   1.828   3.325
 9521SOL     OW29461   5.160   5.281   1.492
 9521SOL    HW129462   5.154   5.353   1.422
 9521SOL    HW229463   5.253   5.245   1.494
 9522SOL     OW29464   4.007   4.980   1.028
 9522SOL    HW129465   3.972   4.886   1.029
 9522SOL    HW229466   3.963   5.033   1.101
 9523SOL     OW29467   2.687   4.745   5.313
 9523SOL    HW129468   2.715   4.752   5.217
 9523SOL    HW229469   2.758   4.698   5.365
 9524SOL     OW29470   3.477   3.131   0.746
 9524SOL    HW129471   3.390   3.087   0.724
 9524SOL    HW229472   3.515   3.173   0.664
 9525SOL     OW29473   2.203   2.440   5.587
 9525SOL    HW129474   2.292   2.396   5.603
 9525SOL    HW229475   2.196   2.466   5.491
 9526SOL     OW29476   6.389   4.854   1.149
 9526SOL    HW129477   6.448   4.882   1.225
 9526SOL    HW229478   6.388   4.755   1.142
 9527SOL     OW29479   0.453   0.721   4.605
 9527SOL    HW129480   0.455   0.819   4.624
 9527SOL    HW229481   0.365   0.683   4.635
 9528SOL     OW29482   6.602   1.458   0.771
 9528SOL    HW129483   6.635   1.460   0.676
 9528SOL    HW229484   6.575   1.550   0.799
 9529SOL     OW29485   6.380   3.549   6.345
 9529SOL    HW129486   6.301   3.500   6.310
 9529SOL    HW229487   6.397   3.630   6.288
 9530SOL     OW29488   2.174   3.288   2.936
 9530SOL    HW129489   2.237   3.243   2.999
 9530SOL    HW229490   2.087   3.238   2.934
 9531SOL     OW29491   4.402   5.274   2.925
 9531SOL    HW129492   4.470   5.346   2.934
 9531SOL    HW229493   4.426   5.215   2.848
 9532SOL     OW29494   6.985   6.272   1.283
 9532SOL    HW129495   6.968   6.353   1.340
 9532SOL    HW229496   6.955   6.291   1.189
 9533SOL     OW29497   0.311   5.859   5.059
 9533SOL    HW129498   0.366   5.819   5.132
 9533SOL    HW229499   0.217   5.824   5.065
 9534SOL     OW29500   0.050   3.988   4.699
 9534SOL    HW129501   7.005   4.047   4.655
 9534SOL    HW229502   0.012   3.896   4.711
 9535SOL     OW29503   2.352   0.674   6.609
 9535SOL    HW129504   2.365   0.615   6.688
 9535SOL    HW229505   2.261   0.714   6.612
 9536SOL     OW29506   2.883   3.806   5.863
 9536SOL    HW129507   2.892   3.740   5.789
 9536SOL    HW229508   2.787   3.833   5.872
 9537SOL     OW29509   2.707   6.568   3.831
 9537SOL    HW129510   2.744   6.644   3.778
 9537SOL    HW229511   2.611   6.585   3.851
 9538SOL     OW29512   5.894   1.697   3.695
 9538SOL    HW129513   5.939   1.653   3.617
 9538SOL    HW229514   5.961   1.720   3.765
 9539SOL     OW29515   3.540   3.780   4.874
 9539SOL    HW129516   3.450   3.820   4.892
 9539SOL    HW229517   3.601   3.799   4.951
 9540SOL     OW29518   6.192   3.570   4.563
 9540SOL    HW129519   6.167   3.616   4.649
 9540SOL    HW229520   6.134   3.604   4.489
 9541SOL     OW29521   3.417   0.736   5.678
 9541SOL    HW129522   3.413   0.717   5.776
 9541SOL    HW229523   3.502   0.785   5.658
 9542SOL     OW29524   4.911   4.414   4.664
 9542SOL    HW129525   4.858   4.497   4.681
 9542SOL    HW229526   4.852   4.334   4.675
 9543SOL     OW29527   3.634   0.755   5.874
 9543SOL    HW129528   3.713   0.813   5.851
 9543SOL    HW229529   3.600   0.782   5.965
 9544SOL     OW29530   6.963   2.092   2.866
 9544SOL    HW129531   0.002   2.017   2.843
 9544SOL    HW229532   7.013   2.179   2.862
 9545SOL     OW29533   6.002   5.769   4.321
 9545SOL    HW129534   5.990   5.842   4.253
 9545SOL    HW229535   6.099   5.758   4.342
 9546SOL     OW29536   3.501   1.951   5.386
 9546SOL    HW129537   3.448   2.034   5.371
 9546SOL    HW229538   3.449   1.889   5.446
 9547SOL     OW29539   1.984   6.269   4.468
 9547SOL    HW129540   2.056   6.280   4.399
 9547SOL    HW229541   1.900   6.312   4.436
 9548SOL     OW29542   6.022   5.145   6.324
 9548SOL    HW129543   6.067   5.234   6.328
 9548SOL    HW229544   6.085   5.074   6.354
 9549SOL     OW29545   2.492   2.814   1.364
 9549SOL    HW129546   2.556   2.888   1.348
 9549SOL    HW229547   2.433   2.837   1.441
 9550SOL     OW29548   0.342   1.515   0.442
 9550SOL    HW129549   0.381   1.578   0.509
 9550SOL    HW229550   0.393   1.429   0.444
 9551SOL     OW29551   5.469   1.504   4.407
 9551SOL    HW129552   5.397   1.531   4.471
 9551SOL    HW229553   5.521   1.427   4.446
 9552SOL     OW29554   1.437   0.226   3.740
 9552SOL    HW129555   1.379   0.305   3.756
 9552SOL    HW229556   1.392   0.144   3.777
 9553SOL     OW29557   6.358   3.563   5.986
 9553SOL    HW129558   6.341   3.585   5.890
 9553SOL    HW229559   6.453   3.532   5.997
 9554SOL     OW29560   1.725   6.432   1.129
 9554SOL    HW129561   1.780   6.404   1.207
 9554SOL    HW229562   1.634   6.390   1.135
 9555SOL     OW29563   1.153   0.970   3.332
 9555SOL    HW129564   1.115   1.053   3.292
 9555SOL    HW229565   1.131   0.966   3.430
 9556SOL     OW29566   1.216   3.331   1.635
 9556SOL    HW129567   1.161   3.381   1.568
 9556SOL    HW229568   1.222   3.382   1.720
 9557SOL     OW29569   0.601   6.799   2.372
 9557SOL    HW129570   0.671   6.810   2.301
 9557SOL    HW229571   0.627   6.723   2.432
 9558SOL     OW29572   6.031   6.151   4.992
 9558SOL    HW129573   6.037   6.134   4.894
 9558SOL    HW229574   6.086   6.083   5.041
 9559SOL     OW29575   6.861   4.560   0.751
 9559SOL    HW129576   6.907   4.589   0.835
 9559SOL    HW229577   6.927   4.516   0.690
 9560SOL     OW29578   1.676   1.492   3.364
 9560SOL    HW129579   1.670   1.562   3.435
 9560SOL    HW229580   1.768   1.453   3.365
 9561SOL     OW29581   1.377   6.561   0.228
 9561SOL    HW129582   1.331   6.565   0.140
 9561SOL    HW229583   1.382   6.653   0.268
 9562SOL     OW29584   3.353   0.127   5.535
 9562SOL    HW129585   3.253   0.125   5.539
 9562SOL    HW229586   3.385   0.075   5.456
 9563SOL     OW29587   6.121   6.267   0.956
 9563SOL    HW129588   6.189   6.325   0.911
 9563SOL    HW229589   6.079   6.317   1.032
 9564SOL     OW29590   2.918   7.015   0.575
 9564SOL    HW129591   2.989   6.964   0.624
 9564SOL    HW229592   2.905   6.975   0.484
 9565SOL     OW29593   3.920   0.332   4.814
 9565SOL    HW129594   3.870   0.279   4.745
 9565SOL    HW229595   4.017   0.307   4.812
 9566SOL     OW29596   1.977   5.243   6.987
 9566SOL    HW129597   1.991   5.150   6.956
 9566SOL    HW229598   2.041   5.264   0.038
 9567SOL     OW29599   5.236   4.842   0.325
 9567SOL    HW129600   5.196   4.911   0.265
 9567SOL    HW229601   5.291   4.778   0.271
 9568SOL     OW29602   4.509   2.316   6.716
 9568SOL    HW129603   4.507   2.225   6.757
 9568SOL    HW229604   4.515   2.385   6.788
 9569SOL     OW29605   0.908   2.059   2.668
 9569SOL    HW129606   0.934   1.972   2.626
 9569SOL    HW229607   0.982   2.091   2.727
 9570SOL     OW29608   0.759   3.054   2.145
 9570SOL    HW129609   0.830   2.983   2.137
 9570SOL    HW229610   0.705   3.056   2.062
 9571SOL     OW29611   3.724   4.182   6.181
 9571SOL    HW129612   3.762   4.164   6.090
 9571SOL    HW229613   3.633   4.141   6.188
 9572SOL     OW29614   1.690   4.993   2.069
 9572SOL    HW129615   1.740   4.995   2.155
 9572SOL    HW229616   1.612   5.055   2.074
 9573SOL     OW29617   0.853   1.354   6.814
 9573SOL    HW129618   0.909   1.382   6.736
 9573SOL    HW229619   0.856   1.254   6.824
 9574SOL     OW29620   4.132   3.273   3.742
 9574SOL    HW129621   4.155   3.357   3.792
 9574SOL    HW229622   4.172   3.194   3.788
 9575SOL     OW29623   6.555   1.309   1.401
 9575SOL    HW129624   6.621   1.381   1.422
 9575SOL    HW229625   6.469   1.328   1.448
 9576SOL     OW29626   2.426   0.467   2.219
 9576SOL    HW129627   2.359   0.530   2.258
 9576SOL    HW229628   2.398   0.442   2.126
 9577SOL     OW29629   1.792   0.692   6.025
 9577SOL    HW129630   1.817   0.602   6.061
 9577SOL    HW229631   1.841   0.763   6.076
 9578SOL     OW29632   0.727   4.224   3.822
 9578SOL    HW129633   0.678   4.148   3.779
 9578SOL    HW229634   0.712   4.223   3.920
 9579SOL     OW29635   1.679   4.982   2.943
 9579SOL    HW129636   1.711   5.075   2.960
 9579SOL    HW229637   1.753   4.917   2.961
 9580SOL     OW29638   3.684   3.291   0.844
 9580SOL    HW129639   3.654   3.305   0.938
 9580SOL    HW229640   3.623   3.225   0.799
 9581SOL     OW29641   0.846   5.311   6.383
 9581SOL    HW129642   0.871   5.237   6.447
 9581SOL    HW229643   0.782   5.276   6.315
 9582SOL     OW29644   4.638   5.118   5.860
 9582SOL    HW129645   4.554   5.162   5.829
 9582SOL    HW229646   4.697   5.186   5.903
 9583SOL     OW29647   4.164   4.505   1.128
 9583SOL    HW129648   4.208   4.416   1.139
 9583SOL    HW229649   4.181   4.538   1.035
 9584SOL     OW29650   6.620   6.481   0.164
 9584SOL    HW129651   6.644   6.507   0.257
 9584SOL    HW229652   6.551   6.408   0.166
 9585SOL     OW29653   6.301   0.452   4.015
 9585SOL    HW129654   6.272   0.386   3.946
 9585SOL    HW229655   6.238   0.449   4.093
 9586SOL     OW29656   6.386   4.037   2.669
 9586SOL    HW129657   6.417   3.956   2.720
 9586SOL    HW229658   6.357   4.009   2.577
 9587SOL     OW29659   0.270   0.956   2.160
 9587SOL    HW129660   0.309   0.976   2.250
 9587SOL    HW229661   0.171   0.943   2.170
 9588SOL     OW29662   0.567   1.801   2.125
 9588SOL    HW129663   0.629   1.789   2.048
 9588SOL    HW229664   0.492   1.735   2.117
 9589SOL     OW29665   2.418   5.362   5.988
 9589SOL    HW129666   2.464   5.435   5.937
 9589SOL    HW229667   2.399   5.285   5.927
 9590SOL     OW29668   0.077   3.574   1.574
 9590SOL    HW129669   0.126   3.489   1.590
 9590SOL    HW229670   0.122   3.648   1.625
 9591SOL     OW29671   2.934   5.859   6.517
 9591SOL    HW129672   2.887   5.946   6.501
 9591SOL    HW229673   2.994   5.867   6.596
 9592SOL     OW29674   3.261   4.245   1.195
 9592SOL    HW129675   3.283   4.148   1.185
 9592SOL    HW229676   3.294   4.277   1.284
 9593SOL     OW29677   6.878   0.387   4.887
 9593SOL    HW129678   6.967   0.342   4.881
 9593SOL    HW229679   6.874   0.462   4.821
 9594SOL     OW29680   1.606   6.870   3.000
 9594SOL    HW129681   1.509   6.855   2.982
 9594SOL    HW229682   1.636   6.812   3.076
 9595SOL     OW29683   1.433   4.580   5.368
 9595SOL    HW129684   1.421   4.481   5.370
 9595SOL    HW229685   1.419   4.617   5.460
 9596SOL     OW29686   0.379   5.882   6.920
 9596SOL    HW129687   0.427   5.969   6.905
 9596SOL    HW229688   0.281   5.899   6.928
 9597SOL     OW29689   0.356   4.289   0.818
 9597SOL    HW129690   0.374   4.386   0.833
 9597SOL    HW229691   0.300   4.254   0.893
 9598SOL     OW29692   1.238   3.500   4.947
 9598SOL    HW129693   1.312   3.552   4.990
 9598SOL    HW229694   1.266   3.473   4.855
 9599SOL     OW29695   4.268   0.540   5.688
 9599SOL    HW129696   4.334   0.540   5.763
 9599SOL    HW229697   4.193   0.602   5.710
 9600SOL     OW29698   2.069   6.843   6.963
 9600SOL    HW129699   2.014   6.890   0.009
 9600SOL    HW229700   2.146   6.901   6.937
 9601SOL     OW29701   6.604   3.369   1.160
 9601SOL    HW129702   6.660   3.450   1.176
 9601SOL    HW229703   6.625   3.332   1.069
 9602SOL     OW29704   6.688   4.943   6.891
 9602SOL    HW129705   6.612   4.885   6.922
 9602SOL    HW229706   6.654   5.035   6.871
 9603SOL     OW29707   3.631   1.562   5.308
 9603SOL    HW129708   3.680   1.545   5.393
 9603SOL    HW229709   3.649   1.655   5.277
 9604SOL     OW29710   3.957   0.642   6.767
 9604SOL    HW129711   3.949   0.545   6.744
 9604SOL    HW229712   4.036   0.681   6.719
 9605SOL     OW29713   0.331   4.670   4.067
 9605SOL    HW129714   0.415   4.664   4.012
 9605SOL    HW229715   0.349   4.637   4.159
 9606SOL     OW29716   1.831   6.237   5.544
 9606SOL    HW129717   1.898   6.290   5.491
 9606SOL    HW229718   1.763   6.299   5.583
 9607SOL     OW29719   1.450   1.459   1.798
 9607SOL    HW129720   1.375   1.524   1.792
 9607SOL    HW229721   1.522   1.484   1.733
 9608SOL     OW29722   6.554   6.561   2.234
 9608SOL    HW129723   6.516   6.582   2.144
 9608SOL    HW229724   6.621   6.632   2.259
 9609SOL     OW29725   2.153   3.598   6.428
 9609SOL    HW129726   2.217   3.590   6.351
 9609SOL    HW229727   2.154   3.692   6.462
 9610SOL     OW29728   2.289   5.095   4.018
 9610SOL    HW129729   2.341   5.112   4.101
 9610SOL    HW229730   2.200   5.141   4.025
 9611SOL     OW29731   0.500   6.656   6.951
 9611SOL    HW129732   0.591   6.697   6.955
 9611SOL    HW229733   0.501   6.581   6.885
 9612SOL     OW29734   0.739   3.643   2.092
 9612SOL    HW129735   0.820   3.614   2.144
 9612SOL    HW229736   0.680   3.564   2.077
 9613SOL     OW29737   4.099   6.415   3.541
 9613SOL    HW129738   4.017   6.437   3.488
 9613SOL    HW229739   4.073   6.390   3.634
 9614SOL     OW29740   3.590   2.412   0.901
 9614SOL    HW129741   3.645   2.343   0.854
 9614SOL    HW229742   3.569   2.486   0.837
 9615SOL     OW29743   0.660   0.012   1.793
 9615SOL    HW129744   0.723   0.075   1.840
 9615SOL    HW229745   0.622   6.970   1.859
 9616SOL     OW29746   4.585   3.494   1.192
 9616SOL    HW129747   4.563   3.401   1.161
 9616SOL    HW229748   4.682   3.498   1.216
 9617SOL     OW29749   1.488   3.731   4.361
 9617SOL    HW129750   1.527   3.823   4.360
 9617SOL    HW229751   1.392   3.736   4.389
 9618SOL     OW29752   3.708   6.546   6.220
 9618SOL    HW129753   3.657   6.506   6.296
 9618SOL    HW229754   3.652   6.539   6.136
 9619SOL     OW29755   0.581   0.003   0.434
 9619SOL    HW129756   0.556   6.947   0.491
 9619SOL    HW229757   0.605   6.994   0.342
 9620SOL     OW29758   5.437   2.867   6.800
 9620SOL    HW129759   5.369   2.920   6.748
 9620SOL    HW229760   5.390   2.815   6.872
 9621SOL     OW29761   1.631   0.948   3.151
 9621SOL    HW129762   1.588   1.005   3.221
 9621SOL    HW229763   1.621   0.992   3.062
 9622SOL     OW29764   5.523   0.849   0.265
 9622SOL    HW129765   5.487   0.930   0.313
 9622SOL    HW229766   5.498   0.767   0.317
 9623SOL     OW29767   4.104   5.140   5.124
 9623SOL    HW129768   4.151   5.117   5.209
 9623SOL    HW229769   4.068   5.056   5.083
 9624SOL     OW29770   6.270   4.290   3.825
 9624SOL    HW129771   6.193   4.276   3.763
 9624SOL    HW229772   6.345   4.335   3.776
 9625SOL     OW29773   5.091   5.261   0.036
 9625SOL    HW129774   5.036   5.306   0.106
 9625SOL    HW229775   5.158   5.326   7.023
 9626SOL     OW29776   2.257   6.342   0.186
 9626SOL    HW129777   2.165   6.310   0.165
 9626SOL    HW229778   2.285   6.408   0.117
 9627SOL     OW29779   6.835   3.880   3.985
 9627SOL    HW129780   6.782   3.840   4.060
 9627SOL    HW229781   6.926   3.904   4.017
 9628SOL     OW29782   6.291   4.712   0.495
 9628SOL    HW129783   6.345   4.770   0.434
 9628SOL    HW229784   6.335   4.622   0.502
 9629SOL     OW29785   6.970   6.262   2.766
 9629SOL    HW129786   6.897   6.284   2.701
 9629SOL    HW229787   7.020   6.182   2.733
 9630SOL     OW29788   6.291   6.344   4.957
 9630SOL    HW129789   6.254   6.415   4.897
 9630SOL    HW229790   6.241   6.345   5.044
 9631SOL     OW29791   5.406   1.339   0.172
 9631SOL    HW129792   5.333   1.369   0.111
 9631SOL    HW229793   5.400   1.390   0.258
 9632SOL     OW29794   1.937   5.152   2.172
 9632SOL    HW129795   2.004   5.079   2.176
 9632SOL    HW229796   1.983   5.241   2.166
 9633SOL     OW29797   4.237   4.547   0.302
 9633SOL    HW129798   4.185   4.606   0.365
 9633SOL    HW229799   4.188   4.540   0.215
 9634SOL     OW29800   0.256   6.692   4.437
 9634SOL    HW129801   0.240   6.594   4.443
 9634SOL    HW229802   0.194   6.733   4.371
 9635SOL     OW29803   2.603   4.557   5.706
 9635SOL    HW129804   2.659   4.558   5.789
 9635SOL    HW229805   2.507   4.573   5.730
 9636SOL     OW29806   4.607   1.827   6.130
 9636SOL    HW129807   4.553   1.895   6.080
 9636SOL    HW229808   4.549   1.783   6.199
 9637SOL     OW29809   3.351   2.521   0.280
 9637SOL    HW129810   3.308   2.608   0.258
 9637SOL    HW229811   3.371   2.471   0.196
 9638SOL     OW29812   0.201   3.746   6.249
 9638SOL    HW129813   0.248   3.768   6.335
 9638SOL    HW229814   0.184   3.830   6.199
 9639SOL     OW29815   4.400   1.723   2.350
 9639SOL    HW129816   4.376   1.702   2.255
 9639SOL    HW229817   4.492   1.690   2.369
 9640SOL     OW29818   3.358   0.914   3.002
 9640SOL    HW129819   3.356   0.997   3.057
 9640SOL    HW229820   3.297   0.846   3.044
 9641SOL     OW29821   5.622   5.395   1.535
 9641SOL    HW129822   5.676   5.406   1.618
 9641SOL    HW229823   5.683   5.378   1.458
 9642SOL     OW29824   2.121   5.630   4.750
 9642SOL    HW129825   2.084   5.546   4.789
 9642SOL    HW229826   2.156   5.612   4.658
 9643SOL     OW29827   5.841   4.800   3.984
 9643SOL    HW129828   5.922   4.838   3.939
 9643SOL    HW229829   5.858   4.706   4.011
 9644SOL     OW29830   0.287   4.796   4.516
 9644SOL    HW129831   0.297   4.890   4.550
 9644SOL    HW229832   0.375   4.750   4.520
 9645SOL     OW29833   2.958   4.878   3.963
 9645SOL    HW129834   3.043   4.919   3.997
 9645SOL    HW229835   2.913   4.830   4.038
 9646SOL     OW29836   2.603   4.644   2.107
 9646SOL    HW129837   2.674   4.642   2.037
 9646SOL    HW229838   2.523   4.593   2.074
 9647SOL     OW29839   0.534   5.738   2.346
 9647SOL    HW129840   0.624   5.736   2.302
 9647SOL    HW229841   0.542   5.704   2.439
 9648SOL     OW29842   3.057   1.752   0.092
 9648SOL    HW129843   3.023   1.781   0.181
 9648SOL    HW229844   2.981   1.716   0.037
 9649SOL     OW29845   2.399   4.556   6.787
 9649SOL    HW129846   2.443   4.593   6.869
 9649SOL    HW229847   2.394   4.628   6.717
 9650SOL     OW29848   4.801   4.587   2.993
 9650SOL    HW129849   4.772   4.649   3.066
 9650SOL    HW229850   4.737   4.595   2.916
 9651SOL     OW29851   5.671   1.361   0.812
 9651SOL    HW129852   5.628   1.319   0.732
 9651SOL    HW229853   5.742   1.300   0.848
 9652SOL     OW29854   1.988   4.115   1.442
 9652SOL    HW129855   2.064   4.078   1.494
 9652SOL    HW229856   1.904   4.111   1.497
 9653SOL     OW29857   4.569   5.200   5.288
 9653SOL    HW129858   4.660   5.211   5.248
 9653SOL    HW229859   4.577   5.160   5.379
 9654SOL     OW29860   3.238   3.251   2.618
 9654SOL    HW129861   3.151   3.201   2.622
 9654SOL    HW229862   3.273   3.263   2.712
 9655SOL     OW29863   0.282   1.637   0.716
 9655SOL    HW129864   0.332   1.559   0.752
 9655SOL    HW229865   0.184   1.619   0.719
 9656SOL     OW29866   4.487   1.905   0.698
 9656SOL    HW129867   4.436   1.824   0.671
 9656SOL    HW229868   4.579   1.879   0.725
 9657SOL     OW29869   6.281   2.981   3.556
 9657SOL    HW129870   6.239   3.050   3.616
 9657SOL    HW229871   6.218   2.957   3.483
 9658SOL     OW29872   5.673   2.064   2.502
 9658SOL    HW129873   5.638   2.152   2.469
 9658SOL    HW229874   5.692   2.070   2.600
 9659SOL     OW29875   0.275   2.741   0.003
 9659SOL    HW129876   0.227   2.817   0.046
 9659SOL    HW229877   0.371   2.767   7.010
 9660SOL     OW29878   0.891   6.749   2.257
 9660SOL    HW129879   0.898   6.821   2.188
 9660SOL    HW229880   0.966   6.758   2.323
 9661SOL     OW29881   3.280   6.066   1.237
 9661SOL    HW129882   3.231   6.080   1.151
 9661SOL    HW229883   3.373   6.101   1.228
 9662SOL     OW29884   4.468   2.898   5.494
 9662SOL    HW129885   4.402   2.846   5.441
 9662SOL    HW229886   4.444   2.995   5.490
 9663SOL     OW29887   6.515   7.019   3.035
 9663SOL    HW129888   6.425   6.999   3.075
 9663SOL    HW229889   6.519   0.093   3.009
 9664SOL     OW29890   5.384   5.911   4.732
 9664SOL    HW129891   5.382   5.825   4.680
 9664SOL    HW229892   5.405   5.892   4.828
 9665SOL     OW29893   5.773   6.106   6.789
 9665SOL    HW129894   5.768   6.157   6.703
 9665SOL    HW229895   5.830   6.024   6.776
 9666SOL     OW29896   6.546   3.884   2.223
 9666SOL    HW129897   6.571   3.977   2.197
 9666SOL    HW229898   6.621   3.822   2.200
 9667SOL     OW29899   4.406   3.166   6.257
 9667SOL    HW129900   4.442   3.184   6.165
 9667SOL    HW229901   4.336   3.234   6.280
 9668SOL     OW29902   6.628   0.271   6.115
 9668SOL    HW129903   6.633   0.343   6.184
 9668SOL    HW229904   6.534   0.263   6.081
 9669SOL     OW29905   2.252   0.126   2.733
 9669SOL    HW129906   2.341   0.167   2.712
 9669SOL    HW229907   2.264   0.048   2.793
 9670SOL     OW29908   6.497   4.951   6.498
 9670SOL    HW129909   6.531   5.039   6.532
 9670SOL    HW229910   6.532   4.877   6.555
 9671SOL     OW29911   6.309   4.517   0.077
 9671SOL    HW129912   6.246   4.482   0.007
 9671SOL    HW229913   6.292   4.469   0.163
 9672SOL     OW29914   1.629   5.593   4.036
 9672SOL    HW129915   1.532   5.597   4.011
 9672SOL    HW229916   1.679   5.540   3.967
 9673SOL     OW29917   4.710   3.340   1.418
 9673SOL    HW129918   4.808   3.337   1.435
 9673SOL    HW229919   4.661   3.307   1.499
 9674SOL     OW29920   2.650   6.655   2.831
 9674SOL    HW129921   2.704   6.581   2.871
 9674SOL    HW229922   2.650   6.646   2.732
 9675SOL     OW29923   5.528   2.635   7.011
 9675SOL    HW129924   5.552   2.721   0.033
 9675SOL    HW229925   5.610   2.590   6.978
 9676SOL     OW29926   1.528   3.906   5.700
 9676SOL    HW129927   1.490   3.814   5.700
 9676SOL    HW229928   1.628   3.901   5.699
 9677SOL     OW29929   6.923   5.449   4.922
 9677SOL    HW129930   6.956   5.400   4.842
 9677SOL    HW229931   6.843   5.402   4.960
 9678SOL     OW29932   2.955   3.731   3.519
 9678SOL    HW129933   2.957   3.830   3.529
 9678SOL    HW229934   3.044   3.700   3.485
 9679SOL     OW29935   3.412   1.303   3.581
 9679SOL    HW129936   3.385   1.362   3.506
 9679SOL    HW229937   3.460   1.223   3.545
 9680SOL     OW29938   4.559   0.924   2.835
 9680SOL    HW129939   4.526   0.950   2.926
 9680SOL    HW229940   4.655   0.899   2.841
 9681SOL     OW29941   2.846   1.801   0.521
 9681SOL    HW129942   2.826   1.875   0.585
 9681SOL    HW229943   2.776   1.730   0.529
 9682SOL     OW29944   5.315   4.579   3.697
 9682SOL    HW129945   5.395   4.607   3.644
 9682SOL    HW229946   5.269   4.659   3.733
 9683SOL     OW29947   2.949   5.492   1.012
 9683SOL    HW129948   2.905   5.431   0.947
 9683SOL    HW229949   3.014   5.440   1.068
 9684SOL     OW29950   0.080   3.321   6.314
 9684SOL    HW129951   0.115   3.389   6.249
 9684SOL    HW229952   0.054   3.368   6.399
 9685SOL     OW29953   3.362   4.618   0.967
 9685SOL    HW129954   3.420   4.537   0.968
 9685SOL    HW229955   3.266   4.591   0.961
 9686SOL     OW29956   6.585   1.846   0.310
 9686SOL    HW129957   6.497   1.799   0.319
 9686SOL    HW229958   6.650   1.787   0.262
 9687SOL     OW29959   1.827   0.752   4.444
 9687SOL    HW129960   1.743   0.715   4.484
 9687SOL    HW229961   1.855   0.833   4.496
 9688SOL     OW29962   1.059   3.437   2.696
 9688SOL    HW129963   1.024   3.508   2.756
 9688SOL    HW229964   0.995   3.421   2.621
 9689SOL     OW29965   0.567   4.857   5.918
 9689SOL    HW129966   0.642   4.807   5.875
 9689SOL    HW229967   0.551   4.942   5.869
 9690SOL     OW29968   5.962   5.262   6.949
 9690SOL    HW129969   5.923   5.274   0.017
 9690SOL    HW229970   6.001   5.349   6.917
 9691SOL     OW29971   3.319   5.192   0.841
 9691SOL    HW129972   3.258   5.119   0.808
 9691SOL    HW229973   3.352   5.168   0.933
 9692SOL     OW29974   3.648   5.444   2.308
 9692SOL    HW129975   3.718   5.397   2.254
 9692SOL    HW229976   3.584   5.377   2.345
 9693SOL     OW29977   5.960   4.712   2.158
 9693SOL    HW129978   5.896   4.742   2.087
 9693SOL    HW229979   5.949   4.614   2.174
 9694SOL     OW29980   1.974   0.786   0.516
 9694SOL    HW129981   2.013   0.696   0.497
 9694SOL    HW229982   1.951   0.792   0.613
 9695SOL     OW29983   6.831   2.987   2.999
 9695SOL    HW129984   6.778   2.902   2.999
 9695SOL    HW229985   6.782   3.057   3.050
 9696SOL     OW29986   5.337   3.450   1.162
 9696SOL    HW129987   5.337   3.371   1.100
 9696SOL    HW229988   5.394   3.429   1.242
 9697SOL     OW29989   0.257   5.331   7.014
 9697SOL    HW129990   0.239   5.233   7.014
 9697SOL    HW229991   0.198   5.376   6.946
 9698SOL     OW29992   4.743   1.622   6.052
 9698SOL    HW129993   4.676   1.695   6.060
 9698SOL    HW229994   4.728   1.555   6.126
 9699SOL     OW29995   6.444   5.513   6.898
 9699SOL    HW129996   6.390   5.597   6.899
 9699SOL    HW229997   6.429   5.463   6.984
 9700SOL     OW29998   4.917   5.593   4.915
 9700SOL    HW129999   4.871   5.547   4.990
 9700SOL    HW230000   4.850   5.644   4.861
 9701SOL     OW30001   4.420   5.042   6.077
 9701SOL    HW130002   4.328   5.083   6.074
 9701SOL    HW230003   4.482   5.096   6.020
 9702SOL     OW30004   4.625   0.336   6.463
 9702SOL    HW130005   4.560   0.263   6.482
 9702SOL    HW230006   4.633   0.396   6.543
 9703SOL     OW30007   4.915   3.705   3.750
 9703SOL    HW130008   4.854   3.743   3.681
 9703SOL    HW230009   4.971   3.778   3.790
 9704SOL     OW30010   3.903   0.339   1.810
 9704SOL    HW130011   3.931   0.295   1.725
 9704SOL    HW230012   3.809   0.370   1.803
 9705SOL     OW30013   5.281   4.607   5.826
 9705SOL    HW130014   5.349   4.670   5.787
 9705SOL    HW230015   5.200   4.659   5.855
 9706SOL     OW30016   1.531   3.238   0.295
 9706SOL    HW130017   1.589   3.214   0.373
 9706SOL    HW230018   1.509   3.335   0.300
 9707SOL     OW30019   6.842   4.680   2.508
 9707SOL    HW130020   6.937   4.707   2.527
 9707SOL    HW230021   6.780   4.739   2.559
 9708SOL     OW30022   1.827   1.568   4.112
 9708SOL    HW130023   1.748   1.624   4.135
 9708SOL    HW230024   1.892   1.570   4.189
 9709SOL     OW30025   5.338   6.469   3.119
 9709SOL    HW130026   5.276   6.472   3.196
 9709SOL    HW230027   5.403   6.545   3.124
 9710SOL     OW30028   6.572   1.627   1.574
 9710SOL    HW130029   6.635   1.702   1.595
 9710SOL    HW230030   6.516   1.607   1.655
 9711SOL     OW30031   2.763   5.446   5.922
 9711SOL    HW130032   2.682   5.476   5.871
 9711SOL    HW230033   2.846   5.471   5.872
 9712SOL     OW30034   5.633   3.761   6.529
 9712SOL    HW130035   5.670   3.764   6.622
 9712SOL    HW230036   5.671   3.836   6.475
 9713SOL     OW30037   0.961   4.579   3.731
 9713SOL    HW130038   1.031   4.628   3.783
 9713SOL    HW230039   0.882   4.561   3.790
 9714SOL     OW30040   4.033   6.376   6.489
 9714SOL    HW130041   4.116   6.424   6.516
 9714SOL    HW230042   3.975   6.435   6.434
 9715SOL     OW30043   5.639   4.068   6.307
 9715SOL    HW130044   5.636   4.004   6.230
 9715SOL    HW230045   5.734   4.095   6.324
 9716SOL     OW30046   3.976   4.415   6.944
 9716SOL    HW130047   3.938   4.335   6.991
 9716SOL    HW230048   3.906   4.454   6.885
 9717SOL     OW30049   5.657   5.889   6.094
 9717SOL    HW130050   5.608   5.805   6.119
 9717SOL    HW230051   5.750   5.865   6.064
 9718SOL     OW30052   4.900   2.955   0.476
 9718SOL    HW130053   4.835   2.881   0.459
 9718SOL    HW230054   4.873   3.007   0.557
 9719SOL     OW30055   6.058   1.208   5.719
 9719SOL    HW130056   5.965   1.200   5.683
 9719SOL    HW230057   6.055   1.220   5.818
 9720SOL     OW30058   6.864   5.267   2.021
 9720SOL    HW130059   6.881   5.356   1.978
 9720SOL    HW230060   6.884   5.273   2.119
 9721SOL     OW30061   6.641   1.737   0.807
 9721SOL    HW130062   6.662   1.741   0.710
 9721SOL    HW230063   6.554   1.784   0.825
 9722SOL     OW30064   5.517   0.860   4.280
 9722SOL    HW130065   5.510   0.823   4.187
 9722SOL    HW230066   5.609   0.845   4.314
 9723SOL     OW30067   2.591   6.709   2.556
 9723SOL    HW130068   2.603   6.684   2.460
 9723SOL    HW230069   2.498   6.744   2.570
 9724SOL     OW30070   1.970   4.397   0.152
 9724SOL    HW130071   1.923   4.476   0.189
 9724SOL    HW230072   1.914   4.315   0.164
 9725SOL     OW30073   4.106   4.906   5.991
 9725SOL    HW130074   4.170   4.850   6.044
 9725SOL    HW230075   4.014   4.897   6.031
 9726SOL     OW30076   5.199   1.195   4.652
 9726SOL    HW130077   5.290   1.229   4.673
 9726SOL    HW230078   5.184   1.108   4.699
 9727SOL     OW30079   1.463   3.195   6.611
 9727SOL    HW130080   1.490   3.292   6.607
 9727SOL    HW230081   1.502   3.153   6.693
 9728SOL     OW30082   0.686   1.007   5.857
 9728SOL    HW130083   0.634   1.011   5.942
 9728SOL    HW230084   0.653   0.930   5.801
 9729SOL     OW30085   0.715   3.902   4.141
 9729SOL    HW130086   0.730   3.885   4.239
 9729SOL    HW230087   0.803   3.921   4.098
 9730SOL     OW30088   1.267   3.917   4.166
 9730SOL    HW130089   1.355   3.913   4.118
 9730SOL    HW230090   1.230   4.010   4.159
 9731SOL     OW30091   4.922   4.595   1.049
 9731SOL    HW130092   4.848   4.607   1.115
 9731SOL    HW230093   4.905   4.512   0.995
 9732SOL     OW30094   6.416   5.832   3.168
 9732SOL    HW130095   6.484   5.790   3.230
 9732SOL    HW230096   6.405   5.929   3.192
 9733SOL     OW30097   6.215   5.098   0.685
 9733SOL    HW130098   6.285   5.119   0.617
 9733SOL    HW230099   6.240   5.014   0.733
 9734SOL     OW30100   6.714   1.493   1.795
 9734SOL    HW130101   6.782   1.564   1.774
 9734SOL    HW230102   6.633   1.536   1.833
 9735SOL     OW30103   2.071   4.413   4.384
 9735SOL    HW130104   2.019   4.430   4.300
 9735SOL    HW230105   2.162   4.379   4.361
 9736SOL     OW30106   6.455   1.041   6.832
 9736SOL    HW130107   6.358   1.016   6.821
 9736SOL    HW230108   6.486   1.013   6.922
 9737SOL     OW30109   5.549   2.825   3.543
 9737SOL    HW130110   5.470   2.765   3.554
 9737SOL    HW230111   5.541   2.903   3.606
 9738SOL     OW30112   1.794   0.451   1.351
 9738SOL    HW130113   1.727   0.395   1.399
 9738SOL    HW230114   1.875   0.462   1.409
 9739SOL     OW30115   5.933   4.994   2.335
 9739SOL    HW130116   5.939   4.900   2.304
 9739SOL    HW230117   6.022   5.024   2.370
 9740SOL     OW30118   6.414   1.734   3.345
 9740SOL    HW130119   6.484   1.695   3.285
 9740SOL    HW230120   6.427   1.833   3.351
 9741SOL     OW30121   3.833   0.795   2.371
 9741SOL    HW130122   3.930   0.784   2.349
 9741SOL    HW230123   3.823   0.837   2.461
 9742SOL     OW30124   4.173   0.303   0.809
 9742SOL    HW130125   4.273   0.300   0.803
 9742SOL    HW230126   4.143   0.258   0.893
 9743SOL     OW30127   0.010   2.560   5.273
 9743SOL    HW130128   0.005   2.476   5.219
 9743SOL    HW230129   0.095   2.560   5.326
 9744SOL     OW30130   1.063   6.909   2.905
 9744SOL    HW130131   1.013   6.952   2.831
 9744SOL    HW230132   1.001   6.853   2.960
 9745SOL     OW30133   5.274   3.381   5.956
 9745SOL    HW130134   5.183   3.372   5.917
 9745SOL    HW230135   5.273   3.352   6.052
 9746SOL     OW30136   6.474   0.173   5.563
 9746SOL    HW130137   6.429   0.262   5.574
 9746SOL    HW230138   6.564   0.176   5.605
 9747SOL     OW30139   2.322   0.989   1.891
 9747SOL    HW130140   2.285   0.904   1.928
 9747SOL    HW230141   2.353   1.047   1.967
 9748SOL     OW30142   0.246   1.268   3.423
 9748SOL    HW130143   0.314   1.323   3.374
 9748SOL    HW230144   0.166   1.323   3.443
 9749SOL     OW30145   2.517   0.662   4.779
 9749SOL    HW130146   2.588   0.596   4.754
 9749SOL    HW230147   2.428   0.617   4.781
 9750SOL     OW30148   5.592   4.343   3.310
 9750SOL    HW130149   5.563   4.439   3.307
 9750SOL    HW230150   5.538   4.294   3.379
 9751SOL     OW30151   1.502   0.649   1.282
 9751SOL    HW130152   1.500   0.671   1.380
 9751SOL    HW230153   1.581   0.694   1.240
 9752SOL     OW30154   4.468   2.097   5.592
 9752SOL    HW130155   4.515   2.013   5.564
 9752SOL    HW230156   4.428   2.084   5.683
 9753SOL     OW30157   5.931   5.849   5.993
 9753SOL    HW130158   6.024   5.815   5.977
 9753SOL    HW230159   5.933   5.921   6.062
 9754SOL     OW30160   1.438   1.190   6.241
 9754SOL    HW130161   1.536   1.180   6.260
 9754SOL    HW230162   1.401   1.265   6.296
 9755SOL     OW30163   3.393   3.453   4.308
 9755SOL    HW130164   3.339   3.413   4.382
 9755SOL    HW230165   3.480   3.488   4.344
 9756SOL     OW30166   6.647   3.484   0.688
 9756SOL    HW130167   6.618   3.580   0.683
 9756SOL    HW230168   6.571   3.425   0.661
 9757SOL     OW30169   5.436   3.542   3.906
 9757SOL    HW130170   5.406   3.478   3.977
 9757SOL    HW230171   5.445   3.633   3.946
 9758SOL     OW30172   2.421   6.763   6.878
 9758SOL    HW130173   2.490   6.789   6.946
 9758SOL    HW230174   2.463   6.760   6.788
 9759SOL     OW30175   1.324   0.335   0.195
 9759SOL    HW130176   1.312   0.408   0.262
 9759SOL    HW230177   1.387   0.266   0.232
 9760SOL     OW30178   4.457   2.540   4.898
 9760SOL    HW130179   4.512   2.608   4.947
 9760SOL    HW230180   4.386   2.505   4.959
 9761SOL     OW30181   5.936   1.487   2.871
 9761SOL    HW130182   5.865   1.419   2.852
 9761SOL    HW230183   5.894   1.571   2.904
 9762SOL     OW30184   3.446   1.068   4.275
 9762SOL    HW130185   3.538   1.030   4.271
 9762SOL    HW230186   3.436   1.122   4.359
 9763SOL     OW30187   5.206   1.996   2.008
 9763SOL    HW130188   5.257   1.972   1.926
 9763SOL    HW230189   5.140   2.068   1.987
 9764SOL     OW30190   0.237   2.903   2.608
 9764SOL    HW130191   0.222   2.805   2.625
 9764SOL    HW230192   0.152   2.944   2.575
 9765SOL     OW30193   6.836   1.345   3.767
 9765SOL    HW130194   6.892   1.295   3.700
 9765SOL    HW230195   6.785   1.279   3.823
 9766SOL     OW30196   3.278   6.974   2.367
 9766SOL    HW130197   3.213   6.940   2.299
 9766SOL    HW230198   3.347   6.903   2.384
 9767SOL     OW30199   4.678   0.675   4.634
 9767SOL    HW130200   4.640   0.759   4.594
 9767SOL    HW230201   4.777   0.680   4.633
 9768SOL     OW30202   5.607   1.842   2.743
 9768SOL    HW130203   5.645   1.762   2.695
 9768SOL    HW230204   5.542   1.811   2.812
 9769SOL     OW30205   3.795   0.958   2.597
 9769SOL    HW130206   3.757   0.902   2.671
 9769SOL    HW230207   3.815   1.050   2.631
 9770SOL     OW30208   5.680   0.860   6.519
 9770SOL    HW130209   5.627   0.935   6.480
 9770SOL    HW230210   5.715   0.802   6.445
 9771SOL     OW30211   3.115   5.702   0.240
 9771SOL    HW130212   3.023   5.741   0.245
 9771SOL    HW230213   3.109   5.605   0.214
 9772SOL     OW30214   1.680   6.589   2.754
 9772SOL    HW130215   1.602   6.615   2.696
 9772SOL    HW230216   1.765   6.613   2.707
 9773SOL     OW30217   5.662   5.327   4.412
 9773SOL    HW130218   5.603   5.322   4.492
 9773SOL    HW230219   5.676   5.423   4.386
 9774SOL     OW30220   0.325   4.853   2.390
 9774SOL    HW130221   0.364   4.792   2.322
 9774SOL    HW230222   0.347   4.821   2.482
 9775SOL     OW30223   2.736   0.392   3.222
 9775SOL    HW130224   2.716   0.367   3.128
 9775SOL    HW230225   2.830   0.423   3.230
 9776SOL     OW30226   1.794   4.504   4.555
 9776SOL    HW130227   1.878   4.485   4.606
 9776SOL    HW230228   1.738   4.422   4.551
 9777SOL     OW30229   6.212   5.668   6.642
 9777SOL    HW130230   6.129   5.653   6.588
 9777SOL    HW230231   6.272   5.589   6.634
 9778SOL     OW30232   0.200   0.784   3.894
 9778SOL    HW130233   0.260   0.704   3.887
 9778SOL    HW230234   0.132   0.769   3.966
 9779SOL     OW30235   1.558   1.533   5.226
 9779SOL    HW130236   1.647   1.531   5.273
 9779SOL    HW230237   1.526   1.440   5.210
 9780SOL     OW30238   2.704   1.817   1.038
 9780SOL    HW130239   2.685   1.915   1.046
 9780SOL    HW230240   2.626   1.765   1.072
 9781SOL     OW30241   1.881   4.207   4.407
 9781SOL    HW130242   1.943   4.282   4.383
 9781SOL    HW230243   1.850   4.161   4.324
 9782SOL     OW30244   6.456   1.613   1.348
 9782SOL    HW130245   6.497   1.610   1.439
 9782SOL    HW230246   6.385   1.543   1.341
 9783SOL     OW30247   4.357   2.206   3.354
 9783SOL    HW130248   4.428   2.154   3.308
 9783SOL    HW230249   4.365   2.303   3.330
 9784SOL     OW30250   3.953   0.991   4.464
 9784SOL    HW130251   3.948   1.058   4.538
 9784SOL    HW230252   3.918   1.031   4.380
 9785SOL     OW30253   0.552   3.654   5.785
 9785SOL    HW130254   0.521   3.711   5.709
 9785SOL    HW230255   0.632   3.600   5.756
 9786SOL     OW30256   2.298   4.372   6.965
 9786SOL    HW130257   2.253   4.294   6.923
 9786SOL    HW230258   2.322   4.439   6.894
 9787SOL     OW30259   4.706   4.237   1.718
 9787SOL    HW130260   4.789   4.261   1.769
 9787SOL    HW230261   4.628   4.233   1.780
 9788SOL     OW30262   0.417   0.553   3.793
 9788SOL    HW130263   0.354   0.544   3.716
 9788SOL    HW230264   0.498   0.605   3.765
 9789SOL     OW30265   0.689   5.623   0.901
 9789SOL    HW130266   0.717   5.577   0.817
 9789SOL    HW230267   0.603   5.671   0.886
 9790SOL     OW30268   6.193   4.477   6.856
 9790SOL    HW130269   6.203   4.530   6.772
 9790SOL    HW230270   6.250   4.395   6.850
 9791SOL     OW30271   0.786   0.846   2.593
 9791SOL    HW130272   0.837   0.914   2.540
 9791SOL    HW230273   0.720   0.891   2.652
 9792SOL     OW30274   4.927   5.214   0.883
 9792SOL    HW130275   4.916   5.275   0.961
 9792SOL    HW230276   4.839   5.201   0.838
 9793SOL     OW30277   4.738   6.061   3.503
 9793SOL    HW130278   4.816   6.028   3.450
 9793SOL    HW230279   4.758   6.152   3.539
 9794SOL     OW30280   6.996   4.387   0.583
 9794SOL    HW130281   6.903   4.349   0.585
 9794SOL    HW230282   0.039   4.315   0.604
 9795SOL     OW30283   2.163   1.774   4.523
 9795SOL    HW130284   2.183   1.816   4.434
 9795SOL    HW230285   2.214   1.688   4.531
 9796SOL     OW30286   3.916   2.300   1.475
 9796SOL    HW130287   3.958   2.219   1.515
 9796SOL    HW230288   3.879   2.358   1.547
 9797SOL     OW30289   2.127   5.385   6.231
 9797SOL    HW130290   2.075   5.309   6.270
 9797SOL    HW230291   2.225   5.367   6.243
 9798SOL     OW30292   2.957   0.143   1.539
 9798SOL    HW130293   2.898   0.223   1.539
 9798SOL    HW230294   2.983   0.121   1.633
 9799SOL     OW30295   4.160   3.527   3.866
 9799SOL    HW130296   4.093   3.575   3.922
 9799SOL    HW230297   4.252   3.544   3.903
 9800SOL     OW30298   3.908   6.591   4.617
 9800SOL    HW130299   3.899   6.509   4.674
 9800SOL    HW230300   3.932   6.563   4.524
 9801SOL     OW30301   4.942   3.916   0.215
 9801SOL    HW130302   5.023   3.880   0.261
 9801SOL    HW230303   4.869   3.847   0.217
 9802SOL     OW30304   0.313   3.562   1.219
 9802SOL    HW130305   0.244   3.633   1.234
 9802SOL    HW230306   0.361   3.544   1.305
 9803SOL     OW30307   0.624   1.934   6.621
 9803SOL    HW130308   0.535   1.974   6.641
 9803SOL    HW230309   0.666   1.902   6.706
 9804SOL     OW30310   1.356   6.829   2.973
 9804SOL    HW130311   1.292   6.838   2.896
 9804SOL    HW230312   1.313   6.866   3.056
 9805SOL     OW30313   1.029   0.406   5.072
 9805SOL    HW130314   1.083   0.489   5.086
 9805SOL    HW230315   1.080   0.342   5.015
 9806SOL     OW30316   1.438   1.308   0.759
 9806SOL    HW130317   1.516   1.298   0.821
 9806SOL    HW230318   1.424   1.222   0.709
 9807SOL     OW30319   2.678   3.788   0.093
 9807SOL    HW130320   2.682   3.803   7.017
 9807SOL    HW230321   2.641   3.697   0.111
 9808SOL     OW30322   4.854   1.099   5.711
 9808SOL    HW130323   4.796   1.125   5.788
 9808SOL    HW230324   4.945   1.075   5.745
 9809SOL     OW30325   0.576   2.078   6.959
 9809SOL    HW130326   0.564   2.091   0.034
 9809SOL    HW230327   0.611   1.985   6.941
 9810SOL     OW30328   2.041   3.069   3.613
 9810SOL    HW130329   2.101   3.129   3.560
 9810SOL    HW230330   1.946   3.091   3.592
 9811SOL     OW30331   5.549   4.717   3.614
 9811SOL    HW130332   5.596   4.797   3.577
 9811SOL    HW230333   5.565   4.712   3.713
 9812SOL     OW30334   3.396   2.061   5.696
 9812SOL    HW130335   3.302   2.032   5.675
 9812SOL    HW230336   3.457   1.983   5.687
 9813SOL     OW30337   5.609   1.043   6.945
 9813SOL    HW130338   5.654   1.014   0.007
 9813SOL    HW230339   5.666   1.019   6.867
 9814SOL     OW30340   0.089   0.439   0.518
 9814SOL    HW130341   0.104   0.537   0.527
 9814SOL    HW230342   0.057   0.402   0.605
 9815SOL     OW30343   5.495   3.782   3.463
 9815SOL    HW130344   5.559   3.786   3.541
 9815SOL    HW230345   5.432   3.859   3.469
 9816SOL     OW30346   6.821   1.207   6.759
 9816SOL    HW130347   6.732   1.225   6.716
 9816SOL    HW230348   6.831   1.109   6.775
 9817SOL     OW30349   2.401   6.443   2.870
 9817SOL    HW130350   2.468   6.462   2.799
 9817SOL    HW230351   2.359   6.529   2.900
 9818SOL     OW30352   1.458   0.748   4.881
 9818SOL    HW130353   1.416   0.830   4.919
 9818SOL    HW230354   1.414   0.667   4.919
 9819SOL     OW30355   4.629   2.700   3.997
 9819SOL    HW130356   4.660   2.730   4.088
 9819SOL    HW230357   4.605   2.780   3.942
 9820SOL     OW30358   4.708   3.260   6.246
 9820SOL    HW130359   4.621   3.300   6.275
 9820SOL    HW230360   4.691   3.175   6.197
 9821SOL     OW30361   5.281   0.448   0.528
 9821SOL    HW130362   5.206   0.456   0.462
 9821SOL    HW230363   5.324   0.359   0.519
 9822SOL     OW30364   2.672   5.701   3.526
 9822SOL    HW130365   2.763   5.734   3.501
 9822SOL    HW230366   2.670   5.601   3.518
 9823SOL     OW30367   2.517   0.502   1.006
 9823SOL    HW130368   2.488   0.493   1.101
 9823SOL    HW230369   2.437   0.519   0.948
 9824SOL     OW30370   2.014   5.155   4.022
 9824SOL    HW130371   1.933   5.136   3.967
 9824SOL    HW230372   2.008   5.248   4.059
 9825SOL     OW30373   5.365   6.497   4.304
 9825SOL    HW130374   5.463   6.506   4.321
 9825SOL    HW230375   5.341   6.400   4.299
 9826SOL     OW30376   4.279   5.408   5.207
 9826SOL    HW130377   4.202   5.346   5.189
 9826SOL    HW230378   4.324   5.381   5.292
 9827SOL     OW30379   1.772   4.323   3.950
 9827SOL    HW130380   1.761   4.224   3.943
 9827SOL    HW230381   1.716   4.368   3.880
 9828SOL     OW30382   3.022   2.332   5.397
 9828SOL    HW130383   3.087   2.347   5.322
 9828SOL    HW230384   2.973   2.417   5.415
 9829SOL     OW30385   4.543   5.707   6.475
 9829SOL    HW130386   4.481   5.637   6.440
 9829SOL    HW230387   4.634   5.692   6.436
 9830SOL     OW30388   5.114   1.487   1.918
 9830SOL    HW130389   5.127   1.572   1.868
 9830SOL    HW230390   5.032   1.440   1.885
 9831SOL     OW30391   1.178   4.918   2.894
 9831SOL    HW130392   1.149   5.014   2.906
 9831SOL    HW230393   1.125   4.877   2.820
 9832SOL     OW30394   5.337   5.626   2.798
 9832SOL    HW130395   5.428   5.624   2.758
 9832SOL    HW230396   5.343   5.604   2.896
 9833SOL     OW30397   3.707   3.568   4.147
 9833SOL    HW130398   3.699   3.471   4.171
 9833SOL    HW230399   3.733   3.620   4.229
 9834SOL     OW30400   2.450   4.522   5.481
 9834SOL    HW130401   2.521   4.531   5.551
 9834SOL    HW230402   2.489   4.479   5.400
 9835SOL     OW30403   3.508   3.186   4.417
 9835SOL    HW130404   3.508   3.093   4.380
 9835SOL    HW230405   3.419   3.205   4.458
 9836SOL     OW30406   0.257   3.914   3.869
 9836SOL    HW130407   0.297   3.848   3.805
 9836SOL    HW230408   0.194   3.974   3.821
 9837SOL     OW30409   4.258   1.028   2.234
 9837SOL    HW130410   4.200   0.962   2.281
 9837SOL    HW230411   4.202   1.085   2.174
 9838SOL     OW30412   1.754   6.705   0.347
 9838SOL    HW130413   1.848   6.672   0.341
 9838SOL    HW230414   1.751   6.786   0.405
 9839SOL     OW30415   5.030   6.363   3.880
 9839SOL    HW130416   4.999   6.401   3.793
 9839SOL    HW230417   5.008   6.426   3.954
 9840SOL     OW30418   5.964   1.781   0.810
 9840SOL    HW130419   5.887   1.720   0.826
 9840SOL    HW230420   5.972   1.847   0.885
 9841SOL     OW30421   1.450   4.090   4.966
 9841SOL    HW130422   1.540   4.056   4.992
 9841SOL    HW230423   1.458   4.143   4.881
 9842SOL     OW30424   3.490   3.472   1.573
 9842SOL    HW130425   3.397   3.508   1.584
 9842SOL    HW230426   3.526   3.448   1.664
 9843SOL     OW30427   0.036   0.458   2.545
 9843SOL    HW130428   0.083   0.415   2.468
 9843SOL    HW230429   0.054   0.405   2.628
 9844SOL     OW30430   6.051   1.508   3.555
 9844SOL    HW130431   6.097   1.464   3.632
 9844SOL    HW230432   6.098   1.485   3.470
 9845SOL     OW30433   1.812   2.336   4.147
 9845SOL    HW130434   1.863   2.401   4.204
 9845SOL    HW230435   1.715   2.341   4.168
 9846SOL     OW30436   3.582   2.466   1.522
 9846SOL    HW130437   3.507   2.524   1.552
 9846SOL    HW230438   3.577   2.377   1.568
 9847SOL     OW30439   3.652   2.921   2.874
 9847SOL    HW130440   3.728   2.904   2.811
 9847SOL    HW230441   3.688   2.939   2.965
 9848SOL     OW30442   4.311   4.212   5.586
 9848SOL    HW130443   4.274   4.209   5.679
 9848SOL    HW230444   4.409   4.232   5.590
 9849SOL     OW30445   0.914   6.830   6.629
 9849SOL    HW130446   0.866   6.822   6.542
 9849SOL    HW230447   0.967   6.747   6.646
 9850SOL     OW30448   6.810   0.760   3.777
 9850SOL    HW130449   6.744   0.834   3.770
 9850SOL    HW230450   6.763   0.672   3.766
 9851SOL     OW30451   1.629   0.447   4.342
 9851SOL    HW130452   1.690   0.495   4.280
 9851SOL    HW230453   1.589   0.368   4.295
 9852SOL     OW30454   2.334   1.993   4.723
 9852SOL    HW130455   2.282   2.065   4.677
 9852SOL    HW230456   2.304   1.904   4.691
 9853SOL     OW30457   5.810   3.673   5.491
 9853SOL    HW130458   5.873   3.657   5.567
 9853SOL    HW230459   5.718   3.647   5.518
 9854SOL     OW30460   0.503   6.223   4.171
 9854SOL    HW130461   0.553   6.306   4.200
 9854SOL    HW230462   0.414   6.249   4.136
 9855SOL     OW30463   1.708   3.528   1.542
 9855SOL    HW130464   1.720   3.441   1.493
 9855SOL    HW230465   1.739   3.517   1.637
 9856SOL     OW30466   4.777   4.113   4.264
 9856SOL    HW130467   4.694   4.162   4.237
 9856SOL    HW230468   4.830   4.170   4.326
 9857SOL     OW30469   4.722   2.753   2.433
 9857SOL    HW130470   4.789   2.757   2.359
 9857SOL    HW230471   4.714   2.658   2.465
 9858SOL     OW30472   0.144   6.506   1.220
 9858SOL    HW130473   0.207   6.459   1.281
 9858SOL    HW230474   0.148   6.604   1.238
 9859SOL     OW30475   6.702   5.947   3.132
 9859SOL    HW130476   6.618   5.910   3.171
 9859SOL    HW230477   6.708   5.922   3.035
 9860SOL     OW30478   2.108   2.489   4.498
 9860SOL    HW130479   2.055   2.443   4.569
 9860SOL    HW230480   2.190   2.436   4.477
 9861SOL     OW30481   2.903   0.667   3.099
 9861SOL    HW130482   2.966   0.733   3.140
 9861SOL    HW230483   2.810   0.703   3.104
 9862SOL     OW30484   2.473   3.543   6.707
 9862SOL    HW130485   2.410   3.466   6.696
 9862SOL    HW230486   2.439   3.622   6.656
 9863SOL     OW30487   3.224   5.566   1.219
 9863SOL    HW130488   3.266   5.581   1.308
 9863SOL    HW230489   3.274   5.620   1.150
 9864SOL     OW30490   3.449   0.826   4.156
 9864SOL    HW130491   3.402   0.903   4.199
 9864SOL    HW230492   3.533   0.805   4.207
 9865SOL     OW30493   1.343   6.782   4.307
 9865SOL    HW130494   1.251   6.811   4.280
 9865SOL    HW230495   1.375   6.710   4.246
 9866SOL     OW30496   5.774   4.700   6.136
 9866SOL    HW130497   5.808   4.780   6.087
 9866SOL    HW230498   5.777   4.718   6.235
 9867SOL     OW30499   7.011   1.890   1.806
 9867SOL    HW130500   0.034   1.961   1.860
 9867SOL    HW230501   6.962   1.932   1.730
 9868SOL     OW30502   6.919   2.722   4.615
 9868SOL    HW130503   6.920   2.821   4.603
 9868SOL    HW230504   6.897   2.678   4.528
 9869SOL     OW30505   0.344   2.602   1.879
 9869SOL    HW130506   0.368   2.566   1.789
 9869SOL    HW230507   0.426   2.604   1.937
 9870SOL     OW30508   3.959   5.669   2.894
 9870SOL    HW130509   3.923   5.626   2.811
 9870SOL    HW230510   3.963   5.602   2.967
 9871SOL     OW30511   6.332   4.596   5.752
 9871SOL    HW130512   6.304   4.635   5.839
 9871SOL    HW230513   6.344   4.497   5.762
 9872SOL     OW30514   3.595   5.697   4.508
 9872SOL    HW130515   3.676   5.666   4.558
 9872SOL    HW230516   3.624   5.756   4.432
 9873SOL     OW30517   2.057   2.746   0.754
 9873SOL    HW130518   2.126   2.818   0.745
 9873SOL    HW230519   2.052   2.716   0.849
 9874SOL     OW30520   6.784   2.972   5.402
 9874SOL    HW130521   6.708   2.948   5.342
 9874SOL    HW230522   6.754   3.039   5.469
 9875SOL     OW30523   6.117   5.836   2.522
 9875SOL    HW130524   6.088   5.874   2.610
 9875SOL    HW230525   6.208   5.871   2.499
 9876SOL     OW30526   5.326   6.976   4.591
 9876SOL    HW130527   5.318   6.885   4.549
 9876SOL    HW230528   5.412   6.983   4.640
 9877SOL     OW30529   0.097   4.749   3.937
 9877SOL    HW130530   0.093   4.713   3.843
 9877SOL    HW230531   0.173   4.705   3.985
 9878SOL     OW30532   2.909   3.238   6.021
 9878SOL    HW130533   2.915   3.145   5.985
 9878SOL    HW230534   2.901   3.235   6.121
 9879SOL     OW30535   5.416   5.214   5.887
 9879SOL    HW130536   5.509   5.192   5.919
 9879SOL    HW230537   5.380   5.289   5.942
 9880SOL     OW30538   2.684   1.232   0.786
 9880SOL    HW130539   2.766   1.289   0.774
 9880SOL    HW230540   2.712   1.137   0.800
 9881SOL     OW30541   0.004   1.718   4.644
 9881SOL    HW130542   6.986   1.628   4.665
 9881SOL    HW230543   0.096   1.722   4.683
 9882SOL     OW30544   2.635   3.965   5.875
 9882SOL    HW130545   2.673   4.049   5.838
 9882SOL    HW230546   2.591   3.913   5.802
 9883SOL     OW30547   0.801   6.384   0.874
 9883SOL    HW130548   0.806   6.441   0.792
 9883SOL    HW230549   0.771   6.292   0.849
 9884SOL     OW30550   4.533   1.238   0.429
 9884SOL    HW130551   4.453   1.205   0.479
 9884SOL    HW230552   4.503   1.284   0.346
 9885SOL     OW30553   0.511   3.285   4.602
 9885SOL    HW130554   0.432   3.246   4.555
 9885SOL    HW230555   0.481   3.355   4.666
 9886SOL     OW30556   0.676   5.761   1.266
 9886SOL    HW130557   0.715   5.854   1.261
 9886SOL    HW230558   0.592   5.758   1.211
 9887SOL     OW30559   3.864   6.861   6.845
 9887SOL    HW130560   3.886   6.784   6.786
 9887SOL    HW230561   3.782   6.907   6.811
 9888SOL     OW30562   5.797   4.876   3.265
 9888SOL    HW130563   5.729   4.914   3.202
 9888SOL    HW230564   5.830   4.949   3.325
 9889SOL     OW30565   6.841   4.155   1.938
 9889SOL    HW130566   6.868   4.160   1.841
 9889SOL    HW230567   6.752   4.110   1.945
 9890SOL     OW30568   0.501   2.359   1.244
 9890SOL    HW130569   0.548   2.304   1.175
 9890SOL    HW230570   0.410   2.323   1.260
 9891SOL     OW30571   6.136   4.097   1.633
 9891SOL    HW130572   6.088   4.183   1.618
 9891SOL    HW230573   6.226   4.101   1.590
 9892SOL     OW30574   1.560   5.478   2.927
 9892SOL    HW130575   1.552   5.560   2.984
 9892SOL    HW230576   1.490   5.412   2.955
 9893SOL     OW30577   6.275   6.742   2.273
 9893SOL    HW130578   6.332   6.741   2.191
 9893SOL    HW230579   6.179   6.729   2.248
 9894SOL     OW30580   2.676   1.655   6.182
 9894SOL    HW130581   2.711   1.603   6.104
 9894SOL    HW230582   2.722   1.743   6.186
 9895SOL     OW30583   5.899   2.748   5.502
 9895SOL    HW130584   5.992   2.743   5.465
 9895SOL    HW230585   5.901   2.722   5.599
 9896SOL     OW30586   5.320   1.661   0.854
 9896SOL    HW130587   5.406   1.695   0.818
 9896SOL    HW230588   5.269   1.616   0.781
 9897SOL     OW30589   5.044   0.505   2.998
 9897SOL    HW130590   5.064   0.414   3.035
 9897SOL    HW230591   4.960   0.501   2.945
 9898SOL     OW30592   0.092   4.549   5.655
 9898SOL    HW130593   0.059   4.467   5.609
 9898SOL    HW230594   0.192   4.546   5.662
 9899SOL     OW30595   6.849   5.938   2.827
 9899SOL    HW130596   6.871   5.954   2.731
 9899SOL    HW230597   6.927   5.893   2.872
 9900SOL     OW30598   1.781   2.878   2.979
 9900SOL    HW130599   1.754   2.952   2.918
 9900SOL    HW230600   1.832   2.914   3.056
 9901SOL     OW30601   1.894   1.160   0.413
 9901SOL    HW130602   1.983   1.186   0.451
 9901SOL    HW230603   1.907   1.084   0.349
 9902SOL     OW30604   4.554   4.015   0.956
 9902SOL    HW130605   4.524   3.934   1.006
 9902SOL    HW230606   4.585   3.988   0.865
 9903SOL     OW30607   5.296   7.007   2.150
 9903SOL    HW130608   5.198   7.011   2.173
 9903SOL    HW230609   5.308   7.022   2.052
 9904SOL     OW30610   6.999   3.877   6.640
 9904SOL    HW130611   0.017   3.960   6.602
 9904SOL    HW230612   0.048   3.815   6.669
 9905SOL     OW30613   1.352   6.678   6.674
 9905SOL    HW130614   1.255   6.651   6.668
 9905SOL    HW230615   1.403   6.632   6.602
 9906SOL     OW30616   2.042   3.612   6.993
 9906SOL    HW130617   2.076   3.686   6.935
 9906SOL    HW230618   1.946   3.593   6.970
 9907SOL     OW30619   1.281   0.403   3.515
 9907SOL    HW130620   1.286   0.433   3.419
 9907SOL    HW230621   1.219   0.463   3.565
 9908SOL     OW30622   0.779   3.512   5.709
 9908SOL    HW130623   0.858   3.471   5.664
 9908SOL    HW230624   0.798   3.522   5.807
 9909SOL     OW30625   3.715   0.455   2.798
 9909SOL    HW130626   3.767   0.376   2.765
 9909SOL    HW230627   3.619   0.445   2.773
 9910SOL     OW30628   0.938   5.028   1.802
 9910SOL    HW130629   0.876   4.950   1.790
 9910SOL    HW230630   0.962   5.065   1.712
 9911SOL     OW30631   4.310   5.931   2.191
 9911SOL    HW130632   4.241   6.003   2.199
 9911SOL    HW230633   4.325   5.889   2.280
 9912SOL     OW30634   4.001   0.889   1.417
 9912SOL    HW130635   4.053   0.904   1.333
 9912SOL    HW230636   3.948   0.804   1.409
 9913SOL     OW30637   6.421   3.633   1.564
 9913SOL    HW130638   6.380   3.712   1.518
 9913SOL    HW230639   6.390   3.631   1.659
 9914SOL     OW30640   1.016   0.428   5.414
 9914SOL    HW130641   1.039   0.344   5.364
 9914SOL    HW230642   1.083   0.443   5.487
 9915SOL     OW30643   4.969   2.504   3.559
 9915SOL    HW130644   4.954   2.591   3.607
 9915SOL    HW230645   4.941   2.428   3.618
 9916SOL     OW30646   2.047   2.211   3.524
 9916SOL    HW130647   2.021   2.122   3.563
 9916SOL    HW230648   2.143   2.207   3.494
 9917SOL     OW30649   3.461   3.719   4.523
 9917SOL    HW130650   3.474   3.620   4.514
 9917SOL    HW230651   3.402   3.737   4.602
 9918SOL     OW30652   0.740   2.130   1.978
 9918SOL    HW130653   0.789   2.214   1.957
 9918SOL    HW230654   0.647   2.152   2.008
 9919SOL     OW30655   2.584   5.594   1.329
 9919SOL    HW130656   2.600   5.674   1.271
 9919SOL    HW230657   2.500   5.606   1.381
 9920SOL     OW30658   3.998   6.743   2.244
 9920SOL    HW130659   3.920   6.775   2.298
 9920SOL    HW230660   4.082   6.785   2.280
 9921SOL     OW30661   4.432   6.875   4.607
 9921SOL    HW130662   4.468   6.792   4.564
 9921SOL    HW230663   4.493   6.952   4.587
 9922SOL     OW30664   4.718   4.941   1.168
 9922SOL    HW130665   4.742   4.845   1.181
 9922SOL    HW230666   4.627   4.948   1.127
 9923SOL     OW30667   0.314   2.923   6.744
 9923SOL    HW130668   0.411   2.933   6.721
 9923SOL    HW230669   0.292   2.826   6.749
 9924SOL     OW30670   4.638   1.623   3.336
 9924SOL    HW130671   4.555   1.667   3.372
 9924SOL    HW230672   4.659   1.660   3.246
 9925SOL     OW30673   1.745   4.832   3.752
 9925SOL    HW130674   1.664   4.837   3.694
 9925SOL    HW230675   1.763   4.737   3.776
 9926SOL     OW30676   3.274   2.443   0.595
 9926SOL    HW130677   3.174   2.451   0.599
 9926SOL    HW230678   3.306   2.479   0.508
 9927SOL     OW30679   1.017   1.924   0.751
 9927SOL    HW130680   1.049   1.995   0.813
 9927SOL    HW230681   0.919   1.912   0.762
 9928SOL     OW30682   5.451   3.757   2.749
 9928SOL    HW130683   5.510   3.678   2.733
 9928SOL    HW230684   5.486   3.836   2.699
 9929SOL     OW30685   3.831   4.112   4.755
 9929SOL    HW130686   3.905   4.171   4.788
 9929SOL    HW230687   3.749   4.126   4.810
 9930SOL     OW30688   0.875   0.428   6.389
 9930SOL    HW130689   0.788   0.381   6.404
 9930SOL    HW230690   0.950   0.362   6.396
 9931SOL     OW30691   6.518   5.425   4.193
 9931SOL    HW130692   6.460   5.345   4.206
 9931SOL    HW230693   6.614   5.398   4.201
 9932SOL     OW30694   2.153   1.763   6.852
 9932SOL    HW130695   2.214   1.784   6.928
 9932SOL    HW230696   2.156   1.665   6.833
 9933SOL     OW30697   1.819   1.009   4.518
 9933SOL    HW130698   1.819   1.067   4.437
 9933SOL    HW230699   1.904   1.023   4.569
 9934SOL     OW30700   6.294   1.493   6.796
 9934SOL    HW130701   6.212   1.538   6.832
 9934SOL    HW230702   6.352   1.465   6.873
 9935SOL     OW30703   2.342   0.768   0.648
 9935SOL    HW130704   2.357   0.822   0.564
 9935SOL    HW230705   2.261   0.802   0.695
 9936SOL     OW30706   6.678   5.318   0.124
 9936SOL    HW130707   6.718   5.290   0.037
 9936SOL    HW230708   6.639   5.410   0.115
 9937SOL     OW30709   1.475   1.354   3.235
 9937SOL    HW130710   1.541   1.423   3.265
 9937SOL    HW230711   1.500   1.265   3.273
 9938SOL     OW30712   5.880   6.876   4.010
 9938SOL    HW130713   5.801   6.890   4.069
 9938SOL    HW230714   5.868   6.929   3.926
 9939SOL     OW30715   2.501   2.661   0.822
 9939SOL    HW130716   2.446   2.670   0.739
 9939SOL    HW230717   2.590   2.705   0.808
 9940SOL     OW30718   0.997   0.105   3.334
 9940SOL    HW130719   1.095   0.099   3.354
 9940SOL    HW230720   0.982   0.097   3.235
 9941SOL     OW30721   2.891   5.803   5.432
 9941SOL    HW130722   2.988   5.786   5.414
 9941SOL    HW230723   2.836   5.770   5.356
 9942SOL     OW30724   5.058   5.705   1.754
 9942SOL    HW130725   5.074   5.751   1.842
 9942SOL    HW230726   4.984   5.751   1.705
 9943SOL     OW30727   1.104   4.157   6.744
 9943SOL    HW130728   1.057   4.097   6.680
 9943SOL    HW230729   1.190   4.115   6.774
 9944SOL     OW30730   0.509   5.117   6.501
 9944SOL    HW130731   0.558   5.154   6.422
 9944SOL    HW230732   0.558   5.141   6.585
 9945SOL     OW30733   5.518   4.204   6.956
 9945SOL    HW130734   5.471   4.252   6.882
 9945SOL    HW230735   5.498   4.107   6.951
 9946SOL     OW30736   6.011   0.136   3.108
 9946SOL    HW130737   6.063   0.078   3.171
 9946SOL    HW230738   6.042   0.120   3.014
 9947SOL     OW30739   2.762   1.591   4.709
 9947SOL    HW130740   2.832   1.553   4.770
 9947SOL    HW230741   2.714   1.666   4.755
 9948SOL     OW30742   0.059   5.798   5.155
 9948SOL    HW130743   0.077   5.863   5.229
 9948SOL    HW230744   0.066   5.705   5.190
 9949SOL     OW30745   6.817   5.230   3.977
 9949SOL    HW130746   6.903   5.180   3.982
 9949SOL    HW230747   6.751   5.190   4.041
 9950SOL     OW30748   6.980   5.790   5.535
 9950SOL    HW130749   6.967   5.840   5.621
 9950SOL    HW230750   7.017   5.852   5.465
 9951SOL     OW30751   1.898   2.204   2.937
 9951SOL    HW130752   1.960   2.128   2.920
 9951SOL    HW230753   1.808   2.183   2.899
 9952SOL     OW30754   1.302   3.598   0.747
 9952SOL    HW130755   1.324   3.548   0.664
 9952SOL    HW230756   1.289   3.695   0.726
 9953SOL     OW30757   5.474   2.840   3.954
 9953SOL    HW130758   5.506   2.869   3.864
 9953SOL    HW230759   5.548   2.795   4.002
 9954SOL     OW30760   1.330   0.103   4.727
 9954SOL    HW130761   1.360   0.127   4.635
 9954SOL    HW230762   1.407   0.111   4.791
 9955SOL     OW30763   3.596   3.718   6.721
 9955SOL    HW130764   3.503   3.740   6.751
 9955SOL    HW230765   3.593   3.689   6.625
 9956SOL     OW30766   0.756   3.314   2.292
 9956SOL    HW130767   0.759   3.253   2.213
 9956SOL    HW230768   0.664   3.354   2.298
 9957SOL     OW30769   5.975   0.199   2.307
 9957SOL    HW130770   5.887   0.231   2.273
 9957SOL    HW230771   5.967   0.178   2.405
 9958SOL     OW30772   3.241   6.091   6.107
 9958SOL    HW130773   3.223   6.033   6.028
 9958SOL    HW230774   3.295   6.041   6.174
 9959SOL     OW30775   4.083   3.673   2.520
 9959SOL    HW130776   4.105   3.621   2.602
 9959SOL    HW230777   4.054   3.610   2.448
 9960SOL     OW30778   0.667   6.293   1.163
 9960SOL    HW130779   0.720   6.277   1.247
 9960SOL    HW230780   0.705   6.372   1.115
 9961SOL     OW30781   1.598   4.530   3.033
 9961SOL    HW130782   1.528   4.520   3.103
 9961SOL    HW230783   1.653   4.612   3.052
 9962SOL     OW30784   4.630   0.892   1.995
 9962SOL    HW130785   4.579   0.837   2.062
 9962SOL    HW230786   4.719   0.916   2.033
 9963SOL     OW30787   2.921   2.336   5.990
 9963SOL    HW130788   2.853   2.402   5.958
 9963SOL    HW230789   2.999   2.336   5.929
 9964SOL     OW30790   4.384   5.219   5.790
 9964SOL    HW130791   4.338   5.284   5.850
 9964SOL    HW230792   4.376   5.250   5.695
 9965SOL     OW30793   3.497   4.808   5.235
 9965SOL    HW130794   3.590   4.837   5.214
 9965SOL    HW230795   3.433   4.851   5.171
 9966SOL     OW30796   1.667   4.729   1.988
 9966SOL    HW130797   1.668   4.810   2.046
 9966SOL    HW230798   1.728   4.659   2.026
 9967SOL     OW30799   5.662   5.046   2.458
 9967SOL    HW130800   5.654   5.022   2.554
 9967SOL    HW230801   5.755   5.026   2.426
 9968SOL     OW30802   3.424   5.944   6.269
 9968SOL    HW130803   3.520   5.950   6.243
 9968SOL    HW230804   3.394   5.848   6.265
 9969SOL     OW30805   1.160   3.193   3.963
 9969SOL    HW130806   1.247   3.148   3.981
 9969SOL    HW230807   1.145   3.199   3.864
 9970SOL     OW30808   0.082   4.715   2.502
 9970SOL    HW130809   0.091   4.735   2.600
 9970SOL    HW230810   0.153   4.765   2.452
 9971SOL     OW30811   2.192   3.803   0.595
 9971SOL    HW130812   2.145   3.785   0.681
 9971SOL    HW230813   2.179   3.898   0.569
 9972SOL     OW30814   3.224   4.307   0.774
 9972SOL    HW130815   3.168   4.229   0.747
 9972SOL    HW230816   3.321   4.280   0.775
 9973SOL     OW30817   4.273   1.944   4.351
 9973SOL    HW130818   4.316   2.010   4.413
 9973SOL    HW230819   4.316   1.854   4.365
 9974SOL     OW30820   6.730   3.517   2.957
 9974SOL    HW130821   6.810   3.535   2.900
 9974SOL    HW230822   6.757   3.464   3.037
 9975SOL     OW30823   0.034   4.519   6.651
 9975SOL    HW130824   0.085   4.585   6.595
 9975SOL    HW230825   6.977   4.564   6.690
 9976SOL     OW30826   6.667   4.745   5.019
 9976SOL    HW130827   6.746   4.796   4.986
 9976SOL    HW230828   6.675   4.729   5.117
 9977SOL     OW30829   6.587   5.088   6.145
 9977SOL    HW130830   6.682   5.114   6.131
 9977SOL    HW230831   6.545   5.149   6.212
 9978SOL     OW30832   6.038   1.701   5.062
 9978SOL    HW130833   5.956   1.758   5.071
 9978SOL    HW230834   6.011   1.605   5.053
 9979SOL     OW30835   6.407   4.299   5.764
 9979SOL    HW130836   6.342   4.275   5.692
 9979SOL    HW230837   6.496   4.259   5.743
 9980SOL     OW30838   1.258   1.237   0.206
 9980SOL    HW130839   1.235   1.256   0.110
 9980SOL    HW230840   1.177   1.251   0.263
 9981SOL     OW30841   2.681   1.573   0.441
 9981SOL    HW130842   2.685   1.474   0.453
 9981SOL    HW230843   2.720   1.598   0.352
 9982SOL     OW30844   0.816   1.707   3.736
 9982SOL    HW130845   0.821   1.621   3.787
 9982SOL    HW230846   0.846   1.782   3.795
 9983SOL     OW30847   1.214   0.953   1.491
 9983SOL    HW130848   1.213   0.853   1.494
 9983SOL    HW230849   1.300   0.987   1.529
 9984SOL     OW30850   0.646   0.260   0.188
 9984SOL    HW130851   0.571   0.268   0.253
 9984SOL    HW230852   0.611   0.228   0.100
 9985SOL     OW30853   3.775   6.960   1.330
 9985SOL    HW130854   3.675   6.964   1.322
 9985SOL    HW230855   3.815   0.021   1.294
 9986SOL     OW30856   5.045   4.149   7.003
 9986SOL    HW130857   5.122   4.170   0.041
 9986SOL    HW230858   5.054   4.056   6.969
 9987SOL     OW30859   5.862   1.805   2.028
 9987SOL    HW130860   5.794   1.878   2.036
 9987SOL    HW230861   5.815   1.716   2.032
 9988SOL     OW30862   7.008   4.869   4.404
 9988SOL    HW130863   0.066   4.919   4.435
 9988SOL    HW230864   0.007   4.772   4.395
 9989SOL     OW30865   5.272   3.316   3.703
 9989SOL    HW130866   5.209   3.394   3.698
 9989SOL    HW230867   5.365   3.346   3.683
 9990SOL     OW30868   2.567   0.351   3.634
 9990SOL    HW130869   2.637   0.280   3.628
 9990SOL    HW230870   2.595   0.430   3.579
 9991SOL     OW30871   1.408   3.069   4.979
 9991SOL    HW130872   1.437   3.064   5.075
 9991SOL    HW230873   1.312   3.095   4.975
 9992SOL     OW30874   3.713   3.485   0.633
 9992SOL    HW130875   3.694   3.421   0.708
 9992SOL    HW230876   3.627   3.529   0.606
 9993SOL     OW30877   3.954   6.479   3.053
 9993SOL    HW130878   3.870   6.526   3.024
 9993SOL    HW230879   3.985   6.517   3.140
 9994SOL     OW30880   0.275   4.125   3.463
 9994SOL    HW130881   0.232   4.121   3.373
 9994SOL    HW230882   0.206   4.112   3.534
 9995SOL     OW30883   3.021   0.226   3.147
 9995SOL    HW130884   3.014   0.311   3.095
 9995SOL    HW230885   3.014   0.148   3.084
 9996SOL     OW30886   2.731   2.546   1.059
 9996SOL    HW130887   2.783   2.631   1.058
 9996SOL    HW230888   2.668   2.546   1.137
 9997SOL     OW30889   4.876   1.053   0.929
 9997SOL    HW130890   4.860   1.082   0.834
 9997SOL    HW230891   4.946   0.982   0.930
 9998SOL     OW30892   5.372   3.807   3.000
 9998SOL    HW130893   5.275   3.808   3.021
 9998SOL    HW230894   5.385   3.793   2.902
 9999SOL     OW30895   6.771   5.868   5.281
 9999SOL    HW130896   6.843   5.911   5.227
 9999SOL    HW230897   6.769   5.909   5.372
10000SOL     OW30898   6.089   1.996   6.530
10000SOL    HW130899   6.035   1.912   6.537
10000SOL    HW230900   6.185   1.976   6.547
10001SOL     OW30901   4.562   0.282   1.768
10001SOL    HW130902   4.505   0.272   1.850
10001SOL    HW230903   4.550   0.202   1.709
10002SOL     OW30904   1.300   1.363   2.003
10002SOL    HW130905   1.309   1.268   2.034
10002SOL    HW230906   1.380   1.389   1.951
10003SOL     OW30907   3.516   2.087   2.652
10003SOL    HW130908   3.563   2.097   2.740
10003SOL    HW230909   3.481   2.176   2.623
10004SOL     OW30910   5.183   2.835   4.824
10004SOL    HW130911   5.275   2.842   4.863
10004SOL    HW230912   5.159   2.739   4.811
10005SOL     OW30913   4.223   5.495   3.265
10005SOL    HW130914   4.197   5.446   3.182
10005SOL    HW230915   4.237   5.430   3.339
10006SOL     OW30916   5.355   1.662   5.044
10006SOL    HW130917   5.272   1.646   5.097
10006SOL    HW230918   5.353   1.609   4.959
10007SOL     OW30919   0.553   3.702   4.424
10007SOL    HW130920   0.482   3.664   4.365
10007SOL    HW230921   0.534   3.798   4.441
10008SOL     OW30922   4.040   0.978   2.799
10008SOL    HW130923   4.109   1.010   2.734
10008SOL    HW230924   3.972   1.049   2.815
10009SOL     OW30925   1.839   4.065   2.038
10009SOL    HW130926   1.765   4.130   2.023
10009SOL    HW230927   1.902   4.066   1.961
10010SOL     OW30928   2.114   6.492   0.518
10010SOL    HW130929   2.081   6.451   0.433
10010SOL    HW230930   2.214   6.487   0.521
10011SOL     OW30931   0.492   3.467   6.243
10011SOL    HW130932   0.549   3.443   6.165
10011SOL    HW230933   0.398   3.485   6.212
10012SOL     OW30934   4.897   6.738   2.612
10012SOL    HW130935   4.992   6.735   2.583
10012SOL    HW230936   4.840   6.771   2.536
10013SOL     OW30937   1.818   1.841   4.831
10013SOL    HW130938   1.906   1.861   4.873
10013SOL    HW230939   1.758   1.797   4.898
10014SOL     OW30940   0.095   1.913   1.477
10014SOL    HW130941   0.024   1.948   1.538
10014SOL    HW230942   0.157   1.854   1.529
10015SOL     OW30943   3.634   4.725   0.331
10015SOL    HW130944   3.572   4.711   0.253
10015SOL    HW230945   3.680   4.638   0.352
10016SOL     OW30946   1.968   0.441   5.032
10016SOL    HW130947   1.985   0.489   5.118
10016SOL    HW230948   2.000   0.347   5.039
10017SOL     OW30949   2.362   1.251   2.372
10017SOL    HW130950   2.301   1.253   2.452
10017SOL    HW230951   2.456   1.266   2.403
10018SOL     OW30952   6.458   4.981   5.913
10018SOL    HW130953   6.479   5.040   5.991
10018SOL    HW230954   6.500   5.018   5.830
10019SOL     OW30955   0.558   1.757   3.123
10019SOL    HW130956   0.486   1.761   3.054
10019SOL    HW230957   0.581   1.849   3.153
10020SOL     OW30958   0.599   1.218   1.172
10020SOL    HW130959   0.612   1.214   1.073
10020SOL    HW230960   0.503   1.199   1.194
10021SOL     OW30961   1.280   2.317   2.520
10021SOL    HW130962   1.212   2.324   2.447
10021SOL    HW230963   1.261   2.385   2.591
10022SOL     OW30964   3.948   0.030   0.854
10022SOL    HW130965   3.960   7.000   0.939
10022SOL    HW230966   3.909   0.119   0.876
10023SOL     OW30967   2.198   4.765   5.562
10023SOL    HW130968   2.228   4.699   5.630
10023SOL    HW230969   2.198   4.723   5.472
10024SOL     OW30970   2.108   6.538   1.847
10024SOL    HW130971   2.149   6.625   1.819
10024SOL    HW230972   2.179   6.479   1.886
10025SOL     OW30973   1.878   2.109   1.338
10025SOL    HW130974   1.933   2.123   1.256
10025SOL    HW230975   1.903   2.176   1.407
10026SOL     OW30976   3.787   6.325   3.309
10026SOL    HW130977   3.836   6.406   3.279
10026SOL    HW230978   3.712   6.306   3.245
10027SOL     OW30979   1.211   4.170   5.047
10027SOL    HW130980   1.195   4.237   4.975
10027SOL    HW230981   1.304   4.134   5.040
10028SOL     OW30982   1.269   1.517   2.243
10028SOL    HW130983   1.272   1.473   2.154
10028SOL    HW230984   1.221   1.458   2.308
10029SOL     OW30985   2.487   1.703   4.496
10029SOL    HW130986   2.553   1.652   4.441
10029SOL    HW230987   2.399   1.656   4.495
10030SOL     OW30988   2.293   0.081   4.375
10030SOL    HW130989   2.350   7.023   4.385
10030SOL    HW230990   2.210   0.070   4.429
10031SOL     OW30991   6.177   4.756   3.755
10031SOL    HW130992   6.121   4.823   3.803
10031SOL    HW230993   6.273   4.785   3.756
10032SOL     OW30994   4.037   0.388   5.422
10032SOL    HW130995   4.042   0.319   5.349
10032SOL    HW230996   4.000   0.473   5.384
10033SOL     OW30997   4.519   1.543   4.100
10033SOL    HW130998   4.559   1.471   4.044
10033SOL    HW230999   4.427   1.565   4.065
10034SOL     OW31000   3.799   0.223   3.801
10034SOL    HW131001   3.728   0.190   3.864
10034SOL    HW231002   3.789   0.176   3.713
10035SOL     OW31003   0.114   4.800   2.769
10035SOL    HW131004   0.205   4.820   2.806
10035SOL    HW231005   0.067   4.885   2.746
10036SOL     OW31006   5.853   1.081   1.377
10036SOL    HW131007   5.769   1.134   1.365
10036SOL    HW231008   5.851   1.035   1.466
10037SOL     OW31009   5.670   1.706   1.091
10037SOL    HW131010   5.589   1.765   1.086
10037SOL    HW231011   5.722   1.728   1.173
10038SOL     OW31012   4.319   1.381   6.542
10038SOL    HW131013   4.281   1.472   6.558
10038SOL    HW231014   4.302   1.354   6.448
10039SOL     OW31015   4.027   0.405   5.093
10039SOL    HW131016   4.124   0.430   5.096
10039SOL    HW231017   4.007   0.359   5.006
10040SOL     OW31018   4.223   5.849   6.065
10040SOL    HW131019   4.314   5.815   6.088
10040SOL    HW231020   4.156   5.813   6.130
10041SOL     OW31021   4.253   5.884   6.422
10041SOL    HW131022   4.205   5.954   6.475
10041SOL    HW231023   4.339   5.861   6.468
10042SOL     OW31024   0.916   2.035   4.907
10042SOL    HW131025   0.833   2.059   4.857
10042SOL    HW231026   0.996   2.061   4.852
10043SOL     OW31027   0.401   2.353   4.474
10043SOL    HW131028   0.411   2.444   4.433
10043SOL    HW231029   0.305   2.326   4.471
10044SOL     OW31030   2.975   1.215   4.841
10044SOL    HW131031   2.928   1.185   4.759
10044SOL    HW231032   2.930   1.177   4.922
10045SOL     OW31033   4.980   6.870   3.601
10045SOL    HW131034   4.939   6.903   3.516
10045SOL    HW231035   4.942   6.922   3.678
10046SOL     OW31036   1.644   3.755   1.406
10046SOL    HW131037   1.570   3.732   1.342
10046SOL    HW231038   1.681   3.671   1.446
10047SOL     OW31039   6.790   3.800   5.212
10047SOL    HW131040   6.732   3.739   5.158
10047SOL    HW231041   6.786   3.773   5.308
10048SOL     OW31042   6.185   1.069   3.402
10048SOL    HW131043   6.264   1.013   3.375
10048SOL    HW231044   6.213   1.132   3.475
10049SOL     OW31045   0.123   0.560   6.753
10049SOL    HW131046   0.167   0.631   6.697
10049SOL    HW231047   0.118   0.591   6.848
10050SOL     OW31048   5.509   3.397   5.111
10050SOL    HW131049   5.436   3.364   5.051
10050SOL    HW231050   5.501   3.354   5.201
10051SOL     OW31051   5.129   2.770   5.143
10051SOL    HW131052   5.103   2.744   5.049
10051SOL    HW231053   5.128   2.689   5.201
10052SOL     OW31054   1.918   1.510   2.846
10052SOL    HW131055   2.004   1.550   2.814
10052SOL    HW231056   1.856   1.584   2.873
10053SOL     OW31057   3.452   5.634   2.579
10053SOL    HW131058   3.540   5.656   2.537
10053SOL    HW231059   3.399   5.578   2.515
10054SOL     OW31060   5.273   5.827   6.347
10054SOL    HW131061   5.216   5.765   6.401
10054SOL    HW231062   5.325   5.886   6.409
10055SOL     OW31063   5.520   2.004   4.736
10055SOL    HW131064   5.457   1.962   4.671
10055SOL    HW231065   5.501   2.102   4.742
10056SOL     OW31066   5.487   4.158   3.474
10056SOL    HW131067   5.432   4.100   3.413
10056SOL    HW231068   5.436   4.177   3.558
10057SOL     OW31069   4.332   2.002   5.145
10057SOL    HW131070   4.283   1.924   5.184
10057SOL    HW231071   4.277   2.084   5.154
10058SOL     OW31072   0.128   3.458   4.408
10058SOL    HW131073   0.038   3.500   4.423
10058SOL    HW231074   0.146   3.392   4.481
10059SOL     OW31075   6.374   0.384   1.638
10059SOL    HW131076   6.461   0.344   1.668
10059SOL    HW231077   6.333   0.435   1.713
10060SOL     OW31078   1.606   2.358   1.890
10060SOL    HW131079   1.593   2.266   1.926
10060SOL    HW231080   1.520   2.393   1.853
10061SOL     OW31081   4.586   0.931   3.879
10061SOL    HW131082   4.599   0.950   3.782
10061SOL    HW231083   4.491   0.906   3.896
10062SOL     OW31084   6.093   0.200   4.348
10062SOL    HW131085   6.129   0.291   4.366
10062SOL    HW231086   6.169   0.137   4.331
10063SOL     OW31087   2.456   1.243   4.124
10063SOL    HW131088   2.451   1.162   4.065
10063SOL    HW231089   2.533   1.300   4.097
10064SOL     OW31090   5.154   0.093   6.943
10064SOL    HW131091   5.227   0.099   6.875
10064SOL    HW231092   5.101   0.010   6.928
10065SOL     OW31093   3.121   0.632   2.450
10065SOL    HW131094   3.078   0.691   2.518
10065SOL    HW231095   3.090   0.659   2.359
10066SOL     OW31096   0.523   2.524   3.871
10066SOL    HW131097   0.492   2.589   3.941
10066SOL    HW231098   0.559   2.442   3.916
10067SOL     OW31099   6.945   4.033   5.131
10067SOL    HW131100   6.886   3.956   5.155
10067SOL    HW231101   6.933   4.056   5.035
10068SOL     OW31102   6.825   3.333   3.166
10068SOL    HW131103   6.868   3.311   3.253
10068SOL    HW231104   6.777   3.252   3.132
10069SOL     OW31105   2.351   4.848   2.247
10069SOL    HW131106   2.390   4.832   2.156
10069SOL    HW231107   2.264   4.895   2.238
10070SOL     OW31108   0.198   6.106   5.057
10070SOL    HW131109   0.219   6.128   4.962
10070SOL    HW231110   0.227   6.012   5.077
10071SOL     OW31111   6.420   6.161   4.823
10071SOL    HW131112   6.368   6.081   4.855
10071SOL    HW231113   6.370   6.244   4.848
10072SOL     OW31114   0.049   7.021   4.099
10072SOL    HW131115   0.057   6.943   4.036
10072SOL    HW231116   0.020   6.988   4.189
10073SOL     OW31117   6.001   4.743   5.168
10073SOL    HW131118   6.077   4.770   5.108
10073SOL    HW231119   5.945   4.824   5.187
10074SOL     OW31120   2.137   0.620   5.516
10074SOL    HW131121   2.181   0.695   5.466
10074SOL    HW231122   2.095   0.656   5.599
10075SOL     OW31123   1.908   2.586   2.640
10075SOL    HW131124   1.955   2.514   2.589
10075SOL    HW231125   1.810   2.576   2.628
10076SOL     OW31126   6.157   6.750   4.358
10076SOL    HW131127   6.159   6.809   4.277
10076SOL    HW231128   6.145   6.655   4.329
10077SOL     OW31129   4.288   2.618   6.555
10077SOL    HW131130   4.333   2.663   6.478
10077SOL    HW231131   4.281   2.520   6.538
10078SOL     OW31132   0.355   5.498   3.655
10078SOL    HW131133   0.437   5.445   3.635
10078SOL    HW231134   0.381   5.593   3.675
10079SOL     OW31135   5.504   3.011   3.752
10079SOL    HW131136   5.405   3.017   3.741
10079SOL    HW231137   5.540   3.101   3.775
10080SOL     OW31138   4.545   0.880   5.641
10080SOL    HW131139   4.487   0.847   5.567
10080SOL    HW231140   4.639   0.891   5.608
10081SOL     OW31141   6.934   1.116   0.716
10081SOL    HW131142   6.956   1.149   0.624
10081SOL    HW231143   6.871   1.180   0.761
10082SOL     OW31144   0.386   5.340   1.363
10082SOL    HW131145   0.343   5.357   1.451
10082SOL    HW231146   0.422   5.247   1.360
10083SOL     OW31147   3.476   0.621   3.339
10083SOL    HW131148   3.505   0.710   3.302
10083SOL    HW231149   3.468   0.555   3.265
10084SOL     OW31150   2.213   1.080   5.992
10084SOL    HW131151   2.214   1.042   6.085
10084SOL    HW231152   2.285   1.149   5.984
10085SOL     OW31153   2.431   5.647   0.779
10085SOL    HW131154   2.512   5.618   0.828
10085SOL    HW231155   2.440   5.742   0.751
10086SOL     OW31156   4.550   5.689   2.214
10086SOL    HW131157   4.649   5.689   2.222
10086SOL    HW231158   4.524   5.698   2.118
10087SOL     OW31159   0.050   6.547   4.319
10087SOL    HW131160   7.011   6.542   4.398
10087SOL    HW231161   0.042   6.637   4.276
10088SOL     OW31162   6.440   0.288   2.553
10088SOL    HW131163   6.473   0.253   2.641
10088SOL    HW231164   6.371   0.226   2.516
10089SOL     OW31165   2.825   1.904   2.981
10089SOL    HW131166   2.911   1.854   2.972
10089SOL    HW231167   2.826   1.956   3.067
10090SOL     OW31168   0.626   5.289   1.602
10090SOL    HW131169   0.646   5.260   1.696
10090SOL    HW231170   0.592   5.383   1.602
10091SOL     OW31171   6.957   4.867   6.417
10091SOL    HW131172   6.871   4.835   6.378
10091SOL    HW231173   6.941   4.903   6.509
10092SOL     OW31174   2.066   2.573   5.774
10092SOL    HW131175   2.130   2.640   5.813
10092SOL    HW231176   2.112   2.519   5.704
10093SOL     OW31177   5.507   3.362   5.780
10093SOL    HW131178   5.485   3.287   5.717
10093SOL    HW231179   5.434   3.370   5.849
10094SOL     OW31180   3.762   5.580   1.120
10094SOL    HW131181   3.809   5.610   1.038
10094SOL    HW231182   3.752   5.480   1.119
10095SOL     OW31183   5.787   1.977   4.806
10095SOL    HW131184   5.689   1.984   4.790
10095SOL    HW231185   5.832   2.062   4.778
10096SOL     OW31186   4.165   5.349   3.001
10096SOL    HW131187   4.118   5.261   2.986
10096SOL    HW231188   4.253   5.348   2.954
10097SOL     OW31189   0.870   1.878   0.113
10097SOL    HW131190   0.826   1.967   0.119
10097SOL    HW231191   0.846   1.823   0.193
10098SOL     OW31192   3.097   0.513   5.168
10098SOL    HW131193   3.055   0.438   5.220
10098SOL    HW231194   3.171   0.477   5.112
10099SOL     OW31195   0.363   4.853   1.185
10099SOL    HW131196   0.357   4.883   1.281
10099SOL    HW231197   0.395   4.758   1.182
10100SOL     OW31198   4.826   6.240   5.429
10100SOL    HW131199   4.925   6.238   5.411
10100SOL    HW231200   4.791   6.332   5.412
10101SOL     OW31201   6.416   3.612   1.876
10101SOL    HW131202   6.424   3.709   1.902
10101SOL    HW231203   6.346   3.568   1.933
10102SOL     OW31204   6.709   1.121   2.092
10102SOL    HW131205   6.681   1.058   2.019
10102SOL    HW231206   6.797   1.163   2.068
10103SOL     OW31207   3.805   0.619   5.695
10103SOL    HW131208   3.746   0.597   5.618
10103SOL    HW231209   3.752   0.667   5.765
10104SOL     OW31210   1.547   1.661   4.797
10104SOL    HW131211   1.501   1.577   4.824
10104SOL    HW231212   1.568   1.658   4.699
10105SOL     OW31213   1.393   0.809   6.733
10105SOL    HW131214   1.401   0.711   6.755
10105SOL    HW231215   1.297   0.832   6.719
10106SOL     OW31216   4.035   6.326   0.501
10106SOL    HW131217   4.040   6.259   0.426
10106SOL    HW231218   3.981   6.405   0.471
10107SOL     OW31219   5.803   1.528   5.504
10107SOL    HW131220   5.898   1.549   5.478
10107SOL    HW231221   5.755   1.613   5.524
10108SOL     OW31222   6.911   1.233   0.449
10108SOL    HW131223   6.905   1.301   0.375
10108SOL    HW231224   6.847   1.159   0.432
10109SOL     OW31225   5.830   0.897   0.428
10109SOL    HW131226   5.741   0.878   0.469
10109SOL    HW231227   5.822   0.896   0.328
10110SOL     OW31228   4.967   4.934   4.410
10110SOL    HW131229   4.933   4.947   4.317
10110SOL    HW231230   4.942   4.842   4.442
10111SOL     OW31231   5.723   3.596   3.850
10111SOL    HW131232   5.638   3.558   3.886
10111SOL    HW231233   5.771   3.645   3.922
10112SOL     OW31234   5.745   3.802   3.609
10112SOL    HW131235   5.747   3.771   3.704
10112SOL    HW231236   5.785   3.893   3.603
10113SOL     OW31237   4.254   6.825   6.796
10113SOL    HW131238   4.206   6.847   6.711
10113SOL    HW231239   4.188   6.809   6.869
10114SOL     OW31240   4.274   2.106   1.603
10114SOL    HW131241   4.345   2.147   1.545
10114SOL    HW231242   4.308   2.019   1.639
10115SOL     OW31243   3.851   0.684   5.056
10115SOL    HW131244   3.890   0.597   5.087
10115SOL    HW231245   3.868   0.754   5.125
10116SOL     OW31246   0.572   6.969   0.159
10116SOL    HW131247   0.602   7.016   0.076
10116SOL    HW231248   0.595   6.872   0.152
10117SOL     OW31249   6.666   6.406   6.138
10117SOL    HW131250   6.596   6.476   6.150
10117SOL    HW231251   6.747   6.448   6.097
10118SOL     OW31252   2.113   4.164   2.934
10118SOL    HW131253   2.101   4.215   3.019
10118SOL    HW231254   2.103   4.067   2.951
10119SOL     OW31255   6.774   5.605   4.681
10119SOL    HW131256   6.832   5.646   4.610
10119SOL    HW231257   6.778   5.660   4.764
10120SOL     OW31258   2.015   3.225   4.482
10120SOL    HW131259   1.987   3.315   4.516
10120SOL    HW231260   2.091   3.236   4.418
10121SOL     OW31261   5.771   3.999   6.589
10121SOL    HW131262   5.828   4.078   6.567
10121SOL    HW231263   5.767   3.987   6.688
10122SOL     OW31264   5.618   3.147   2.805
10122SOL    HW131265   5.607   3.170   2.708
10122SOL    HW231266   5.615   3.048   2.817
10123SOL     OW31267   5.890   5.821   1.313
10123SOL    HW131268   5.946   5.881   1.370
10123SOL    HW231269   5.894   5.852   1.218
10124SOL     OW31270   1.275   5.229   0.681
10124SOL    HW131271   1.293   5.131   0.673
10124SOL    HW231272   1.280   5.271   0.591
10125SOL     OW31273   1.679   1.515   1.953
10125SOL    HW131274   1.743   1.439   1.951
10125SOL    HW231275   1.598   1.493   1.899
10126SOL     OW31276   6.736   0.395   0.318
10126SOL    HW131277   6.658   0.376   0.377
10126SOL    HW231278   6.785   0.309   0.298
10127SOL     OW31279   2.798   4.087   6.998
10127SOL    HW131280   2.722   4.150   6.984
10127SOL    HW231281   2.772   3.996   6.969
10128SOL     OW31282   3.036   1.214   6.788
10128SOL    HW131283   3.089   1.270   6.725
10128SOL    HW231284   2.942   1.204   6.754
10129SOL     OW31285   6.387   1.326   3.174
10129SOL    HW131286   6.369   1.413   3.128
10129SOL    HW231287   6.384   1.251   3.108
10130SOL     OW31288   1.143   2.447   1.236
10130SOL    HW131289   1.226   2.490   1.201
10130SOL    HW231290   1.163   2.399   1.321
10131SOL     OW31291   1.696   6.818   4.335
10131SOL    HW131292   1.778   6.851   4.288
10131SOL    HW231293   1.723   6.779   4.424
10132SOL     OW31294   3.006   0.250   3.945
10132SOL    HW131295   3.025   0.217   3.853
10132SOL    HW231296   3.090   0.286   3.986
10133SOL     OW31297   4.469   6.444   0.310
10133SOL    HW131298   4.447   6.454   0.407
10133SOL    HW231299   4.554   6.393   0.300
10134SOL     OW31300   6.383   0.535   2.579
10134SOL    HW131301   6.287   0.561   2.567
10134SOL    HW231302   6.394   0.439   2.555
10135SOL     OW31303   4.959   3.178   3.686
10135SOL    HW131304   4.877   3.136   3.726
10135SOL    HW231305   5.002   3.237   3.754
10136SOL     OW31306   4.814   1.766   2.317
10136SOL    HW131307   4.815   1.720   2.228
10136SOL    HW231308   4.847   1.860   2.306
10137SOL     OW31309   0.034   3.909   4.417
10137SOL    HW131310   0.019   3.835   4.352
10137SOL    HW231311   0.091   3.877   4.492
10138SOL     OW31312   5.747   3.503   0.350
10138SOL    HW131313   5.782   3.439   0.282
10138SOL    HW231314   5.664   3.464   0.392
10139SOL     OW31315   2.885   3.489   3.379
10139SOL    HW131316   2.800   3.445   3.406
10139SOL    HW231317   2.895   3.576   3.427
10140SOL     OW31318   0.093   6.566   6.659
10140SOL    HW131319   0.001   6.591   6.689
10140SOL    HW231320   0.147   6.649   6.643
10141SOL     OW31321   4.501   1.121   5.777
10141SOL    HW131322   4.543   1.046   5.726
10141SOL    HW231323   4.452   1.181   5.714
10142SOL     OW31324   6.236   6.268   5.973
10142SOL    HW131325   6.171   6.264   6.049
10142SOL    HW231326   6.220   6.350   5.919
10143SOL     OW31327   5.617   1.729   0.436
10143SOL    HW131328   5.643   1.699   0.344
10143SOL    HW231329   5.685   1.794   0.469
10144SOL     OW31330   3.955   0.155   6.500
10144SOL    HW131331   3.924   0.162   6.405
10144SOL    HW231332   3.889   0.100   6.552
10145SOL     OW31333   2.997   5.469   2.950
10145SOL    HW131334   2.908   5.434   2.922
10145SOL    HW231335   3.006   5.462   3.049
10146SOL     OW31336   5.209   4.419   4.677
10146SOL    HW131337   5.251   4.499   4.721
10146SOL    HW231338   5.110   4.426   4.686
10147SOL     OW31339   5.167   4.248   6.368
10147SOL    HW131340   5.111   4.324   6.335
10147SOL    HW231341   5.109   4.181   6.413
10148SOL     OW31342   4.959   4.859   6.886
10148SOL    HW131343   5.045   4.810   6.867
10148SOL    HW231344   4.914   4.818   6.966
10149SOL     OW31345   5.449   3.745   1.425
10149SOL    HW131346   5.423   3.704   1.513
10149SOL    HW231347   5.379   3.810   1.397
10150SOL     OW31348   3.719   2.993   1.296
10150SOL    HW131349   3.757   3.080   1.266
10150SOL    HW231350   3.747   2.975   1.390
10151SOL     OW31351   0.840   5.863   0.002
10151SOL    HW131352   0.795   5.775   7.007
10151SOL    HW231353   0.777   5.937   7.004
10152SOL     OW31354   6.676   6.533   3.584
10152SOL    HW131355   6.697   6.631   3.593
10152SOL    HW231356   6.577   6.521   3.574
10153SOL     OW31357   4.054   5.991   3.429
10153SOL    HW131358   4.097   5.901   3.426
10153SOL    HW231359   4.124   6.062   3.434
10154SOL     OW31360   3.683   6.272   4.616
10154SOL    HW131361   3.691   6.308   4.523
10154SOL    HW231362   3.685   6.172   4.613
10155SOL     OW31363   4.734   2.269   6.577
10155SOL    HW131364   4.813   2.330   6.580
10155SOL    HW231365   4.664   2.302   6.640
10156SOL     OW31366   5.350   1.027   2.353
10156SOL    HW131367   5.382   0.945   2.306
10156SOL    HW231368   5.250   1.033   2.346
10157SOL     OW31369   0.078   1.767   0.247
10157SOL    HW131370   0.138   1.691   0.221
10157SOL    HW231371   0.105   1.801   0.337
10158SOL     OW31372   6.653   5.901   0.798
10158SOL    HW131373   6.739   5.863   0.832
10158SOL    HW231374   6.663   5.927   0.702
10159SOL     OW31375   2.879   2.396   1.445
10159SOL    HW131376   2.959   2.433   1.491
10159SOL    HW231377   2.906   2.318   1.389
10160SOL     OW31378   1.324   2.851   2.861
10160SOL    HW131379   1.279   2.830   2.948
10160SOL    HW231380   1.422   2.834   2.870
10161SOL     OW31381   3.546   3.790   0.432
10161SOL    HW131382   3.535   3.816   0.336
10161SOL    HW231383   3.496   3.705   0.450
10162SOL     OW31384   3.528   4.999   0.569
10162SOL    HW131385   3.532   5.099   0.576
10162SOL    HW231386   3.621   4.962   0.573
10163SOL     OW31387   0.038   3.544   0.415
10163SOL    HW131388   0.100   3.509   0.344
10163SOL    HW231389   6.967   3.514   0.395
10164SOL     OW31390   6.352   3.690   5.119
10164SOL    HW131391   6.328   3.731   5.208
10164SOL    HW231392   6.285   3.620   5.096
10165SOL     OW31393   6.768   1.587   3.409
10165SOL    HW131394   6.711   1.576   3.328
10165SOL    HW231395   6.795   1.682   3.419
10166SOL     OW31396   2.751   1.700   1.655
10166SOL    HW131397   2.831   1.727   1.601
10166SOL    HW231398   2.768   1.612   1.699
10167SOL     OW31399   0.844   5.254   0.232
10167SOL    HW131400   0.766   5.210   0.277
10167SOL    HW231401   0.847   5.227   0.136
10168SOL     OW31402   6.405   2.642   6.551
10168SOL    HW131403   6.504   2.631   6.565
10168SOL    HW231404   6.382   2.618   6.457
10169SOL     OW31405   0.620   4.375   3.528
10169SOL    HW131406   0.551   4.314   3.569
10169SOL    HW231407   0.658   4.434   3.599
10170SOL     OW31408   6.565   5.618   6.444
10170SOL    HW131409   6.656   5.603   6.407
10170SOL    HW231410   6.551   5.559   6.523
10171SOL     OW31411   1.183   2.867   5.090
10171SOL    HW131412   1.193   2.847   4.992
10171SOL    HW231413   1.183   2.782   5.142
10172SOL     OW31414   1.200   5.717   4.498
10172SOL    HW131415   1.220   5.729   4.401
10172SOL    HW231416   1.131   5.645   4.509
10173SOL     OW31417   1.723   1.975   0.594
10173SOL    HW131418   1.667   2.047   0.636
10173SOL    HW231419   1.681   1.944   0.510
10174SOL     OW31420   5.615   5.172   3.203
10174SOL    HW131421   5.588   5.231   3.128
10174SOL    HW231422   5.533   5.136   3.249
10175SOL     OW31423   5.040   2.921   2.898
10175SOL    HW131424   5.085   2.952   2.981
10175SOL    HW231425   4.943   2.944   2.901
10176SOL     OW31426   0.148   3.058   5.070
10176SOL    HW131427   0.097   2.996   5.130
10176SOL    HW231428   0.200   3.005   5.003
10177SOL     OW31429   1.773   0.769   1.002
10177SOL    HW131430   1.770   0.739   1.097
10177SOL    HW231431   1.709   0.845   0.989
10178SOL     OW31432   6.814   1.009   0.307
10178SOL    HW131433   6.870   1.037   0.229
10178SOL    HW231434   6.731   0.965   0.275
10179SOL     OW31435   0.632   2.484   6.489
10179SOL    HW131436   0.720   2.514   6.450
10179SOL    HW231437   0.647   2.452   6.583
10180SOL     OW31438   4.163   0.727   6.614
10180SOL    HW131439   4.186   0.638   6.574
10180SOL    HW231440   4.107   0.779   6.549
10181SOL     OW31441   7.001   2.802   1.577
10181SOL    HW131442   0.060   2.838   1.531
10181SOL    HW231443   7.014   2.806   1.676
10182SOL     OW31444   4.379   0.590   0.697
10182SOL    HW131445   4.424   0.599   0.786
10182SOL    HW231446   4.295   0.645   0.696
10183SOL     OW31447   5.737   2.240   5.712
10183SOL    HW131448   5.658   2.214   5.655
10183SOL    HW231449   5.738   2.340   5.724
10184SOL     OW31450   4.471   1.748   6.506
10184SOL    HW131451   4.379   1.724   6.535
10184SOL    HW231452   4.480   1.848   6.501
10185SOL     OW31453   6.162   6.329   3.176
10185SOL    HW131454   6.258   6.345   3.155
10185SOL    HW231455   6.135   6.384   3.255
10186SOL     OW31456   5.161   4.062   4.309
10186SOL    HW131457   5.098   4.035   4.237
10186SOL    HW231458   5.156   3.996   4.384
10187SOL     OW31459   1.091   4.457   6.686
10187SOL    HW131460   1.107   4.359   6.683
10187SOL    HW231461   1.171   4.505   6.647
10188SOL     OW31462   3.719   4.103   6.823
10188SOL    HW131463   3.758   4.012   6.806
10188SOL    HW231464   3.773   4.150   6.892
10189SOL     OW31465   0.342   1.388   6.754
10189SOL    HW131466   0.414   1.431   6.809
10189SOL    HW231467   0.332   1.292   6.781
10190SOL     OW31468   3.842   3.281   1.250
10190SOL    HW131469   3.931   3.249   1.218
10190SOL    HW231470   3.848   3.377   1.275
10191SOL     OW31471   4.658   5.268   6.555
10191SOL    HW131472   4.736   5.206   6.561
10191SOL    HW231473   4.641   5.291   6.459
10192SOL     OW31474   4.237   0.902   5.232
10192SOL    HW131475   4.298   0.961   5.180
10192SOL    HW231476   4.229   0.813   5.186
10193SOL     OW31477   3.495   3.233   2.487
10193SOL    HW131478   3.401   3.242   2.519
10193SOL    HW231479   3.526   3.139   2.501
10194SOL     OW31480   4.757   0.406   5.100
10194SOL    HW131481   4.822   0.426   5.173
10194SOL    HW231482   4.794   0.440   5.013
10195SOL     OW31483   6.904   6.514   0.196
10195SOL    HW131484   6.904   6.416   0.211
10195SOL    HW231485   6.812   6.543   0.167
10196SOL     OW31486   3.720   2.090   4.055
10196SOL    HW131487   3.776   2.104   4.136
10196SOL    HW231488   3.673   2.175   4.032
10197SOL     OW31489   5.414   1.840   4.534
10197SOL    HW131490   5.341   1.774   4.549
10197SOL    HW231491   5.470   1.811   4.457
10198SOL     OW31492   3.793   6.509   1.976
10198SOL    HW131493   3.766   6.603   1.997
10198SOL    HW231494   3.837   6.507   1.886
10199SOL     OW31495   0.781   2.336   0.775
10199SOL    HW131496   0.710   2.272   0.747
10199SOL    HW231497   0.750   2.387   0.856
10200SOL     OW31498   4.754   3.287   5.281
10200SOL    HW131499   4.701   3.242   5.353
10200SOL    HW231500   4.716   3.378   5.264
10201SOL     OW31501   0.726   5.623   0.037
10201SOL    HW131502   0.818   5.584   0.037
10201SOL    HW231503   0.671   5.580   0.109
10202SOL     OW31504   2.742   4.474   0.017
10202SOL    HW131505   2.828   4.524   0.020
10202SOL    HW231506   2.747   4.395   0.079
10203SOL     OW31507   6.595   2.678   2.444
10203SOL    HW131508   6.625   2.714   2.532
10203SOL    HW231509   6.620   2.742   2.371
10204SOL     OW31510   4.057   5.472   6.338
10204SOL    HW131511   4.078   5.475   6.436
10204SOL    HW231512   4.047   5.376   6.310
10205SOL     OW31513   3.056   1.023   2.179
10205SOL    HW131514   3.129   0.968   2.220
10205SOL    HW231515   3.088   1.061   2.092
10206SOL     OW31516   6.870   0.092   6.704
10206SOL    HW131517   6.776   0.072   6.677
10206SOL    HW231518   6.876   0.092   6.804
10207SOL     OW31519   1.224   2.202   0.186
10207SOL    HW131520   1.199   2.210   0.283
10207SOL    HW231521   1.322   2.181   0.180
10208SOL     OW31522   6.284   5.354   3.279
10208SOL    HW131523   6.316   5.415   3.351
10208SOL    HW231524   6.350   5.352   3.204
10209SOL     OW31525   0.259   0.101   6.532
10209SOL    HW131526   0.215   0.076   6.619
10209SOL    HW231527   0.238   0.196   6.510
10210SOL     OW31528   5.270   6.185   0.740
10210SOL    HW131529   5.248   6.114   0.807
10210SOL    HW231530   5.234   6.273   0.770
10211SOL     OW31531   4.027   6.251   4.995
10211SOL    HW131532   4.127   6.244   4.999
10211SOL    HW231533   3.987   6.161   5.009
10212SOL     OW31534   6.993   6.877   5.419
10212SOL    HW131535   6.992   6.795   5.362
10212SOL    HW231536   6.979   6.852   5.515
10213SOL     OW31537   5.485   3.268   2.497
10213SOL    HW131538   5.441   3.179   2.480
10213SOL    HW231539   5.422   3.327   2.547
10214SOL     OW31540   0.778   1.715   1.542
10214SOL    HW131541   0.723   1.799   1.546
10214SOL    HW231542   0.872   1.737   1.516
10215SOL     OW31543   3.145   3.014   3.411
10215SOL    HW131544   3.138   3.106   3.374
10215SOL    HW231545   3.106   3.011   3.503
10216SOL     OW31546   0.896   1.120   1.222
10216SOL    HW131547   0.906   1.030   1.180
10216SOL    HW231548   0.800   1.137   1.242
10217SOL     OW31549   1.936   2.516   3.966
10217SOL    HW131550   1.890   2.464   4.038
10217SOL    HW231551   1.943   2.459   3.884
10218SOL     OW31552   1.551   0.802   1.819
10218SOL    HW131553   1.501   0.768   1.899
10218SOL    HW231554   1.516   0.893   1.794
10219SOL     OW31555   0.637   2.568   2.595
10219SOL    HW131556   0.550   2.539   2.557
10219SOL    HW231557   0.621   2.639   2.664
10220SOL     OW31558   3.801   1.398   1.184
10220SOL    HW131559   3.846   1.365   1.267
10220SOL    HW231560   3.702   1.403   1.198
10221SOL     OW31561   1.960   3.784   4.358
10221SOL    HW131562   2.012   3.785   4.444
10221SOL    HW231563   2.006   3.723   4.293
10222SOL     OW31564   2.367   3.564   5.453
10222SOL    HW131565   2.451   3.571   5.506
10222SOL    HW231566   2.288   3.570   5.514
10223SOL     OW31567   2.427   5.440   0.107
10223SOL    HW131568   2.380   5.516   0.151
10223SOL    HW231569   2.503   5.475   0.053
10224SOL     OW31570   6.385   2.331   5.670
10224SOL    HW131571   6.405   2.422   5.707
10224SOL    HW231572   6.347   2.274   5.742
10225SOL     OW31573   2.390   6.059   6.046
10225SOL    HW131574   2.325   6.078   5.972
10225SOL    HW231575   2.340   6.032   6.128
10226SOL     OW31576   2.437   0.560   6.359
10226SOL    HW131577   2.348   0.545   6.316
10226SOL    HW231578   2.425   0.596   6.451
10227SOL     OW31579   4.796   4.313   0.935
10227SOL    HW131580   4.824   4.217   0.935
10227SOL    HW231581   4.758   4.336   0.845
10228SOL     OW31582   1.297   5.723   1.742
10228SOL    HW131583   1.204   5.711   1.707
10228SOL    HW231584   1.304   5.683   1.833
10229SOL     OW31585   1.788   2.254   4.486
10229SOL    HW131586   1.737   2.332   4.524
10229SOL    HW231587   1.883   2.281   4.470
10230SOL     OW31588   6.511   6.679   3.170
10230SOL    HW131589   6.481   6.587   3.196
10230SOL    HW231590   6.602   6.674   3.129
10231SOL     OW31591   6.256   5.118   5.510
10231SOL    HW131592   6.345   5.156   5.534
10231SOL    HW231593   6.220   5.065   5.588
10232SOL     OW31594   2.858   1.861   4.407
10232SOL    HW131595   2.787   1.875   4.476
10232SOL    HW231596   2.913   1.781   4.431
10233SOL     OW31597   4.451   4.049   5.335
10233SOL    HW131598   4.385   4.104   5.386
10233SOL    HW231599   4.487   3.977   5.394
10234SOL     OW31600   6.132   0.403   0.033
10234SOL    HW131601   6.037   0.390   0.062
10234SOL    HW231602   6.140   0.385   6.958
10235SOL     OW31603   3.435   2.167   0.606
10235SOL    HW131604   3.387   2.163   0.518
10235SOL    HW231605   3.529   2.196   0.591
10236SOL     OW31606   1.548   1.066   1.420
10236SOL    HW131607   1.604   1.038   1.497
10236SOL    HW231608   1.592   1.141   1.371
10237SOL     OW31609   0.090   4.326   6.835
10237SOL    HW131610   0.022   4.310   6.907
10237SOL    HW231611   0.050   4.382   6.763
10238SOL     OW31612   3.820   4.066   2.423
10238SOL    HW131613   3.753   4.033   2.490
10238SOL    HW231614   3.783   4.146   2.376
10239SOL     OW31615   2.132   4.005   5.841
10239SOL    HW131616   2.118   3.916   5.885
10239SOL    HW231617   2.214   4.047   5.879
10240SOL     OW31618   1.816   4.375   2.610
10240SOL    HW131619   1.728   4.395   2.654
10240SOL    HW231620   1.848   4.285   2.640
10241SOL     OW31621   6.606   6.838   2.839
10241SOL    HW131622   6.564   6.902   2.903
10241SOL    HW231623   6.615   6.882   2.749
10242SOL     OW31624   6.969   1.389   1.644
10242SOL    HW131625   6.886   1.360   1.596
10242SOL    HW231626   6.964   1.487   1.662
10243SOL     OW31627   1.208   4.871   2.046
10243SOL    HW131628   1.284   4.815   2.012
10243SOL    HW231629   1.151   4.815   2.106
10244SOL     OW31630   1.768   4.296   0.633
10244SOL    HW131631   1.708   4.352   0.577
10244SOL    HW231632   1.805   4.351   0.708
10245SOL     OW31633   3.116   4.771   0.233
10245SOL    HW131634   3.128   4.858   0.184
10245SOL    HW231635   3.113   4.789   0.332
10246SOL     OW31636   3.317   3.697   3.122
10246SOL    HW131637   3.232   3.645   3.134
10246SOL    HW231638   3.395   3.641   3.150
10247SOL     OW31639   6.799   4.719   5.939
10247SOL    HW131640   6.760   4.744   6.028
10247SOL    HW231641   6.879   4.776   5.920
10248SOL     OW31642   1.531   0.174   3.097
10248SOL    HW131643   1.581   0.095   3.132
10248SOL    HW231644   1.537   0.175   2.997
10249SOL     OW31645   2.982   6.804   6.954
10249SOL    HW131646   3.011   6.802   0.026
10249SOL    HW231647   3.005   6.717   6.910
10250SOL     OW31648   6.637   3.436   1.855
10250SOL    HW131649   6.568   3.504   1.879
10250SOL    HW231650   6.704   3.476   1.792
10251SOL     OW31651   2.307   1.317   4.780
10251SOL    HW131652   2.334   1.399   4.831
10251SOL    HW231653   2.369   1.303   4.704
10252SOL     OW31654   4.171   4.774   6.890
10252SOL    HW131655   4.232   4.722   6.830
10252SOL    HW231656   4.226   4.822   6.959
10253SOL     OW31657   2.871   6.490   0.421
10253SOL    HW131658   2.801   6.466   0.489
10253SOL    HW231659   2.952   6.432   0.436
10254SOL     OW31660   4.861   0.726   5.090
10254SOL    HW131661   4.850   0.662   5.014
10254SOL    HW231662   4.918   0.684   5.161
10255SOL     OW31663   1.481   6.335   1.190
10255SOL    HW131664   1.496   6.236   1.182
10255SOL    HW231665   1.406   6.352   1.254
10256SOL     OW31666   6.331   1.379   2.094
10256SOL    HW131667   6.319   1.332   2.007
10256SOL    HW231668   6.426   1.410   2.101
10257SOL     OW31669   2.369   4.886   4.829
10257SOL    HW131670   2.402   4.883   4.735
10257SOL    HW231671   2.317   4.802   4.849
10258SOL     OW31672   3.137   0.952   4.163
10258SOL    HW131673   3.078   0.935   4.084
10258SOL    HW231674   3.155   1.050   4.171
10259SOL     OW31675   1.031   4.488   3.461
10259SOL    HW131676   1.077   4.401   3.476
10259SOL    HW231677   1.000   4.525   3.549
10260SOL     OW31678   1.098   1.260   3.658
10260SOL    HW131679   1.148   1.297   3.737
10260SOL    HW231680   1.046   1.333   3.614
10261SOL     OW31681   6.859   5.577   3.352
10261SOL    HW131682   6.801   5.531   3.420
10261SOL    HW231683   6.951   5.586   3.389
10262SOL     OW31684   1.743   6.759   5.276
10262SOL    HW131685   1.695   6.841   5.243
10262SOL    HW231686   1.683   6.708   5.337
10263SOL     OW31687   5.628   1.068   6.373
10263SOL    HW131688   5.601   1.159   6.405
10263SOL    HW231689   5.567   1.039   6.300
10264SOL     OW31690   5.873   1.434   6.766
10264SOL    HW131691   5.795   1.382   6.730
10264SOL    HW231692   5.847   1.531   6.774
10265SOL     OW31693   2.392   2.576   2.276
10265SOL    HW131694   2.380   2.585   2.177
10265SOL    HW231695   2.476   2.524   2.294
10266SOL     OW31696   3.260   2.945   3.801
10266SOL    HW131697   3.330   2.921   3.734
10266SOL    HW231698   3.179   2.978   3.754
10267SOL     OW31699   6.240   2.210   6.746
10267SOL    HW131700   6.166   2.277   6.737
10267SOL    HW231701   6.288   2.225   6.833
10268SOL     OW31702   5.811   5.627   2.655
10268SOL    HW131703   5.749   5.553   2.629
10268SOL    HW231704   5.829   5.622   2.753
10269SOL     OW31705   0.529   3.311   0.060
10269SOL    HW131706   0.494   3.307   0.153
10269SOL    HW231707   0.629   3.322   0.062
10270SOL     OW31708   3.136   4.857   2.980
10270SOL    HW131709   3.079   4.923   2.931
10270SOL    HW231710   3.216   4.835   2.924
10271SOL     OW31711   3.573   2.525   6.226
10271SOL    HW131712   3.640   2.452   6.238
10271SOL    HW231713   3.481   2.486   6.223
10272SOL     OW31714   0.876   0.549   4.526
10272SOL    HW131715   0.901   0.476   4.462
10272SOL    HW231716   0.864   0.510   4.617
10273SOL     OW31717   3.134   5.736   2.496
10273SOL    HW131718   3.048   5.697   2.528
10273SOL    HW231719   3.156   5.698   2.407
10274SOL     OW31720   6.773   5.333   4.323
10274SOL    HW131721   6.827   5.417   4.325
10274SOL    HW231722   6.833   5.254   4.340
10275SOL     OW31723   0.894   0.020   1.517
10275SOL    HW131724   0.795   0.013   1.509
10275SOL    HW231725   0.938   6.974   1.460
10276SOL     OW31726   5.721   5.152   5.391
10276SOL    HW131727   5.626   5.128   5.409
10276SOL    HW231728   5.759   5.089   5.323
10277SOL     OW31729   2.307   5.291   3.618
10277SOL    HW131730   2.250   5.282   3.536
10277SOL    HW231731   2.345   5.201   3.641
10278SOL     OW31732   6.939   1.461   4.731
10278SOL    HW131733   6.839   1.468   4.721
10278SOL    HW231734   6.962   1.371   4.766
10279SOL     OW31735   2.862   4.794   3.709
10279SOL    HW131736   2.771   4.836   3.697
10279SOL    HW231737   2.896   4.814   3.800
10280SOL     OW31738   0.337   3.027   0.847
10280SOL    HW131739   0.356   3.065   0.938
10280SOL    HW231740   0.340   3.101   0.779
10281SOL     OW31741   5.951   1.248   2.607
10281SOL    HW131742   6.034   1.289   2.571
10281SOL    HW231743   5.967   1.219   2.702
10282SOL     OW31744   5.576   4.585   4.862
10282SOL    HW131745   5.637   4.556   4.936
10282SOL    HW231746   5.625   4.644   4.799
10283SOL     OW31747   0.797   3.158   0.785
10283SOL    HW131748   0.787   3.112   0.697
10283SOL    HW231749   0.748   3.246   0.782
10284SOL     OW31750   4.655   2.985   5.243
10284SOL    HW131751   4.654   3.058   5.176
10284SOL    HW231752   4.640   3.022   5.335
10285SOL     OW31753   5.494   0.439   1.974
10285SOL    HW131754   5.588   0.461   2.000
10285SOL    HW231755   5.431   0.489   2.032
10286SOL     OW31756   2.840   1.760   3.573
10286SOL    HW131757   2.866   1.759   3.670
10286SOL    HW231758   2.745   1.791   3.565
10287SOL     OW31759   2.402   6.533   1.088
10287SOL    HW131760   2.419   6.463   1.158
10287SOL    HW231761   2.488   6.554   1.041
10288SOL     OW31762   4.451   6.604   3.853
10288SOL    HW131763   4.365   6.653   3.869
10288SOL    HW231764   4.439   6.541   3.777
10289SOL     OW31765   1.583   6.796   1.457
10289SOL    HW131766   1.598   6.778   1.360
10289SOL    HW231767   1.491   6.832   1.471
10290SOL     OW31768   3.270   3.803   2.197
10290SOL    HW131769   3.216   3.723   2.171
10290SOL    HW231770   3.360   3.800   2.154
10291SOL     OW31771   3.868   1.206   2.814
10291SOL    HW131772   3.775   1.205   2.776
10291SOL    HW231773   3.926   1.264   2.756
10292SOL     OW31774   1.101   0.629   5.241
10292SOL    HW131775   1.014   0.601   5.282
10292SOL    HW231776   1.173   0.565   5.269
10293SOL     OW31777   1.990   4.507   3.522
10293SOL    HW131778   2.017   4.413   3.502
10293SOL    HW231779   2.071   4.565   3.527
10294SOL     OW31780   5.793   3.292   2.950
10294SOL    HW131781   5.736   3.225   2.902
10294SOL    HW231782   5.824   3.253   3.037
10295SOL     OW31783   6.169   5.216   6.047
10295SOL    HW131784   6.267   5.221   6.028
10295SOL    HW231785   6.154   5.218   6.146
10296SOL     OW31786   4.986   2.360   0.591
10296SOL    HW131787   5.041   2.368   0.508
10296SOL    HW231788   4.946   2.269   0.596
10297SOL     OW31789   2.297   7.022   7.000
10297SOL    HW131790   2.348   6.958   0.033
10297SOL    HW231791   2.357   0.037   6.929
10298SOL     OW31792   2.982   4.345   1.264
10298SOL    HW131793   2.933   4.271   1.311
10298SOL    HW231794   3.080   4.332   1.275
10299SOL     OW31795   4.933   5.117   2.867
10299SOL    HW131796   4.922   5.036   2.924
10299SOL    HW231797   4.862   5.118   2.796
10300SOL     OW31798   1.012   3.737   3.497
10300SOL    HW131799   0.930   3.714   3.549
10300SOL    HW231800   1.052   3.653   3.460
10301SOL     OW31801   5.551   2.653   4.471
10301SOL    HW131802   5.481   2.660   4.399
10301SOL    HW231803   5.571   2.743   4.507
10302SOL     OW31804   2.168   6.566   4.110
10302SOL    HW131805   2.207   6.565   4.018
10302SOL    HW231806   2.226   6.512   4.171
10303SOL     OW31807   1.790   6.289   2.673
10303SOL    HW131808   1.805   6.388   2.669
10303SOL    HW231809   1.704   6.266   2.628
10304SOL     OW31810   5.346   0.065   1.913
10304SOL    HW131811   5.366   0.163   1.915
10304SOL    HW231812   5.338   0.035   1.818
10305SOL     OW31813   0.783   4.172   0.094
10305SOL    HW131814   0.700   4.174   0.038
10305SOL    HW231815   0.863   4.190   0.036
10306SOL     OW31816   4.675   6.737   6.302
10306SOL    HW131817   4.583   6.697   6.297
10306SOL    HW231818   4.670   6.824   6.352
10307SOL     OW31819   2.113   2.115   5.406
10307SOL    HW131820   2.177   2.172   5.355
10307SOL    HW231821   2.110   2.145   5.501
10308SOL     OW31822   2.156   4.851   3.604
10308SOL    HW131823   2.233   4.870   3.543
10308SOL    HW231824   2.191   4.827   3.695
10309SOL     OW31825   6.329   1.863   5.027
10309SOL    HW131826   6.319   1.910   5.114
10309SOL    HW231827   6.328   1.930   4.952
10310SOL     OW31828   3.217   3.556   1.575
10310SOL    HW131829   3.154   3.484   1.606
10310SOL    HW231830   3.168   3.643   1.573
10311SOL     OW31831   0.580   6.383   0.441
10311SOL    HW131832   0.671   6.419   0.419
10311SOL    HW231833   0.512   6.426   0.382
10312SOL     OW31834   3.041   5.974   1.826
10312SOL    HW131835   2.989   5.936   1.902
10312SOL    HW231836   3.019   6.071   1.815
10313SOL     OW31837   5.062   6.869   1.957
10313SOL    HW131838   5.072   6.890   1.860
10313SOL    HW231839   4.999   6.935   1.999
10314SOL     OW31840   6.405   0.616   2.033
10314SOL    HW131841   6.363   0.557   2.101
10314SOL    HW231842   6.410   0.709   2.069
10315SOL     OW31843   5.553   6.103   4.445
10315SOL    HW131844   5.553   6.203   4.446
10315SOL    HW231845   5.513   6.070   4.360
10316SOL     OW31846   6.422   2.977   4.628
10316SOL    HW131847   6.464   3.068   4.634
10316SOL    HW231848   6.482   2.917   4.575
10317SOL     OW31849   3.201   5.914   5.152
10317SOL    HW131850   3.238   5.976   5.221
10317SOL    HW231851   3.117   5.953   5.113
10318SOL     OW31852   5.561   5.586   6.451
10318SOL    HW131853   5.655   5.578   6.417
10318SOL    HW231854   5.547   5.678   6.488
10319SOL     OW31855   1.195   2.244   5.717
10319SOL    HW131856   1.222   2.190   5.636
10319SOL    HW231857   1.162   2.334   5.687
10320SOL     OW31858   0.569   0.222   2.948
10320SOL    HW131859   0.525   0.132   2.938
10320SOL    HW231860   0.611   0.228   3.039
10321SOL     OW31861   4.276   0.581   2.402
10321SOL    HW131862   4.294   0.596   2.499
10321SOL    HW231863   4.196   0.521   2.392
10322SOL     OW31864   6.300   5.418   6.664
10322SOL    HW131865   6.264   5.329   6.635
10322SOL    HW231866   6.342   5.410   6.754
10323SOL     OW31867   6.240   3.883   5.841
10323SOL    HW131868   6.255   3.790   5.808
10323SOL    HW231869   6.159   3.922   5.796
10324SOL     OW31870   3.150   2.958   2.862
10324SOL    HW131871   3.164   2.956   2.961
10324SOL    HW231872   3.235   2.932   2.816
10325SOL     OW31873   0.301   3.459   3.123
10325SOL    HW131874   0.214   3.476   3.168
10325SOL    HW231875   0.376   3.489   3.182
10326SOL     OW31876   3.972   3.293   0.755
10326SOL    HW131877   3.876   3.287   0.782
10326SOL    HW231878   3.986   3.374   0.697
10327SOL     OW31879   2.711   2.373   1.820
10327SOL    HW131880   2.810   2.363   1.828
10327SOL    HW231881   2.668   2.353   1.908
10328SOL     OW31882   6.273   2.395   2.027
10328SOL    HW131883   6.280   2.419   1.930
10328SOL    HW231884   6.223   2.309   2.036
10329SOL     OW31885   3.472   0.375   3.201
10329SOL    HW131886   3.378   0.397   3.174
10329SOL    HW231887   3.479   0.277   3.220
10330SOL     OW31888   4.041   6.367   1.975
10330SOL    HW131889   4.132   6.385   2.013
10330SOL    HW231890   3.971   6.406   2.034
10331SOL     OW31891   6.699   1.216   4.410
10331SOL    HW131892   6.758   1.191   4.333
10331SOL    HW231893   6.703   1.315   4.425
10332SOL     OW31894   6.378   1.000   1.103
10332SOL    HW131895   6.346   1.080   1.154
10332SOL    HW231896   6.342   0.917   1.147
10333SOL     OW31897   6.485   4.770   4.486
10333SOL    HW131898   6.468   4.688   4.539
10333SOL    HW231899   6.582   4.774   4.461
10334SOL     OW31900   3.206   6.413   4.191
10334SOL    HW131901   3.246   6.436   4.102
10334SOL    HW231902   3.120   6.364   4.177
10335SOL     OW31903   2.897   4.527   6.340
10335SOL    HW131904   2.919   4.623   6.324
10335SOL    HW231905   2.951   4.493   6.417
10336SOL     OW31906   5.791   0.242   2.812
10336SOL    HW131907   5.821   0.322   2.864
10336SOL    HW231908   5.861   0.170   2.818
10337SOL     OW31909   6.991   6.547   5.639
10337SOL    HW131910   0.006   6.504   5.557
10337SOL    HW231911   6.892   6.549   5.632
10338SOL     OW31912   2.283   6.089   1.625
10338SOL    HW131913   2.314   6.183   1.613
10338SOL    HW231914   2.190   6.079   1.588
10339SOL     OW31915   2.675   5.461   6.957
10339SOL    HW131916   2.703   5.388   7.019
10339SOL    HW231917   2.647   5.421   6.870
10340SOL     OW31918   1.260   5.637   0.833
10340SOL    HW131919   1.315   5.720   0.836
10340SOL    HW231920   1.172   5.657   0.789
10341SOL     OW31921   2.078   3.375   2.176
10341SOL    HW131922   2.132   3.417   2.103
10341SOL    HW231923   1.983   3.365   2.145
10342SOL     OW31924   1.413   6.838   4.793
10342SOL    HW131925   1.381   6.771   4.725
10342SOL    HW231926   1.337   6.897   4.820
10343SOL     OW31927   2.564   5.260   0.393
10343SOL    HW131928   2.527   5.206   0.317
10343SOL    HW231929   2.540   5.356   0.380
10344SOL     OW31930   4.029   4.202   1.604
10344SOL    HW131931   4.125   4.230   1.611
10344SOL    HW231932   3.972   4.269   1.652
10345SOL     OW31933   1.870   0.837   6.821
10345SOL    HW131934   1.964   0.871   6.820
10345SOL    HW231935   1.809   0.909   6.788
10346SOL     OW31936   6.182   0.040   1.790
10346SOL    HW131937   6.192   0.047   1.691
10346SOL    HW231938   6.103   0.092   1.820
10347SOL     OW31939   5.342   2.553   2.406
10347SOL    HW131940   5.330   2.645   2.442
10347SOL    HW231941   5.281   2.540   2.327
10348SOL     OW31942   6.104   1.381   0.187
10348SOL    HW131943   6.032   1.317   0.212
10348SOL    HW231944   6.188   1.360   0.239
10349SOL     OW31945   6.356   1.312   1.550
10349SOL    HW131946   6.389   1.326   1.643
10349SOL    HW231947   6.262   1.346   1.543
10350SOL     OW31948   2.060   5.827   5.340
10350SOL    HW131949   2.070   5.737   5.382
10350SOL    HW231950   1.983   5.875   5.382
10351SOL     OW31951   4.687   4.878   6.514
10351SOL    HW131952   4.733   4.959   6.551
10351SOL    HW231953   4.632   4.904   6.435
10352SOL     OW31954   4.855   2.323   6.956
10352SOL    HW131955   4.909   2.289   0.010
10352SOL    HW231956   4.764   2.350   6.987
10353SOL     OW31957   6.613   2.820   5.604
10353SOL    HW131958   6.684   2.759   5.638
10353SOL    HW231959   6.654   2.886   5.540
10354SOL     OW31960   6.186   2.076   2.098
10354SOL    HW131961   6.146   2.057   2.008
10354SOL    HW231962   6.116   2.115   2.158
10355SOL     OW31963   1.882   0.147   1.980
10355SOL    HW131964   1.856   0.178   2.072
10355SOL    HW231965   1.821   0.188   1.912
10356SOL     OW31966   6.665   4.133   5.728
10356SOL    HW131967   6.746   4.140   5.670
10356SOL    HW231968   6.630   4.039   5.724
10357SOL     OW31969   3.229   2.990   6.571
10357SOL    HW131970   3.298   3.031   6.630
10357SOL    HW231971   3.250   3.010   6.476
10358SOL     OW31972   6.117   3.553   3.563
10358SOL    HW131973   6.069   3.465   3.557
10358SOL    HW231974   6.177   3.564   3.485
10359SOL     OW31975   5.696   1.515   1.670
10359SOL    HW131976   5.702   1.605   1.715
10359SOL    HW231977   5.709   1.526   1.572
10360SOL     OW31978   4.614   5.446   1.677
10360SOL    HW131979   4.678   5.392   1.732
10360SOL    HW231980   4.574   5.518   1.735
10361SOL     OW31981   2.902   1.522   2.993
10361SOL    HW131982   2.937   1.614   3.010
10361SOL    HW231983   2.972   1.467   2.947
10362SOL     OW31984   0.049   5.484   3.502
10362SOL    HW131985   0.022   5.526   3.589
10362SOL    HW231986   0.113   5.409   3.520
10363SOL     OW31987   4.535   2.793   0.941
10363SOL    HW131988   4.596   2.737   0.883
10363SOL    HW231989   4.583   2.817   1.025
10364SOL     OW31990   3.548   3.942   1.840
10364SOL    HW131991   3.584   4.015   1.899
10364SOL    HW231992   3.616   3.919   1.771
10365SOL     OW31993   4.950   4.450   5.977
10365SOL    HW131994   4.881   4.392   6.019
10365SOL    HW231995   5.039   4.407   5.984
10366SOL     OW31996   3.650   0.097   4.008
10366SOL    HW131997   3.565   0.067   3.964
10366SOL    HW231998   3.639   0.095   4.107
10367SOL     OW31999   7.009   2.237   2.080
10367SOL    HW132000   6.958   2.237   1.994
10367SOL    HW232001   0.038   2.323   2.088
10368SOL     OW32002   2.599   1.019   2.688
10368SOL    HW132003   2.649   1.015   2.775
10368SOL    HW232004   2.505   1.050   2.705
10369SOL     OW32005   2.620   0.729   5.444
10369SOL    HW132006   2.642   0.813   5.395
10369SOL    HW232007   2.702   0.674   5.456
10370SOL     OW32008   5.716   1.226   5.139
10370SOL    HW132009   5.717   1.256   5.043
10370SOL    HW232010   5.717   1.306   5.199
10371SOL     OW32011   2.114   6.041   4.613
10371SOL    HW132012   2.038   6.096   4.578
10371SOL    HW232013   2.189   6.043   4.547
10372SOL     OW32014   1.622   0.989   6.782
10372SOL    HW132015   1.576   0.900   6.780
10372SOL    HW232016   1.578   1.051   6.717
10373SOL     OW32017   1.555   6.624   5.431
10373SOL    HW132018   1.489   6.697   5.451
10373SOL    HW232019   1.506   6.543   5.399
10374SOL     OW32020   2.794   0.904   3.627
10374SOL    HW132021   2.863   0.973   3.651
10374SOL    HW232022   2.741   0.881   3.709
10375SOL     OW32023   2.386   1.684   6.170
10375SOL    HW132024   2.379   1.782   6.189
10375SOL    HW232025   2.480   1.654   6.184
10376SOL     OW32026   1.142   5.476   3.666
10376SOL    HW132027   1.078   5.400   3.677
10376SOL    HW232028   1.236   5.442   3.670
10377SOL     OW32029   6.775   0.582   3.493
10377SOL    HW132030   6.719   0.547   3.418
10377SOL    HW232031   6.824   0.664   3.464
10378SOL     OW32032   5.546   6.431   5.462
10378SOL    HW132033   5.481   6.466   5.529
10378SOL    HW232034   5.637   6.467   5.482
10379SOL     OW32035   3.507   6.845   4.024
10379SOL    HW132036   3.460   6.928   3.995
10379SOL    HW232037   3.519   6.785   3.945
10380SOL     OW32038   0.634   2.649   5.061
10380SOL    HW132039   0.606   2.662   4.966
10380SOL    HW232040   0.566   2.690   5.122
10381SOL     OW32041   4.080   4.763   0.664
10381SOL    HW132042   4.025   4.844   0.641
10381SOL    HW232043   4.055   4.687   0.604
10382SOL     OW32044   1.626   4.729   1.218
10382SOL    HW132045   1.704   4.791   1.206
10382SOL    HW232046   1.657   4.635   1.206
10383SOL     OW32047   0.757   4.136   1.192
10383SOL    HW132048   0.763   4.107   1.097
10383SOL    HW232049   0.832   4.199   1.213
10384SOL     OW32050   6.884   0.261   1.734
10384SOL    HW132051   6.828   0.201   1.677
10384SOL    HW232052   6.981   0.242   1.719
10385SOL     OW32053   3.963   6.092   5.800
10385SOL    HW132054   4.048   6.083   5.851
10385SOL    HW232055   3.912   6.172   5.833
10386SOL     OW32056   6.568   1.956   5.570
10386SOL    HW132057   6.578   2.033   5.633
10386SOL    HW232058   6.518   1.882   5.616
10387SOL     OW32059   4.371   1.415   2.591
10387SOL    HW132060   4.370   1.431   2.689
10387SOL    HW232061   4.456   1.451   2.552
10388SOL     OW32062   1.770   5.510   2.237
10388SOL    HW132063   1.851   5.549   2.281
10388SOL    HW232064   1.794   5.480   2.145
10389SOL     OW32065   6.523   6.137   1.322
10389SOL    HW132066   6.494   6.217   1.374
10389SOL    HW232067   6.525   6.057   1.382
10390SOL     OW32068   1.775   2.631   1.059
10390SOL    HW132069   1.801   2.541   1.094
10390SOL    HW232070   1.681   2.651   1.085
10391SOL     OW32071   0.255   6.534   3.923
10391SOL    HW132072   0.327   6.598   3.897
10391SOL    HW232073   0.211   6.498   3.840
10392SOL     OW32074   6.637   4.221   5.973
10392SOL    HW132075   6.650   4.147   6.040
10392SOL    HW232076   6.660   4.188   5.882
10393SOL     OW32077   2.462   2.343   3.170
10393SOL    HW132078   2.407   2.425   3.152
10393SOL    HW232079   2.406   2.262   3.155
10394SOL     OW32080   2.412   5.971   5.011
10394SOL    HW132081   2.360   5.896   4.969
10394SOL    HW232082   2.407   6.052   4.952
10395SOL     OW32083   6.892   0.839   3.449
10395SOL    HW132084   6.951   0.825   3.528
10395SOL    HW232085   6.947   0.866   3.370
10396SOL     OW32086   3.600   1.442   3.710
10396SOL    HW132087   3.506   1.421   3.682
10396SOL    HW232088   3.614   1.411   3.804
10397SOL     OW32089   2.266   1.513   4.401
10397SOL    HW132090   2.194   1.489   4.467
10397SOL    HW232091   2.330   1.437   4.392
10398SOL     OW32092   4.943   2.607   0.633
10398SOL    HW132093   4.970   2.511   0.627
10398SOL    HW232094   5.020   2.665   0.605
10399SOL     OW32095   4.686   1.802   4.030
10399SOL    HW132096   4.643   1.716   4.002
10399SOL    HW232097   4.623   1.878   4.013
10400SOL     OW32098   4.137   5.609   0.077
10400SOL    HW132099   4.064   5.674   0.097
10400SOL    HW232100   4.108   5.548   0.004
10401SOL     OW32101   0.244   6.728   2.365
10401SOL    HW132102   0.273   6.709   2.271
10401SOL    HW232103   0.262   6.648   2.422
10402SOL     OW32104   6.687   1.603   5.828
10402SOL    HW132105   6.687   1.508   5.798
10402SOL    HW232106   6.601   1.646   5.803
10403SOL     OW32107   4.272   1.627   3.096
10403SOL    HW132108   4.189   1.580   3.063
10403SOL    HW232109   4.338   1.559   3.127
10404SOL     OW32110   6.762   6.666   4.344
10404SOL    HW132111   6.828   6.662   4.419
10404SOL    HW232112   6.678   6.620   4.371
10405SOL     OW32113   0.971   5.838   4.520
10405SOL    HW132114   1.053   5.781   4.528
10405SOL    HW232115   0.916   5.807   4.443
10406SOL     OW32116   2.260   3.379   5.301
10406SOL    HW132117   2.221   3.434   5.227
10406SOL    HW232118   2.302   3.440   5.368
10407SOL     OW32119   2.622   0.557   7.001
10407SOL    HW132120   2.576   0.624   0.037
10407SOL    HW232121   2.692   0.603   6.946
10408SOL     OW32122   4.316   6.218   1.743
10408SOL    HW132123   4.362   6.134   1.772
10408SOL    HW232124   4.316   6.284   1.818
10409SOL     OW32125   0.379   3.734   0.051
10409SOL    HW132126   0.439   3.813   0.037
10409SOL    HW232127   0.398   3.694   0.140
10410SOL     OW32128   5.938   2.527   1.599
10410SOL    HW132129   5.908   2.518   1.504
10410SOL    HW232130   5.903   2.449   1.652
10411SOL     OW32131   3.665   5.994   4.588
10411SOL    HW132132   3.595   5.955   4.647
10411SOL    HW232133   3.662   5.950   4.498
10412SOL     OW32134   6.465   1.138   0.195
10412SOL    HW132135   6.389   1.077   0.218
10412SOL    HW232136   6.437   1.201   0.122
10413SOL     OW32137   6.675   2.397   1.782
10413SOL    HW132138   6.631   2.430   1.699
10413SOL    HW232139   6.636   2.444   1.862
10414SOL     OW32140   3.712   5.683   6.013
10414SOL    HW132141   3.693   5.653   5.919
10414SOL    HW232142   3.692   5.780   6.022
10415SOL     OW32143   1.961   4.424   4.124
10415SOL    HW132144   1.996   4.506   4.078
10415SOL    HW232145   1.887   4.385   4.071
10416SOL     OW32146   6.332   6.837   5.257
10416SOL    HW132147   6.307   6.932   5.277
10416SOL    HW232148   6.298   6.777   5.329
10417SOL     OW32149   5.127   5.480   4.764
10417SOL    HW132150   5.137   5.383   4.741
10417SOL    HW232151   5.043   5.493   4.817
10418SOL     OW32152   6.656   4.031   6.436
10418SOL    HW132153   6.564   4.066   6.453
10418SOL    HW232154   6.722   4.106   6.445
10419SOL     OW32155   3.400   6.879   5.804
10419SOL    HW132156   3.360   6.955   5.856
10419SOL    HW232157   3.456   6.916   5.730
10420SOL     OW32158   6.516   3.998   4.138
10420SOL    HW132159   6.588   3.990   4.207
10420SOL    HW232160   6.547   4.059   4.065
10421SOL     OW32161   1.849   3.700   4.085
10421SOL    HW132162   1.751   3.683   4.095
10421SOL    HW232163   1.900   3.624   4.124
10422SOL     OW32164   6.889   3.279   5.189
10422SOL    HW132165   6.950   3.355   5.164
10422SOL    HW232166   6.884   3.214   5.113
10423SOL     OW32167   5.136   5.446   5.548
10423SOL    HW132168   5.157   5.371   5.610
10423SOL    HW232169   5.053   5.425   5.496
10424SOL     OW32170   3.655   2.901   0.679
10424SOL    HW132171   3.711   2.956   0.616
10424SOL    HW232172   3.564   2.942   0.687
10425SOL     OW32173   0.727   5.998   2.691
10425SOL    HW132174   0.703   5.996   2.594
10425SOL    HW232175   0.816   6.042   2.702
10426SOL     OW32176   5.385   4.335   6.733
10426SOL    HW132177   5.359   4.270   6.661
10426SOL    HW232178   5.336   4.421   6.718
10427SOL     OW32179   5.049   0.740   0.352
10427SOL    HW132180   5.067   0.824   0.301
10427SOL    HW232181   5.117   0.671   0.327
10428SOL     OW32182   3.194   1.510   4.003
10428SOL    HW132183   3.238   1.598   4.021
10428SOL    HW232184   3.211   1.484   3.908
10429SOL     OW32185   0.394   3.836   3.225
10429SOL    HW132186   0.458   3.791   3.163
10429SOL    HW232187   0.301   3.818   3.195
10430SOL     OW32188   3.543   6.699   5.046
10430SOL    HW132189   3.562   6.641   4.967
10430SOL    HW232190   3.544   6.643   5.129
10431SOL     OW32191   2.516   6.464   4.070
10431SOL    HW132192   2.614   6.463   4.052
10431SOL    HW232193   2.499   6.471   4.168
10432SOL     OW32194   6.340   0.758   4.600
10432SOL    HW132195   6.415   0.693   4.612
10432SOL    HW232196   6.368   0.847   4.636
10433SOL     OW32197   0.642   6.637   2.578
10433SOL    HW132198   0.557   6.621   2.629
10433SOL    HW232199   0.711   6.572   2.609
10434SOL     OW32200   2.972   6.579   3.554
10434SOL    HW132201   2.976   6.646   3.628
10434SOL    HW232202   2.904   6.509   3.575
10435SOL     OW32203   1.943   2.231   5.218
10435SOL    HW132204   1.971   2.167   5.289
10435SOL    HW232205   1.985   2.320   5.233
10436SOL     OW32206   5.905   3.901   4.661
10436SOL    HW132207   5.973   3.975   4.658
10436SOL    HW232208   5.887   3.868   4.569
10437SOL     OW32209   6.034   4.798   5.884
10437SOL    HW132210   5.948   4.842   5.910
10437SOL    HW232211   6.015   4.714   5.833
10438SOL     OW32212   0.812   5.871   5.830
10438SOL    HW132213   0.868   5.794   5.860
10438SOL    HW232214   0.783   5.924   5.910
10439SOL     OW32215   4.977   1.118   4.818
10439SOL    HW132216   5.057   1.137   4.874
10439SOL    HW232217   4.919   1.050   4.864
10440SOL     OW32218   0.249   6.759   7.016
10440SOL    HW132219   0.259   6.814   0.076
10440SOL    HW232220   0.339   6.726   6.987
10441SOL     OW32221   3.118   1.721   1.298
10441SOL    HW132222   3.057   1.791   1.262
10441SOL    HW232223   3.096   1.633   1.255
10442SOL     OW32224   4.167   6.658   5.132
10442SOL    HW132225   4.234   6.719   5.175
10442SOL    HW232226   4.138   6.697   5.044
10443SOL     OW32227   5.082   2.521   3.328
10443SOL    HW132228   5.051   2.511   3.423
10443SOL    HW232229   5.009   2.494   3.266
10444SOL     OW32230   4.239   5.632   2.797
10444SOL    HW132231   4.174   5.674   2.733
10444SOL    HW232232   4.190   5.571   2.858
10445SOL     OW32233   0.589   3.869   3.417
10445SOL    HW132234   0.674   3.904   3.377
10445SOL    HW232235   0.517   3.870   3.348
10446SOL     OW32236   2.167   3.198   6.339
10446SOL    HW132237   2.183   3.252   6.255
10446SOL    HW232238   2.072   3.210   6.369
10447SOL     OW32239   0.216   0.092   2.700
10447SOL    HW132240   0.139   0.136   2.746
10447SOL    HW232241   0.301   0.130   2.734
10448SOL     OW32242   4.281   0.841   2.018
10448SOL    HW132243   4.281   0.940   2.036
10448SOL    HW232244   4.347   0.796   2.078
10449SOL     OW32245   1.959   5.780   6.273
10449SOL    HW132246   2.054   5.768   6.245
10449SOL    HW232247   1.899   5.773   6.194
10450SOL     OW32248   0.167   1.418   6.961
10450SOL    HW132249   0.178   1.419   6.862
10450SOL    HW232250   0.256   1.428   7.005
10451SOL     OW32251   2.170   5.952   2.389
10451SOL    HW132252   2.172   5.946   2.489
10451SOL    HW232253   2.207   5.868   2.350
10452SOL     OW32254   6.433   2.983   2.726
10452SOL    HW132255   6.420   3.072   2.682
10452SOL    HW232256   6.376   2.915   2.681
10453SOL     OW32257   5.846   6.509   1.806
10453SOL    HW132258   5.789   6.569   1.863
10453SOL    HW232259   5.793   6.478   1.727
10454SOL     OW32260   5.859   2.751   0.114
10454SOL    HW132261   5.875   2.849   0.104
10454SOL    HW232262   5.887   2.704   0.030
10455SOL     OW32263   0.133   6.374   3.665
10455SOL    HW132264   0.136   6.411   3.573
10455SOL    HW232265   0.165   6.279   3.665
10456SOL     OW32266   1.195   5.295   0.923
10456SOL    HW132267   1.237   5.258   0.841
10456SOL    HW232268   1.106   5.333   0.901
10457SOL     OW32269   3.737   2.961   0.280
10457SOL    HW132270   3.718   3.017   0.200
10457SOL    HW232271   3.706   2.867   0.264
10458SOL     OW32272   6.228   6.870   5.880
10458SOL    HW132273   6.172   6.947   5.912
10458SOL    HW232274   6.169   6.798   5.845
10459SOL     OW32275   4.389   6.062   1.216
10459SOL    HW132276   4.470   6.115   1.242
10459SOL    HW232277   4.331   6.048   1.297
10460SOL     OW32278   1.262   3.976   1.386
10460SOL    HW132279   1.326   3.905   1.355
10460SOL    HW232280   1.238   3.960   1.482
10461SOL     OW32281   5.997   5.222   5.191
10461SOL    HW132282   6.007   5.132   5.233
10461SOL    HW232283   5.914   5.225   5.136
10462SOL     OW32284   5.097   2.411   2.941
10462SOL    HW132285   5.138   2.323   2.919
10462SOL    HW232286   5.163   2.467   2.991
10463SOL     OW32287   4.581   2.614   6.213
10463SOL    HW132288   4.540   2.609   6.122
10463SOL    HW232289   4.534   2.684   6.267
10464SOL     OW32290   6.479   6.390   2.439
10464SOL    HW132291   6.433   6.429   2.518
10464SOL    HW232292   6.502   6.463   2.374
10465SOL     OW32293   6.095   5.758   0.767
10465SOL    HW132294   6.053   5.843   0.799
10465SOL    HW232295   6.183   5.778   0.725
10466SOL     OW32296   4.419   4.913   5.273
10466SOL    HW132297   4.382   4.977   5.340
10466SOL    HW232298   4.519   4.912   5.278
10467SOL     OW32299   2.275   1.774   0.068
10467SOL    HW132300   2.232   1.691   0.104
10467SOL    HW232301   2.317   1.825   0.144
10468SOL     OW32302   3.802   5.204   3.190
10468SOL    HW132303   3.716   5.182   3.237
10468SOL    HW232304   3.865   5.246   3.255
10469SOL     OW32305   4.081   4.053   5.477
10469SOL    HW132306   4.149   4.125   5.490
10469SOL    HW232307   4.124   3.964   5.487
10470SOL     OW32308   1.441   2.241   4.204
10470SOL    HW132309   1.358   2.187   4.197
10470SOL    HW232310   1.418   2.337   4.221
10471SOL     OW32311   2.501   0.529   0.643
10471SOL    HW132312   2.505   0.532   0.543
10471SOL    HW232313   2.454   0.611   0.676
10472SOL     OW32314   3.632   6.046   0.508
10472SOL    HW132315   3.609   5.974   0.574
10472SOL    HW232316   3.636   6.134   0.555
10473SOL     OW32317   6.352   0.218   6.920
10473SOL    HW132318   6.279   0.279   6.950
10473SOL    HW232319   6.436   0.240   6.969
10474SOL     OW32320   4.340   1.123   4.028
10474SOL    HW132321   4.338   1.043   3.968
10474SOL    HW232322   4.366   1.095   4.120
10475SOL     OW32323   4.566   6.452   1.332
10475SOL    HW132324   4.575   6.546   1.366
10475SOL    HW232325   4.485   6.410   1.374
10476SOL     OW32326   6.472   6.553   6.740
10476SOL    HW132327   6.482   6.563   6.641
10476SOL    HW232328   6.381   6.518   6.760
10477SOL     OW32329   6.451   1.075   4.435
10477SOL    HW132330   6.535   1.126   4.417
10477SOL    HW232331   6.467   1.008   4.507
10478SOL     OW32332   6.840   0.793   1.029
10478SOL    HW132333   6.908   0.838   0.971
10478SOL    HW232334   6.789   0.727   0.976
10479SOL     OW32335   6.853   1.463   3.036
10479SOL    HW132336   6.870   1.557   3.067
10479SOL    HW232337   6.938   1.423   3.003
10480SOL     OW32338   0.570   1.052   2.068
10480SOL    HW132339   0.567   1.047   2.168
10480SOL    HW232340   0.500   0.992   2.030
10481SOL     OW32341   1.855   6.157   4.033
10481SOL    HW132342   1.862   6.247   4.076
10481SOL    HW232343   1.935   6.143   3.974
10482SOL     OW32344   6.607   5.129   4.108
10482SOL    HW132345   6.553   5.149   4.026
10482SOL    HW232346   6.650   5.039   4.098
10483SOL     OW32347   6.524   4.977   0.662
10483SOL    HW132348   6.437   4.950   0.703
10483SOL    HW232349   6.583   4.897   0.653
10484SOL     OW32350   5.854   1.787   1.285
10484SOL    HW132351   5.940   1.783   1.234
10484SOL    HW232352   5.873   1.810   1.381
10485SOL     OW32353   3.272   4.037   0.563
10485SOL    HW132354   3.315   3.979   0.632
10485SOL    HW232355   3.195   4.086   0.604
10486SOL     OW32356   0.137   0.703   0.492
10486SOL    HW132357   0.046   0.740   0.505
10486SOL    HW232358   0.168   0.719   0.398
10487SOL     OW32359   4.460   0.619   0.991
10487SOL    HW132360   4.412   0.613   1.079
10487SOL    HW232361   4.539   0.680   1.000
10488SOL     OW32362   3.113   0.953   6.008
10488SOL    HW132363   3.063   0.868   5.991
10488SOL    HW232364   3.191   0.935   6.068
10489SOL     OW32365   0.530   0.040   5.636
10489SOL    HW132366   0.540   0.108   5.709
10489SOL    HW232367   0.527   0.087   5.548
10490SOL     OW32368   5.771   1.317   1.180
10490SOL    HW132369   5.675   1.309   1.154
10490SOL    HW232370   5.808   1.226   1.202
10491SOL     OW32371   1.740   2.420   0.004
10491SOL    HW132372   1.828   2.375   0.018
10491SOL    HW232373   1.704   2.450   0.093
10492SOL     OW32374   5.988   4.578   6.554
10492SOL    HW132375   5.974   4.483   6.582
10492SOL    HW232376   5.915   4.635   6.592
10493SOL     OW32377   3.749   0.911   2.071
10493SOL    HW132378   3.746   0.879   2.166
10493SOL    HW232379   3.835   0.881   2.029
10494SOL     OW32380   5.235   4.454   6.055
10494SOL    HW132381   5.274   4.519   5.990
10494SOL    HW232382   5.180   4.503   6.122
10495SOL     OW32383   1.404   6.993   0.518
10495SOL    HW132384   1.435   6.907   0.559
10495SOL    HW232385   1.307   7.005   0.537
10496SOL     OW32386   6.907   3.596   5.869
10496SOL    HW132387   6.900   3.554   5.778
10496SOL    HW232388   7.003   3.614   5.890
10497SOL     OW32389   2.152   6.627   2.376
10497SOL    HW132390   2.084   6.579   2.320
10497SOL    HW232391   2.191   6.702   2.323
10498SOL     OW32392   4.327   5.993   0.389
10498SOL    HW132393   4.423   6.021   0.384
10498SOL    HW232394   4.322   5.895   0.409
10499SOL     OW32395   3.808   6.853   1.602
10499SOL    HW132396   3.882   6.913   1.633
10499SOL    HW232397   3.773   6.885   1.514
10500SOL     OW32398   5.854   1.310   6.375
10500SOL    HW132399   5.851   1.266   6.465
10500SOL    HW232400   5.906   1.395   6.381
10501SOL     OW32401   2.097   5.379   2.228
10501SOL    HW132402   2.148   5.314   2.285
10501SOL    HW232403   2.050   5.445   2.286
10502SOL     OW32404   2.781   0.407   1.809
10502SOL    HW132405   2.840   0.476   1.767
10502SOL    HW232406   2.768   0.429   1.906
10503SOL     OW32407   4.115   2.665   0.879
10503SOL    HW132408   4.040   2.665   0.945
10503SOL    HW232409   4.087   2.617   0.796
10504SOL     OW32410   0.254   2.018   5.389
10504SOL    HW132411   0.268   2.055   5.297
10504SOL    HW232412   0.307   1.934   5.400
10505SOL     OW32413   5.535   5.368   0.653
10505SOL    HW132414   5.530   5.463   0.622
10505SOL    HW232415   5.563   5.310   0.576
10506SOL     OW32416   6.981   4.784   0.475
10506SOL    HW132417   6.935   4.701   0.442
10506SOL    HW232418   0.051   4.762   0.502
10507SOL     OW32419   2.574   0.130   0.423
10507SOL    HW132420   2.584   0.039   0.465
10507SOL    HW232421   2.516   0.187   0.481
10508SOL     OW32422   6.321   6.480   4.651
10508SOL    HW132423   6.322   6.393   4.602
10508SOL    HW232424   6.232   6.491   4.696
10509SOL     OW32425   1.022   5.637   4.259
10509SOL    HW132426   0.946   5.701   4.263
10509SOL    HW232427   1.026   5.585   4.345
10510SOL     OW32428   4.510   5.785   6.131
10510SOL    HW132429   4.573   5.776   6.054
10510SOL    HW232430   4.556   5.830   6.208
10511SOL     OW32431   3.742   1.154   2.217
10511SOL    HW132432   3.735   1.071   2.162
10511SOL    HW232433   3.670   1.218   2.191
10512SOL     OW32434   3.875   0.191   6.231
10512SOL    HW132435   3.814   0.183   6.151
10512SOL    HW232436   3.869   0.283   6.269
10513SOL     OW32437   5.938   2.521   4.413
10513SOL    HW132438   5.847   2.487   4.436
10513SOL    HW232439   5.961   2.599   4.472
10514SOL     OW32440   0.906   3.902   1.251
10514SOL    HW132441   0.896   3.901   1.350
10514SOL    HW232442   0.873   3.989   1.215
10515SOL     OW32443   0.772   3.473   3.524
10515SOL    HW132444   0.741   3.379   3.538
10515SOL    HW232445   0.782   3.491   3.426
10516SOL     OW32446   3.713   1.190   0.327
10516SOL    HW132447   3.698   1.247   0.408
10516SOL    HW232448   3.789   1.127   0.346
10517SOL     OW32449   1.175   2.763   2.628
10517SOL    HW132450   1.100   2.705   2.660
10517SOL    HW232451   1.235   2.786   2.704
10518SOL     OW32452   0.736   5.936   6.425
10518SOL    HW132453   0.706   5.938   6.520
10518SOL    HW232454   0.798   5.859   6.411
10519SOL     OW32455   2.711   3.827   6.843
10519SOL    HW132456   2.692   3.729   6.837
10519SOL    HW232457   2.632   3.879   6.811
10520SOL     OW32458   0.582   2.661   6.145
10520SOL    HW132459   0.614   2.735   6.085
10520SOL    HW232460   0.652   2.641   6.214
10521SOL     OW32461   6.324   6.356   2.127
10521SOL    HW132462   6.227   6.365   2.150
10521SOL    HW232463   6.380   6.398   2.198
10522SOL     OW32464   0.654   0.740   5.385
10522SOL    HW132465   0.668   0.693   5.298
10522SOL    HW232466   0.684   0.680   5.460
10523SOL     OW32467   0.258   4.984   3.717
10523SOL    HW132468   0.293   4.995   3.810
10523SOL    HW232469   0.285   4.894   3.682
10524SOL     OW32470   1.987   0.504   4.761
10524SOL    HW132471   1.904   0.558   4.743
10524SOL    HW232472   2.002   0.499   4.859
10525SOL     OW32473   3.656   6.516   6.655
10525SOL    HW132474   3.608   6.433   6.684
10525SOL    HW232475   3.612   6.552   6.572
10526SOL     OW32476   1.662   0.241   3.883
10526SOL    HW132477   1.584   0.219   3.825
10526SOL    HW232478   1.739   0.181   3.859
10527SOL     OW32479   0.107   1.255   5.223
10527SOL    HW132480   0.201   1.220   5.223
10527SOL    HW232481   0.095   1.320   5.298
10528SOL     OW32482   1.733   3.324   6.014
10528SOL    HW132483   1.765   3.229   6.022
10528SOL    HW232484   1.765   3.377   6.093
10529SOL     OW32485   3.248   5.659   3.539
10529SOL    HW132486   3.257   5.617   3.630
10529SOL    HW232487   3.200   5.595   3.478
10530SOL     OW32488   1.731   6.962   6.842
10530SOL    HW132489   1.783   6.877   6.848
10530SOL    HW232490   1.641   6.944   6.802
10531SOL     OW32491   1.313   2.616   4.303
10531SOL    HW132492   1.234   2.677   4.298
10531SOL    HW232493   1.303   2.555   4.382
10532SOL     OW32494   1.288   5.996   5.702
10532SOL    HW132495   1.190   5.997   5.724
10532SOL    HW232496   1.326   6.087   5.718
10533SOL     OW32497   3.298   0.289   4.496
10533SOL    HW132498   3.250   0.333   4.572
10533SOL    HW232499   3.260   0.323   4.410
10534SOL     OW32500   6.817   6.173   1.476
10534SOL    HW132501   6.881   6.195   1.402
10534SOL    HW232502   6.832   6.079   1.506
10535SOL     OW32503   1.240   1.971   1.766
10535SOL    HW132504   1.309   1.922   1.820
10535SOL    HW232505   1.159   1.985   1.823
10536SOL     OW32506   4.501   0.302   3.350
10536SOL    HW132507   4.411   0.307   3.393
10536SOL    HW232508   4.567   0.352   3.405
10537SOL     OW32509   3.813   5.920   3.800
10537SOL    HW132510   3.835   5.827   3.770
10537SOL    HW232511   3.867   5.986   3.747
10538SOL     OW32512   5.103   1.832   0.918
10538SOL    HW132513   5.136   1.918   0.879
10538SOL    HW232514   5.152   1.756   0.876
10539SOL     OW32515   0.575   4.581   0.043
10539SOL    HW132516   0.540   4.666   0.081
10539SOL    HW232517   0.524   4.558   6.983
10540SOL     OW32518   1.448   1.965   5.357
10540SOL    HW132519   1.446   2.049   5.303
10540SOL    HW232520   1.438   1.886   5.297
10541SOL     OW32521   3.507   4.161   2.419
10541SOL    HW132522   3.446   4.115   2.483
10541SOL    HW232523   3.519   4.256   2.448
10542SOL     OW32524   6.737   7.011   5.410
10542SOL    HW132525   6.825   6.966   5.399
10542SOL    HW232526   6.691   6.976   5.492
10543SOL     OW32527   0.313   0.974   4.628
10543SOL    HW132528   0.316   1.037   4.706
10543SOL    HW232529   0.390   0.994   4.566
10544SOL     OW32530   2.564   6.388   1.780
10544SOL    HW132531   2.525   6.370   1.870
10544SOL    HW232532   2.493   6.378   1.710
10545SOL     OW32533   6.877   1.814   2.040
10545SOL    HW132534   6.880   1.901   2.090
10545SOL    HW232535   6.929   1.822   1.955
10546SOL     OW32536   1.772   0.837   0.085
10546SOL    HW132537   1.746   0.741   0.096
10546SOL    HW232538   1.810   0.851   7.017
10547SOL     OW32539   5.740   2.838   2.569
10547SOL    HW132540   5.709   2.823   2.475
10547SOL    HW232541   5.823   2.894   2.569
10548SOL     OW32542   5.425   4.111   4.162
10548SOL    HW132543   5.514   4.101   4.208
10548SOL    HW232544   5.352   4.087   4.226
10549SOL     OW32545   0.793   6.965   2.094
10549SOL    HW132546   0.807   0.030   2.049
10549SOL    HW232547   0.697   6.938   2.086
10550SOL     OW32548   4.402   6.157   3.829
10550SOL    HW132549   4.311   6.119   3.842
10550SOL    HW232550   4.397   6.236   3.768
10551SOL     OW32551   1.177   2.270   6.437
10551SOL    HW132552   1.165   2.310   6.528
10551SOL    HW232553   1.266   2.297   6.401
10552SOL     OW32554   2.961   1.158   6.090
10552SOL    HW132555   2.926   1.140   6.182
10552SOL    HW232556   2.997   1.074   6.050
10553SOL     OW32557   0.629   4.557   2.245
10553SOL    HW132558   0.536   4.587   2.225
10553SOL    HW232559   0.634   4.525   2.340
10554SOL     OW32560   5.262   5.005   0.052
10554SOL    HW132561   5.163   5.006   0.068
10554SOL    HW232562   5.285   4.926   7.017
10555SOL     OW32563   1.836   2.718   0.597
10555SOL    HW132564   1.753   2.713   0.652
10555SOL    HW232565   1.913   2.745   0.655
10556SOL     OW32566   1.748   2.003   5.776
10556SOL    HW132567   1.785   1.910   5.781
10556SOL    HW232568   1.682   2.009   5.702
10557SOL     OW32569   2.224   2.824   3.347
10557SOL    HW132570   2.152   2.823   3.417
10557SOL    HW232571   2.227   2.737   3.299
10558SOL     OW32572   3.848   0.773   3.051
10558SOL    HW132573   3.881   0.830   3.127
10558SOL    HW232574   3.856   0.676   3.077
10559SOL     OW32575   4.864   0.589   1.408
10559SOL    HW132576   4.791   0.551   1.351
10559SOL    HW232577   4.865   0.689   1.399
10560SOL     OW32578   3.657   6.625   2.907
10560SOL    HW132579   3.698   6.709   2.942
10560SOL    HW232580   3.562   6.643   2.880
10561SOL     OW32581   3.306   3.975   1.178
10561SOL    HW132582   3.290   3.924   1.262
10561SOL    HW232583   3.342   3.915   1.107
10562SOL     OW32584   4.853   4.777   0.242
10562SOL    HW132585   4.798   4.710   0.291
10562SOL    HW232586   4.906   4.731   0.170
10563SOL     OW32587   0.221   1.508   3.228
10563SOL    HW132588   0.295   1.554   3.277
10563SOL    HW232589   0.144   1.493   3.291
10564SOL     OW32590   6.050   6.059   2.290
10564SOL    HW132591   6.031   6.024   2.198
10564SOL    HW232592   6.043   5.984   2.356
10565SOL     OW32593   0.841   0.515   5.932
10565SOL    HW132594   0.880   0.580   5.996
10565SOL    HW232595   0.762   0.470   5.974
10566SOL     OW32596   3.409   1.732   6.536
10566SOL    HW132597   3.343   1.677   6.485
10566SOL    HW232598   3.415   1.823   6.494
10567SOL     OW32599   3.385   2.074   4.575
10567SOL    HW132600   3.425   2.013   4.506
10567SOL    HW232601   3.285   2.076   4.562
10568SOL     OW32602   6.563   3.041   1.728
10568SOL    HW132603   6.568   3.124   1.784
10568SOL    HW232604   6.516   2.969   1.779
10569SOL     OW32605   5.348   2.009   1.746
10569SOL    HW132606   5.308   2.101   1.750
10569SOL    HW232607   5.344   1.975   1.653
10570SOL     OW32608   1.495   5.384   3.672
10570SOL    HW132609   1.538   5.297   3.647
10570SOL    HW232610   1.479   5.438   3.589
10571SOL     OW32611   6.891   4.222   5.601
10571SOL    HW132612   6.974   4.243   5.653
10571SOL    HW232613   6.843   4.307   5.580
10572SOL     OW32614   0.148   4.101   3.202
10572SOL    HW132615   0.117   4.194   3.182
10572SOL    HW232616   0.191   4.062   3.120
10573SOL     OW32617   4.577   0.075   4.937
10573SOL    HW132618   4.606   7.003   4.946
10573SOL    HW232619   4.634   0.121   4.868
10574SOL     OW32620   1.850   1.150   4.280
10574SOL    HW132621   1.933   1.094   4.279
10574SOL    HW232622   1.822   1.169   4.186
10575SOL     OW32623   0.498   1.005   3.135
10575SOL    HW132624   0.533   1.054   3.056
10575SOL    HW232625   0.406   0.971   3.115
10576SOL     OW32626   0.108   6.285   4.716
10576SOL    HW132627   0.159   6.293   4.631
10576SOL    HW232628   0.018   6.245   4.698
10577SOL     OW32629   1.804   4.128   0.109
10577SOL    HW132630   1.761   4.149   0.021
10577SOL    HW232631   1.750   4.169   0.183
10578SOL     OW32632   5.120   1.596   2.694
10578SOL    HW132633   5.105   1.498   2.704
10578SOL    HW232634   5.084   1.628   2.607
10579SOL     OW32635   4.366   2.757   1.656
10579SOL    HW132636   4.338   2.662   1.675
10579SOL    HW232637   4.456   2.773   1.697
10580SOL     OW32638   6.591   0.267   7.019
10580SOL    HW132639   6.615   0.177   0.032
10580SOL    HW232640   6.656   0.335   0.030
10581SOL     OW32641   6.649   6.954   3.277
10581SOL    HW132642   6.648   6.993   3.185
10581SOL    HW232643   6.654   6.855   3.272
10582SOL     OW32644   5.752   5.152   6.298
10582SOL    HW132645   5.851   5.139   6.304
10582SOL    HW232646   5.725   5.162   6.202
10583SOL     OW32647   3.885   1.183   4.656
10583SOL    HW132648   3.888   1.139   4.746
10583SOL    HW232649   3.806   1.244   4.651
10584SOL     OW32650   6.434   6.815   1.397
10584SOL    HW132651   6.488   6.761   1.462
10584SOL    HW232652   6.480   6.815   1.308
10585SOL     OW32653   1.871   2.429   5.543
10585SOL    HW132654   1.894   2.368   5.619
10585SOL    HW232655   1.867   2.523   5.577
10586SOL     OW32656   6.207   5.351   5.084
10586SOL    HW132657   6.133   5.291   5.115
10586SOL    HW232658   6.191   5.443   5.118
10587SOL     OW32659   6.072   4.624   0.349
10587SOL    HW132660   6.144   4.682   0.390
10587SOL    HW232661   6.105   4.530   0.343
10588SOL     OW32662   0.986   3.160   4.170
10588SOL    HW132663   1.040   3.185   4.090
10588SOL    HW232664   1.037   3.180   4.254
10589SOL     OW32665   5.818   1.760   4.203
10589SOL    HW132666   5.883   1.797   4.268
10589SOL    HW232667   5.824   1.812   4.117
10590SOL     OW32668   0.655   0.382   2.065
10590SOL    HW132669   0.602   0.306   2.102
10590SOL    HW232670   0.601   0.466   2.070
10591SOL     OW32671   1.531   2.256   6.972
10591SOL    HW132672   1.626   2.285   6.982
10591SOL    HW232673   1.515   2.225   6.878
10592SOL     OW32674   5.362   3.840   1.908
10592SOL    HW132675   5.343   3.743   1.925
10592SOL    HW232676   5.445   3.848   1.853
10593SOL     OW32677   2.553   5.860   0.473
10593SOL    HW132678   2.498   5.883   0.393
10593SOL    HW232679   2.598   5.772   0.459
10594SOL     OW32680   5.068   0.554   2.503
10594SOL    HW132681   5.088   0.587   2.410
10594SOL    HW232682   5.148   0.566   2.561
10595SOL     OW32683   4.335   6.332   6.157
10595SOL    HW132684   4.411   6.271   6.134
10595SOL    HW232685   4.254   6.278   6.178
10596SOL     OW32686   4.186   0.023   0.193
10596SOL    HW132687   4.148   0.001   0.283
10596SOL    HW232688   4.126   7.010   0.121
10597SOL     OW32689   3.628   0.484   5.530
10597SOL    HW132690   3.617   0.389   5.558
10597SOL    HW232691   3.650   0.488   5.432
10598SOL     OW32692   2.813   3.229   0.499
10598SOL    HW132693   2.910   3.210   0.509
10598SOL    HW232694   2.786   3.217   0.404
10599SOL     OW32695   4.968   3.347   5.573
10599SOL    HW132696   4.876   3.327   5.539
10599SOL    HW232697   4.995   3.439   5.542
10600SOL     OW32698   2.365   2.882   0.392
10600SOL    HW132699   2.395   2.794   0.355
10600SOL    HW232700   2.302   2.926   0.327
10601SOL     OW32701   1.901   4.619   5.309
10601SOL    HW132702   1.930   4.641   5.216
10601SOL    HW232703   1.916   4.521   5.326
10602SOL     OW32704   3.386   1.249   1.950
10602SOL    HW132705   3.432   1.286   1.869
10602SOL    HW232706   3.390   1.149   1.948
10603SOL     OW32707   3.324   6.133   2.818
10603SOL    HW132708   3.375   6.077   2.884
10603SOL    HW232709   3.269   6.073   2.760
10604SOL     OW32710   6.029   5.577   5.515
10604SOL    HW132711   6.037   5.485   5.478
10604SOL    HW232712   5.946   5.620   5.479
10605SOL     OW32713   1.323   6.181   0.382
10605SOL    HW132714   1.373   6.117   0.440
10605SOL    HW232715   1.289   6.257   0.438
10606SOL     OW32716   6.608   0.478   2.740
10606SOL    HW132717   6.686   0.479   2.677
10606SOL    HW232718   6.524   0.501   2.691
10607SOL     OW32719   4.093   4.767   5.217
10607SOL    HW132720   4.018   4.735   5.275
10607SOL    HW232721   4.056   4.804   5.132
10608SOL     OW32722   5.184   2.366   5.878
10608SOL    HW132723   5.243   2.385   5.799
10608SOL    HW232724   5.230   2.304   5.941
10609SOL     OW32725   2.613   6.900   0.469
10609SOL    HW132726   2.649   6.851   0.390
10609SOL    HW232727   2.624   6.843   0.551
10610SOL     OW32728   0.786   2.435   5.138
10610SOL    HW132729   0.713   2.502   5.123
10610SOL    HW232730   0.833   2.455   5.224
10611SOL     OW32731   3.792   4.153   5.914
10611SOL    HW132732   3.887   4.146   5.886
10611SOL    HW232733   3.749   4.063   5.908
10612SOL     OW32734   3.190   0.857   4.515
10612SOL    HW132735   3.176   0.775   4.571
10612SOL    HW232736   3.138   0.848   4.430
10613SOL     OW32737   6.114   6.771   4.623
10613SOL    HW132738   6.117   6.771   4.523
10613SOL    HW232739   6.202   6.803   4.658
10614SOL     OW32740   6.181   2.199   4.390
10614SOL    HW132741   6.243   2.145   4.333
10614SOL    HW232742   6.090   2.156   4.391
10615SOL     OW32743   3.629   6.690   5.811
10615SOL    HW132744   3.625   6.660   5.907
10615SOL    HW232745   3.549   6.746   5.790
10616SOL     OW32746   3.265   6.176   0.859
10616SOL    HW132747   3.351   6.125   0.852
10616SOL    HW232748   3.195   6.118   0.899
10617SOL     OW32749   2.221   2.640   1.527
10617SOL    HW132750   2.296   2.588   1.568
10617SOL    HW232751   2.230   2.737   1.551
10618SOL     OW32752   0.386   3.844   6.475
10618SOL    HW132753   0.449   3.791   6.419
10618SOL    HW232754   0.354   3.789   6.552
10619SOL     OW32755   0.006   4.401   2.590
10619SOL    HW132756   6.977   4.320   2.564
10619SOL    HW232757   6.988   4.482   2.547
10620SOL     OW32758   1.666   5.549   4.856
10620SOL    HW132759   1.577   5.566   4.812
10620SOL    HW232760   1.665   5.460   4.901
10621SOL     OW32761   1.101   6.032   1.861
10621SOL    HW132762   1.015   6.054   1.816
10621SOL    HW232763   1.094   5.942   1.904
10622SOL     OW32764   5.249   1.868   1.194
10622SOL    HW132765   5.191   1.880   1.113
10622SOL    HW232766   5.345   1.864   1.166
10623SOL     OW32767   6.931   4.557   4.897
10623SOL    HW132768   6.929   4.656   4.891
10623SOL    HW232769   6.870   4.526   4.971
10624SOL     OW32770   0.285   2.920   4.871
10624SOL    HW132771   0.250   2.842   4.820
10624SOL    HW232772   0.361   2.961   4.821
10625SOL     OW32773   0.583   4.290   0.307
10625SOL    HW132774   0.495   4.247   0.326
10625SOL    HW232775   0.635   4.233   0.243
10626SOL     OW32776   2.716   3.113   0.728
10626SOL    HW132777   2.617   3.100   0.722
10626SOL    HW232778   2.748   3.163   0.649
10627SOL     OW32779   5.422   0.248   0.851
10627SOL    HW132780   5.413   0.152   0.822
10627SOL    HW232781   5.427   0.307   0.771
10628SOL     OW32782   5.083   6.323   0.099
10628SOL    HW132783   5.148   6.366   0.037
10628SOL    HW232784   4.991   6.327   0.059
10629SOL     OW32785   2.564   4.988   5.374
10629SOL    HW132786   2.622   4.909   5.354
10629SOL    HW232787   2.470   4.969   5.345
10630SOL     OW32788   6.659   0.927   3.546
10630SOL    HW132789   6.741   0.901   3.496
10630SOL    HW232790   6.660   1.025   3.563
10631SOL     OW32791   2.324   4.685   4.511
10631SOL    HW132792   2.355   4.627   4.586
10631SOL    HW232793   2.227   4.668   4.494
10632SOL     OW32794   6.161   1.960   4.020
10632SOL    HW132795   6.199   1.959   4.113
10632SOL    HW232796   6.229   1.999   3.958
10633SOL     OW32797   2.874   2.757   1.096
10633SOL    HW132798   2.921   2.786   1.180
10633SOL    HW232799   2.863   2.836   1.036
10634SOL     OW32800   3.298   5.731   0.578
10634SOL    HW132801   3.293   5.830   0.563
10634SOL    HW232802   3.393   5.701   0.568
10635SOL     OW32803   2.905   2.190   0.879
10635SOL    HW132804   2.976   2.160   0.943
10635SOL    HW232805   2.919   2.287   0.858
10636SOL     OW32806   1.283   1.673   1.723
10636SOL    HW132807   1.316   1.687   1.630
10636SOL    HW232808   1.190   1.636   1.720
10637SOL     OW32809   2.636   5.093   6.136
10637SOL    HW132810   2.716   5.151   6.123
10637SOL    HW232811   2.568   5.141   6.190
10638SOL     OW32812   6.833   5.620   2.827
10638SOL    HW132813   6.904   5.661   2.885
10638SOL    HW232814   6.812   5.683   2.752
10639SOL     OW32815   0.722   3.210   3.589
10639SOL    HW132816   0.710   3.186   3.685
10639SOL    HW232817   0.675   3.143   3.532
10640SOL     OW32818   3.873   7.005   5.683
10640SOL    HW132819   3.934   7.019   5.605
10640SOL    HW232820   3.909   6.932   5.741
10641SOL     OW32821   2.479   1.728   1.587
10641SOL    HW132822   2.421   1.798   1.628
10641SOL    HW232823   2.571   1.732   1.627
10642SOL     OW32824   0.310   3.472   1.924
10642SOL    HW132825   0.328   3.559   1.971
10642SOL    HW232826   0.214   3.448   1.934
10643SOL     OW32827   1.764   5.003   5.457
10643SOL    HW132828   1.854   4.972   5.489
10643SOL    HW232829   1.717   4.927   5.411
10644SOL     OW32830   5.544   2.618   3.268
10644SOL    HW132831   5.628   2.654   3.309
10644SOL    HW232832   5.504   2.686   3.208
10645SOL     OW32833   1.444   2.000   5.059
10645SOL    HW132834   1.462   2.078   4.999
10645SOL    HW232835   1.401   1.927   5.006
10646SOL     OW32836   6.488   0.573   6.738
10646SOL    HW132837   6.392   0.560   6.717
10646SOL    HW232838   6.529   0.486   6.764
10647SOL     OW32839   2.812   5.416   5.208
10647SOL    HW132840   2.816   5.403   5.307
10647SOL    HW232841   2.802   5.327   5.163
10648SOL     OW32842   5.568   4.476   6.423
10648SOL    HW132843   5.477   4.514   6.437
10648SOL    HW232844   5.570   4.425   6.337
10649SOL     OW32845   0.009   4.324   3.060
10649SOL    HW132846   0.012   4.395   2.990
10649SOL    HW232847   6.944   4.276   3.056
10650SOL     OW32848   0.853   6.489   3.774
10650SOL    HW132849   0.759   6.478   3.806
10650SOL    HW232850   0.853   6.528   3.682
10651SOL     OW32851   4.688   6.317   6.437
10651SOL    HW132852   4.700   6.403   6.388
10651SOL    HW232853   4.592   6.307   6.463
10652SOL     OW32854   3.627   7.021   6.164
10652SOL    HW132855   3.627   7.020   6.264
10652SOL    HW232856   3.535   7.003   6.130
10653SOL     OW32857   4.436   4.541   4.318
10653SOL    HW132858   4.423   4.500   4.228
10653SOL    HW232859   4.464   4.471   4.383
10654SOL     OW32860   4.789   0.647   0.605
10654SOL    HW132861   4.790   0.554   0.640
10654SOL    HW232862   4.848   0.654   0.525
10655SOL     OW32863   2.656   5.617   0.432
10655SOL    HW132864   2.721   5.580   0.498
10655SOL    HW232865   2.689   5.600   0.339
10656SOL     OW32866   6.442   1.961   2.226
10656SOL    HW132867   6.479   1.881   2.178
10656SOL    HW232868   6.360   1.993   2.179
10657SOL     OW32869   6.658   0.007   6.202
10657SOL    HW132870   6.656   0.089   6.145
10657SOL    HW232871   6.699   0.029   6.290
10658SOL     OW32872   5.921   4.621   4.900
10658SOL    HW132873   6.006   4.579   4.868
10658SOL    HW232874   5.938   4.670   4.986
10659SOL     OW32875   6.338   5.752   1.290
10659SOL    HW132876   6.417   5.714   1.242
10659SOL    HW232877   6.285   5.808   1.227
10660SOL     OW32878   5.427   3.490   0.110
10660SOL    HW132879   5.495   3.558   0.136
10660SOL    HW232880   5.374   3.525   0.032
10661SOL     OW32881   1.000   6.921   2.515
10661SOL    HW132882   1.005   6.987   2.440
10661SOL    HW232883   0.962   6.965   2.596
10662SOL     OW32884   5.543   0.837   3.467
10662SOL    HW132885   5.528   0.926   3.426
10662SOL    HW232886   5.468   0.815   3.529
10663SOL     OW32887   1.228   1.015   1.944
10663SOL    HW132888   1.300   1.026   1.877
10663SOL    HW232889   1.168   0.939   1.918
10664SOL     OW32890   0.790   4.827   5.231
10664SOL    HW132891   0.849   4.900   5.265
10664SOL    HW232892   0.732   4.863   5.158
10665SOL     OW32893   0.838   1.220   0.659
10665SOL    HW132894   0.758   1.262   0.702
10665SOL    HW232895   0.903   1.291   0.633
10666SOL     OW32896   3.041   4.203   1.005
10666SOL    HW132897   3.119   4.206   1.068
10666SOL    HW232898   3.007   4.296   0.990
10667SOL     OW32899   3.972   3.305   5.553
10667SOL    HW132900   4.009   3.294   5.645
10667SOL    HW232901   3.948   3.215   5.516
10668SOL     OW32902   1.519   1.124   5.059
10668SOL    HW132903   1.456   1.136   5.136
10668SOL    HW232904   1.471   1.140   4.973
10669SOL     OW32905   5.834   6.173   0.888
10669SOL    HW132906   5.803   6.265   0.864
10669SOL    HW232907   5.889   6.177   0.972
10670SOL     OW32908   5.262   4.241   5.125
10670SOL    HW132909   5.238   4.205   5.215
10670SOL    HW232910   5.328   4.315   5.135
10671SOL     OW32911   2.752   2.422   3.466
10671SOL    HW132912   2.834   2.423   3.410
10671SOL    HW232913   2.729   2.327   3.489
10672SOL     OW32914   5.927   2.564   0.328
10672SOL    HW132915   5.966   2.476   0.304
10672SOL    HW232916   5.891   2.609   0.246
10673SOL     OW32917   1.168   1.586   0.030
10673SOL    HW132918   1.072   1.575   0.055
10673SOL    HW232919   1.194   1.682   0.042
10674SOL     OW32920   3.403   3.775   0.962
10674SOL    HW132921   3.334   3.702   0.953
10674SOL    HW232922   3.419   3.816   0.873
10675SOL     OW32923   2.148   0.012   6.493
10675SOL    HW132924   2.100   6.959   6.535
10675SOL    HW232925   2.084   0.088   6.477
10676SOL     OW32926   6.041   6.713   5.719
10676SOL    HW132927   6.069   6.751   5.631
10676SOL    HW232928   5.941   6.714   5.725
10677SOL     OW32929   0.393   0.644   2.379
10677SOL    HW132930   0.307   0.681   2.415
10677SOL    HW232931   0.373   0.570   2.314
10678SOL     OW32932   3.862   5.353   2.991
10678SOL    HW132933   3.849   5.284   3.061
10678SOL    HW232934   3.833   5.442   3.026
10679SOL     OW32935   5.299   5.009   6.726
10679SOL    HW132936   5.217   5.058   6.754
10679SOL    HW232937   5.362   5.072   6.681
10680SOL     OW32938   3.110   1.728   3.520
10680SOL    HW132939   3.011   1.725   3.527
10680SOL    HW232940   3.137   1.776   3.437
10681SOL     OW32941   0.521   4.191   6.975
10681SOL    HW132942   0.504   4.107   6.925
10681SOL    HW232943   0.470   4.266   6.933
10682SOL     OW32944   1.801   1.822   4.281
10682SOL    HW132945   1.877   1.799   4.342
10682SOL    HW232946   1.775   1.917   4.294
10683SOL     OW32947   3.370   1.752   3.978
10683SOL    HW132948   3.364   1.806   4.061
10683SOL    HW232949   3.444   1.787   3.920
10684SOL     OW32950   5.299   4.431   1.123
10684SOL    HW132951   5.218   4.376   1.103
10684SOL    HW232952   5.367   4.375   1.171
10685SOL     OW32953   0.636   5.477   2.902
10685SOL    HW132954   0.590   5.564   2.919
10685SOL    HW232955   0.613   5.444   2.811
10686SOL     OW32956   1.380   4.699   6.407
10686SOL    HW132957   1.298   4.703   6.350
10686SOL    HW232958   1.450   4.645   6.360
10687SOL     OW32959   6.877   5.497   1.818
10687SOL    HW132960   6.951   5.528   1.878
10687SOL    HW232961   6.913   5.479   1.727
10688SOL     OW32962   6.523   4.028   3.043
10688SOL    HW132963   6.431   4.062   3.061
10688SOL    HW232964   6.570   4.010   3.130
10689SOL     OW32965   0.742   6.797   3.864
10689SOL    HW132966   0.782   6.733   3.930
10689SOL    HW232967   0.773   6.773   3.772
10690SOL     OW32968   0.254   5.995   3.141
10690SOL    HW132969   0.202   5.997   3.226
10690SOL    HW232970   0.308   5.911   3.137
10691SOL     OW32971   1.137   1.120   2.363
10691SOL    HW132972   1.114   1.217   2.352
10691SOL    HW232973   1.210   1.096   2.300
10692SOL     OW32974   3.516   4.953   2.603
10692SOL    HW132975   3.440   5.017   2.602
10692SOL    HW232976   3.598   4.998   2.568
10693SOL     OW32977   2.432   7.016   1.294
10693SOL    HW132978   2.438   0.000   1.194
10693SOL    HW232979   2.418   0.084   1.333
10694SOL     OW32980   4.661   6.349   1.084
10694SOL    HW132981   4.758   6.375   1.089
10694SOL    HW232982   4.612   6.390   1.160
10695SOL     OW32983   5.419   2.394   2.826
10695SOL    HW132984   5.511   2.384   2.788
10695SOL    HW232985   5.363   2.316   2.797
10696SOL     OW32986   6.618   3.990   3.279
10696SOL    HW132987   6.641   3.894   3.262
10696SOL    HW232988   6.592   4.001   3.375
10697SOL     OW32989   0.137   5.618   4.624
10697SOL    HW132990   0.150   5.533   4.572
10697SOL    HW232991   0.224   5.643   4.668
10698SOL     OW32992   4.092   6.209   4.314
10698SOL    HW132993   4.181   6.254   4.304
10698SOL    HW232994   4.068   6.202   4.410
10699SOL     OW32995   4.196   2.252   1.928
10699SOL    HW132996   4.096   2.246   1.921
10699SOL    HW232997   4.232   2.304   1.851
10700SOL     OW32998   0.739   0.008   0.791
10700SOL    HW132999   0.775   6.954   0.845
10700SOL    HW233000   0.703   0.078   0.853
10701SOL     OW33001   3.552   5.670   0.340
10701SOL    HW133002   3.627   5.712   0.392
10701SOL    HW233003   3.588   5.637   0.252
10702SOL     OW33004   6.307   2.134   2.732
10702SOL    HW133005   6.222   2.187   2.727
10702SOL    HW233006   6.372   2.183   2.790
10703SOL     OW33007   3.026   3.342   4.126
10703SOL    HW133008   3.067   3.251   4.121
10703SOL    HW233009   2.980   3.352   4.215
10704SOL     OW33010   5.863   5.455   2.039
10704SOL    HW133011   5.889   5.545   2.005
10704SOL    HW233012   5.924   5.386   2.001
10705SOL     OW33013   6.865   4.251   2.402
10705SOL    HW133014   6.859   4.271   2.304
10705SOL    HW233015   6.832   4.158   2.418
10706SOL     OW33016   4.681   6.423   2.107
10706SOL    HW133017   4.778   6.399   2.104
10706SOL    HW233018   4.644   6.401   2.197
10707SOL     OW33019   0.765   6.784   4.169
10707SOL    HW133020   0.840   6.848   4.154
10707SOL    HW233021   0.799   6.691   4.164
10708SOL     OW33022   4.438   0.697   2.185
10708SOL    HW133023   4.480   0.617   2.142
10708SOL    HW233024   4.415   0.676   2.280
10709SOL     OW33025   5.977   0.215   5.102
10709SOL    HW133026   6.073   0.236   5.085
10709SOL    HW233027   5.921   0.249   5.026
10710SOL     OW33028   0.579   6.485   4.120
10710SOL    HW133029   0.612   6.474   4.026
10710SOL    HW233030   0.522   6.566   4.127
10711SOL     OW33031   1.644   6.879   3.708
10711SOL    HW133032   1.649   6.894   3.807
10711SOL    HW233033   1.607   6.961   3.665
10712SOL     OW33034   3.412   1.206   1.481
10712SOL    HW133035   3.368   1.266   1.548
10712SOL    HW233036   3.491   1.161   1.523
10713SOL     OW33037   0.962   4.146   2.202
10713SOL    HW133038   0.866   4.138   2.178
10713SOL    HW233039   1.011   4.194   2.130
10714SOL     OW33040   5.774   3.389   5.718
10714SOL    HW133041   5.801   3.307   5.668
10714SOL    HW233042   5.675   3.389   5.732
10715SOL     OW33043   4.818   6.797   2.875
10715SOL    HW133044   4.724   6.774   2.902
10715SOL    HW233045   4.828   6.781   2.777
10716SOL     OW33046   6.539   2.333   4.121
10716SOL    HW133047   6.510   2.381   4.203
10716SOL    HW233048   6.464   2.277   4.086
10717SOL     OW33049   0.607   2.512   0.564
10717SOL    HW133050   0.575   2.429   0.517
10717SOL    HW233051   0.578   2.509   0.660
10718SOL     OW33052   6.721   3.917   6.756
10718SOL    HW133053   6.658   3.890   6.683
10718SOL    HW233054   6.815   3.903   6.726
10719SOL     OW33055   4.836   6.009   0.734
10719SOL    HW133056   4.908   5.941   0.747
10719SOL    HW233057   4.854   6.088   0.793
10720SOL     OW33058   0.027   2.916   5.402
10720SOL    HW133059   0.042   2.876   5.312
10720SOL    HW233060   6.962   2.965   5.403
10721SOL     OW33061   5.806   3.385   5.152
10721SOL    HW133062   5.791   3.327   5.232
10721SOL    HW233063   5.718   3.411   5.112
10722SOL     OW33064   0.086   2.919   0.476
10722SOL    HW133065   0.036   2.839   0.442
10722SOL    HW233066   0.180   2.915   0.443
10723SOL     OW33067   6.727   4.136   6.891
10723SOL    HW133068   6.731   4.052   6.836
10723SOL    HW233069   6.690   4.210   6.835
10724SOL     OW33070   3.529   0.192   6.381
10724SOL    HW133071   3.549   0.174   6.285
10724SOL    HW233072   3.574   0.276   6.410
10725SOL     OW33073   0.071   5.191   4.104
10725SOL    HW133074   0.053   5.101   4.065
10725SOL    HW233075   0.160   5.224   4.073
10726SOL     OW33076   6.001   6.208   5.293
10726SOL    HW133077   5.949   6.276   5.242
10726SOL    HW233078   6.099   6.224   5.279
10727SOL     OW33079   1.512   4.791   4.154
10727SOL    HW133080   1.496   4.784   4.252
10727SOL    HW233081   1.507   4.887   4.126
10728SOL     OW33082   6.082   6.459   2.192
10728SOL    HW133083   6.035   6.546   2.210
10728SOL    HW233084   6.066   6.396   2.268
10729SOL     OW33085   6.476   0.752   3.548
10729SOL    HW133086   6.419   0.771   3.629
10729SOL    HW233087   6.537   0.829   3.532
10730SOL     OW33088   2.749   0.008   1.264
10730SOL    HW133089   2.708   0.032   1.176
10730SOL    HW233090   2.823   0.073   1.284
10731SOL     OW33091   2.158   5.932   6.570
10731SOL    HW133092   2.171   5.845   6.617
10731SOL    HW233093   2.161   5.917   6.471
10732SOL     OW33094   5.614   0.110   2.518
10732SOL    HW133095   5.516   0.091   2.515
10732SOL    HW233096   5.665   0.025   2.507
10733SOL     OW33097   5.700   2.489   6.735
10733SOL    HW133098   5.711   2.397   6.698
10733SOL    HW233099   5.665   2.484   6.828
10734SOL     OW33100   1.552   0.642   6.207
10734SOL    HW133101   1.481   0.703   6.172
10734SOL    HW233102   1.599   0.597   6.131
10735SOL     OW33103   0.991   4.521   2.401
10735SOL    HW133104   1.086   4.504   2.374
10735SOL    HW233105   0.954   4.595   2.347
10736SOL     OW33106   0.989   1.517   3.875
10736SOL    HW133107   0.962   1.598   3.928
10736SOL    HW233108   0.942   1.436   3.911
10737SOL     OW33109   0.779   1.857   6.859
10737SOL    HW133110   0.793   1.826   6.952
10737SOL    HW233111   0.866   1.855   6.810
10738SOL     OW33112   3.180   0.288   1.756
10738SOL    HW133113   3.142   0.329   1.673
10738SOL    HW233114   3.143   0.196   1.768
10739SOL     OW33115   0.608   0.946   2.816
10739SOL    HW133116   0.546   0.869   2.797
10739SOL    HW233117   0.556   1.021   2.855
10740SOL     OW33118   1.512   4.884   6.106
10740SOL    HW133119   1.546   4.793   6.081
10740SOL    HW233120   1.523   4.897   6.205
10741SOL     OW33121   1.335   1.365   3.475
10741SOL    HW133122   1.412   1.346   3.415
10741SOL    HW233123   1.253   1.381   3.420
10742SOL     OW33124   6.174   0.373   2.006
10742SOL    HW133125   6.099   0.340   1.949
10742SOL    HW233126   6.219   0.450   1.961
10743SOL     OW33127   2.329   2.687   3.622
10743SOL    HW133128   2.331   2.644   3.532
10743SOL    HW233129   2.251   2.749   3.628
10744SOL     OW33130   3.287   1.664   2.726
10744SOL    HW133131   3.381   1.660   2.692
10744SOL    HW233132   3.251   1.757   2.714
10745SOL     OW33133   1.301   4.946   0.643
10745SOL    HW133134   1.297   5.002   0.560
10745SOL    HW233135   1.299   4.849   0.617
10746SOL     OW33136   1.811   4.538   0.831
10746SOL    HW133137   1.770   4.461   0.881
10746SOL    HW233138   1.906   4.550   0.860
10747SOL     OW33139   5.045   1.712   3.195
10747SOL    HW133140   5.130   1.659   3.199
10747SOL    HW233141   5.015   1.719   3.100
10748SOL     OW33142   5.903   0.014   1.238
10748SOL    HW133143   5.834   0.000   1.167
10748SOL    HW233144   5.864   0.070   1.311
10749SOL     OW33145   0.170   5.091   3.036
10749SOL    HW133146   0.071   5.105   3.036
10749SOL    HW233147   0.211   5.142   3.112
10750SOL     OW33148   5.090   5.142   4.513
10750SOL    HW133149   5.086   5.231   4.468
10750SOL    HW233150   5.041   5.074   4.458
10751SOL     OW33151   0.820   3.877   5.181
10751SOL    HW133152   0.782   3.872   5.089
10751SOL    HW233153   0.810   3.970   5.217
10752SOL     OW33154   6.208   3.880   6.575
10752SOL    HW133155   6.287   3.819   6.585
10752SOL    HW233156   6.151   3.849   6.499
10753SOL     OW33157   6.022   0.288   3.664
10753SOL    HW133158   6.022   0.279   3.564
10753SOL    HW233159   5.936   0.329   3.694
10754SOL     OW33160   2.143   1.650   3.181
10754SOL    HW133161   2.133   1.562   3.227
10754SOL    HW233162   2.054   1.697   3.180
10755SOL     OW33163   6.993   1.399   0.872
10755SOL    HW133164   0.031   1.333   0.916
10755SOL    HW233165   6.902   1.359   0.862
10756SOL     OW33166   6.104   3.867   0.873
10756SOL    HW133167   6.097   3.786   0.931
10756SOL    HW233168   6.019   3.920   0.879
10757SOL     OW33169   6.937   3.802   0.408
10757SOL    HW133170   6.849   3.781   0.365
10757SOL    HW233171   6.997   3.722   0.401
10758SOL     OW33172   1.505   6.165   5.114
10758SOL    HW133173   1.548   6.191   5.201
10758SOL    HW233174   1.536   6.074   5.088
10759SOL     OW33175   1.827   3.396   6.737
10759SOL    HW133176   1.852   3.319   6.795
10759SOL    HW233177   1.776   3.463   6.792
10760SOL     OW33178   0.081   0.273   1.033
10760SOL    HW133179   0.023   0.339   1.081
10760SOL    HW233180   0.023   0.205   0.988
10761SOL     OW33181   0.676   1.729   6.222
10761SOL    HW133182   0.617   1.796   6.267
10761SOL    HW233183   0.760   1.773   6.191
10762SOL     OW33184   4.309   1.095   5.061
10762SOL    HW133185   4.241   1.156   5.020
10762SOL    HW233186   4.379   1.072   4.994
10763SOL     OW33187   4.792   6.203   0.890
10763SOL    HW133188   4.830   6.291   0.860
10763SOL    HW233189   4.736   6.217   0.971
10764SOL     OW33190   5.597   1.641   6.278
10764SOL    HW133191   5.500   1.615   6.287
10764SOL    HW233192   5.620   1.649   6.181
10765SOL     OW33193   5.395   2.396   1.167
10765SOL    HW133194   5.303   2.388   1.129
10765SOL    HW233195   5.416   2.492   1.185
10766SOL     OW33196   3.067   3.425   0.380
10766SOL    HW133197   3.126   3.477   0.318
10766SOL    HW233198   2.978   3.411   0.336
10767SOL     OW33199   1.312   0.618   0.654
10767SOL    HW133200   1.399   0.592   0.695
10767SOL    HW233201   1.281   0.704   0.692
10768SOL     OW33202   5.626   5.553   0.258
10768SOL    HW133203   5.662   5.472   0.213
10768SOL    HW233204   5.536   5.576   0.221
10769SOL     OW33205   2.643   5.377   4.941
10769SOL    HW133206   2.599   5.364   5.030
10769SOL    HW233207   2.605   5.312   4.876
10770SOL     OW33208   5.645   0.064   4.540
10770SOL    HW133209   5.715   0.114   4.593
10770SOL    HW233210   5.681   0.044   4.449
10771SOL     OW33211   4.767   0.096   5.453
10771SOL    HW133212   4.811   0.086   5.365
10771SOL    HW233213   4.706   0.175   5.451
10772SOL     OW33214   6.149   6.823   4.077
10772SOL    HW133215   6.058   6.863   4.084
10772SOL    HW233216   6.142   6.727   4.052
10773SOL     OW33217   6.898   4.927   6.676
10773SOL    HW133218   6.937   5.014   6.646
10773SOL    HW233219   6.833   4.942   6.750
10774SOL     OW33220   1.498   2.156   0.217
10774SOL    HW133221   1.505   2.206   0.130
10774SOL    HW233222   1.587   2.153   0.261
10775SOL     OW33223   1.201   3.751   0.434
10775SOL    HW133224   1.220   3.846   0.409
10775SOL    HW233225   1.121   3.718   0.382
10776SOL     OW33226   1.286   6.158   0.917
10776SOL    HW133227   1.303   6.093   0.844
10776SOL    HW233228   1.275   6.109   1.004
10777SOL     OW33229   4.052   0.174   3.891
10777SOL    HW133230   3.962   0.203   3.859
10777SOL    HW233231   4.123   0.231   3.849
10778SOL     OW33232   5.449   0.032   4.854
10778SOL    HW133233   5.522   0.062   4.917
10778SOL    HW233234   5.414   6.966   4.883
10779SOL     OW33235   6.816   4.697   3.218
10779SOL    HW133236   6.775   4.681   3.128
10779SOL    HW233237   6.745   4.696   3.288
10780SOL     OW33238   1.188   6.382   2.520
10780SOL    HW133239   1.144   6.472   2.517
10780SOL    HW233240   1.271   6.387   2.575
10781SOL     OW33241   3.780   1.549   3.982
10781SOL    HW133242   3.691   1.505   3.972
10781SOL    HW233243   3.768   1.638   4.027
10782SOL     OW33244   6.319   2.465   3.514
10782SOL    HW133245   6.348   2.560   3.524
10782SOL    HW233246   6.224   2.463   3.483
10783SOL     OW33247   1.504   3.171   3.070
10783SOL    HW133248   1.467   3.130   2.987
10783SOL    HW233249   1.462   3.129   3.150
10784SOL     OW33250   2.612   6.765   1.999
10784SOL    HW133251   2.590   6.759   2.097
10784SOL    HW233252   2.664   6.684   1.972
10785SOL     OW33253   1.192   4.685   1.765
10785SOL    HW133254   1.184   4.777   1.725
10785SOL    HW233255   1.101   4.648   1.782
10786SOL     OW33256   5.540   3.347   1.734
10786SOL    HW133257   5.484   3.414   1.685
10786SOL    HW233258   5.624   3.330   1.684
10787SOL     OW33259   3.444   1.846   4.723
10787SOL    HW133260   3.523   1.852   4.784
10787SOL    HW233261   3.407   1.938   4.707
10788SOL     OW33262   2.489   4.609   0.026
10788SOL    HW133263   2.587   4.590   0.027
10788SOL    HW233264   2.444   4.556   0.098
10789SOL     OW33265   5.478   1.882   1.028
10789SOL    HW133266   5.431   1.839   0.951
10789SOL    HW233267   5.507   1.974   1.002
10790SOL     OW33268   0.730   0.745   4.395
10790SOL    HW133269   0.789   0.678   4.439
10790SOL    HW233270   0.643   0.702   4.370
10791SOL     OW33271   0.715   1.071   1.620
10791SOL    HW133272   0.681   1.123   1.698
10791SOL    HW233273   0.813   1.088   1.608
10792SOL     OW33274   3.177   2.940   1.733
10792SOL    HW133275   3.219   2.896   1.813
10792SOL    HW233276   3.249   2.980   1.677
10793SOL     OW33277   5.568   2.254   4.056
10793SOL    HW133278   5.558   2.255   3.957
10793SOL    HW233279   5.501   2.190   4.096
10794SOL     OW33280   3.377   3.817   2.497
10794SOL    HW133281   3.320   3.771   2.429
10794SOL    HW233282   3.323   3.888   2.543
10795SOL     OW33283   6.050   4.079   3.973
10795SOL    HW133284   6.147   4.064   3.953
10795SOL    HW233285   6.021   4.166   3.932
10796SOL     OW33286   3.779   6.222   6.431
10796SOL    HW133287   3.786   6.133   6.478
10796SOL    HW233288   3.817   6.293   6.490
10797SOL     OW33289   4.368   2.560   0.959
10797SOL    HW133290   4.274   2.568   0.925
10797SOL    HW233291   4.414   2.648   0.952
10798SOL     OW33292   2.148   0.078   0.426
10798SOL    HW133293   2.150   0.144   0.501
10798SOL    HW233294   2.201   0.115   0.349
10799SOL     OW33295   3.530   1.806   1.699
10799SOL    HW133296   3.446   1.841   1.741
10799SOL    HW233297   3.576   1.881   1.652
10800SOL     OW33298   1.197   6.726   0.039
10800SOL    HW133299   1.204   6.769   0.130
10800SOL    HW233300   1.258   6.774   6.998
10801SOL     OW33301   1.013   6.999   4.943
10801SOL    HW133302   1.103   7.010   4.985
10801SOL    HW233303   1.023   7.001   4.843
10802SOL     OW33304   2.143   3.379   4.927
10802SOL    HW133305   2.126   3.356   5.023
10802SOL    HW233306   2.184   3.301   4.881
10803SOL     OW33307   4.732   4.528   5.010
10803SOL    HW133308   4.817   4.476   5.023
10803SOL    HW233309   4.747   4.598   4.940
10804SOL     OW33310   6.883   4.392   1.440
10804SOL    HW133311   6.930   4.377   1.527
10804SOL    HW233312   6.801   4.447   1.455
10805SOL     OW33313   3.283   6.434   6.882
10805SOL    HW133314   3.345   6.425   6.804
10805SOL    HW233315   3.337   6.449   6.965
10806SOL     OW33316   5.291   4.232   0.144
10806SOL    HW133317   5.354   4.232   0.067
10806SOL    HW233318   5.342   4.234   0.230
10807SOL     OW33319   3.180   0.016   3.332
10807SOL    HW133320   3.130   0.100   3.312
10807SOL    HW233321   3.147   6.966   3.272
10808SOL     OW33322   0.142   3.871   0.050
10808SOL    HW133323   0.218   3.807   0.041
10808SOL    HW233324   0.144   3.937   6.998
10809SOL     OW33325   2.843   6.789   3.693
10809SOL    HW133326   2.882   6.844   3.619
10809SOL    HW233327   2.822   6.847   3.771
10810SOL     OW33328   1.214   0.878   5.620
10810SOL    HW133329   1.178   0.904   5.709
10810SOL    HW233330   1.276   0.800   5.630
10811SOL     OW33331   4.642   4.924   4.970
10811SOL    HW133332   4.732   4.894   4.938
10811SOL    HW233333   4.640   4.924   5.070
10812SOL     OW33334   0.651   3.340   2.572
10812SOL    HW133335   0.705   3.259   2.553
10812SOL    HW233336   0.710   3.421   2.573
10813SOL     OW33337   1.862   6.213   6.858
10813SOL    HW133338   1.877   6.166   6.772
10813SOL    HW233339   1.835   6.148   6.929
10814SOL     OW33340   1.803   6.986   6.337
10814SOL    HW133341   1.831   0.059   6.346
10814SOL    HW233342   1.712   6.973   6.377
10815SOL     OW33343   4.975   5.034   3.238
10815SOL    HW133344   4.955   4.950   3.187
10815SOL    HW233345   5.022   5.098   3.178
10816SOL     OW33346   1.391   1.216   2.400
10816SOL    HW133347   1.379   1.267   2.485
10816SOL    HW233348   1.487   1.190   2.390
10817SOL     OW33349   5.140   6.953   2.848
10817SOL    HW133350   5.123   6.866   2.895
10817SOL    HW233351   5.233   6.984   2.867
10818SOL     OW33352   4.759   4.058   5.621
10818SOL    HW133353   4.772   4.100   5.531
10818SOL    HW233354   4.778   3.960   5.616
10819SOL     OW33355   6.869   4.675   6.759
10819SOL    HW133356   6.856   4.699   6.855
10819SOL    HW233357   6.850   4.755   6.702
10820SOL     OW33358   6.321   6.230   4.095
10820SOL    HW133359   6.227   6.212   4.125
10820SOL    HW233360   6.319   6.274   4.005
10821SOL     OW33361   5.073   6.182   2.033
10821SOL    HW133362   5.149   6.135   2.079
10821SOL    HW233363   5.102   6.210   1.942
10822SOL     OW33364   1.342   2.613   3.278
10822SOL    HW133365   1.398   2.639   3.199
10822SOL    HW233366   1.378   2.658   3.360
10823SOL     OW33367   1.486   5.109   1.520
10823SOL    HW133368   1.541   5.029   1.545
10823SOL    HW233369   1.511   5.186   1.579
10824SOL     OW33370   4.919   6.975   4.131
10824SOL    HW133371   4.990   0.001   4.080
10824SOL    HW233372   4.834   0.005   4.129
10825SOL     OW33373   2.793   0.695   0.704
10825SOL    HW133374   2.789   0.626   0.631
10825SOL    HW233375   2.701   0.728   0.723
10826SOL     OW33376   0.215   3.665   4.019
10826SOL    HW133377   0.214   3.753   3.972
10826SOL    HW233378   0.252   3.595   3.958
10827SOL     OW33379   5.635   3.912   4.729
10827SOL    HW133380   5.734   3.929   4.726
10827SOL    HW233381   5.587   3.992   4.692
10828SOL     OW33382   1.076   5.816   2.652
10828SOL    HW133383   1.017   5.754   2.704
10828SOL    HW233384   1.077   5.787   2.556
10829SOL     OW33385   3.790   2.609   0.124
10829SOL    HW133386   3.720   2.655   0.069
10829SOL    HW233387   3.852   2.677   0.163
10830SOL     OW33388   4.704   1.723   3.099
10830SOL    HW133389   4.788   1.690   3.055
10830SOL    HW233390   4.628   1.714   3.035
10831SOL     OW33391   4.192   5.657   1.884
10831SOL    HW133392   4.172   5.750   1.913
10831SOL    HW233393   4.213   5.601   1.965
10832SOL     OW33394   7.009   1.877   0.799
10832SOL    HW133395   0.013   1.782   0.783
10832SOL    HW233396   6.964   1.914   0.718
10833SOL     OW33397   1.576   0.895   4.134
10833SOL    HW133398   1.506   0.826   4.117
10833SOL    HW233399   1.666   0.852   4.128
10834SOL     OW33400   1.236   1.860   6.307
10834SOL    HW133401   1.221   1.908   6.221
10834SOL    HW233402   1.173   1.894   6.376
10835SOL     OW33403   5.546   2.006   1.330
10835SOL    HW133404   5.574   2.003   1.234
10835SOL    HW233405   5.488   2.086   1.345
10836SOL     OW33406   6.073   1.169   5.030
10836SOL    HW133407   6.066   1.072   5.050
10836SOL    HW233408   6.071   1.183   4.931
10837SOL     OW33409   0.594   4.861   0.074
10837SOL    HW133410   0.538   4.914   0.138
10837SOL    HW233411   0.625   4.921   7.023
10838SOL     OW33412   5.727   6.699   4.312
10838SOL    HW133413   5.653   6.694   4.378
10838SOL    HW233414   5.691   6.680   4.220
10839SOL     OW33415   3.235   3.221   0.429
10839SOL    HW133416   3.182   3.306   0.420
10839SOL    HW233417   3.186   3.158   0.490
10840SOL     OW33418   4.182   6.068   1.405
10840SOL    HW133419   4.178   6.158   1.363
10840SOL    HW233420   4.095   6.049   1.450
10841SOL     OW33421   3.892   6.638   6.658
10841SOL    HW133422   3.957   6.605   6.726
10841SOL    HW233423   3.809   6.582   6.660
10842SOL     OW33424   6.104   3.448   0.752
10842SOL    HW133425   6.081   3.440   0.655
10842SOL    HW233426   6.129   3.358   0.787
10843SOL     OW33427   0.794   1.758   1.900
10843SOL    HW133428   0.890   1.782   1.910
10843SOL    HW233429   0.787   1.667   1.858
10844SOL     OW33430   0.456   6.709   3.928
10844SOL    HW133431   0.508   6.774   3.872
10844SOL    HW233432   0.458   6.738   4.024
10845SOL     OW33433   2.394   1.062   0.823
10845SOL    HW133434   2.402   1.137   0.889
10845SOL    HW233435   2.297   1.042   0.807
10846SOL     OW33436   4.490   3.113   0.684
10846SOL    HW133437   4.525   3.167   0.606
10846SOL    HW233438   4.566   3.092   0.746
10847SOL     OW33439   3.078   1.929   6.322
10847SOL    HW133440   3.022   1.931   6.240
10847SOL    HW233441   3.068   2.015   6.372
10848SOL     OW33442   3.553   2.205   6.636
10848SOL    HW133443   3.586   2.232   6.726
10848SOL    HW233444   3.542   2.287   6.579
10849SOL     OW33445   3.117   4.850   3.457
10849SOL    HW133446   3.214   4.868   3.470
10849SOL    HW233447   3.079   4.809   3.541
10850SOL     OW33448   4.893   6.029   6.686
10850SOL    HW133449   4.862   6.124   6.682
10850SOL    HW233450   4.958   6.012   6.612
10851SOL     OW33451   2.736   2.906   6.479
10851SOL    HW133452   2.685   2.988   6.503
10851SOL    HW233453   2.683   2.825   6.502
10852SOL     OW33454   0.210   6.534   5.768
10852SOL    HW133455   0.272   6.560   5.694
10852SOL    HW233456   0.116   6.537   5.736
10853SOL     OW33457   3.905   2.013   5.761
10853SOL    HW133458   3.909   1.943   5.832
10853SOL    HW233459   3.868   2.097   5.800
10854SOL     OW33460   6.131   6.837   5.491
10854SOL    HW133461   6.128   6.771   5.416
10854SOL    HW233462   6.086   6.921   5.463
10855SOL     OW33463   2.917   6.295   2.568
10855SOL    HW133464   2.928   6.392   2.587
10855SOL    HW233465   2.940   6.242   2.649
10856SOL     OW33466   5.673   1.592   2.000
10856SOL    HW133467   5.658   1.501   1.961
10856SOL    HW233468   5.585   1.636   2.015
10857SOL     OW33469   5.270   2.656   3.854
10857SOL    HW133470   5.349   2.704   3.892
10857SOL    HW233471   5.253   2.573   3.906
10858SOL     OW33472   1.560   2.686   6.466
10858SOL    HW133473   1.497   2.732   6.403
10858SOL    HW233474   1.519   2.680   6.557
10859SOL     OW33475   2.313   4.324   4.291
10859SOL    HW133476   2.378   4.299   4.219
10859SOL    HW233477   2.323   4.261   4.368
10860SOL     OW33478   6.315   1.113   5.638
10860SOL    HW133479   6.226   1.159   5.631
10860SOL    HW233480   6.336   1.095   5.734
10861SOL     OW33481   3.707   2.949   2.283
10861SOL    HW133482   3.644   3.015   2.242
10861SOL    HW233483   3.798   2.988   2.288
10862SOL     OW33484   2.396   1.450   6.955
10862SOL    HW133485   2.423   1.417   0.023
10862SOL    HW233486   2.299   1.433   6.941
10863SOL     OW33487   3.975   0.453   2.089
10863SOL    HW133488   3.915   0.528   2.064
10863SOL    HW233489   3.934   0.400   2.164
10864SOL     OW33490   2.682   4.625   1.041
10864SOL    HW133491   2.777   4.647   1.061
10864SOL    HW233492   2.665   4.529   1.064
10865SOL     OW33493   5.535   2.205   3.807
10865SOL    HW133494   5.628   2.216   3.773
10865SOL    HW233495   5.473   2.263   3.755
10866SOL     OW33496   6.083   4.099   1.097
10866SOL    HW133497   6.146   4.028   1.067
10866SOL    HW233498   6.082   4.173   1.029
10867SOL     OW33499   2.843   3.883   0.436
10867SOL    HW133500   2.904   3.922   0.505
10867SOL    HW233501   2.759   3.853   0.480
10868SOL     OW33502   2.112   1.408   3.273
10868SOL    HW133503   2.095   1.350   3.353
10868SOL    HW233504   2.089   1.358   3.190
10869NA      NA33505   0.449   2.511   6.003
10870NA      NA33506   4.329   4.716   5.172
10871NA      NA33507   2.189   4.465   2.317
10872NA      NA33508   5.169   4.373   3.616
10873NA      NA33509   4.338   2.405   5.253
10874NA      NA33510   3.501   4.404   1.507
10875NA      NA33511   0.699   4.482   0.264
10876NA      NA33512   3.939   3.976   1.705
10877NA      NA33513   5.079   4.762   0.983
10878NA      NA33514   3.815   0.214   5.775
10879NA      NA33515   6.152   5.529   0.828
10880NA      NA33516   1.765   0.814   5.709
10881NA      NA33517   4.580   5.045   2.157
10882NA      NA33518   3.723   2.846   1.114
   7.02288   7.02288   7.02288
