Generated by trjconv : CNT in water t= 376.00000
33518
    1C        C    1   2.843   2.766   4.748
    1C        C    2   2.898   2.716   4.868
    1C        C    3   2.849   2.772   4.986
    1C        C    4   2.847   2.775   4.262
    1C        C    5   2.899   2.726   4.384
    1C        C    6   2.845   2.774   4.505
    1C        C    7   3.012   2.640   4.627
    1C        C    8   2.897   2.722   4.626
    1C        C    9   3.083   2.609   4.745
    1C        C   10   3.014   2.636   4.866
    1C        C   11   3.185   2.494   4.979
    1C        C   12   3.063   2.562   4.975
    1C        C   13   2.853   2.773   3.773
    1C        C   14   2.904   2.725   3.896
    1C        C   15   2.849   2.771   4.018
    1C        C   16   3.019   2.647   4.141
    1C        C   17   2.903   2.728   4.141
    1C        C   18   3.080   2.615   4.264
    1C        C   19   3.015   2.646   4.385
    1C        C   20   3.209   2.557   4.506
    1C        C   21   3.076   2.604   4.506
    1C        C   22   3.281   2.536   4.626
    1C        C   23   3.213   2.553   4.749
    1C        C   24   3.417   2.487   4.866
    1C        C   25   3.275   2.505   4.868
    1C        C   26   3.493   2.475   4.983
    1C        C   27   2.854   2.771   3.283
    1C        C   28   2.906   2.723   3.405
    1C        C   29   2.855   2.773   3.527
    1C        C   30   3.018   2.640   3.648
    1C        C   31   2.909   2.729   3.650
    1C        C   32   3.075   2.605   3.773
    1C        C   33   3.018   2.641   3.896
    1C        C   34   3.208   2.552   4.019
    1C        C   35   3.077   2.603   4.019
    1C        C   36   3.278   2.535   4.141
    1C        C   37   3.212   2.564   4.262
    1C        C   38   3.417   2.508   4.382
    1C        C   39   3.279   2.539   4.384
    1C        C   40   3.489   2.503   4.503
    1C        C   41   3.419   2.510   4.626
    1C        C   42   3.632   2.479   4.745
    1C        C   43   3.490   2.483   4.745
    1C        C   44   3.707   2.486   4.865
    1C        C   45   3.632   2.483   4.984
    1C        C   46   2.836   2.749   2.793
    1C        C   47   2.893   2.708   2.916
    1C        C   48   2.845   2.759   3.039
    1C        C   49   3.016   2.633   3.160
    1C        C   50   2.903   2.718   3.161
    1C        C   51   3.078   2.598   3.282
    1C        C   52   3.018   2.636   3.404
    1C        C   53   3.208   2.546   3.530
    1C        C   54   3.077   2.598   3.527
    1C        C   55   3.274   2.525   3.654
    1C        C   56   3.206   2.550   3.775
    1C        C   57   3.415   2.510   3.898
    1C        C   58   3.275   2.531   3.897
    1C        C   59   3.487   2.508   4.019
    1C        C   60   3.417   2.508   4.142
    1C        C   61   3.631   2.502   4.258
    1C        C   62   3.490   2.497   4.262
    1C        C   63   3.703   2.509   4.380
    1C        C   64   3.631   2.509   4.502
    1C        C   65   3.835   2.543   4.625
    1C        C   66   3.701   2.499   4.624
    1C        C   67   3.910   2.560   4.743
    1C        C   68   3.843   2.523   4.862
    1C        C   69   4.047   2.593   4.977
    1C        C   70   3.923   2.528   4.976
    1C        C   71   2.819   2.731   2.309
    1C        C   72   2.879   2.688   2.429
    1C        C   73   2.826   2.738   2.550
    1C        C   74   3.004   2.620   2.672
    1C        C   75   2.886   2.698   2.672
    1C        C   76   3.069   2.588   2.793
    1C        C   77   3.008   2.626   2.915
    1C        C   78   3.203   2.541   3.038
    1C        C   79   3.073   2.596   3.036
    1C        C   80   3.274   2.529   3.160
    1C        C   81   3.210   2.550   3.284
    1C        C   82   3.414   2.499   3.406
    1C        C   83   3.276   2.529   3.408
    1C        C   84   3.483   2.500   3.529
    1C        C   85   3.414   2.507   3.652
    1C        C   86   3.625   2.507   3.768
    1C        C   87   3.484   2.502   3.775
    1C        C   88   3.695   2.515   3.891
    1C        C   89   3.628   2.507   4.015
    1C        C   90   3.837   2.551   4.136
    1C        C   91   3.701   2.514   4.136
    1C        C   92   3.903   2.576   4.258
    1C        C   93   3.839   2.547   4.381
    1C        C   94   4.028   2.637   4.499
    1C        C   95   3.902   2.573   4.504
    1C        C   96   4.093   2.671   4.620
    1C        C   97   4.033   2.631   4.741
    1C        C   98   4.197   2.765   4.864
    1C        C   99   4.103   2.657   4.862
    1C        C  100   4.218   2.846   4.977
    1C        C  101   2.816   2.726   2.071
    1C        C  102   2.987   2.591   2.188
    1C        C  103   2.871   2.675   2.189
    1C        C  104   3.057   2.568   2.310
    1C        C  105   2.996   2.608   2.431
    1C        C  106   3.201   2.537   2.551
    1C        C  107   3.069   2.587   2.551
    1C        C  108   3.270   2.520   2.672
    1C        C  109   3.204   2.544   2.795
    1C        C  110   3.412   2.500   2.915
    1C        C  111   3.273   2.527   2.916
    1C        C  112   3.483   2.500   3.037
    1C        C  113   3.413   2.504   3.159
    1C        C  114   3.624   2.501   3.281
    1C        C  115   3.482   2.495   3.282
    1C        C  116   3.693   2.513   3.403
    1C        C  117   3.625   2.504   3.527
    1C        C  118   3.833   2.551   3.646
    1C        C  119   3.697   2.512   3.647
    1C        C  120   3.898   2.574   3.770
    1C        C  121   3.833   2.546   3.892
    1C        C  122   4.025   2.644   4.011
    1C        C  123   3.899   2.581   4.013
    1C        C  124   4.089   2.676   4.133
    1C        C  125   4.031   2.635   4.255
    1C        C  126   4.199   2.764   4.373
    1C        C  127   4.090   2.675   4.377
    1C        C  128   4.247   2.816   4.495
    1C        C  129   4.195   2.768   4.617
    1C        C  130   4.329   2.932   4.738
    1C        C  131   4.243   2.818   4.740
    1C        C  132   4.359   3.003   4.856
    1C        C  133   4.291   2.964   4.972
    1C        C  134   3.178   2.482   2.079
    1C        C  135   3.042   2.515   2.079
    1C        C  136   3.259   2.483   2.193
    1C        C  137   3.190   2.520   2.311
    1C        C  138   3.405   2.481   2.427
    1C        C  139   3.265   2.501   2.430
    1C        C  140   3.477   2.485   2.549
    1C        C  141   3.410   2.496   2.673
    1C        C  142   3.624   2.501   2.791
    1C        C  143   3.483   2.493   2.793
    1C        C  144   3.694   2.514   2.914
    1C        C  145   3.624   2.509   3.037
    1C        C  146   3.831   2.549   3.156
    1C        C  147   3.694   2.514   3.159
    1C        C  148   3.898   2.568   3.280
    1C        C  149   3.831   2.544   3.402
    1C        C  150   4.025   2.635   3.523
    1C        C  151   3.900   2.569   3.523
    1C        C  152   4.081   2.678   3.646
    1C        C  153   4.021   2.642   3.768
    1C        C  154   4.197   2.766   3.885
    1C        C  155   4.085   2.680   3.889
    1C        C  156   4.251   2.810   4.008
    1C        C  157   4.203   2.761   4.131
    1C        C  158   4.341   2.925   4.253
    1C        C  159   4.253   2.814   4.252
    1C        C  160   4.373   2.987   4.375
    1C        C  161   4.329   2.931   4.497
    1C        C  162   4.442   3.114   4.618
    1C        C  163   4.369   2.994   4.618
    1C        C  164   4.470   3.186   4.737
    1C        C  165   4.433   3.123   4.858
    1C        C  166   4.517   3.322   4.975
    1C        C  167   4.477   3.189   4.974
    1C        C  168   3.480   2.438   2.077
    1C        C  169   3.398   2.459   2.188
    1C        C  170   3.618   2.475   2.307
    1C        C  171   3.475   2.473   2.305
    1C        C  172   3.693   2.488   2.426
    1C        C  173   3.618   2.488   2.546
    1C        C  174   3.826   2.542   2.664
    1C        C  175   3.689   2.507   2.666
    1C        C  176   3.892   2.569   2.787
    1C        C  177   3.831   2.545   2.912
    1C        C  178   4.023   2.635   3.032
    1C        C  179   3.899   2.568   3.034
    1C        C  180   4.081   2.673   3.155
    1C        C  181   4.020   2.638   3.277
    1C        C  182   4.198   2.752   3.398
    1C        C  183   4.084   2.669   3.400
    1C        C  184   4.251   2.805   3.518
    1C        C  185   4.199   2.757   3.641
    1C        C  186   4.343   2.915   3.763
    1C        C  187   4.247   2.811   3.761
    1C        C  188   4.381   2.976   3.884
    1C        C  189   4.340   2.920   4.008
    1C        C  190   4.452   3.101   4.127
    1C        C  191   4.385   2.977   4.129
    1C        C  192   4.477   3.169   4.249
    1C        C  193   4.439   3.111   4.372
    1C        C  194   4.500   3.314   4.493
    1C        C  195   4.467   3.177   4.494
    1C        C  196   4.518   3.388   4.612
    1C        C  197   4.505   3.323   4.737
    1C        C  198   4.553   3.537   4.852
    1C        C  199   4.526   3.397   4.857
    1C        C  200   4.587   3.622   4.962
    1C        C  201   3.619   2.417   2.073
    1C        C  202   3.827   2.511   2.183
    1C        C  203   3.691   2.465   2.186
    1C        C  204   3.901   2.539   2.301
    1C        C  205   3.832   2.516   2.422
    1C        C  206   4.017   2.627   2.544
    1C        C  207   3.895   2.555   2.542
    1C        C  208   4.080   2.665   2.664
    1C        C  209   4.020   2.628   2.787
    1C        C  210   4.198   2.748   2.909
    1C        C  211   4.083   2.666   2.908
    1C        C  212   4.254   2.796   3.029
    1C        C  213   4.199   2.751   3.151
    1C        C  214   4.339   2.907   3.272
    1C        C  215   4.247   2.800   3.275
    1C        C  216   4.382   2.968   3.392
    1C        C  217   4.339   2.915   3.516
    1C        C  218   4.441   3.099   3.639
    1C        C  219   4.378   2.973   3.639
    1C        C  220   4.470   3.166   3.760
    1C        C  221   4.440   3.104   3.883
    1C        C  222   4.508   3.305   4.005
    1C        C  223   4.474   3.168   4.005
    1C        C  224   4.516   3.377   4.126
    1C        C  225   4.510   3.307   4.248
    1C        C  226   4.515   3.521   4.366
    1C        C  227   4.517   3.380   4.369
    1C        C  228   4.518   3.596   4.486
    1C        C  229   4.528   3.529   4.610
    1C        C  230   4.506   3.745   4.727
    1C        C  231   4.536   3.606   4.728
    1C        C  232   4.503   3.823   4.844
    1C        C  233   4.539   3.753   4.960
    1C        C  234   4.019   2.608   2.063
    1C        C  235   3.895   2.546   2.065
    1C        C  236   4.084   2.652   2.179
    1C        C  237   4.025   2.608   2.300
    1C        C  238   4.199   2.733   2.421
    1C        C  239   4.084   2.650   2.421
    1C        C  240   4.252   2.787   2.540
    1C        C  241   4.196   2.746   2.663
    1C        C  242   4.338   2.902   2.783
    1C        C  243   4.250   2.791   2.785
    1C        C  244   4.378   2.963   2.904
    1C        C  245   4.340   2.908   3.029
    1C        C  246   4.443   3.092   3.148
    1C        C  247   4.383   2.965   3.151
    1C        C  248   4.467   3.161   3.269
    1C        C  249   4.440   3.097   3.392
    1C        C  250   4.496   3.300   3.515
    1C        C  251   4.466   3.162   3.515
    1C        C  252   4.510   3.371   3.636
    1C        C  253   4.504   3.303   3.760
    1C        C  254   4.523   3.515   3.878
    1C        C  255   4.517   3.374   3.882
    1C        C  256   4.512   3.589   3.998
    1C        C  257   4.516   3.519   4.121
    1C        C  258   4.488   3.729   4.243
    1C        C  259   4.512   3.590   4.243
    1C        C  260   4.469   3.800   4.363
    1C        C  261   4.489   3.734   4.487
    1C        C  262   4.421   3.940   4.605
    1C        C  263   4.476   3.810   4.605
    1C        C  264   4.401   4.014   4.724
    1C        C  265   4.437   3.948   4.843
    1C        C  266   4.326   4.132   4.958
    1C        C  267   4.388   4.008   4.960
    1C        C  268   4.261   2.776   2.063
    1C        C  269   4.200   2.733   2.181
    1C        C  270   4.352   2.886   2.300
    1C        C  271   4.258   2.780   2.301
    1C        C  272   4.390   2.951   2.420
    1C        C  273   4.344   2.894   2.540
    1C        C  274   4.456   3.078   2.660
    1C        C  275   4.383   2.957   2.661
    1C        C  276   4.480   3.149   2.780
    1C        C  277   4.449   3.085   2.902
    1C        C  278   4.509   3.288   3.024
    1C        C  279   4.473   3.152   3.024
    1C        C  280   4.515   3.363   3.144
    1C        C  281   4.507   3.296   3.268
    1C        C  282   4.515   3.508   3.390
    1C        C  283   4.508   3.367   3.391
    1C        C  284   4.512   3.580   3.512
    1C        C  285   4.517   3.512   3.636
    1C        C  286   4.491   3.724   3.753
    1C        C  287   4.522   3.586   3.756
    1C        C  288   4.469   3.793   3.874
    1C        C  289   4.484   3.728   3.999
    1C        C  290   4.429   3.932   4.116
    1C        C  291   4.475   3.799   4.121
    1C        C  292   4.400   3.999   4.237
    1C        C  293   4.428   3.935   4.359
    1C        C  294   4.321   4.122   4.479
    1C        C  295   4.394   4.001   4.480
    1C        C  296   4.280   4.185   4.599
    1C        C  297   4.328   4.136   4.722
    1C        C  298   4.199   4.314   4.838
    1C        C  299   4.282   4.197   4.842
    1C        C  300   4.171   4.405   4.944
    1C        C  301   4.348   2.885   2.061
    1C        C  302   4.468   3.068   2.175
    1C        C  303   4.400   2.942   2.178
    1C        C  304   4.483   3.143   2.295
    1C        C  305   4.453   3.077   2.416
    1C        C  306   4.511   3.282   2.535
    1C        C  307   4.476   3.145   2.538
    1C        C  308   4.522   3.354   2.656
    1C        C  309   4.505   3.288   2.780
    1C        C  310   4.525   3.499   2.898
    1C        C  311   4.518   3.358   2.902
    1C        C  312   4.512   3.572   3.019
    1C        C  313   4.511   3.504   3.143
    1C        C  314   4.481   3.713   3.265
    1C        C  315   4.508   3.574   3.265
    1C        C  316   4.473   3.786   3.386
    1C        C  317   4.488   3.719   3.509
    1C        C  318   4.422   3.923   3.626
    1C        C  319   4.468   3.789   3.630
    1C        C  320   4.391   3.987   3.748
    1C        C  321   4.429   3.928   3.870
    1C        C  322   4.316   4.107   3.990
    1C        C  323   4.400   3.994   3.992
    1C        C  324   4.275   4.164   4.113
    1C        C  325   4.324   4.118   4.237
    1C        C  326   4.183   4.282   4.353
    1C        C  327   4.279   4.179   4.357
    1C        C  328   4.134   4.338   4.473
    1C        C  329   4.188   4.292   4.595
    1C        C  330   4.026   4.436   4.714
    1C        C  331   4.134   4.344   4.715
    1C        C  332   3.969   4.490   4.832
    1C        C  333   4.049   4.474   4.946
    1C        C  334   4.552   3.267   2.059
    1C        C  335   4.533   3.129   2.064
    1C        C  336   4.537   3.351   2.171
    1C        C  337   4.515   3.282   2.292
    1C        C  338   4.528   3.494   2.411
    1C        C  339   4.521   3.353   2.413
    1C        C  340   4.517   3.566   2.533
    1C        C  341   4.521   3.495   2.655
    1C        C  342   4.487   3.707   2.775
    1C        C  343   4.515   3.569   2.775
    1C        C  344   4.472   3.778   2.896
    1C        C  345   4.490   3.711   3.019
    1C        C  346   4.418   3.911   3.138
    1C        C  347   4.461   3.776   3.141
    1C        C  348   4.394   3.982   3.258
    1C        C  349   4.429   3.921   3.381
    1C        C  350   4.319   4.104   3.502
    1C        C  351   4.398   3.987   3.502
    1C        C  352   4.273   4.163   3.622
    1C        C  353   4.316   4.107   3.745
    1C        C  354   4.176   4.266   3.867
    1C        C  355   4.271   4.161   3.867
    1C        C  356   4.122   4.311   3.989
    1C        C  357   4.172   4.260   4.111
    1C        C  358   4.011   4.405   4.231
    1C        C  359   4.122   4.318   4.230
    1C        C  360   3.951   4.448   4.351
    1C        C  361   4.020   4.420   4.472
    1C        C  362   3.829   4.518   4.593
    1C        C  363   3.959   4.463   4.592
    1C        C  364   3.763   4.545   4.714
    1C        C  365   3.837   4.539   4.834
    1C        C  366   3.630   4.599   4.948
    1C        C  367   3.767   4.577   4.949
    1C        C  368   4.507   3.563   2.051
    1C        C  369   4.526   3.492   2.171
    1C        C  370   4.506   3.707   2.288
    1C        C  371   4.525   3.567   2.290
    1C        C  372   4.479   3.776   2.408
    1C        C  373   4.498   3.706   2.529
    1C        C  374   4.424   3.906   2.648
    1C        C  375   4.472   3.773   2.651
    1C        C  376   4.394   3.973   2.769
    1C        C  377   4.425   3.911   2.892
    1C        C  378   4.317   4.093   3.013
    1C        C  379   4.396   3.976   3.015
    1C        C  380   4.271   4.151   3.133
    1C        C  381   4.312   4.097   3.256
    1C        C  382   4.179   4.261   3.377
    1C        C  383   4.274   4.157   3.379
    1C        C  384   4.127   4.313   3.497
    1C        C  385   4.178   4.267   3.621
    1C        C  386   4.012   4.396   3.742
    1C        C  387   4.128   4.316   3.743
    1C        C  388   3.947   4.430   3.863
    1C        C  389   4.007   4.393   3.986
    1C        C  390   3.816   4.486   4.110
    1C        C  391   3.947   4.432   4.108
    1C        C  392   3.750   4.517   4.231
    1C        C  393   3.820   4.500   4.352
    1C        C  394   3.615   4.552   4.477
    1C        C  395   3.755   4.532   4.473
    1C        C  396   3.545   4.563   4.599
    1C        C  397   3.623   4.568   4.717
    1C        C  398   3.410   4.548   4.839
    1C        C  399   3.549   4.576   4.836
    1C        C  400   3.343   4.512   4.956
    1C        C  401   4.502   3.702   2.053
    1C        C  402   4.453   3.917   2.166
    1C        C  403   4.491   3.781   2.169
    1C        C  404   4.415   3.980   2.287
    1C        C  405   4.436   3.911   2.408
    1C        C  406   4.326   4.097   2.525
    1C        C  407   4.394   3.973   2.528
    1C        C  408   4.280   4.152   2.647
    1C        C  409   4.315   4.091   2.769
    1C        C  410   4.175   4.251   2.888
    1C        C  411   4.271   4.147   2.891
    1C        C  412   4.124   4.303   3.009
    1C        C  413   4.175   4.255   3.132
    1C        C  414   4.005   4.381   3.252
    1C        C  415   4.123   4.303   3.254
    1C        C  416   3.943   4.417   3.374
    1C        C  417   4.006   4.386   3.497
    1C        C  418   3.818   4.482   3.620
    1C        C  419   3.947   4.424   3.620
    1C        C  420   3.751   4.508   3.742
    1C        C  421   3.816   4.482   3.864
    1C        C  422   3.609   4.525   3.986
    1C        C  423   3.749   4.502   3.987
    1C        C  424   3.542   4.541   4.109
    1C        C  425   3.611   4.538   4.232
    1C        C  426   3.401   4.547   4.357
    1C        C  427   3.543   4.550   4.355
    1C        C  428   3.329   4.545   4.478
    1C        C  429   3.404   4.555   4.598
    1C        C  430   3.194   4.519   4.724
    1C        C  431   3.334   4.546   4.720
    1C        C  432   3.125   4.496   4.846
    1C        C  433   3.204   4.498   4.961
    1C        C  434   4.383   4.123   2.052
    1C        C  435   4.454   4.003   2.056
    1C        C  436   4.302   4.163   2.163
    1C        C  437   4.337   4.099   2.285
    1C        C  438   4.180   4.251   2.400
    1C        C  439   4.283   4.154   2.403
    1C        C  440   4.123   4.294   2.522
    1C        C  441   4.178   4.249   2.644
    1C        C  442   4.009   4.381   2.767
    1C        C  443   4.121   4.295   2.765
    1C        C  444   3.943   4.415   2.887
    1C        C  445   4.004   4.378   3.009
    1C        C  446   3.815   4.475   3.131
    1C        C  447   3.944   4.418   3.130
    1C        C  448   3.747   4.498   3.253
    1C        C  449   3.814   4.475   3.375
    1C        C  450   3.610   4.527   3.498
    1C        C  451   3.749   4.500   3.498
    1C        C  452   3.541   4.535   3.621
    1C        C  453   3.612   4.532   3.743
    1C        C  454   3.398   4.544   3.866
    1C        C  455   3.539   4.538   3.864
    1C        C  456   3.329   4.539   3.989
    1C        C  457   3.400   4.543   4.111
    1C        C  458   3.194   4.504   4.237
    1C        C  459   3.332   4.534   4.234
    1C        C  460   3.126   4.487   4.359
    1C        C  461   3.191   4.518   4.481
    1C        C  462   2.995   4.440   4.605
    1C        C  463   3.123   4.499   4.604
    1C        C  464   2.930   4.406   4.725
    1C        C  465   2.988   4.453   4.846
    1C        C  466   2.804   4.334   4.960
    1C        C  467   2.908   4.428   4.961
    1C        C  468   4.127   4.289   2.039
    1C        C  469   4.188   4.249   2.158
    1C        C  470   4.009   4.377   2.279
    1C        C  471   4.126   4.295   2.278
    1C        C  472   3.945   4.409   2.401
    1C        C  473   4.008   4.376   2.523
    1C        C  474   3.816   4.469   2.641
    1C        C  475   3.944   4.410   2.644
    1C        C  476   3.747   4.487   2.763
    1C        C  477   3.811   4.464   2.887
    1C        C  478   3.607   4.520   3.012
    1C        C  479   3.746   4.495   3.009
    1C        C  480   3.535   4.526   3.133
    1C        C  481   3.608   4.522   3.254
    1C        C  482   3.397   4.524   3.379
    1C        C  483   3.538   4.533   3.377
    1C        C  484   3.329   4.521   3.503
    1C        C  485   3.400   4.535   3.624
    1C        C  486   3.190   4.495   3.745
    1C        C  487   3.327   4.530   3.745
    1C        C  488   3.125   4.478   3.870
    1C        C  489   3.192   4.503   3.992
    1C        C  490   3.004   4.411   4.118
    1C        C  491   3.127   4.480   4.115
    1C        C  492   2.943   4.378   4.241
    1C        C  493   2.998   4.427   4.362
    1C        C  494   2.823   4.312   4.481
    1C        C  495   2.933   4.401   4.484
    1C        C  496   2.776   4.258   4.603
    1C        C  497   2.820   4.315   4.724
    1C        C  498   2.664   4.167   4.843
    1C        C  499   2.755   4.274   4.843
    1C        C  500   2.594   4.121   4.956
    1C        C  501   4.006   4.358   2.040
    1C        C  502   3.821   4.472   2.158
    1C        C  503   3.946   4.406   2.156
    1C        C  504   3.748   4.487   2.278
    1C        C  505   3.814   4.460   2.400
    1C        C  506   3.606   4.506   2.520
    1C        C  507   3.746   4.489   2.520
    1C        C  508   3.536   4.518   2.643
    1C        C  509   3.608   4.513   2.764
    1C        C  510   3.400   4.517   2.887
    1C        C  511   3.541   4.526   2.887
    1C        C  512   3.326   4.515   3.007
    1C        C  513   3.394   4.524   3.131
    1C        C  514   3.188   4.494   3.255
    1C        C  515   3.327   4.519   3.256
    1C        C  516   3.124   4.471   3.378
    1C        C  517   3.190   4.495   3.501
    1C        C  518   2.998   4.410   3.625
    1C        C  519   3.122   4.478   3.623
    1C        C  520   2.940   4.373   3.749
    1C        C  521   3.001   4.411   3.871
    1C        C  522   2.837   4.284   3.997
    1C        C  523   2.945   4.374   3.995
    1C        C  524   2.782   4.237   4.119
    1C        C  525   2.830   4.294   4.239
    1C        C  526   2.693   4.136   4.363
    1C        C  527   2.777   4.250   4.363
    1C        C  528   2.657   4.077   4.486
    1C        C  529   2.696   4.142   4.605
    1C        C  530   2.590   3.959   4.733
    1C        C  531   2.644   4.090   4.726
    1C        C  532   2.549   3.899   4.856
    1C        C  533   2.531   3.996   4.959
    1C        C  534   3.619   4.558   2.041
    1C        C  535   3.754   4.518   2.044
    1C        C  536   3.539   4.533   2.157
    1C        C  537   3.608   4.513   2.279
    1C        C  538   3.393   4.511   2.401
    1C        C  539   3.534   4.513   2.399
    1C        C  540   3.322   4.506   2.524
    1C        C  541   3.395   4.511   2.645
    1C        C  542   3.187   4.476   2.767
    1C        C  543   3.325   4.508   2.767
    1C        C  544   3.119   4.460   2.890
    1C        C  545   3.188   4.485   3.011
    1C        C  546   2.996   4.403   3.135
    1C        C  547   3.121   4.469   3.134
    1C        C  548   2.939   4.366   3.260
    1C        C  549   2.997   4.408   3.382
    1C        C  550   2.828   4.281   3.504
    1C        C  551   2.935   4.373   3.504
    1C        C  552   2.778   4.235   3.628
    1C        C  553   2.832   4.282   3.749
    1C        C  554   2.699   4.124   3.876
    1C        C  555   2.786   4.235   3.874
    1C        C  556   2.658   4.065   3.998
    1C        C  557   2.692   4.129   4.119
    1C        C  558   2.599   3.942   4.245
    1C        C  559   2.656   4.071   4.243
    1C        C  560   2.573   3.879   4.369
    1C        C  561   2.593   3.951   4.489
    1C        C  562   2.534   3.750   4.616
    1C        C  563   2.573   3.886   4.613
    1C        C  564   2.516   3.682   4.739
    1C        C  565   2.526   3.758   4.859
    1C        C  566   2.542   3.545   4.979
    1C        C  567   2.522   3.683   4.977
    1C        C  568   3.330   4.480   2.041
    1C        C  569   3.399   4.507   2.159
    1C        C  570   3.183   4.472   2.280
    1C        C  571   3.323   4.498   2.279
    1C        C  572   3.116   4.455   2.403
    1C        C  573   3.183   4.486   2.524
    1C        C  574   2.987   4.403   2.650
    1C        C  575   3.115   4.462   2.646
    1C        C  576   2.926   4.363   2.771
    1C        C  577   2.991   4.402   2.891
    1C        C  578   2.828   4.271   3.015
    1C        C  579   2.932   4.367   3.015
    1C        C  580   2.779   4.222   3.138
    1C        C  581   2.831   4.275   3.258
    1C        C  582   2.692   4.119   3.384
    1C        C  583   2.780   4.229   3.382
    1C        C  584   2.659   4.059   3.508
    1C        C  585   2.693   4.121   3.631
    1C        C  586   2.601   3.934   3.756
    1C        C  587   2.662   4.062   3.755
    1C        C  588   2.578   3.870   3.880
    1C        C  589   2.602   3.936   4.003
    1C        C  590   2.534   3.736   4.128
    1C        C  591   2.573   3.872   4.125
    1C        C  592   2.529   3.670   4.253
    1C        C  593   2.536   3.743   4.374
    1C        C  594   2.517   3.534   4.497
    1C        C  595   2.525   3.675   4.497
    1C        C  596   2.522   3.465   4.620
    1C        C  597   2.521   3.540   4.740
    1C        C  598   2.538   3.328   4.861
    1C        C  599   2.534   3.469   4.861
    1C        C  600   2.538   3.252   4.979
    1C        C  601   3.202   4.429   2.045
    1C        C  602   2.983   4.392   2.159
    1C        C  603   3.119   4.438   2.158
    1C        C  604   2.929   4.356   2.285
    1C        C  605   2.989   4.394   2.407
    1C        C  606   2.822   4.265   2.528
    1C        C  607   2.931   4.355   2.529
    1C        C  608   2.768   4.220   2.651
    1C        C  609   2.817   4.274   2.772
    1C        C  610   2.679   4.115   2.899
    1C        C  611   2.770   4.223   2.895
    1C        C  612   2.646   4.055   3.023
    1C        C  613   2.688   4.114   3.144
    1C        C  614   2.590   3.926   3.265
    1C        C  615   2.647   4.056   3.266
    1C        C  616   2.571   3.865   3.392
    1C        C  617   2.597   3.933   3.513
    1C        C  618   2.534   3.731   3.641
    1C        C  619   2.568   3.868   3.635
    1C        C  620   2.521   3.664   3.764
    1C        C  621   2.535   3.736   3.885
    1C        C  622   2.505   3.525   4.010
    1C        C  623   2.525   3.664   4.007
    1C        C  624   2.510   3.455   4.133
    1C        C  625   2.513   3.529   4.254
    1C        C  626   2.531   3.320   4.378
    1C        C  627   2.512   3.460   4.377
    1C        C  628   2.550   3.250   4.500
    1C        C  629   2.541   3.325   4.619
    1C        C  630   2.601   3.121   4.744
    1C        C  631   2.559   3.257   4.741
    1C        C  632   2.620   3.049   4.865
    1C        C  633   2.562   3.114   4.978
    1C        C  634   2.782   4.306   2.056
    1C        C  635   2.895   4.389   2.046
    1C        C  636   2.751   4.227   2.167
    1C        C  637   2.814   4.272   2.285
    1C        C  638   2.676   4.109   2.411
    1C        C  639   2.767   4.217   2.407
    1C        C  640   2.637   4.052   2.534
    1C        C  641   2.679   4.111   2.655
    1C        C  642   2.581   3.925   2.777
    1C        C  643   2.639   4.054   2.778
    1C        C  644   2.555   3.860   2.900
    1C        C  645   2.584   3.928   3.021
    1C        C  646   2.531   3.724   3.149
    1C        C  647   2.562   3.861   3.143
    1C        C  648   2.518   3.659   3.275
    1C        C  649   2.534   3.729   3.396
    1C        C  650   2.515   3.519   3.518
    1C        C  651   2.521   3.660   3.519
    1C        C  652   2.518   3.451   3.642
    1C        C  653   2.518   3.522   3.763
    1C        C  654   2.535   3.315   3.891
    1C        C  655   2.514   3.455   3.888
    1C        C  656   2.554   3.249   4.014
    1C        C  657   2.528   3.315   4.136
    1C        C  658   2.598   3.116   4.260
    1C        C  659   2.542   3.245   4.259
    1C        C  660   2.620   3.048   4.382
    1C        C  661   2.583   3.113   4.502
    1C        C  662   2.708   2.939   4.628
    1C        C  663   2.624   3.052   4.623
    1C        C  664   2.754   2.878   4.747
    1C        C  665   2.703   2.932   4.869
    1C        C  666   2.747   2.868   4.985
    1C        C  667   2.681   4.025   2.054
    1C        C  668   2.679   4.106   2.168
    1C        C  669   2.577   3.919   2.294
    1C        C  670   2.638   4.047   2.290
    1C        C  671   2.549   3.853   2.416
    1C        C  672   2.579   3.923   2.535
    1C        C  673   2.520   3.720   2.663
    1C        C  674   2.553   3.857   2.657
    1C        C  675   2.510   3.649   2.785
    1C        C  676   2.526   3.722   2.905
    1C        C  677   2.503   3.513   3.032
    1C        C  678   2.524   3.653   3.027
    1C        C  679   2.503   3.445   3.156
    1C        C  680   2.507   3.519   3.277
    1C        C  681   2.538   3.307   3.402
    1C        C  682   2.511   3.445   3.398
    1C        C  683   2.558   3.240   3.526
    1C        C  684   2.538   3.311   3.646
    1C        C  685   2.605   3.113   3.774
    1C        C  686   2.555   3.245   3.770
    1C        C  687   2.640   3.052   3.896
    1C        C  688   2.607   3.118   4.017
    1C        C  689   2.717   2.937   4.140
    1C        C  690   2.636   3.054   4.139
    1C        C  691   2.757   2.884   4.264
    1C        C  692   2.707   2.936   4.386
    1C        C  693   2.756   2.884   4.507
    1C        C  694   2.631   3.894   2.062
    1C        C  695   2.524   3.707   2.176
    1C        C  696   2.569   3.841   2.176
    1C        C  697   2.507   3.640   2.299
    1C        C  698   2.514   3.716   2.417
    1C        C  699   2.500   3.509   2.541
    1C        C  700   2.502   3.650   2.541
    1C        C  701   2.499   3.439   2.664
    1C        C  702   2.501   3.508   2.787
    1C        C  703   2.529   3.301   2.913
    1C        C  704   2.509   3.440   2.911
    1C        C  705   2.551   3.236   3.036
    1C        C  706   2.537   3.308   3.157
    1C        C  707   2.598   3.105   3.281
    1C        C  708   2.550   3.238   3.279
    1C        C  709   2.637   3.045   3.403
    1C        C  710   2.606   3.107   3.526
    1C        C  711   2.707   2.927   3.649
    1C        C  712   2.633   3.048   3.651
    1C        C  713   2.759   2.878   3.771
    1C        C  714   2.723   2.937   3.894
    1C        C  715   2.758   2.879   4.018
    1C        C  716   2.445   3.502   2.060
    1C        C  717   2.489   3.635   2.061
    1C        C  718   2.467   3.427   2.180
    1C        C  719   2.485   3.499   2.300
    1C        C  720   2.519   3.291   2.425
    1C        C  721   2.497   3.431   2.423
    1C        C  722   2.539   3.226   2.548
    1C        C  723   2.526   3.300   2.668
    1C        C  724   2.599   3.101   2.792
    1C        C  725   2.547   3.233   2.790
    1C        C  726   2.632   3.037   2.914
    1C        C  727   2.602   3.104   3.035
    1C        C  728   2.709   2.925   3.157
    1C        C  729   2.629   3.041   3.158
    1C        C  730   2.755   2.872   3.280
    1C        C  731   2.718   2.930   3.404
    1C        C  732   2.757   2.875   3.528
    1C        C  733   2.493   3.201   2.073
    1C        C  734   2.493   3.286   2.184
    1C        C  735   2.584   3.088   2.309
    1C        C  736   2.530   3.219   2.304
    1C        C  737   2.619   3.023   2.429
    1C        C  738   2.595   3.097   2.548
    1C        C  739   2.702   2.916   2.669
    1C        C  740   2.629   3.036   2.671
    1C        C  741   2.748   2.860   2.790
    1C        C  742   2.713   2.921   2.912
    1C        C  743   2.754   2.867   3.036
    1C        C  744   2.547   3.072   2.074
    1C        C  745   2.684   2.900   2.187
    1C        C  746   2.614   3.023   2.187
    1C        C  747   2.725   2.838   2.307
    1C        C  748   2.684   2.898   2.428
    1C        C  749   2.737   2.848   2.549
    1C        C  750   2.735   2.840   2.072
    1C        C  751   3.672   2.293   2.010
    1C        O  752   3.726   2.198   2.073
    1C        O  753   3.717   2.298   1.878
    1C        C  754   4.635   3.047   1.995
    1C        O  755   4.603   3.005   1.880
    1C        O  756   4.773   3.065   2.012
    1C        C  757   4.425   4.230   1.958
    1C        O  758   4.515   4.313   1.986
    1C        O  759   4.426   4.193   1.822
    1C        C  760   3.581   4.670   1.952
    1C        O  761   3.615   4.791   1.957
    1C        O  762   3.531   4.637   1.825
    1C        C  763   2.871   4.505   1.958
    1C        O  764   2.909   4.524   1.839
    1C        O  765   2.796   4.613   2.009
    1C        C  766   2.329   3.462   1.977
    1C        O  767   2.346   3.413   1.862
    1C        O  768   2.194   3.486   2.009
    1C        C  769   4.715   3.605   5.036
    1C        O  770   4.716   3.550   5.149
    1C        O  771   4.843   3.606   4.979
    1C        C  772   4.271   4.463   5.037
    1C        O  773   4.277   4.427   5.158
    1C        O  774   4.348   4.575   5.002
    1C        C  775   4.137   2.517   5.068
    1C        O  776   4.199   2.416   5.027
    1C        O  777   4.112   2.518   5.206
    1C        C  778   2.894   4.536   5.062
    1C        O  779   2.868   4.650   5.016
    1C        O  780   2.935   4.525   5.196
    1C        C  781   2.473   3.042   5.072
    1C        O  782   2.366   2.983   5.039
    1C        O  783   2.523   2.998   5.194
    1C        C  784   2.425   3.988   5.061
    1C        O  785   2.305   4.020   5.037
    1C        O  786   2.446   4.012   5.197
    1C        C  787   2.963   2.428   1.989
    1C        O  788   2.932   2.463   1.872
    1C        O  789   2.922   2.304   2.037
    1C        C  790   3.194   2.382   5.075
    1C        O  791   3.174   2.265   5.033
    1C        O  792   3.188   2.390   5.215
    1C        H  793   4.262   3.038   5.044
    1C        H  794   4.187   2.820   5.076
    1C        H  795   4.507   3.127   5.055
    1C        H  796   4.551   3.373   5.062
    1C        H  797   4.485   3.777   5.049
    1C        H  798   4.378   3.947   5.048
    1C        H  799   4.363   4.192   5.038
    1C        H  800   4.035   4.546   5.024
    1C        H  801   3.825   4.634   5.018
    1C        H  802   3.598   4.678   5.013
    1C        H  803   3.397   4.458   5.031
    1C        H  804   3.163   4.452   5.049
    1C        H  805   3.899   2.453   5.049
    1C        H  806   3.683   2.479   5.077
    1C        H  807   2.995   2.548   5.057
    1C        H  808   3.444   2.470   5.078
    1C        H  809   2.887   2.750   5.083
    1C        H  810   2.732   2.915   5.080
    1C        H  811   2.559   3.302   5.071
    1C        H  812   2.599   3.506   5.060
    1C        H  813   2.509   3.729   5.073
    1C        H  814   2.565   4.198   5.025
    1C        H  815   2.788   4.281   5.052
    1C        H  816   2.692   2.863   1.977
    1C        H  817   2.857   2.701   1.976
    1C        H  818   3.212   2.416   2.002
    1C        H  819   3.436   2.449   1.980
    1C        H  820   3.855   2.523   1.968
    1C        H  821   4.082   2.569   1.986
    1C        H  822   4.286   2.694   1.999
    1C        H  823   4.395   2.908   1.968
    1C        H  824   4.614   3.307   1.981
    1C        H  825   4.505   3.508   1.959
    1C        H  826   4.522   3.749   1.960
    1C        H  827   3.816   4.565   1.971
    1C        H  828   3.948   4.344   1.951
    1C        H  829   4.168   4.255   1.946
    1C        H  830   4.474   3.958   1.961
    1C        H  831   2.666   3.822   1.991
    1C        H  832   2.705   4.060   1.956
    1C        H  833   2.723   4.292   1.968
    1C        H  834   3.360   4.525   1.948
    1C        H  835   3.177   4.358   1.968
    1C        H  836   2.530   3.009   1.990
    1C        H  837   2.452   3.226   1.978
    1C        H  838   2.479   3.696   1.973
    2V3OU   H29  839   2.805   3.551   3.966
    2V3OU   C27  840   2.795   3.507   4.068
    2V3OU   H27  841   2.731   3.576   4.130
    2V3OU   H28  842   2.744   3.408   4.057
    2V3OU   O11  843   2.918   3.478   4.133
    2V3OU   C15  844   2.929   3.402   4.248
    2V3OU   C13  845   3.057   3.377   4.303
    2V3OU   C14  846   3.084   3.274   4.393
    2V3OU   C16  847   2.982   3.192   4.442
    2V3OU    H6  848   2.995   3.104   4.507
    2V3OU   C12  849   3.218   3.226   4.433
    2V3OU    O2  850   3.237   3.123   4.501
    2V3OU   C10  851   3.329   3.310   4.385
    2V3OU    C8  852   3.461   3.270   4.407
    2V3OU   O10  853   3.493   3.158   4.476
    2V3OU   H26  854   3.406   3.120   4.498
    2V3OU    C6  855   3.567   3.349   4.352
    2V3OU    C5  856   3.540   3.469   4.289
    2V3OU    C4  857   3.705   3.293   4.361
    2V3OU    H4  858   3.722   3.228   4.453
    2V3OU    H5  859   3.716   3.225   4.271
    2V3OU    C2  860   3.815   3.399   4.357
    2V3OU    O6  861   3.801   3.472   4.480
    2V3OU   H21  862   3.760   3.553   4.446
    2V3OU    C3  863   3.785   3.497   4.244
    2V3OU    H2  864   3.870   3.569   4.226
    2V3OU    H3  865   3.786   3.434   4.151
    2V3OU   C25  866   3.948   3.326   4.342
    2V3OU    O7  867   4.003   3.293   4.237
    2V3OU   C26  868   4.031   3.289   4.463
    2V3OU   H22  869   4.056   3.384   4.518
    2V3OU   H23  870   4.120   3.228   4.432
    2V3OU    O8  871   3.957   3.205   4.549
    2V3OU   H24  872   3.921   3.266   4.615
    2V3OU    C1  873   3.649   3.565   4.252
    2V3OU    H1  874   3.630   3.614   4.152
    2V3OU    O3  875   3.663   3.658   4.359
    2V3OU   C19  876   3.619   3.792   4.332
    2V3OU    H9  877   3.526   3.801   4.270
    2V3OU    O4  878   3.716   3.848   4.246
    2V3OU   C20  879   3.847   3.870   4.300
    2V3OU   H10  880   3.904   3.775   4.324
    2V3OU   C24  881   3.610   3.856   4.471
    2V3OU   H16  882   3.546   3.792   4.537
    2V3OU   H17  883   3.563   3.958   4.460
    2V3OU   C23  884   3.749   3.880   4.529
    2V3OU   H15  885   3.789   3.776   4.553
    2V3OU    N1  886   3.740   3.958   4.651
    2V3OU   H19  887   3.809   3.918   4.713
    2V3OU   H20  888   3.651   3.937   4.691
    2V3OU   C21  889   3.848   3.949   4.431
    2V3OU   H11  890   3.951   3.935   4.475
    2V3OU    O5  891   3.828   4.090   4.433
    2V3OU   H18  892   3.794   4.107   4.523
    2V3OU   C22  893   3.916   3.949   4.191
    2V3OU   H12  894   3.864   4.046   4.171
    2V3OU   H13  895   3.901   3.898   4.093
    2V3OU   H14  896   4.024   3.963   4.218
    2V3OU   C11  897   3.165   3.474   4.281
    2V3OU    O1  898   3.140   3.584   4.227
    2V3OU    C9  899   3.302   3.430   4.314
    2V3OU    C7  900   3.405   3.511   4.268
    2V3OU    O9  901   3.394   3.612   4.174
    2V3OU   H25  902   3.298   3.626   4.170
    2V3OU   C17  903   2.832   3.319   4.307
    2V3OU    H7  904   2.736   3.357   4.269
    2V3OU   C18  905   2.852   3.220   4.402
    2V3OU    H8  906   2.790   3.169   4.477
    3SOL     OW  907   3.138   4.351   5.335
    3SOL    HW1  908   3.081   4.411   5.278
    3SOL    HW2  909   3.170   4.274   5.279
    4SOL     OW  910   6.811   0.611   0.253
    4SOL    HW1  911   6.881   0.598   0.183
    4SOL    HW2  912   6.761   0.695   0.234
    5SOL     OW  913   4.624   1.056   2.270
    5SOL    HW1  914   4.579   1.113   2.201
    5SOL    HW2  915   4.663   0.976   2.226
    6SOL     OW  916   5.770   1.863   3.446
    6SOL    HW1  917   5.764   1.763   3.454
    6SOL    HW2  918   5.844   1.887   3.383
    7SOL     OW  919   1.134   4.293   5.148
    7SOL    HW1  920   1.125   4.237   5.066
    7SOL    HW2  921   1.192   4.373   5.129
    8SOL     OW  922   2.520   2.468   5.561
    8SOL    HW1  923   2.572   2.445   5.479
    8SOL    HW2  924   2.483   2.560   5.553
    9SOL     OW  925   6.982   1.506   6.051
    9SOL    HW1  926   6.968   1.601   6.024
    9SOL    HW2  927   0.049   1.477   6.026
   10SOL     OW  928   4.419   4.737   3.239
   10SOL    HW1  929   4.438   4.779   3.328
   10SOL    HW2  930   4.417   4.637   3.249
   11SOL     OW  931   1.385   0.548   0.303
   11SOL    HW1  932   1.356   0.471   0.360
   11SOL    HW2  933   1.484   0.558   0.308
   12SOL     OW  934   2.740   4.711   3.336
   12SOL    HW1  935   2.746   4.754   3.426
   12SOL    HW2  936   2.675   4.636   3.339
   13SOL     OW  937   3.999   5.925   2.746
   13SOL    HW1  938   4.064   6.000   2.741
   13SOL    HW2  939   4.007   5.880   2.835
   14SOL     OW  940   4.767   4.911   5.809
   14SOL    HW1  941   4.854   4.883   5.770
   14SOL    HW2  942   4.697   4.843   5.789
   15SOL     OW  943   0.504   5.750   6.351
   15SOL    HW1  944   0.495   5.846   6.379
   15SOL    HW2  945   0.456   5.692   6.416
   16SOL     OW  946   5.797   2.832   6.227
   16SOL    HW1  947   5.758   2.887   6.301
   16SOL    HW2  948   5.887   2.867   6.202
   17SOL     OW  949   6.445   0.181   5.883
   17SOL    HW1  950   6.360   0.131   5.902
   17SOL    HW2  951   6.516   0.152   5.947
   18SOL     OW  952   2.936   1.048   5.380
   18SOL    HW1  953   3.019   1.053   5.436
   18SOL    HW2  954   2.946   1.109   5.301
   19SOL     OW  955   1.153   2.136   2.958
   19SOL    HW1  956   1.190   2.228   2.971
   19SOL    HW2  957   1.229   2.070   2.956
   20SOL     OW  958   5.897   2.157   5.833
   20SOL    HW1  959   5.922   2.117   5.744
   20SOL    HW2  960   5.975   2.205   5.871
   21SOL     OW  961   3.508   6.131   2.877
   21SOL    HW1  962   3.482   6.187   2.798
   21SOL    HW2  963   3.562   6.053   2.846
   22SOL     OW  964   1.432   6.238   5.336
   22SOL    HW1  965   1.360   6.173   5.362
   22SOL    HW2  966   1.519   6.190   5.327
   23SOL     OW  967   4.915   5.142   2.219
   23SOL    HW1  968   4.945   5.047   2.217
   23SOL    HW2  969   4.815   5.146   2.221
   24SOL     OW  970   4.055   0.446   1.525
   24SOL    HW1  971   4.064   0.379   1.599
   24SOL    HW2  972   3.963   0.441   1.487
   25SOL     OW  973   3.182   6.994   3.698
   25SOL    HW1  974   3.222   6.981   3.789
   25SOL    HW2  975   3.088   0.003   3.707
   26SOL     OW  976   1.454   2.063   6.532
   26SOL    HW1  977   1.399   1.985   6.561
   26SOL    HW2  978   1.549   2.035   6.523
   27SOL     OW  979   0.229   1.156   2.604
   27SOL    HW1  980   0.132   1.133   2.595
   27SOL    HW2  981   0.240   1.255   2.595
   28SOL     OW  982   1.713   0.795   4.585
   28SOL    HW1  983   1.672   0.778   4.495
   28SOL    HW2  984   1.654   0.757   4.656
   29SOL     OW  985   6.468   0.992   0.722
   29SOL    HW1  986   6.414   1.070   0.690
   29SOL    HW2  987   6.555   0.990   0.674
   30SOL     OW  988   3.493   0.430   4.887
   30SOL    HW1  989   3.446   0.455   4.803
   30SOL    HW2  990   3.550   0.349   4.871
   31SOL     OW  991   0.057   2.360   5.188
   31SOL    HW1  992   0.131   2.427   5.191
   31SOL    HW2  993   0.069   2.301   5.108
   32SOL     OW  994   1.496   1.739   1.473
   32SOL    HW1  995   1.487   1.704   1.379
   32SOL    HW2  996   1.530   1.833   1.470
   33SOL     OW  997   0.475   3.598   5.529
   33SOL    HW1  998   0.423   3.683   5.529
   33SOL    HW2  999   0.492   3.570   5.623
   34SOL     OW 1000   1.422   5.314   5.044
   34SOL    HW1 1001   1.409   5.216   5.030
   34SOL    HW2 1002   1.468   5.330   5.132
   35SOL     OW 1003   3.586   2.569   6.043
   35SOL    HW1 1004   3.615   2.508   6.116
   35SOL    HW2 1005   3.574   2.517   5.959
   36SOL     OW 1006   5.306   1.329   4.066
   36SOL    HW1 1007   5.220   1.360   4.107
   36SOL    HW2 1008   5.366   1.293   4.138
   37SOL     OW 1009   2.383   1.196   2.984
   37SOL    HW1 1010   2.327   1.259   3.038
   37SOL    HW2 1011   2.472   1.238   2.965
   38SOL     OW 1012   2.037   5.087   2.056
   38SOL    HW1 1013   2.109   5.138   2.103
   38SOL    HW2 1014   1.960   5.148   2.035
   39SOL     OW 1015   6.266   4.568   6.849
   39SOL    HW1 1016   6.348   4.516   6.825
   39SOL    HW2 1017   6.229   4.611   6.766
   40SOL     OW 1018   3.637   0.747   6.191
   40SOL    HW1 1019   3.661   0.842   6.210
   40SOL    HW2 1020   3.574   0.713   6.260
   41SOL     OW 1021   5.760   4.041   2.414
   41SOL    HW1 1022   5.721   3.958   2.375
   41SOL    HW2 1023   5.686   4.103   2.441
   42SOL     OW 1024   3.116   5.841   4.889
   42SOL    HW1 1025   3.104   5.862   4.792
   42SOL    HW2 1026   3.062   5.905   4.945
   43SOL     OW 1027   4.079   6.473   4.852
   43SOL    HW1 1028   4.043   6.565   4.833
   43SOL    HW2 1029   4.102   6.428   4.766
   44SOL     OW 1030   6.349   3.093   5.186
   44SOL    HW1 1031   6.386   3.051   5.103
   44SOL    HW2 1032   6.350   3.193   5.176
   45SOL     OW 1033   4.523   5.691   1.199
   45SOL    HW1 1034   4.430   5.726   1.191
   45SOL    HW2 1035   4.588   5.767   1.204
   46SOL     OW 1036   0.571   3.024   4.305
   46SOL    HW1 1037   0.575   3.073   4.218
   46SOL    HW2 1038   0.499   2.955   4.301
   47SOL     OW 1039   5.169   3.699   2.048
   47SOL    HW1 1040   5.135   3.786   2.014
   47SOL    HW2 1041   5.250   3.672   1.996
   48SOL     OW 1042   0.359   3.148   6.566
   48SOL    HW1 1043   0.368   3.059   6.612
   48SOL    HW2 1044   0.437   3.206   6.592
   49SOL     OW 1045   4.859   2.759   0.544
   49SOL    HW1 1046   4.951   2.744   0.581
   49SOL    HW2 1047   4.847   2.856   0.524
   50SOL     OW 1048   6.190   1.824   5.843
   50SOL    HW1 1049   6.182   1.920   5.869
   50SOL    HW2 1050   6.246   1.776   5.910
   51SOL     OW 1051   2.308   4.806   2.658
   51SOL    HW1 1052   2.281   4.816   2.562
   51SOL    HW2 1053   2.406   4.787   2.664
   52SOL     OW 1054   5.616   2.853   1.750
   52SOL    HW1 1055   5.677   2.785   1.710
   52SOL    HW2 1056   5.666   2.905   1.819
   53SOL     OW 1057   5.244   0.010   3.338
   53SOL    HW1 1058   5.309   6.982   3.393
   53SOL    HW2 1059   5.156   0.015   3.387
   54SOL     OW 1060   5.619   6.264   0.443
   54SOL    HW1 1061   5.588   6.345   0.393
   54SOL    HW2 1062   5.628   6.286   0.540
   55SOL     OW 1063   2.304   2.718   6.560
   55SOL    HW1 1064   2.329   2.792   6.624
   55SOL    HW2 1065   2.214   2.736   6.522
   56SOL     OW 1066   1.487   1.924   0.587
   56SOL    HW1 1067   1.404   1.979   0.587
   56SOL    HW2 1068   1.539   1.944   0.503
   57SOL     OW 1069   3.228   0.432   6.817
   57SOL    HW1 1070   3.294   0.406   6.746
   57SOL    HW2 1071   3.271   0.494   6.882
   58SOL     OW 1072   0.708   0.679   6.340
   58SOL    HW1 1073   0.743   0.689   6.433
   58SOL    HW2 1074   0.635   0.611   6.339
   59SOL     OW 1075   6.274   3.790   6.552
   59SOL    HW1 1076   6.277   3.762   6.457
   59SOL    HW2 1077   6.365   3.819   6.582
   60SOL     OW 1078   5.997   0.868   3.579
   60SOL    HW1 1079   5.899   0.869   3.557
   60SOL    HW2 1080   6.039   0.788   3.536
   61SOL     OW 1081   0.647   1.267   4.207
   61SOL    HW1 1082   0.565   1.287   4.261
   61SOL    HW2 1083   0.716   1.226   4.266
   62SOL     OW 1084   1.208   1.475   2.025
   62SOL    HW1 1085   1.166   1.554   1.981
   62SOL    HW2 1086   1.202   1.395   1.965
   63SOL     OW 1087   4.060   6.724   3.993
   63SOL    HW1 1088   4.142   6.679   3.958
   63SOL    HW2 1089   4.082   6.774   4.076
   64SOL     OW 1090   1.088   3.439   6.813
   64SOL    HW1 1091   1.100   3.339   6.818
   64SOL    HW2 1092   1.087   3.477   6.905
   65SOL     OW 1093   0.629   0.361   5.325
   65SOL    HW1 1094   0.577   0.281   5.294
   65SOL    HW2 1095   0.710   0.372   5.267
   66SOL     OW 1096   3.591   0.010   2.547
   66SOL    HW1 1097   3.504   0.056   2.528
   66SOL    HW2 1098   3.588   6.992   2.637
   67SOL     OW 1099   0.428   2.826   0.445
   67SOL    HW1 1100   0.455   2.730   0.438
   67SOL    HW2 1101   0.328   2.832   0.453
   68SOL     OW 1102   0.456   1.496   5.576
   68SOL    HW1 1103   0.479   1.527   5.669
   68SOL    HW2 1104   0.455   1.575   5.515
   69SOL     OW 1105   1.136   5.094   6.152
   69SOL    HW1 1106   1.112   5.103   6.248
   69SOL    HW2 1107   1.134   4.997   6.126
   70SOL     OW 1108   5.342   3.884   4.990
   70SOL    HW1 1109   5.328   3.931   5.078
   70SOL    HW2 1110   5.439   3.873   4.973
   71SOL     OW 1111   4.639   1.835   4.477
   71SOL    HW1 1112   4.710   1.844   4.547
   71SOL    HW2 1113   4.648   1.910   4.411
   72SOL     OW 1114   0.379   0.806   3.192
   72SOL    HW1 1115   0.474   0.832   3.178
   72SOL    HW2 1116   0.345   0.848   3.276
   73SOL     OW 1117   2.739   0.928   0.297
   73SOL    HW1 1118   2.749   0.829   0.302
   73SOL    HW2 1119   2.772   0.961   0.209
   74SOL     OW 1120   2.146   1.603   6.217
   74SOL    HW1 1121   2.139   1.637   6.311
   74SOL    HW2 1122   2.122   1.506   6.214
   75SOL     OW 1123   4.436   1.311   1.050
   75SOL    HW1 1124   4.377   1.345   1.123
   75SOL    HW2 1125   4.381   1.271   0.978
   76SOL     OW 1126   2.689   4.434   5.856
   76SOL    HW1 1127   2.633   4.467   5.932
   76SOL    HW2 1128   2.784   4.426   5.885
   77SOL     OW 1129   1.881   5.457   4.082
   77SOL    HW1 1130   1.904   5.541   4.130
   77SOL    HW2 1131   1.841   5.478   3.994
   78SOL     OW 1132   4.200   1.709   1.375
   78SOL    HW1 1133   4.272   1.754   1.428
   78SOL    HW2 1134   4.111   1.737   1.410
   79SOL     OW 1135   2.413   5.332   1.768
   79SOL    HW1 1136   2.395   5.319   1.866
   79SOL    HW2 1137   2.381   5.251   1.718
   80SOL     OW 1138   4.713   2.320   5.051
   80SOL    HW1 1139   4.711   2.229   5.010
   80SOL    HW2 1140   4.623   2.363   5.042
   81SOL     OW 1141   1.747   0.314   0.863
   81SOL    HW1 1142   1.777   0.357   0.949
   81SOL    HW2 1143   1.790   0.362   0.786
   82SOL     OW 1144   0.717   6.178   2.465
   82SOL    HW1 1145   0.623   6.204   2.486
   82SOL    HW2 1146   0.747   6.223   2.381
   83SOL     OW 1147   6.691   2.179   5.579
   83SOL    HW1 1148   6.742   2.250   5.530
   83SOL    HW2 1149   6.756   2.115   5.621
   84SOL     OW 1150   5.839   2.723   3.794
   84SOL    HW1 1151   5.849   2.644   3.854
   84SOL    HW2 1152   5.919   2.782   3.803
   85SOL     OW 1153   1.849   6.838   3.980
   85SOL    HW1 1154   1.806   6.881   3.900
   85SOL    HW2 1155   1.902   6.907   4.030
   86SOL     OW 1156   5.781   1.269   6.622
   86SOL    HW1 1157   5.859   1.247   6.681
   86SOL    HW2 1158   5.775   1.201   6.548
   87SOL     OW 1159   4.213   4.534   6.726
   87SOL    HW1 1160   4.296   4.570   6.768
   87SOL    HW2 1161   4.192   4.586   6.643
   88SOL     OW 1162   3.018   2.192   5.516
   88SOL    HW1 1163   2.988   2.273   5.566
   88SOL    HW2 1164   2.995   2.203   5.419
   89SOL     OW 1165   2.835   3.509   1.879
   89SOL    HW1 1166   2.766   3.459   1.827
   89SOL    HW2 1167   2.846   3.601   1.843
   90SOL     OW 1168   4.733   4.063   3.188
   90SOL    HW1 1169   4.768   3.993   3.125
   90SOL    HW2 1170   4.810   4.110   3.232
   91SOL     OW 1171   6.515   5.970   6.069
   91SOL    HW1 1172   6.489   6.060   6.036
   91SOL    HW2 1173   6.487   5.901   6.002
   92SOL     OW 1174   5.176   4.085   0.276
   92SOL    HW1 1175   5.111   4.156   0.301
   92SOL    HW2 1176   5.267   4.109   0.311
   93SOL     OW 1177   3.182   3.013   0.776
   93SOL    HW1 1178   3.235   2.929   0.789
   93SOL    HW2 1179   3.088   2.998   0.808
   94SOL     OW 1180   2.634   0.285   6.289
   94SOL    HW1 1181   2.660   0.376   6.258
   94SOL    HW2 1182   2.537   0.284   6.313
   95SOL     OW 1183   0.652   0.453   4.727
   95SOL    HW1 1184   0.559   0.489   4.717
   95SOL    HW2 1185   0.675   0.445   4.824
   96SOL     OW 1186   4.964   5.386   0.198
   96SOL    HW1 1187   5.049   5.345   0.231
   96SOL    HW2 1188   4.950   5.361   0.102
   97SOL     OW 1189   2.058   4.929   5.376
   97SOL    HW1 1190   2.035   4.902   5.469
   97SOL    HW2 1191   2.115   5.011   5.377
   98SOL     OW 1192   0.623   2.688   1.775
   98SOL    HW1 1193   0.570   2.698   1.859
   98SOL    HW2 1194   0.668   2.599   1.774
   99SOL     OW 1195   4.009   3.834   3.199
   99SOL    HW1 1196   3.968   3.874   3.118
   99SOL    HW2 1197   3.976   3.740   3.211
  100SOL     OW 1198   0.030   6.635   3.927
  100SOL    HW1 1199   0.031   6.684   3.840
  100SOL    HW2 1200   6.991   6.679   3.990
  101SOL     OW 1201   0.544   4.895   2.426
  101SOL    HW1 1202   0.498   4.923   2.509
  101SOL    HW2 1203   0.477   4.864   2.359
  102SOL     OW 1204   2.630   6.366   2.084
  102SOL    HW1 1205   2.677   6.300   2.026
  102SOL    HW2 1206   2.554   6.321   2.131
  103SOL     OW 1207   2.272   1.059   2.448
  103SOL    HW1 1208   2.347   1.016   2.398
  103SOL    HW2 1209   2.308   1.117   2.521
  104SOL     OW 1210   0.864   4.375   2.202
  104SOL    HW1 1211   0.949   4.392   2.152
  104SOL    HW2 1212   0.812   4.460   2.208
  105SOL     OW 1213   5.906   1.554   6.891
  105SOL    HW1 1214   5.868   1.484   6.951
  105SOL    HW2 1215   5.832   1.607   6.849
  106SOL     OW 1216   4.905   5.045   1.475
  106SOL    HW1 1217   4.934   5.133   1.514
  106SOL    HW2 1218   4.984   4.985   1.465
  107SOL     OW 1219   6.765   1.205   0.039
  107SOL    HW1 1220   6.828   1.260   7.007
  107SOL    HW2 1221   6.774   1.109   0.014
  108SOL     OW 1222   2.701   0.469   4.792
  108SOL    HW1 1223   2.696   0.517   4.705
  108SOL    HW2 1224   2.617   0.418   4.807
  109SOL     OW 1225   3.668   0.761   2.424
  109SOL    HW1 1226   3.590   0.819   2.403
  109SOL    HW2 1227   3.697   0.714   2.341
  110SOL     OW 1228   2.368   4.486   5.239
  110SOL    HW1 1229   2.334   4.466   5.331
  110SOL    HW2 1230   2.346   4.580   5.214
  111SOL     OW 1231   6.578   1.788   2.703
  111SOL    HW1 1232   6.525   1.867   2.732
  111SOL    HW2 1233   6.668   1.818   2.670
  112SOL     OW 1234   3.936   6.123   6.681
  112SOL    HW1 1235   3.983   6.211   6.667
  112SOL    HW2 1236   3.838   6.135   6.666
  113SOL     OW 1237   6.278   5.481   2.753
  113SOL    HW1 1238   6.366   5.465   2.798
  113SOL    HW2 1239   6.294   5.524   2.664
  114SOL     OW 1240   1.323   4.574   3.425
  114SOL    HW1 1241   1.315   4.505   3.353
  114SOL    HW2 1242   1.418   4.604   3.431
  115SOL     OW 1243   5.932   1.202   3.281
  115SOL    HW1 1244   5.929   1.159   3.371
  115SOL    HW2 1245   5.925   1.301   3.290
  116SOL     OW 1246   0.622   6.099   1.425
  116SOL    HW1 1247   0.660   6.062   1.510
  116SOL    HW2 1248   0.630   6.198   1.425
  117SOL     OW 1249   3.393   1.565   0.031
  117SOL    HW1 1250   3.465   1.597   6.994
  117SOL    HW2 1251   3.304   1.594   7.020
  118SOL     OW 1252   1.045   1.351   3.500
  118SOL    HW1 1253   1.015   1.255   3.502
  118SOL    HW2 1254   1.060   1.383   3.593
  119SOL     OW 1255   6.910   6.825   0.057
  119SOL    HW1 1256   6.956   6.866   0.136
  119SOL    HW2 1257   6.901   6.892   7.008
  120SOL     OW 1258   4.624   0.754   5.359
  120SOL    HW1 1259   4.662   0.846   5.365
  120SOL    HW2 1260   4.527   0.759   5.338
  121SOL     OW 1261   1.464   3.806   6.920
  121SOL    HW1 1262   1.426   3.887   6.964
  121SOL    HW2 1263   1.544   3.832   6.865
  122SOL     OW 1264   1.006   4.593   0.342
  122SOL    HW1 1265   0.980   4.685   0.371
  122SOL    HW2 1266   1.101   4.595   0.311
  123SOL     OW 1267   1.118   0.745   1.816
  123SOL    HW1 1268   1.151   0.669   1.871
  123SOL    HW2 1269   1.025   0.724   1.783
  124SOL     OW 1270   3.053   2.690   0.805
  124SOL    HW1 1271   3.026   2.776   0.849
  124SOL    HW2 1272   3.046   2.615   0.871
  125SOL     OW 1273   3.494   2.581   6.872
  125SOL    HW1 1274   3.411   2.634   6.888
  125SOL    HW2 1275   3.564   2.606   6.939
  126SOL     OW 1276   3.244   2.962   2.687
  126SOL    HW1 1277   3.285   2.978   2.598
  126SOL    HW2 1278   3.150   2.931   2.676
  127SOL     OW 1279   6.599   6.077   5.645
  127SOL    HW1 1280   6.640   5.987   5.660
  127SOL    HW2 1281   6.500   6.067   5.637
  128SOL     OW 1282   4.901   3.409   1.989
  128SOL    HW1 1283   4.864   3.361   1.910
  128SOL    HW2 1284   4.986   3.365   2.019
  129SOL     OW 1285   2.095   5.408   0.831
  129SOL    HW1 1286   2.138   5.396   0.920
  129SOL    HW2 1287   2.166   5.411   0.760
  130SOL     OW 1288   5.807   1.935   4.565
  130SOL    HW1 1289   5.827   1.843   4.600
  130SOL    HW2 1290   5.863   2.002   4.614
  131SOL     OW 1291   6.471   1.259   3.986
  131SOL    HW1 1292   6.398   1.257   4.054
  131SOL    HW2 1293   6.434   1.290   3.899
  132SOL     OW 1294   3.198   3.870   1.578
  132SOL    HW1 1295   3.192   3.884   1.677
  132SOL    HW2 1296   3.167   3.778   1.555
  133SOL     OW 1297   5.488   0.543   4.567
  133SOL    HW1 1298   5.418   0.570   4.632
  133SOL    HW2 1299   5.445   0.518   4.480
  134SOL     OW 1300   6.351   0.582   2.325
  134SOL    HW1 1301   6.433   0.617   2.371
  134SOL    HW2 1302   6.318   0.650   2.259
  135SOL     OW 1303   4.920   3.366   4.293
  135SOL    HW1 1304   5.015   3.347   4.269
  135SOL    HW2 1305   4.913   3.382   4.391
  136SOL     OW 1306   2.472   5.765   5.042
  136SOL    HW1 1307   2.428   5.854   5.039
  136SOL    HW2 1308   2.478   5.734   5.137
  137SOL     OW 1309   3.697   1.813   4.656
  137SOL    HW1 1310   3.789   1.852   4.659
  137SOL    HW2 1311   3.630   1.887   4.661
  138SOL     OW 1312   0.818   5.325   3.976
  138SOL    HW1 1313   0.787   5.269   3.899
  138SOL    HW2 1314   0.905   5.369   3.951
  139SOL     OW 1315   2.034   5.341   6.635
  139SOL    HW1 1316   1.998   5.384   6.552
  139SOL    HW2 1317   1.974   5.362   6.712
  140SOL     OW 1318   2.345   0.514   3.016
  140SOL    HW1 1319   2.347   0.416   3.035
  140SOL    HW2 1320   2.388   0.564   3.091
  141SOL     OW 1321   6.577   3.682   6.902
  141SOL    HW1 1322   6.589   3.659   6.998
  141SOL    HW2 1323   6.511   3.757   6.893
  142SOL     OW 1324   1.130   4.277   1.787
  142SOL    HW1 1325   1.167   4.185   1.798
  142SOL    HW2 1326   1.138   4.305   1.692
  143SOL     OW 1327   5.750   6.281   1.506
  143SOL    HW1 1328   5.770   6.377   1.529
  143SOL    HW2 1329   5.831   6.239   1.466
  144SOL     OW 1330   2.918   4.769   3.937
  144SOL    HW1 1331   2.928   4.833   3.861
  144SOL    HW2 1332   2.951   4.811   4.021
  145SOL     OW 1333   6.755   4.734   2.733
  145SOL    HW1 1334   6.758   4.834   2.737
  145SOL    HW2 1335   6.707   4.706   2.649
  146SOL     OW 1336   6.106   1.456   5.929
  146SOL    HW1 1337   6.045   1.511   5.986
  146SOL    HW2 1338   6.083   1.469   5.833
  147SOL     OW 1339   5.350   1.488   5.068
  147SOL    HW1 1340   5.442   1.520   5.047
  147SOL    HW2 1341   5.317   1.533   5.151
  148SOL     OW 1342   1.055   4.661   1.350
  148SOL    HW1 1343   1.094   4.751   1.330
  148SOL    HW2 1344   1.026   4.659   1.446
  149SOL     OW 1345   2.450   2.113   5.145
  149SOL    HW1 1346   2.397   2.191   5.178
  149SOL    HW2 1347   2.548   2.131   5.161
  150SOL     OW 1348   3.970   1.864   5.487
  150SOL    HW1 1349   3.956   1.860   5.388
  150SOL    HW2 1350   3.899   1.811   5.533
  151SOL     OW 1351   3.974   1.600   0.738
  151SOL    HW1 1352   3.879   1.568   0.745
  151SOL    HW2 1353   3.975   1.700   0.749
  152SOL     OW 1354   0.994   1.523   7.018
  152SOL    HW1 1355   0.961   1.513   6.924
  152SOL    HW2 1356   1.042   1.611   0.002
  153SOL     OW 1357   2.976   1.032   3.393
  153SOL    HW1 1358   2.925   1.043   3.478
  153SOL    HW2 1359   2.912   1.029   3.316
  154SOL     OW 1360   6.639   1.913   1.121
  154SOL    HW1 1361   6.597   1.852   1.053
  154SOL    HW2 1362   6.703   1.860   1.178
  155SOL     OW 1363   0.162   0.196   1.973
  155SOL    HW1 1364   0.172   0.280   1.920
  155SOL    HW2 1365   0.120   0.216   2.061
  156SOL     OW 1366   4.666   0.751   0.295
  156SOL    HW1 1367   4.574   0.761   0.258
  156SOL    HW2 1368   4.698   0.657   0.280
  157SOL     OW 1369   5.394   3.540   0.560
  157SOL    HW1 1370   5.357   3.608   0.623
  157SOL    HW2 1371   5.411   3.582   0.471
  158SOL     OW 1372   1.604   2.751   2.443
  158SOL    HW1 1373   1.669   2.698   2.498
  158SOL    HW2 1374   1.628   2.848   2.447
  159SOL     OW 1375   4.845   4.940   0.708
  159SOL    HW1 1376   4.807   4.854   0.674
  159SOL    HW2 1377   4.786   4.975   0.781
  160SOL     OW 1378   5.581   0.719   0.715
  160SOL    HW1 1379   5.610   0.741   0.622
  160SOL    HW2 1380   5.541   0.627   0.716
  161SOL     OW 1381   0.876   6.615   0.734
  161SOL    HW1 1382   0.961   6.564   0.742
  161SOL    HW2 1383   0.887   6.688   0.666
  162SOL     OW 1384   2.219   5.963   0.175
  162SOL    HW1 1385   2.146   5.938   0.110
  162SOL    HW2 1386   2.283   5.887   0.183
  163SOL     OW 1387   6.618   5.091   3.284
  163SOL    HW1 1388   6.634   5.107   3.186
  163SOL    HW2 1389   6.520   5.078   3.300
  164SOL     OW 1390   1.646   1.804   3.139
  164SOL    HW1 1391   1.563   1.860   3.148
  164SOL    HW2 1392   1.678   1.807   3.044
  165SOL     OW 1393   0.474   5.459   2.693
  165SOL    HW1 1394   0.544   5.510   2.742
  165SOL    HW2 1395   0.486   5.470   2.594
  166SOL     OW 1396   5.954   3.717   1.429
  166SOL    HW1 1397   5.855   3.702   1.437
  166SOL    HW2 1398   5.977   3.807   1.467
  167SOL     OW 1399   5.225   1.929   7.022
  167SOL    HW1 1400   5.302   1.880   0.038
  167SOL    HW2 1401   5.219   1.905   6.925
  168SOL     OW 1402   4.176   3.341   1.728
  168SOL    HW1 1403   4.091   3.327   1.778
  168SOL    HW2 1404   4.238   3.264   1.744
  169SOL     OW 1405   6.105   3.365   0.551
  169SOL    HW1 1406   6.021   3.330   0.511
  169SOL    HW2 1407   6.184   3.332   0.499
  170SOL     OW 1408   1.417   5.347   2.544
  170SOL    HW1 1409   1.485   5.289   2.499
  170SOL    HW2 1410   1.337   5.292   2.568
  171SOL     OW 1411   1.759   3.161   0.323
  171SOL    HW1 1412   1.767   3.213   0.408
  171SOL    HW2 1413   1.800   3.212   0.248
  172SOL     OW 1414   5.801   1.934   1.628
  172SOL    HW1 1415   5.767   1.850   1.670
  172SOL    HW2 1416   5.767   2.013   1.679
  173SOL     OW 1417   6.093   0.964   5.603
  173SOL    HW1 1418   6.011   0.941   5.655
  173SOL    HW2 1419   6.152   1.024   5.658
  174SOL     OW 1420   5.532   5.576   5.369
  174SOL    HW1 1421   5.600   5.503   5.368
  174SOL    HW2 1422   5.538   5.626   5.456
  175SOL     OW 1423   1.786   1.024   0.655
  175SOL    HW1 1424   1.803   1.081   0.574
  175SOL    HW2 1425   1.709   1.063   0.706
  176SOL     OW 1426   4.522   4.799   2.862
  176SOL    HW1 1427   4.607   4.764   2.825
  176SOL    HW2 1428   4.480   4.730   2.921
  177SOL     OW 1429   5.086   1.773   4.574
  177SOL    HW1 1430   5.160   1.756   4.638
  177SOL    HW2 1431   5.036   1.855   4.602
  178SOL     OW 1432   2.359   5.415   4.890
  178SOL    HW1 1433   2.273   5.365   4.881
  178SOL    HW2 1434   2.428   5.374   4.831
  179SOL     OW 1435   4.198   5.461   0.163
  179SOL    HW1 1436   4.158   5.535   0.217
  179SOL    HW2 1437   4.279   5.494   0.116
  180SOL     OW 1438   4.022   6.698   1.002
  180SOL    HW1 1439   4.071   6.719   1.086
  180SOL    HW2 1440   3.940   6.646   1.023
  181SOL     OW 1441   3.006   2.529   5.330
  181SOL    HW1 1442   2.920   2.521   5.279
  181SOL    HW2 1443   3.075   2.470   5.288
  182SOL     OW 1444   5.184   3.397   7.014
  182SOL    HW1 1445   5.104   3.427   6.962
  182SOL    HW2 1446   5.227   3.320   6.967
  183SOL     OW 1447   3.693   2.109   4.552
  183SOL    HW1 1448   3.709   2.131   4.648
  183SOL    HW2 1449   3.599   2.131   4.528
  184SOL     OW 1450   0.852   6.045   3.530
  184SOL    HW1 1451   0.848   5.982   3.453
  184SOL    HW2 1452   0.837   5.995   3.615
  185SOL     OW 1453   0.524   1.812   4.299
  185SOL    HW1 1454   0.474   1.836   4.216
  185SOL    HW2 1455   0.467   1.828   4.379
  186SOL     OW 1456   5.589   5.919   4.546
  186SOL    HW1 1457   5.635   5.967   4.471
  186SOL    HW2 1458   5.649   5.846   4.580
  187SOL     OW 1459   4.283   5.630   2.561
  187SOL    HW1 1460   4.238   5.541   2.566
  187SOL    HW2 1461   4.382   5.619   2.573
  188SOL     OW 1462   2.227   1.991   3.186
  188SOL    HW1 1463   2.282   2.070   3.160
  188SOL    HW2 1464   2.155   1.976   3.119
  189SOL     OW 1465   5.949   5.594   6.758
  189SOL    HW1 1466   6.037   5.550   6.744
  189SOL    HW2 1467   5.876   5.528   6.741
  190SOL     OW 1468   6.315   5.561   6.977
  190SOL    HW1 1469   6.382   5.505   0.000
  190SOL    HW2 1470   6.351   5.654   6.966
  191SOL     OW 1471   6.974   1.174   5.884
  191SOL    HW1 1472   6.985   1.249   5.948
  191SOL    HW2 1473   0.035   1.158   5.835
  192SOL     OW 1474   0.249   4.436   1.621
  192SOL    HW1 1475   0.240   4.529   1.584
  192SOL    HW2 1476   0.181   4.377   1.579
  193SOL     OW 1477   3.513   4.579   5.970
  193SOL    HW1 1478   3.536   4.651   6.037
  193SOL    HW2 1479   3.566   4.594   5.886
  194SOL     OW 1480   4.012   6.697   1.873
  194SOL    HW1 1481   3.989   6.768   1.939
  194SOL    HW2 1482   4.078   6.732   1.807
  195SOL     OW 1483   3.202   0.704   2.436
  195SOL    HW1 1484   3.262   0.644   2.384
  195SOL    HW2 1485   3.150   0.649   2.502
  196SOL     OW 1486   2.243   1.273   6.573
  196SOL    HW1 1487   2.197   1.334   6.509
  196SOL    HW2 1488   2.216   1.179   6.555
  197SOL     OW 1489   1.942   6.175   6.564
  197SOL    HW1 1490   1.925   6.272   6.547
  197SOL    HW2 1491   1.946   6.158   6.662
  198SOL     OW 1492   4.289   5.881   0.928
  198SOL    HW1 1493   4.222   5.865   0.855
  198SOL    HW2 1494   4.373   5.831   0.907
  199SOL     OW 1495   5.973   0.907   2.134
  199SOL    HW1 1496   5.912   0.986   2.138
  199SOL    HW2 1497   5.947   0.849   2.056
  200SOL     OW 1498   1.218   2.854   2.178
  200SOL    HW1 1499   1.243   2.917   2.252
  200SOL    HW2 1500   1.226   2.759   2.211
  201SOL     OW 1501   2.383   1.007   6.570
  201SOL    HW1 1502   2.413   0.993   6.476
  201SOL    HW2 1503   2.446   1.069   6.617
  202SOL     OW 1504   5.170   6.756   4.275
  202SOL    HW1 1505   5.078   6.736   4.310
  202SOL    HW2 1506   5.223   6.803   4.346
  203SOL     OW 1507   5.454   2.813   6.101
  203SOL    HW1 1508   5.368   2.765   6.121
  203SOL    HW2 1509   5.530   2.750   6.109
  204SOL     OW 1510   0.620   6.862   0.325
  204SOL    HW1 1511   0.698   6.802   0.342
  204SOL    HW2 1512   0.607   6.872   0.226
  205SOL     OW 1513   0.549   1.771   0.884
  205SOL    HW1 1514   0.630   1.776   0.943
  205SOL    HW2 1515   0.484   1.706   0.923
  206SOL     OW 1516   0.932   4.263   1.179
  206SOL    HW1 1517   0.925   4.345   1.121
  206SOL    HW2 1518   0.907   4.288   1.273
  207SOL     OW 1519   4.194   0.210   5.329
  207SOL    HW1 1520   4.098   0.223   5.302
  207SOL    HW2 1521   4.220   0.280   5.395
  208SOL     OW 1522   5.295   4.541   5.995
  208SOL    HW1 1523   5.220   4.475   5.985
  208SOL    HW2 1524   5.283   4.592   6.080
  209SOL     OW 1525   0.475   6.207   5.746
  209SOL    HW1 1526   0.433   6.175   5.661
  209SOL    HW2 1527   0.569   6.236   5.729
  210SOL     OW 1528   4.195   2.269   1.871
  210SOL    HW1 1529   4.121   2.218   1.826
  210SOL    HW2 1530   4.198   2.362   1.835
  211SOL     OW 1531   1.100   1.195   2.669
  211SOL    HW1 1532   1.119   1.100   2.693
  211SOL    HW2 1533   1.184   1.249   2.679
  212SOL     OW 1534   1.247   4.811   3.169
  212SOL    HW1 1535   1.232   4.906   3.141
  212SOL    HW2 1536   1.316   4.770   3.108
  213SOL     OW 1537   4.898   1.487   6.614
  213SOL    HW1 1538   4.927   1.393   6.602
  213SOL    HW2 1539   4.968   1.549   6.579
  214SOL     OW 1540   1.283   6.443   3.452
  214SOL    HW1 1541   1.334   6.358   3.437
  214SOL    HW2 1542   1.322   6.492   3.529
  215SOL     OW 1543   3.659   3.019   1.883
  215SOL    HW1 1544   3.643   3.061   1.972
  215SOL    HW2 1545   3.576   2.973   1.852
  216SOL     OW 1546   1.464   6.956   4.943
  216SOL    HW1 1547   1.464   0.008   4.878
  216SOL    HW2 1548   1.369   6.932   4.966
  217SOL     OW 1549   1.830   2.557   4.292
  217SOL    HW1 1550   1.765   2.538   4.218
  217SOL    HW2 1551   1.891   2.479   4.303
  218SOL     OW 1552   1.514   2.411   4.378
  218SOL    HW1 1553   1.461   2.379   4.299
  218SOL    HW2 1554   1.510   2.342   4.451
  219SOL     OW 1555   3.726   3.922   0.023
  219SOL    HW1 1556   3.746   3.975   0.106
  219SOL    HW2 1557   3.697   3.983   6.975
  220SOL     OW 1558   2.441   6.126   0.103
  220SOL    HW1 1559   2.381   6.079   0.168
  220SOL    HW2 1560   2.387   6.163   0.028
  221SOL     OW 1561   5.583   3.657   3.859
  221SOL    HW1 1562   5.672   3.635   3.821
  221SOL    HW2 1563   5.588   3.655   3.959
  222SOL     OW 1564   1.272   5.441   5.277
  222SOL    HW1 1565   1.212   5.513   5.313
  222SOL    HW2 1566   1.229   5.398   5.197
  223SOL     OW 1567   0.142   3.813   1.427
  223SOL    HW1 1568   0.116   3.895   1.477
  223SOL    HW2 1569   0.086   3.736   1.456
  224SOL     OW 1570   2.576   2.495   2.975
  224SOL    HW1 1571   2.492   2.489   2.921
  224SOL    HW2 1572   2.622   2.406   2.975
  225SOL     OW 1573   5.972   0.973   0.077
  225SOL    HW1 1574   6.050   0.911   0.075
  225SOL    HW2 1575   5.994   1.051   0.137
  226SOL     OW 1576   0.741   0.449   0.759
  226SOL    HW1 1577   0.762   0.504   0.678
  226SOL    HW2 1578   0.777   0.494   0.841
  227SOL     OW 1579   1.512   3.750   3.388
  227SOL    HW1 1580   1.447   3.687   3.430
  227SOL    HW2 1581   1.560   3.802   3.460
  228SOL     OW 1582   3.884   6.940   4.551
  228SOL    HW1 1583   3.832   6.926   4.635
  228SOL    HW2 1584   3.979   6.960   4.573
  229SOL     OW 1585   5.920   5.873   1.393
  229SOL    HW1 1586   5.836   5.818   1.400
  229SOL    HW2 1587   5.997   5.814   1.373
  230SOL     OW 1588   1.903   3.976   4.102
  230SOL    HW1 1589   1.863   4.013   4.018
  230SOL    HW2 1590   1.942   3.886   4.083
  231SOL     OW 1591   6.473   3.166   6.448
  231SOL    HW1 1592   6.547   3.127   6.392
  231SOL    HW2 1593   6.400   3.099   6.458
  232SOL     OW 1594   1.310   3.195   6.439
  232SOL    HW1 1595   1.369   3.236   6.370
  232SOL    HW2 1596   1.365   3.169   6.519
  233SOL     OW 1597   2.369   0.624   5.146
  233SOL    HW1 1598   2.375   0.534   5.189
  233SOL    HW2 1599   2.383   0.695   5.215
  234SOL     OW 1600   2.315   4.621   6.500
  234SOL    HW1 1601   2.402   4.658   6.466
  234SOL    HW2 1602   2.260   4.590   6.424
  235SOL     OW 1603   3.561   3.656   3.589
  235SOL    HW1 1604   3.641   3.675   3.647
  235SOL    HW2 1605   3.591   3.645   3.494
  236SOL     OW 1606   6.609   3.156   6.720
  236SOL    HW1 1607   6.647   3.096   6.649
  236SOL    HW2 1608   6.684   3.193   6.776
  237SOL     OW 1609   0.166   6.444   1.074
  237SOL    HW1 1610   0.186   6.529   1.025
  237SOL    HW2 1611   0.220   6.440   1.158
  238SOL     OW 1612   5.421   3.800   1.602
  238SOL    HW1 1613   5.339   3.744   1.614
  238SOL    HW2 1614   5.476   3.797   1.685
  239SOL     OW 1615   7.002   5.693   7.008
  239SOL    HW1 1616   6.989   5.596   0.004
  239SOL    HW2 1617   6.923   5.726   6.956
  240SOL     OW 1618   0.838   3.577   6.190
  240SOL    HW1 1619   0.746   3.547   6.165
  240SOL    HW2 1620   0.883   3.506   6.244
  241SOL     OW 1621   0.541   1.271   3.623
  241SOL    HW1 1622   0.613   1.338   3.640
  241SOL    HW2 1623   0.581   1.190   3.579
  242SOL     OW 1624   1.252   3.075   5.255
  242SOL    HW1 1625   1.345   3.050   5.283
  242SOL    HW2 1626   1.232   3.031   5.167
  243SOL     OW 1627   4.636   0.419   6.038
  243SOL    HW1 1628   4.689   0.452   5.959
  243SOL    HW2 1629   4.556   0.478   6.051
  244SOL     OW 1630   4.654   2.070   4.918
  244SOL    HW1 1631   4.649   2.112   4.827
  244SOL    HW2 1632   4.667   1.971   4.908
  245SOL     OW 1633   6.555   2.441   4.750
  245SOL    HW1 1634   6.641   2.492   4.744
  245SOL    HW2 1635   6.565   2.367   4.817
  246SOL     OW 1636   5.163   3.628   4.150
  246SOL    HW1 1637   5.160   3.728   4.153
  246SOL    HW2 1638   5.192   3.597   4.059
  247SOL     OW 1639   2.837   1.269   2.993
  247SOL    HW1 1640   2.748   1.302   2.962
  247SOL    HW2 1641   2.901   1.345   3.000
  248SOL     OW 1642   4.920   2.007   4.634
  248SOL    HW1 1643   4.868   2.093   4.632
  248SOL    HW2 1644   5.018   2.027   4.639
  249SOL     OW 1645   3.371   6.601   4.918
  249SOL    HW1 1646   3.370   6.597   4.818
  249SOL    HW2 1647   3.446   6.660   4.949
  250SOL     OW 1648   5.964   1.991   5.625
  250SOL    HW1 1649   6.029   1.940   5.568
  250SOL    HW2 1650   5.881   1.937   5.636
  251SOL     OW 1651   4.604   3.095   6.225
  251SOL    HW1 1652   4.526   3.152   6.249
  251SOL    HW2 1653   4.576   2.999   6.226
  252SOL     OW 1654   0.115   1.145   5.446
  252SOL    HW1 1655   0.085   1.202   5.370
  252SOL    HW2 1656   0.088   1.050   5.430
  253SOL     OW 1657   1.433   3.171   1.356
  253SOL    HW1 1658   1.357   3.235   1.347
  253SOL    HW2 1659   1.463   3.141   1.266
  254SOL     OW 1660   6.857   3.142   4.765
  254SOL    HW1 1661   6.835   3.106   4.674
  254SOL    HW2 1662   6.944   3.105   4.795
  255SOL     OW 1663   3.284   2.127   3.437
  255SOL    HW1 1664   3.287   2.037   3.482
  255SOL    HW2 1665   3.368   2.176   3.456
  256SOL     OW 1666   6.544   5.555   6.615
  256SOL    HW1 1667   6.608   5.601   6.552
  256SOL    HW2 1668   6.453   5.596   6.604
  257SOL     OW 1669   2.960   5.693   6.287
  257SOL    HW1 1670   3.018   5.744   6.350
  257SOL    HW2 1671   2.866   5.691   6.322
  258SOL     OW 1672   4.724   4.705   4.763
  258SOL    HW1 1673   4.781   4.623   4.761
  258SOL    HW2 1674   4.767   4.777   4.707
  259SOL     OW 1675   1.703   2.979   2.772
  259SOL    HW1 1676   1.624   2.948   2.825
  259SOL    HW2 1677   1.765   2.902   2.757
  260SOL     OW 1678   5.040   0.666   6.251
  260SOL    HW1 1679   4.973   0.604   6.210
  260SOL    HW2 1680   4.996   0.754   6.271
  261SOL     OW 1681   0.052   4.012   1.608
  261SOL    HW1 1682   0.132   3.969   1.650
  261SOL    HW2 1683   0.043   4.106   1.643
  262SOL     OW 1684   1.292   3.081   2.326
  262SOL    HW1 1685   1.349   3.155   2.360
  262SOL    HW2 1686   1.203   3.084   2.371
  263SOL     OW 1687   0.691   2.375   4.772
  263SOL    HW1 1688   0.623   2.316   4.728
  263SOL    HW2 1689   0.775   2.323   4.786
  264SOL     OW 1690   0.973   3.542   5.566
  264SOL    HW1 1691   1.042   3.587   5.510
  264SOL    HW2 1692   0.883   3.555   5.525
  265SOL     OW 1693   4.907   4.463   4.414
  265SOL    HW1 1694   4.911   4.449   4.315
  265SOL    HW2 1695   4.851   4.543   4.434
  266SOL     OW 1696   4.003   1.949   0.212
  266SOL    HW1 1697   4.077   1.981   0.270
  266SOL    HW2 1698   4.035   1.943   0.117
  267SOL     OW 1699   1.564   2.586   6.737
  267SOL    HW1 1700   1.626   2.651   6.782
  267SOL    HW2 1701   1.573   2.496   6.780
  268SOL     OW 1702   4.353   4.636   4.510
  268SOL    HW1 1703   4.389   4.611   4.600
  268SOL    HW2 1704   4.290   4.714   4.519
  269SOL     OW 1705   1.605   1.520   6.546
  269SOL    HW1 1706   1.600   1.428   6.586
  269SOL    HW2 1707   1.590   1.514   6.447
  270SOL     OW 1708   5.376   1.036   2.509
  270SOL    HW1 1709   5.319   1.062   2.431
  270SOL    HW2 1710   5.381   1.112   2.574
  271SOL     OW 1711   1.835   1.069   1.177
  271SOL    HW1 1712   1.816   0.973   1.159
  271SOL    HW2 1713   1.933   1.085   1.173
  272SOL     OW 1714   4.296   5.101   4.537
  272SOL    HW1 1715   4.315   5.012   4.579
  272SOL    HW2 1716   4.215   5.094   4.479
  273SOL     OW 1717   1.387   5.761   4.516
  273SOL    HW1 1718   1.390   5.861   4.514
  273SOL    HW2 1719   1.393   5.729   4.611
  274SOL     OW 1720   5.932   2.676   3.271
  274SOL    HW1 1721   5.888   2.636   3.352
  274SOL    HW2 1722   6.026   2.702   3.295
  275SOL     OW 1723   0.130   6.547   5.771
  275SOL    HW1 1724   0.038   6.521   5.803
  275SOL    HW2 1725   0.195   6.474   5.794
  276SOL     OW 1726   6.764   5.732   3.452
  276SOL    HW1 1727   6.863   5.716   3.449
  276SOL    HW2 1728   6.746   5.821   3.494
  277SOL     OW 1729   3.557   1.119   5.315
  277SOL    HW1 1730   3.543   1.211   5.278
  277SOL    HW2 1731   3.538   1.119   5.413
  278SOL     OW 1732   5.394   4.534   2.271
  278SOL    HW1 1733   5.375   4.467   2.344
  278SOL    HW2 1734   5.380   4.490   2.182
  279SOL     OW 1735   0.106   2.950   3.328
  279SOL    HW1 1736   0.154   3.034   3.303
  279SOL    HW2 1737   0.106   2.887   3.251
  280SOL     OW 1738   4.602   6.567   4.066
  280SOL    HW1 1739   4.653   6.638   4.114
  280SOL    HW2 1740   4.596   6.590   3.969
  281SOL     OW 1741   4.126   5.777   3.872
  281SOL    HW1 1742   4.105   5.773   3.970
  281SOL    HW2 1743   4.202   5.840   3.857
  282SOL     OW 1744   4.521   1.977   5.912
  282SOL    HW1 1745   4.620   1.982   5.927
  282SOL    HW2 1746   4.494   1.881   5.901
  283SOL     OW 1747   6.416   0.494   4.640
  283SOL    HW1 1748   6.339   0.445   4.682
  283SOL    HW2 1749   6.499   0.477   4.694
  284SOL     OW 1750   0.640   4.910   4.774
  284SOL    HW1 1751   0.696   4.960   4.708
  284SOL    HW2 1752   0.544   4.916   4.747
  285SOL     OW 1753   4.953   0.202   7.005
  285SOL    HW1 1754   5.015   0.256   6.948
  285SOL    HW2 1755   4.969   0.224   0.077
  286SOL     OW 1756   3.415   5.347   4.779
  286SOL    HW1 1757   3.378   5.299   4.700
  286SOL    HW2 1758   3.407   5.446   4.765
  287SOL     OW 1759   1.285   5.794   6.364
  287SOL    HW1 1760   1.318   5.873   6.311
  287SOL    HW2 1761   1.192   5.812   6.395
  288SOL     OW 1762   3.686   0.509   1.052
  288SOL    HW1 1763   3.737   0.579   1.101
  288SOL    HW2 1764   3.652   0.441   1.118
  289SOL     OW 1765   1.128   5.660   5.790
  289SOL    HW1 1766   1.042   5.610   5.800
  289SOL    HW2 1767   1.151   5.702   5.877
  290SOL     OW 1768   4.405   0.773   3.019
  290SOL    HW1 1769   4.466   0.693   3.022
  290SOL    HW2 1770   4.458   0.856   3.036
  291SOL     OW 1771   4.408   0.871   4.165
  291SOL    HW1 1772   4.378   0.900   4.256
  291SOL    HW2 1773   4.423   0.773   4.165
  292SOL     OW 1774   3.950   0.014   3.808
  292SOL    HW1 1775   3.900   6.954   3.829
  292SOL    HW2 1776   3.944   0.033   3.710
  293SOL     OW 1777   4.658   6.397   2.405
  293SOL    HW1 1778   4.683   6.300   2.408
  293SOL    HW2 1779   4.596   6.413   2.329
  294SOL     OW 1780   5.520   6.958   5.662
  294SOL    HW1 1781   5.528   7.010   5.747
  294SOL    HW2 1782   5.509   6.861   5.682
  295SOL     OW 1783   1.318   2.445   4.936
  295SOL    HW1 1784   1.325   2.360   4.988
  295SOL    HW2 1785   1.400   2.456   4.879
  296SOL     OW 1786   6.406   1.528   1.082
  296SOL    HW1 1787   6.432   1.432   1.077
  296SOL    HW2 1788   6.414   1.559   1.177
  297SOL     OW 1789   5.001   5.153   3.612
  297SOL    HW1 1790   4.989   5.187   3.706
  297SOL    HW2 1791   4.920   5.176   3.558
  298SOL     OW 1792   4.345   0.421   0.651
  298SOL    HW1 1793   4.429   0.380   0.613
  298SOL    HW2 1794   4.311   0.490   0.587
  299SOL     OW 1795   3.557   1.769   0.192
  299SOL    HW1 1796   3.556   1.856   0.142
  299SOL    HW2 1797   3.475   1.716   0.168
  300SOL     OW 1798   3.737   1.167   2.043
  300SOL    HW1 1799   3.670   1.241   2.034
  300SOL    HW2 1800   3.689   1.079   2.050
  301SOL     OW 1801   5.094   6.090   1.824
  301SOL    HW1 1802   5.129   6.181   1.804
  301SOL    HW2 1803   5.162   6.038   1.875
  302SOL     OW 1804   7.008   6.341   1.846
  302SOL    HW1 1805   7.005   6.242   1.853
  302SOL    HW2 1806   0.040   6.367   1.767
  303SOL     OW 1807   5.758   5.876   2.312
  303SOL    HW1 1808   5.786   5.780   2.308
  303SOL    HW2 1809   5.772   5.919   2.223
  304SOL     OW 1810   1.307   6.902   5.466
  304SOL    HW1 1811   1.309   6.860   5.375
  304SOL    HW2 1812   1.316   6.830   5.535
  305SOL     OW 1813   1.013   2.927   1.750
  305SOL    HW1 1814   0.948   2.893   1.682
  305SOL    HW2 1815   1.106   2.919   1.713
  306SOL     OW 1816   6.940   0.807   2.632
  306SOL    HW1 1817   6.992   0.729   2.668
  306SOL    HW2 1818   6.844   0.797   2.657
  307SOL     OW 1819   3.621   3.331   0.553
  307SOL    HW1 1820   3.559   3.409   0.551
  307SOL    HW2 1821   3.711   3.361   0.586
  308SOL     OW 1822   5.596   1.806   4.430
  308SOL    HW1 1823   5.654   1.732   4.396
  308SOL    HW2 1824   5.650   1.867   4.487
  309SOL     OW 1825   0.163   6.895   6.870
  309SOL    HW1 1826   0.125   6.810   6.834
  309SOL    HW2 1827   0.203   6.948   6.796
  310SOL     OW 1828   5.691   6.122   4.322
  310SOL    HW1 1829   5.622   6.085   4.259
  310SOL    HW2 1830   5.669   6.218   4.343
  311SOL     OW 1831   2.729   4.934   2.716
  311SOL    HW1 1832   2.684   4.846   2.707
  311SOL    HW2 1833   2.733   4.960   2.813
  312SOL     OW 1834   4.443   2.480   3.237
  312SOL    HW1 1835   4.383   2.412   3.194
  312SOL    HW2 1836   4.417   2.492   3.332
  313SOL     OW 1837   3.545   3.721   2.712
  313SOL    HW1 1838   3.546   3.763   2.803
  313SOL    HW2 1839   3.483   3.642   2.713
  314SOL     OW 1840   1.837   5.397   5.006
  314SOL    HW1 1841   1.791   5.322   4.959
  314SOL    HW2 1842   1.896   5.446   4.941
  315SOL     OW 1843   6.389   1.406   3.500
  315SOL    HW1 1844   6.480   1.419   3.461
  315SOL    HW2 1845   6.323   1.385   3.427
  316SOL     OW 1846   4.165   1.804   5.681
  316SOL    HW1 1847   4.127   1.846   5.764
  316SOL    HW2 1848   4.112   1.831   5.602
  317SOL     OW 1849   1.844   1.628   1.959
  317SOL    HW1 1850   1.905   1.603   1.884
  317SOL    HW2 1851   1.766   1.680   1.923
  318SOL     OW 1852   6.791   0.444   6.207
  318SOL    HW1 1853   6.768   0.524   6.151
  318SOL    HW2 1854   6.889   0.441   6.222
  319SOL     OW 1855   0.682   2.317   2.751
  319SOL    HW1 1856   0.747   2.260   2.801
  319SOL    HW2 1857   0.597   2.327   2.803
  320SOL     OW 1858   5.405   2.221   6.903
  320SOL    HW1 1859   5.424   2.292   6.835
  320SOL    HW2 1860   5.446   2.248   6.990
  321SOL     OW 1861   3.573   3.273   0.223
  321SOL    HW1 1862   3.529   3.294   0.136
  321SOL    HW2 1863   3.673   3.269   0.210
  322SOL     OW 1864   3.675   3.285   6.274
  322SOL    HW1 1865   3.708   3.322   6.361
  322SOL    HW2 1866   3.634   3.195   6.290
  323SOL     OW 1867   0.436   2.867   3.670
  323SOL    HW1 1868   0.367   2.908   3.730
  323SOL    HW2 1869   0.391   2.819   3.595
  324SOL     OW 1870   2.504   6.556   3.452
  324SOL    HW1 1871   2.572   6.513   3.392
  324SOL    HW2 1872   2.429   6.593   3.396
  325SOL     OW 1873   1.368   3.625   2.542
  325SOL    HW1 1874   1.448   3.624   2.601
  325SOL    HW2 1875   1.387   3.683   2.462
  326SOL     OW 1876   1.616   4.830   6.643
  326SOL    HW1 1877   1.607   4.742   6.688
  326SOL    HW2 1878   1.665   4.894   6.702
  327SOL     OW 1879   2.560   4.707   2.727
  327SOL    HW1 1880   2.552   4.619   2.681
  327SOL    HW2 1881   2.572   4.692   2.825
  328SOL     OW 1882   1.472   4.205   1.886
  328SOL    HW1 1883   1.477   4.118   1.936
  328SOL    HW2 1884   1.420   4.191   1.802
  329SOL     OW 1885   2.971   4.085   0.815
  329SOL    HW1 1886   3.031   4.006   0.804
  329SOL    HW2 1887   2.974   4.141   0.733
  330SOL     OW 1888   3.851   5.873   6.992
  330SOL    HW1 1889   3.914   5.950   6.979
  330SOL    HW2 1890   3.819   5.841   6.902
  331SOL     OW 1891   5.630   4.856   0.901
  331SOL    HW1 1892   5.716   4.817   0.868
  331SOL    HW2 1893   5.613   4.943   0.855
  332SOL     OW 1894   5.570   1.525   3.765
  332SOL    HW1 1895   5.573   1.622   3.787
  332SOL    HW2 1896   5.561   1.513   3.666
  333SOL     OW 1897   4.212   0.926   5.180
  333SOL    HW1 1898   4.287   0.872   5.217
  333SOL    HW2 1899   4.198   1.008   5.237
  334SOL     OW 1900   3.396   2.777   2.053
  334SOL    HW1 1901   3.381   2.864   2.007
  334SOL    HW2 1902   3.452   2.717   1.994
  335SOL     OW 1903   4.170   0.326   6.763
  335SOL    HW1 1904   4.248   0.388   6.772
  335SOL    HW2 1905   4.141   0.294   6.853
  336SOL     OW 1906   3.298   1.058   3.098
  336SOL    HW1 1907   3.331   0.965   3.113
  336SOL    HW2 1908   3.362   1.108   3.040
  337SOL     OW 1909   1.877   2.212   5.829
  337SOL    HW1 1910   1.952   2.269   5.860
  337SOL    HW2 1911   1.910   2.118   5.817
  338SOL     OW 1912   3.801   3.174   1.091
  338SOL    HW1 1913   3.790   3.093   1.033
  338SOL    HW2 1914   3.896   3.181   1.121
  339SOL     OW 1915   4.324   4.740   4.259
  339SOL    HW1 1916   4.237   4.761   4.214
  339SOL    HW2 1917   4.306   4.693   4.345
  340SOL     OW 1918   5.406   2.878   5.026
  340SOL    HW1 1919   5.438   2.922   5.110
  340SOL    HW2 1920   5.325   2.823   5.047
  341SOL     OW 1921   5.764   5.718   4.650
  341SOL    HW1 1922   5.717   5.639   4.612
  341SOL    HW2 1923   5.855   5.725   4.610
  342SOL     OW 1924   4.527   3.745   0.896
  342SOL    HW1 1925   4.504   3.834   0.857
  342SOL    HW2 1926   4.589   3.757   0.972
  343SOL     OW 1927   0.455   6.237   2.461
  343SOL    HW1 1928   0.438   6.173   2.387
  343SOL    HW2 1929   0.434   6.330   2.431
  344SOL     OW 1930   0.947   1.840   1.976
  344SOL    HW1 1931   0.860   1.794   1.996
  344SOL    HW2 1932   0.931   1.938   1.967
  345SOL     OW 1933   6.601   2.163   4.178
  345SOL    HW1 1934   6.551   2.217   4.246
  345SOL    HW2 1935   6.632   2.078   4.221
  346SOL     OW 1936   1.951   0.185   2.759
  346SOL    HW1 1937   2.034   0.141   2.794
  346SOL    HW2 1938   1.970   0.226   2.670
  347SOL     OW 1939   2.611   5.999   6.672
  347SOL    HW1 1940   2.617   5.993   6.772
  347SOL    HW2 1941   2.656   6.083   6.642
  348SOL     OW 1942   4.188   5.075   2.467
  348SOL    HW1 1943   4.238   5.022   2.536
  348SOL    HW2 1944   4.106   5.025   2.440
  349SOL     OW 1945   6.654   4.196   2.428
  349SOL    HW1 1946   6.688   4.153   2.512
  349SOL    HW2 1947   6.556   4.214   2.438
  350SOL     OW 1948   3.179   2.816   0.357
  350SOL    HW1 1949   3.176   2.915   0.338
  350SOL    HW2 1950   3.114   2.769   0.297
  351SOL     OW 1951   3.241   3.716   0.591
  351SOL    HW1 1952   3.232   3.774   0.510
  351SOL    HW2 1953   3.182   3.751   0.663
  352SOL     OW 1954   4.334   6.489   3.293
  352SOL    HW1 1955   4.320   6.587   3.307
  352SOL    HW2 1956   4.411   6.458   3.348
  353SOL     OW 1957   3.242   7.008   5.963
  353SOL    HW1 1958   3.306   0.025   6.028
  353SOL    HW2 1959   3.170   0.049   5.941
  354SOL     OW 1960   5.172   2.923   0.416
  354SOL    HW1 1961   5.222   2.864   0.353
  354SOL    HW2 1962   5.139   2.870   0.494
  355SOL     OW 1963   2.185   2.976   2.561
  355SOL    HW1 1964   2.234   3.058   2.591
  355SOL    HW2 1965   2.128   2.943   2.636
  356SOL     OW 1966   2.153   0.610   4.692
  356SOL    HW1 1967   2.091   0.577   4.763
  356SOL    HW2 1968   2.100   0.636   4.611
  357SOL     OW 1969   0.318   5.980   4.208
  357SOL    HW1 1970   0.305   5.931   4.122
  357SOL    HW2 1971   0.345   5.916   4.280
  358SOL     OW 1972   4.677   6.224   1.189
  358SOL    HW1 1973   4.639   6.252   1.277
  358SOL    HW2 1974   4.768   6.263   1.178
  359SOL     OW 1975   3.468   0.739   1.489
  359SOL    HW1 1976   3.484   0.692   1.403
  359SOL    HW2 1977   3.520   0.824   1.491
  360SOL     OW 1978   1.564   4.025   4.611
  360SOL    HW1 1979   1.520   4.092   4.671
  360SOL    HW2 1980   1.609   3.956   4.668
  361SOL     OW 1981   5.911   6.334   2.685
  361SOL    HW1 1982   5.885   6.411   2.626
  361SOL    HW2 1983   6.006   6.308   2.665
  362SOL     OW 1984   3.925   3.990   0.666
  362SOL    HW1 1985   3.881   3.931   0.598
  362SOL    HW2 1986   3.900   3.959   0.758
  363SOL     OW 1987   5.879   4.745   3.001
  363SOL    HW1 1988   5.848   4.793   2.919
  363SOL    HW2 1989   5.850   4.649   2.996
  364SOL     OW 1990   0.483   4.922   6.526
  364SOL    HW1 1991   0.558   4.902   6.590
  364SOL    HW2 1992   0.476   4.848   6.459
  365SOL     OW 1993   3.450   1.013   1.123
  365SOL    HW1 1994   3.392   0.949   1.173
  365SOL    HW2 1995   3.489   1.080   1.186
  366SOL     OW 1996   5.765   2.860   6.767
  366SOL    HW1 1997   5.758   2.790   6.696
  366SOL    HW2 1998   5.853   2.852   6.813
  367SOL     OW 1999   5.789   2.517   6.242
  367SOL    HW1 2000   5.742   2.516   6.154
  367SOL    HW2 2001   5.766   2.601   6.291
  368SOL     OW 2002   6.738   2.583   5.959
  368SOL    HW1 2003   6.731   2.676   5.925
  368SOL    HW2 2004   6.829   2.547   5.937
  369SOL     OW 2005   5.904   4.233   2.766
  369SOL    HW1 2006   5.848   4.152   2.749
  369SOL    HW2 2007   6.001   4.208   2.756
  370SOL     OW 2008   1.170   1.775   4.123
  370SOL    HW1 2009   1.139   1.734   4.037
  370SOL    HW2 2010   1.116   1.858   4.141
  371SOL     OW 2011   1.628   4.565   6.758
  371SOL    HW1 2012   1.538   4.542   6.721
  371SOL    HW2 2013   1.655   4.495   6.825
  372SOL     OW 2014   1.915   6.735   5.447
  372SOL    HW1 2015   1.947   6.675   5.373
  372SOL    HW2 2016   1.815   6.743   5.442
  373SOL     OW 2017   5.214   6.873   5.683
  373SOL    HW1 2018   5.230   6.960   5.636
  373SOL    HW2 2019   5.267   6.801   5.638
  374SOL     OW 2020   2.622   1.853   2.878
  374SOL    HW1 2021   2.695   1.916   2.849
  374SOL    HW2 2022   2.536   1.903   2.884
  375SOL     OW 2023   1.039   4.964   4.760
  375SOL    HW1 2024   1.033   4.991   4.856
  375SOL    HW2 2025   0.953   4.985   4.714
  376SOL     OW 2026   1.768   1.429   5.411
  376SOL    HW1 2027   1.780   1.438   5.312
  376SOL    HW2 2028   1.811   1.507   5.457
  377SOL     OW 2029   1.966   2.522   0.039
  377SOL    HW1 2030   2.044   2.573   0.075
  377SOL    HW2 2031   1.898   2.511   0.111
  378SOL     OW 2032   4.018   1.421   6.291
  378SOL    HW1 2033   4.016   1.344   6.355
  378SOL    HW2 2034   4.030   1.506   6.342
  379SOL     OW 2035   4.800   2.972   7.001
  379SOL    HW1 2036   4.709   2.950   0.011
  379SOL    HW2 2037   4.819   3.069   7.017
  380SOL     OW 2038   2.528   1.443   1.206
  380SOL    HW1 2039   2.585   1.392   1.141
  380SOL    HW2 2040   2.525   1.539   1.180
  381SOL     OW 2041   1.511   3.963   3.985
  381SOL    HW1 2042   1.584   4.021   3.948
  381SOL    HW2 2043   1.456   3.926   3.910
  382SOL     OW 2044   5.787   0.391   6.951
  382SOL    HW1 2045   5.792   0.313   6.888
  382SOL    HW2 2046   5.840   0.467   6.913
  383SOL     OW 2047   4.537   2.828   0.858
  383SOL    HW1 2048   4.565   2.828   0.954
  383SOL    HW2 2049   4.441   2.853   0.851
  384SOL     OW 2050   0.303   4.854   4.217
  384SOL    HW1 2051   0.310   4.823   4.312
  384SOL    HW2 2052   0.376   4.919   4.197
  385SOL     OW 2053   3.610   5.931   5.978
  385SOL    HW1 2054   3.601   6.026   5.948
  385SOL    HW2 2055   3.680   5.925   6.050
  386SOL     OW 2056   3.955   0.371   4.232
  386SOL    HW1 2057   3.934   0.354   4.136
  386SOL    HW2 2058   4.003   0.292   4.270
  387SOL     OW 2059   1.447   5.719   2.325
  387SOL    HW1 2060   1.356   5.705   2.365
  387SOL    HW2 2061   1.503   5.773   2.388
  388SOL     OW 2062   2.056   1.711   6.452
  388SOL    HW1 2063   2.036   1.807   6.473
  388SOL    HW2 2064   2.106   1.669   6.527
  389SOL     OW 2065   3.634   3.187   2.587
  389SOL    HW1 2066   3.567   3.260   2.598
  389SOL    HW2 2067   3.588   3.098   2.594
  390SOL     OW 2068   3.451   1.084   3.660
  390SOL    HW1 2069   3.535   1.029   3.660
  390SOL    HW2 2070   3.466   1.166   3.715
  391SOL     OW 2071   2.069   2.774   6.455
  391SOL    HW1 2072   2.031   2.866   6.451
  391SOL    HW2 2073   1.999   2.711   6.488
  392SOL     OW 2074   1.924   4.215   0.351
  392SOL    HW1 2075   1.984   4.278   0.400
  392SOL    HW2 2076   1.979   4.158   0.290
  393SOL     OW 2077   6.820   4.789   5.399
  393SOL    HW1 2078   6.758   4.815   5.325
  393SOL    HW2 2079   6.850   4.871   5.448
  394SOL     OW 2080   0.313   0.666   0.168
  394SOL    HW1 2081   0.318   0.728   0.090
  394SOL    HW2 2082   0.240   0.697   0.230
  395SOL     OW 2083   5.122   3.964   2.572
  395SOL    HW1 2084   5.059   3.913   2.630
  395SOL    HW2 2085   5.102   3.945   2.476
  396SOL     OW 2086   4.015   3.662   2.299
  396SOL    HW1 2087   4.060   3.600   2.235
  396SOL    HW2 2088   4.082   3.696   2.366
  397SOL     OW 2089   3.901   2.381   5.737
  397SOL    HW1 2090   3.899   2.471   5.695
  397SOL    HW2 2091   3.808   2.344   5.739
  398SOL     OW 2092   0.606   6.563   2.177
  398SOL    HW1 2093   0.546   6.621   2.122
  398SOL    HW2 2094   0.682   6.617   2.213
  399SOL     OW 2095   4.622   5.987   2.689
  399SOL    HW1 2096   4.540   6.013   2.740
  399SOL    HW2 2097   4.675   5.920   2.742
  400SOL     OW 2098   6.303   0.153   5.305
  400SOL    HW1 2099   6.321   0.250   5.289
  400SOL    HW2 2100   6.334   0.127   5.397
  401SOL     OW 2101   4.651   1.056   6.072
  401SOL    HW1 2102   4.561   1.039   6.112
  401SOL    HW2 2103   4.643   1.127   6.002
  402SOL     OW 2104   5.986   6.628   3.003
  402SOL    HW1 2105   6.000   6.624   3.102
  402SOL    HW2 2106   5.989   6.723   2.973
  403SOL     OW 2107   3.651   2.410   5.320
  403SOL    HW1 2108   3.565   2.365   5.345
  403SOL    HW2 2109   3.717   2.341   5.292
  404SOL     OW 2110   1.665   6.276   3.711
  404SOL    HW1 2111   1.708   6.245   3.795
  404SOL    HW2 2112   1.675   6.206   3.640
  405SOL     OW 2113   1.508   3.440   1.784
  405SOL    HW1 2114   1.596   3.430   1.738
  405SOL    HW2 2115   1.500   3.372   1.857
  406SOL     OW 2116   0.531   3.601   3.685
  406SOL    HW1 2117   0.467   3.678   3.697
  406SOL    HW2 2118   0.505   3.549   3.604
  407SOL     OW 2119   1.761   0.474   4.065
  407SOL    HW1 2120   1.824   0.551   4.077
  407SOL    HW2 2121   1.799   0.409   4.000
  408SOL     OW 2122   1.127   0.981   3.011
  408SOL    HW1 2123   1.102   1.065   3.060
  408SOL    HW2 2124   1.226   0.980   2.996
  409SOL     OW 2125   6.137   2.961   1.768
  409SOL    HW1 2126   6.215   2.985   1.711
  409SOL    HW2 2127   6.165   2.889   1.833
  410SOL     OW 2128   2.359   0.390   6.779
  410SOL    HW1 2129   2.319   0.307   6.739
  410SOL    HW2 2130   2.413   0.437   6.710
  411SOL     OW 2131   5.920   6.831   6.782
  411SOL    HW1 2132   5.850   6.855   6.715
  411SOL    HW2 2133   5.988   6.904   6.787
  412SOL     OW 2134   5.084   6.810   3.860
  412SOL    HW1 2135   5.159   6.776   3.917
  412SOL    HW2 2136   5.020   6.735   3.842
  413SOL     OW 2137   5.296   4.648   1.573
  413SOL    HW1 2138   5.386   4.664   1.534
  413SOL    HW2 2139   5.297   4.565   1.628
  414SOL     OW 2140   3.872   5.241   4.181
  414SOL    HW1 2141   3.804   5.172   4.204
  414SOL    HW2 2142   3.894   5.234   4.083
  415SOL     OW 2143   0.804   6.059   6.932
  415SOL    HW1 2144   0.764   6.055   7.023
  415SOL    HW2 2145   0.856   6.144   6.921
  416SOL     OW 2146   5.302   5.059   4.681
  416SOL    HW1 2147   5.370   5.098   4.743
  416SOL    HW2 2148   5.278   4.967   4.711
  417SOL     OW 2149   2.377   5.667   0.843
  417SOL    HW1 2150   2.402   5.646   0.938
  417SOL    HW2 2151   2.358   5.765   0.835
  418SOL     OW 2152   4.011   5.999   1.706
  418SOL    HW1 2153   4.082   5.929   1.702
  418SOL    HW2 2154   3.951   5.991   1.626
  419SOL     OW 2155   1.454   0.355   1.444
  419SOL    HW1 2156   1.545   0.385   1.474
  419SOL    HW2 2157   1.397   0.435   1.424
  420SOL     OW 2158   6.483   3.042   1.235
  420SOL    HW1 2159   6.499   3.119   1.297
  420SOL    HW2 2160   6.384   3.029   1.224
  421SOL     OW 2161   6.949   4.581   5.845
  421SOL    HW1 2162   6.853   4.577   5.819
  421SOL    HW2 2163   7.004   4.618   5.770
  422SOL     OW 2164   5.843   4.386   0.243
  422SOL    HW1 2165   5.789   4.470   0.251
  422SOL    HW2 2166   5.935   4.408   0.212
  423SOL     OW 2167   0.780   2.796   0.008
  423SOL    HW1 2168   0.766   2.889   6.996
  423SOL    HW2 2169   0.777   2.730   6.957
  424SOL     OW 2170   2.782   3.642   1.350
  424SOL    HW1 2171   2.693   3.669   1.388
  424SOL    HW2 2172   2.802   3.700   1.271
  425SOL     OW 2173   6.353   0.969   2.443
  425SOL    HW1 2174   6.372   1.066   2.425
  425SOL    HW2 2175   6.384   0.947   2.535
  426SOL     OW 2176   4.833   2.494   4.121
  426SOL    HW1 2177   4.815   2.401   4.089
  426SOL    HW2 2178   4.908   2.533   4.067
  427SOL     OW 2179   5.450   4.821   2.559
  427SOL    HW1 2180   5.545   4.851   2.554
  427SOL    HW2 2181   5.445   4.722   2.545
  428SOL     OW 2182   4.468   6.919   4.655
  428SOL    HW1 2183   4.514   6.979   4.721
  428SOL    HW2 2184   4.517   6.833   4.647
  429SOL     OW 2185   2.625   4.111   1.213
  429SOL    HW1 2186   2.685   4.190   1.223
  429SOL    HW2 2187   2.577   4.115   1.126
  430SOL     OW 2188   0.296   0.174   4.158
  430SOL    HW1 2189   0.385   0.222   4.157
  430SOL    HW2 2190   0.312   0.076   4.168
  431SOL     OW 2191   3.564   0.120   0.545
  431SOL    HW1 2192   3.538   0.024   0.537
  431SOL    HW2 2193   3.557   0.149   0.640
  432SOL     OW 2194   6.152   2.006   2.119
  432SOL    HW1 2195   6.078   2.008   2.052
  432SOL    HW2 2196   6.131   2.069   2.194
  433SOL     OW 2197   3.290   6.312   4.866
  433SOL    HW1 2198   3.320   6.398   4.907
  433SOL    HW2 2199   3.223   6.268   4.927
  434SOL     OW 2200   3.814   5.323   2.043
  434SOL    HW1 2201   3.903   5.310   2.086
  434SOL    HW2 2202   3.816   5.286   1.950
  435SOL     OW 2203   3.852   2.200   5.242
  435SOL    HW1 2204   3.904   2.188   5.327
  435SOL    HW2 2205   3.902   2.157   5.166
  436SOL     OW 2206   3.357   5.777   0.980
  436SOL    HW1 2207   3.336   5.682   1.003
  436SOL    HW2 2208   3.454   5.794   0.996
  437SOL     OW 2209   1.001   6.753   6.858
  437SOL    HW1 2210   1.044   6.685   6.798
  437SOL    HW2 2211   0.945   6.814   6.802
  438SOL     OW 2212   2.145   2.953   2.279
  438SOL    HW1 2213   2.167   2.985   2.371
  438SOL    HW2 2214   2.119   2.857   2.282
  439SOL     OW 2215   6.146   4.546   3.246
  439SOL    HW1 2216   6.194   4.490   3.314
  439SOL    HW2 2217   6.094   4.617   3.291
  440SOL     OW 2218   1.387   1.611   5.168
  440SOL    HW1 2219   1.464   1.636   5.227
  440SOL    HW2 2220   1.383   1.674   5.090
  441SOL     OW 2221   0.961   2.392   3.963
  441SOL    HW1 2222   1.052   2.434   3.962
  441SOL    HW2 2223   0.939   2.357   3.872
  442SOL     OW 2224   2.447   5.034   6.811
  442SOL    HW1 2225   2.520   5.082   6.860
  442SOL    HW2 2226   2.396   4.976   6.875
  443SOL     OW 2227   0.778   4.194   4.377
  443SOL    HW1 2228   0.793   4.109   4.429
  443SOL    HW2 2229   0.780   4.272   4.439
  444SOL     OW 2230   5.001   2.117   5.959
  444SOL    HW1 2231   4.992   2.216   5.956
  444SOL    HW2 2232   5.020   2.088   6.052
  445SOL     OW 2233   1.477   5.624   3.389
  445SOL    HW1 2234   1.414   5.657   3.459
  445SOL    HW2 2235   1.491   5.695   3.320
  446SOL     OW 2236   3.732   4.909   4.080
  446SOL    HW1 2237   3.769   4.853   4.154
  446SOL    HW2 2238   3.793   4.902   4.000
  447SOL     OW 2239   0.749   2.565   6.819
  447SOL    HW1 2240   0.849   2.569   6.814
  447SOL    HW2 2241   0.712   2.554   6.727
  448SOL     OW 2242   2.941   1.061   4.357
  448SOL    HW1 2243   2.841   1.062   4.355
  448SOL    HW2 2244   2.973   0.992   4.421
  449SOL     OW 2245   4.335   0.306   4.699
  449SOL    HW1 2246   4.321   0.383   4.636
  449SOL    HW2 2247   4.259   0.242   4.689
  450SOL     OW 2248   1.548   5.694   3.950
  450SOL    HW1 2249   1.483   5.679   4.024
  450SOL    HW2 2250   1.576   5.606   3.911
  451SOL     OW 2251   2.032   2.146   3.615
  451SOL    HW1 2252   2.010   2.068   3.557
  451SOL    HW2 2253   2.126   2.177   3.596
  452SOL     OW 2254   6.452   6.274   1.662
  452SOL    HW1 2255   6.432   6.215   1.741
  452SOL    HW2 2256   6.545   6.255   1.629
  453SOL     OW 2257   3.393   0.791   4.658
  453SOL    HW1 2258   3.489   0.811   4.678
  453SOL    HW2 2259   3.361   0.852   4.585
  454SOL     OW 2260   0.022   4.723   6.208
  454SOL    HW1 2261   0.121   4.735   6.212
  454SOL    HW2 2262   0.001   4.629   6.178
  455SOL     OW 2263   6.693   2.350   3.274
  455SOL    HW1 2264   6.615   2.301   3.313
  455SOL    HW2 2265   6.715   2.428   3.333
  456SOL     OW 2266   5.394   5.739   4.505
  456SOL    HW1 2267   5.462   5.813   4.498
  456SOL    HW2 2268   5.421   5.676   4.578
  457SOL     OW 2269   2.117   3.505   3.865
  457SOL    HW1 2270   2.112   3.430   3.799
  457SOL    HW2 2271   2.144   3.589   3.819
  458SOL     OW 2272   4.178   5.517   3.747
  458SOL    HW1 2273   4.176   5.602   3.800
  458SOL    HW2 2274   4.256   5.462   3.776
  459SOL     OW 2275   2.080   6.620   4.867
  459SOL    HW1 2276   2.104   6.638   4.963
  459SOL    HW2 2277   1.985   6.589   4.861
  460SOL     OW 2278   1.551   0.165   3.839
  460SOL    HW1 2279   1.506   0.252   3.818
  460SOL    HW2 2280   1.483   0.092   3.843
  461SOL     OW 2281   5.850   6.739   5.398
  461SOL    HW1 2282   5.757   6.736   5.362
  461SOL    HW2 2283   5.858   6.677   5.476
  462SOL     OW 2284   3.813   2.734   6.031
  462SOL    HW1 2285   3.867   2.653   6.055
  462SOL    HW2 2286   3.722   2.705   6.002
  463SOL     OW 2287   6.471   5.199   3.621
  463SOL    HW1 2288   6.381   5.157   3.607
  463SOL    HW2 2289   6.542   5.130   3.609
  464SOL     OW 2290   2.543   2.578   5.990
  464SOL    HW1 2291   2.520   2.497   5.937
  464SOL    HW2 2292   2.628   2.618   5.955
  465SOL     OW 2293   1.207   2.639   4.254
  465SOL    HW1 2294   1.175   2.640   4.349
  465SOL    HW2 2295   1.284   2.703   4.245
  466SOL     OW 2296   1.569   5.224   2.959
  466SOL    HW1 2297   1.647   5.265   2.912
  466SOL    HW2 2298   1.486   5.274   2.934
  467SOL     OW 2299   1.281   1.209   0.136
  467SOL    HW1 2300   1.252   1.116   0.160
  467SOL    HW2 2301   1.364   1.204   0.080
  468SOL     OW 2302   3.235   6.596   6.826
  468SOL    HW1 2303   3.219   6.528   6.898
  468SOL    HW2 2304   3.221   6.554   6.736
  469SOL     OW 2305   3.141   4.785   0.018
  469SOL    HW1 2306   3.123   4.861   0.081
  469SOL    HW2 2307   3.138   4.818   6.949
  470SOL     OW 2308   4.493   0.424   2.397
  470SOL    HW1 2309   4.421   0.399   2.333
  470SOL    HW2 2310   4.561   0.482   2.350
  471SOL     OW 2311   1.783   2.391   3.894
  471SOL    HW1 2312   1.813   2.312   3.947
  471SOL    HW2 2313   1.795   2.371   3.796
  472SOL     OW 2314   4.964   4.043   6.340
  472SOL    HW1 2315   4.992   4.139   6.342
  472SOL    HW2 2316   4.996   3.998   6.423
  473SOL     OW 2317   0.966   3.192   2.162
  473SOL    HW1 2318   0.988   3.108   2.112
  473SOL    HW2 2319   0.999   3.185   2.256
  474SOL     OW 2320   5.172   5.324   4.057
  474SOL    HW1 2321   5.099   5.269   4.016
  474SOL    HW2 2322   5.170   5.416   4.018
  475SOL     OW 2323   5.763   0.845   6.572
  475SOL    HW1 2324   5.827   0.868   6.498
  475SOL    HW2 2325   5.676   0.893   6.557
  476SOL     OW 2326   6.614   4.085   2.979
  476SOL    HW1 2327   6.605   4.131   3.067
  476SOL    HW2 2328   6.655   4.148   2.913
  477SOL     OW 2329   1.264   4.694   4.371
  477SOL    HW1 2330   1.323   4.724   4.446
  477SOL    HW2 2331   1.320   4.660   4.296
  478SOL     OW 2332   3.189   6.780   1.993
  478SOL    HW1 2333   3.229   6.825   2.073
  478SOL    HW2 2334   3.126   6.708   2.024
  479SOL     OW 2335   4.210   2.082   6.577
  479SOL    HW1 2336   4.180   2.165   6.623
  479SOL    HW2 2337   4.309   2.086   6.562
  480SOL     OW 2338   2.108   1.275   0.177
  480SOL    HW1 2339   2.039   1.326   0.230
  480SOL    HW2 2340   2.074   1.260   0.084
  481SOL     OW 2341   1.508   0.452   0.671
  481SOL    HW1 2342   1.581   0.385   0.658
  481SOL    HW2 2343   1.419   0.405   0.674
  482SOL     OW 2344   4.683   4.856   3.161
  482SOL    HW1 2345   4.713   4.822   3.072
  482SOL    HW2 2346   4.605   4.802   3.193
  483SOL     OW 2347   6.906   1.624   1.903
  483SOL    HW1 2348   6.921   1.556   1.975
  483SOL    HW2 2349   6.945   1.711   1.932
  484SOL     OW 2350   1.264   2.877   4.809
  484SOL    HW1 2351   1.174   2.919   4.819
  484SOL    HW2 2352   1.277   2.847   4.715
  485SOL     OW 2353   3.832   5.397   2.639
  485SOL    HW1 2354   3.886   5.448   2.573
  485SOL    HW2 2355   3.894   5.348   2.701
  486SOL     OW 2356   6.712   2.093   0.796
  486SOL    HW1 2357   6.621   2.132   0.782
  486SOL    HW2 2358   6.762   2.092   0.710
  487SOL     OW 2359   1.159   2.305   1.384
  487SOL    HW1 2360   1.166   2.355   1.298
  487SOL    HW2 2361   1.070   2.260   1.389
  488SOL     OW 2362   0.602   1.946   1.847
  488SOL    HW1 2363   0.665   1.882   1.892
  488SOL    HW2 2364   0.639   1.973   1.759
  489SOL     OW 2365   3.035   6.179   6.429
  489SOL    HW1 2366   2.989   6.137   6.351
  489SOL    HW2 2367   3.133   6.187   6.410
  490SOL     OW 2368   6.745   5.965   3.240
  490SOL    HW1 2369   6.734   6.057   3.202
  490SOL    HW2 2370   6.804   5.911   3.180
  491SOL     OW 2371   0.269   3.023   2.633
  491SOL    HW1 2372   0.180   3.042   2.674
  491SOL    HW2 2373   0.341   3.068   2.687
  492SOL     OW 2374   2.429   0.222   5.477
  492SOL    HW1 2375   2.454   0.247   5.383
  492SOL    HW2 2376   2.441   0.301   5.537
  493SOL     OW 2377   4.884   6.575   5.708
  493SOL    HW1 2378   4.915   6.663   5.672
  493SOL    HW2 2379   4.792   6.556   5.674
  494SOL     OW 2380   6.726   1.038   6.733
  494SOL    HW1 2381   6.762   1.052   6.825
  494SOL    HW2 2382   6.643   1.092   6.721
  495SOL     OW 2383   5.008   5.965   3.589
  495SOL    HW1 2384   5.040   5.936   3.499
  495SOL    HW2 2385   5.010   6.065   3.594
  496SOL     OW 2386   5.323   3.459   2.117
  496SOL    HW1 2387   5.286   3.523   2.185
  496SOL    HW2 2388   5.339   3.508   2.031
  497SOL     OW 2389   3.562   1.264   4.337
  497SOL    HW1 2390   3.532   1.189   4.279
  497SOL    HW2 2391   3.483   1.301   4.387
  498SOL     OW 2392   2.066   4.066   1.679
  498SOL    HW1 2393   1.969   4.041   1.690
  498SOL    HW2 2394   2.102   4.022   1.596
  499SOL     OW 2395   2.914   0.317   4.271
  499SOL    HW1 2396   2.864   0.397   4.238
  499SOL    HW2 2397   3.012   0.337   4.272
  500SOL     OW 2398   0.782   3.415   3.917
  500SOL    HW1 2399   0.859   3.445   3.974
  500SOL    HW2 2400   0.701   3.470   3.939
  501SOL     OW 2401   2.556   6.370   0.222
  501SOL    HW1 2402   2.523   6.287   0.178
  501SOL    HW2 2403   2.614   6.421   0.159
  502SOL     OW 2404   6.671   3.924   0.040
  502SOL    HW1 2405   6.575   3.925   0.013
  502SOL    HW2 2406   6.699   4.017   0.066
  503SOL     OW 2407   6.173   5.972   6.216
  503SOL    HW1 2408   6.264   6.005   6.244
  503SOL    HW2 2409   6.103   6.029   6.258
  504SOL     OW 2410   2.123   5.408   3.023
  504SOL    HW1 2411   2.128   5.476   2.950
  504SOL    HW2 2412   2.215   5.381   3.050
  505SOL     OW 2413   3.694   6.493   4.784
  505SOL    HW1 2414   3.760   6.425   4.816
  505SOL    HW2 2415   3.615   6.447   4.744
  506SOL     OW 2416   1.616   5.103   5.168
  506SOL    HW1 2417   1.642   5.189   5.212
  506SOL    HW2 2418   1.613   5.116   5.069
  507SOL     OW 2419   4.078   0.237   3.247
  507SOL    HW1 2420   4.079   0.232   3.347
  507SOL    HW2 2421   4.166   0.270   3.214
  508SOL     OW 2422   6.597   3.964   2.248
  508SOL    HW1 2423   6.497   3.970   2.247
  508SOL    HW2 2424   6.632   4.004   2.332
  509SOL     OW 2425   3.559   1.141   1.757
  509SOL    HW1 2426   3.601   1.056   1.787
  509SOL    HW2 2427   3.548   1.202   1.835
  510SOL     OW 2428   6.467   5.105   0.188
  510SOL    HW1 2429   6.521   5.022   0.177
  510SOL    HW2 2430   6.375   5.091   0.152
  511SOL     OW 2431   0.407   1.283   5.995
  511SOL    HW1 2432   0.484   1.247   5.944
  511SOL    HW2 2433   0.366   1.209   6.049
  512SOL     OW 2434   6.900   2.907   6.847
  512SOL    HW1 2435   6.957   2.981   6.882
  512SOL    HW2 2436   6.865   2.853   6.923
  513SOL     OW 2437   6.386   6.256   2.978
  513SOL    HW1 2438   6.310   6.319   2.962
  513SOL    HW2 2439   6.388   6.231   3.075
  514SOL     OW 2440   6.680   2.801   4.180
  514SOL    HW1 2441   6.734   2.731   4.228
  514SOL    HW2 2442   6.583   2.787   4.199
  515SOL     OW 2443   1.716   0.628   6.601
  515SOL    HW1 2444   1.723   0.727   6.612
  515SOL    HW2 2445   1.635   0.595   6.649
  516SOL     OW 2446   2.592   4.498   1.752
  516SOL    HW1 2447   2.567   4.422   1.812
  516SOL    HW2 2448   2.663   4.553   1.795
  517SOL     OW 2449   4.707   5.481   2.332
  517SOL    HW1 2450   4.662   5.404   2.287
  517SOL    HW2 2451   4.759   5.448   2.411
  518SOL     OW 2452   2.100   1.966   2.731
  518SOL    HW1 2453   2.176   1.959   2.666
  518SOL    HW2 2454   2.050   2.051   2.714
  519SOL     OW 2455   0.877   0.705   4.257
  519SOL    HW1 2456   0.819   0.646   4.202
  519SOL    HW2 2457   0.861   0.801   4.232
  520SOL     OW 2458   6.113   4.440   0.192
  520SOL    HW1 2459   6.141   4.488   0.276
  520SOL    HW2 2460   6.164   4.354   0.184
  521SOL     OW 2461   0.265   3.877   6.169
  521SOL    HW1 2462   0.249   3.877   6.070
  521SOL    HW2 2463   0.340   3.813   6.190
  522SOL     OW 2464   3.764   3.372   5.188
  522SOL    HW1 2465   3.718   3.393   5.102
  522SOL    HW2 2466   3.744   3.444   5.254
  523SOL     OW 2467   1.099   4.942   1.318
  523SOL    HW1 2468   1.138   4.961   1.408
  523SOL    HW2 2469   1.002   4.965   1.318
  524SOL     OW 2470   0.783   1.672   0.701
  524SOL    HW1 2471   0.693   1.682   0.744
  524SOL    HW2 2472   0.805   1.575   0.690
  525SOL     OW 2473   1.863   3.620   6.680
  525SOL    HW1 2474   1.945   3.656   6.636
  525SOL    HW2 2475   1.797   3.592   6.611
  526SOL     OW 2476   4.253   6.701   4.491
  526SOL    HW1 2477   4.173   6.652   4.459
  526SOL    HW2 2478   4.333   6.641   4.489
  527SOL     OW 2479   6.819   3.233   6.855
  527SOL    HW1 2480   6.854   3.305   6.795
  527SOL    HW2 2481   6.895   3.180   6.893
  528SOL     OW 2482   0.960   1.377   3.758
  528SOL    HW1 2483   1.026   1.409   3.826
  528SOL    HW2 2484   0.930   1.284   3.781
  529SOL     OW 2485   1.061   6.503   4.315
  529SOL    HW1 2486   1.114   6.418   4.316
  529SOL    HW2 2487   1.115   6.575   4.273
  530SOL     OW 2488   3.022   3.171   4.952
  530SOL    HW1 2489   3.107   3.149   4.903
  530SOL    HW2 2490   2.961   3.092   4.951
  531SOL     OW 2491   0.505   0.266   2.745
  531SOL    HW1 2492   0.494   0.362   2.772
  531SOL    HW2 2493   0.419   0.231   2.710
  532SOL     OW 2494   1.398   2.269   0.222
  532SOL    HW1 2495   1.389   2.273   0.321
  532SOL    HW2 2496   1.495   2.268   0.198
  533SOL     OW 2497   4.949   6.775   3.578
  533SOL    HW1 2498   4.944   6.874   3.591
  533SOL    HW2 2499   4.939   6.730   3.667
  534SOL     OW 2500   4.886   5.649   3.192
  534SOL    HW1 2501   4.971   5.661   3.140
  534SOL    HW2 2502   4.863   5.552   3.197
  535SOL     OW 2503   0.661   3.775   4.421
  535SOL    HW1 2504   0.716   3.764   4.503
  535SOL    HW2 2505   0.571   3.735   4.434
  536SOL     OW 2506   0.152   5.167   1.834
  536SOL    HW1 2507   0.052   5.167   1.831
  536SOL    HW2 2508   0.183   5.232   1.903
  537SOL     OW 2509   2.028   6.404   3.726
  537SOL    HW1 2510   1.995   6.352   3.647
  537SOL    HW2 2511   2.051   6.342   3.800
  538SOL     OW 2512   1.268   3.918   2.727
  538SOL    HW1 2513   1.286   4.003   2.677
  538SOL    HW2 2514   1.191   3.869   2.684
  539SOL     OW 2515   0.801   6.329   0.236
  539SOL    HW1 2516   0.881   6.365   0.188
  539SOL    HW2 2517   0.827   6.300   0.327
  540SOL     OW 2518   0.512   1.344   2.381
  540SOL    HW1 2519   0.515   1.249   2.350
  540SOL    HW2 2520   0.593   1.363   2.436
  541SOL     OW 2521   3.740   6.414   4.246
  541SOL    HW1 2522   3.709   6.500   4.285
  541SOL    HW2 2523   3.684   6.339   4.281
  542SOL     OW 2524   6.599   0.295   0.039
  542SOL    HW1 2525   6.595   0.218   0.102
  542SOL    HW2 2526   6.695   0.319   0.022
  543SOL     OW 2527   1.751   4.805   5.579
  543SOL    HW1 2528   1.721   4.733   5.517
  543SOL    HW2 2529   1.850   4.797   5.594
  544SOL     OW 2530   1.966   4.024   1.327
  544SOL    HW1 2531   1.945   4.077   1.245
  544SOL    HW2 2532   1.911   4.057   1.404
  545SOL     OW 2533   3.228   0.265   3.118
  545SOL    HW1 2534   3.176   0.193   3.164
  545SOL    HW2 2535   3.286   0.312   3.184
  546SOL     OW 2536   1.545   2.814   0.432
  546SOL    HW1 2537   1.626   2.756   0.440
  546SOL    HW2 2538   1.571   2.909   0.451
  547SOL     OW 2539   3.000   1.422   6.950
  547SOL    HW1 2540   3.037   1.338   6.989
  547SOL    HW2 2541   2.900   1.415   6.944
  548SOL     OW 2542   3.630   3.091   2.156
  548SOL    HW1 2543   3.726   3.086   2.184
  548SOL    HW2 2544   3.583   3.007   2.183
  549SOL     OW 2545   4.705   3.410   0.969
  549SOL    HW1 2546   4.705   3.492   1.027
  549SOL    HW2 2547   4.654   3.337   1.015
  550SOL     OW 2548   6.038   4.721   3.426
  550SOL    HW1 2549   6.052   4.685   3.519
  550SOL    HW2 2550   6.006   4.815   3.431
  551SOL     OW 2551   1.004   0.979   1.485
  551SOL    HW1 2552   0.979   1.064   1.438
  551SOL    HW2 2553   0.959   0.902   1.442
  552SOL     OW 2554   4.394   5.082   0.466
  552SOL    HW1 2555   4.476   5.094   0.410
  552SOL    HW2 2556   4.411   5.015   0.538
  553SOL     OW 2557   2.553   6.791   1.884
  553SOL    HW1 2558   2.533   6.867   1.821
  553SOL    HW2 2559   2.503   6.710   1.855
  554SOL     OW 2560   5.832   6.443   5.649
  554SOL    HW1 2561   5.862   6.400   5.564
  554SOL    HW2 2562   5.833   6.376   5.722
  555SOL     OW 2563   2.329   5.190   3.139
  555SOL    HW1 2564   2.281   5.189   3.227
  555SOL    HW2 2565   2.285   5.125   3.077
  556SOL     OW 2566   5.892   2.489   3.929
  556SOL    HW1 2567   5.958   2.506   4.002
  556SOL    HW2 2568   5.805   2.461   3.968
  557SOL     OW 2569   0.383   4.766   0.433
  557SOL    HW1 2570   0.384   4.727   0.341
  557SOL    HW2 2571   0.420   4.858   0.431
  558SOL     OW 2572   3.353   4.170   4.932
  558SOL    HW1 2573   3.439   4.138   4.971
  558SOL    HW2 2574   3.290   4.196   5.005
  559SOL     OW 2575   6.422   6.073   6.298
  559SOL    HW1 2576   6.475   6.047   6.218
  559SOL    HW2 2577   6.448   6.015   6.375
  560SOL     OW 2578   4.094   5.836   0.117
  560SOL    HW1 2579   4.175   5.837   0.058
  560SOL    HW2 2580   4.013   5.817   0.062
  561SOL     OW 2581   6.381   0.927   7.009
  561SOL    HW1 2582   6.414   1.016   0.013
  561SOL    HW2 2583   6.350   0.931   6.914
  562SOL     OW 2584   4.708   0.691   6.334
  562SOL    HW1 2585   4.677   0.679   6.239
  562SOL    HW2 2586   4.721   0.788   6.353
  563SOL     OW 2587   2.317   6.654   3.251
  563SOL    HW1 2588   2.252   6.717   3.209
  563SOL    HW2 2589   2.275   6.564   3.258
  564SOL     OW 2590   2.833   1.781   6.529
  564SOL    HW1 2591   2.737   1.808   6.533
  564SOL    HW2 2592   2.840   1.682   6.522
  565SOL     OW 2593   3.885   3.477   5.616
  565SOL    HW1 2594   3.869   3.465   5.518
  565SOL    HW2 2595   3.850   3.398   5.666
  566SOL     OW 2596   6.487   4.044   4.134
  566SOL    HW1 2597   6.412   3.994   4.177
  566SOL    HW2 2598   6.450   4.104   4.063
  567SOL     OW 2599   3.611   3.954   3.280
  567SOL    HW1 2600   3.649   3.949   3.372
  567SOL    HW2 2601   3.642   4.038   3.236
  568SOL     OW 2602   3.664   2.459   0.146
  568SOL    HW1 2603   3.605   2.478   0.224
  568SOL    HW2 2604   3.680   2.544   0.095
  569SOL     OW 2605   1.599   3.449   0.271
  569SOL    HW1 2606   1.587   3.349   0.271
  569SOL    HW2 2607   1.509   3.493   0.265
  570SOL     OW 2608   2.131   6.759   6.387
  570SOL    HW1 2609   2.218   6.772   6.341
  570SOL    HW2 2610   2.100   6.665   6.375
  571SOL     OW 2611   3.438   6.929   3.083
  571SOL    HW1 2612   3.455   6.831   3.097
  571SOL    HW2 2613   3.472   6.980   3.162
  572SOL     OW 2614   2.320   4.636   5.711
  572SOL    HW1 2615   2.355   4.554   5.758
  572SOL    HW2 2616   2.393   4.674   5.654
  573SOL     OW 2617   4.411   1.262   5.321
  573SOL    HW1 2618   4.369   1.172   5.331
  573SOL    HW2 2619   4.346   1.333   5.351
  574SOL     OW 2620   2.375   2.254   3.609
  574SOL    HW1 2621   2.369   2.354   3.608
  574SOL    HW2 2622   2.366   2.219   3.516
  575SOL     OW 2623   6.775   3.332   6.369
  575SOL    HW1 2624   6.743   3.271   6.296
  575SOL    HW2 2625   6.697   3.375   6.413
  576SOL     OW 2626   1.347   2.416   1.799
  576SOL    HW1 2627   1.430   2.462   1.829
  576SOL    HW2 2628   1.270   2.443   1.857
  577SOL     OW 2629   1.637   0.869   3.244
  577SOL    HW1 2630   1.602   0.954   3.283
  577SOL    HW2 2631   1.718   0.839   3.293
  578SOL     OW 2632   6.692   4.212   3.226
  578SOL    HW1 2633   6.618   4.195   3.292
  578SOL    HW2 2634   6.768   4.151   3.245
  579SOL     OW 2635   2.640   2.459   0.809
  579SOL    HW1 2636   2.729   2.417   0.793
  579SOL    HW2 2637   2.608   2.435   0.900
  580SOL     OW 2638   0.568   4.652   6.994
  580SOL    HW1 2639   0.583   4.554   6.981
  580SOL    HW2 2640   0.655   4.700   6.985
  581SOL     OW 2641   3.407   3.511   2.680
  581SOL    HW1 2642   3.312   3.490   2.701
  581SOL    HW2 2643   3.444   3.440   2.620
  582SOL     OW 2644   5.697   5.213   2.457
  582SOL    HW1 2645   5.687   5.158   2.374
  582SOL    HW2 2646   5.750   5.296   2.436
  583SOL     OW 2647   2.316   5.236   6.469
  583SOL    HW1 2648   2.252   5.232   6.393
  583SOL    HW2 2649   2.285   5.176   6.543
  584SOL     OW 2650   1.294   4.993   5.921
  584SOL    HW1 2651   1.385   4.991   5.879
  584SOL    HW2 2652   1.225   5.009   5.851
  585SOL     OW 2653   6.365   2.977   6.235
  585SOL    HW1 2654   6.397   3.050   6.175
  585SOL    HW2 2655   6.358   2.892   6.182
  586SOL     OW 2656   3.188   0.702   6.330
  586SOL    HW1 2657   3.153   0.641   6.259
  586SOL    HW2 2658   3.130   0.784   6.334
  587SOL     OW 2659   2.769   2.400   5.072
  587SOL    HW1 2660   2.808   2.323   5.021
  587SOL    HW2 2661   2.671   2.404   5.055
  588SOL     OW 2662   2.706   5.351   0.633
  588SOL    HW1 2663   2.662   5.364   0.544
  588SOL    HW2 2664   2.771   5.426   0.649
  589SOL     OW 2665   3.828   5.216   1.798
  589SOL    HW1 2666   3.741   5.169   1.812
  589SOL    HW2 2667   3.872   5.181   1.715
  590SOL     OW 2668   5.628   2.896   1.401
  590SOL    HW1 2669   5.534   2.863   1.401
  590SOL    HW2 2670   5.632   2.986   1.444
  591SOL     OW 2671   4.220   6.355   3.800
  591SOL    HW1 2672   4.163   6.390   3.725
  591SOL    HW2 2673   4.164   6.299   3.861
  592SOL     OW 2674   4.153   7.020   1.094
  592SOL    HW1 2675   4.209   6.942   1.065
  592SOL    HW2 2676   4.200   0.044   1.168
  593SOL     OW 2677   4.401   2.089   3.542
  593SOL    HW1 2678   4.492   2.089   3.583
  593SOL    HW2 2679   4.332   2.076   3.613
  594SOL     OW 2680   4.443   2.408   6.180
  594SOL    HW1 2681   4.393   2.322   6.174
  594SOL    HW2 2682   4.534   2.396   6.139
  595SOL     OW 2683   5.381   6.625   3.601
  595SOL    HW1 2684   5.418   6.562   3.669
  595SOL    HW2 2685   5.446   6.637   3.527
  596SOL     OW 2686   0.671   3.881   1.971
  596SOL    HW1 2687   0.685   3.854   2.066
  596SOL    HW2 2688   0.647   3.801   1.916
  597SOL     OW 2689   4.990   0.159   5.253
  597SOL    HW1 2690   5.018   0.087   5.190
  597SOL    HW2 2691   4.892   0.175   5.245
  598SOL     OW 2692   3.370   4.313   6.775
  598SOL    HW1 2693   3.410   4.372   6.845
  598SOL    HW2 2694   3.396   4.345   6.684
  599SOL     OW 2695   1.306   6.868   2.989
  599SOL    HW1 2696   1.392   6.914   2.970
  599SOL    HW2 2697   1.269   6.830   2.904
  600SOL     OW 2698   1.387   0.977   1.219
  600SOL    HW1 2699   1.439   1.036   1.157
  600SOL    HW2 2700   1.354   1.031   1.297
  601SOL     OW 2701   3.060   6.132   4.271
  601SOL    HW1 2702   3.059   6.232   4.275
  601SOL    HW2 2703   3.082   6.102   4.178
  602SOL     OW 2704   1.226   2.355   0.018
  602SOL    HW1 2705   1.290   2.323   0.088
  602SOL    HW2 2706   1.166   2.279   7.016
  603SOL     OW 2707   4.167   2.092   3.684
  603SOL    HW1 2708   4.099   2.021   3.670
  603SOL    HW2 2709   4.159   2.130   3.776
  604SOL     OW 2710   0.318   3.990   1.302
  604SOL    HW1 2711   0.397   3.957   1.251
  604SOL    HW2 2712   0.276   3.914   1.352
  605SOL     OW 2713   6.648   5.232   3.064
  605SOL    HW1 2714   6.558   5.258   3.099
  605SOL    HW2 2715   6.718   5.249   3.133
  606SOL     OW 2716   5.112   0.408   5.395
  606SOL    HW1 2717   5.047   0.335   5.372
  606SOL    HW2 2718   5.106   0.427   5.493
  607SOL     OW 2719   5.359   0.524   5.416
  607SOL    HW1 2720   5.279   0.474   5.451
  607SOL    HW2 2721   5.367   0.611   5.464
  608SOL     OW 2722   3.981   6.362   0.246
  608SOL    HW1 2723   4.012   6.407   0.162
  608SOL    HW2 2724   3.882   6.354   0.245
  609SOL     OW 2725   3.247   3.557   3.883
  609SOL    HW1 2726   3.274   3.461   3.891
  609SOL    HW2 2727   3.156   3.562   3.842
  610SOL     OW 2728   5.593   2.307   2.910
  610SOL    HW1 2729   5.632   2.338   2.997
  610SOL    HW2 2730   5.518   2.366   2.884
  611SOL     OW 2731   0.948   0.183   6.523
  611SOL    HW1 2732   1.036   0.221   6.550
  611SOL    HW2 2733   0.958   0.133   6.437
  612SOL     OW 2734   3.884   5.700   5.430
  612SOL    HW1 2735   3.801   5.650   5.406
  612SOL    HW2 2736   3.947   5.638   5.477
  613SOL     OW 2737   4.979   6.654   5.143
  613SOL    HW1 2738   4.953   6.668   5.238
  613SOL    HW2 2739   4.903   6.678   5.083
  614SOL     OW 2740   6.130   4.392   1.072
  614SOL    HW1 2741   6.044   4.340   1.077
  614SOL    HW2 2742   6.188   4.351   1.002
  615SOL     OW 2743   0.821   1.656   1.210
  615SOL    HW1 2744   0.890   1.620   1.147
  615SOL    HW2 2745   0.782   1.580   1.263
  616SOL     OW 2746   6.011   1.672   3.059
  616SOL    HW1 2747   5.973   1.754   3.102
  616SOL    HW2 2748   5.976   1.665   2.966
  617SOL     OW 2749   0.106   3.767   6.910
  617SOL    HW1 2750   0.067   3.676   6.898
  617SOL    HW2 2751   0.174   3.783   6.839
  618SOL     OW 2752   6.502   3.194   0.659
  618SOL    HW1 2753   6.584   3.148   0.693
  618SOL    HW2 2754   6.422   3.137   0.678
  619SOL     OW 2755   4.239   0.117   6.605
  619SOL    HW1 2756   4.209   0.047   6.670
  619SOL    HW2 2757   4.239   0.206   6.650
  620SOL     OW 2758   5.953   2.807   0.890
  620SOL    HW1 2759   6.026   2.822   0.957
  620SOL    HW2 2760   5.865   2.803   0.938
  621SOL     OW 2761   1.702   0.143   5.423
  621SOL    HW1 2762   1.623   0.130   5.482
  621SOL    HW2 2763   1.783   0.105   5.467
  622SOL     OW 2764   0.516   1.886   5.131
  622SOL    HW1 2765   0.429   1.860   5.172
  622SOL    HW2 2766   0.506   1.894   5.032
  623SOL     OW 2767   0.745   0.050   5.113
  623SOL    HW1 2768   0.655   0.057   5.157
  623SOL    HW2 2769   0.761   6.979   5.088
  624SOL     OW 2770   6.476   1.185   0.106
  624SOL    HW1 2771   6.445   1.250   0.036
  624SOL    HW2 2772   6.576   1.181   0.106
  625SOL     OW 2773   1.561   1.768   0.986
  625SOL    HW1 2774   1.552   1.866   1.003
  625SOL    HW2 2775   1.554   1.749   0.888
  626SOL     OW 2776   1.012   5.533   2.529
  626SOL    HW1 2777   0.948   5.468   2.569
  626SOL    HW2 2778   1.071   5.486   2.463
  627SOL     OW 2779   6.383   6.559   0.379
  627SOL    HW1 2780   6.383   6.502   0.297
  627SOL    HW2 2781   6.470   6.609   0.385
  628SOL     OW 2782   5.502   3.649   5.184
  628SOL    HW1 2783   5.575   3.606   5.237
  628SOL    HW2 2784   5.486   3.742   5.217
  629SOL     OW 2785   0.583   1.152   6.907
  629SOL    HW1 2786   0.487   1.146   6.879
  629SOL    HW2 2787   0.633   1.212   6.845
  630SOL     OW 2788   0.023   2.220   0.553
  630SOL    HW1 2789   6.970   2.282   0.566
  630SOL    HW2 2790   7.014   2.125   0.558
  631SOL     OW 2791   3.701   1.525   4.715
  631SOL    HW1 2792   3.729   1.619   4.733
  631SOL    HW2 2793   3.746   1.492   4.631
  632SOL     OW 2794   4.285   2.945   0.751
  632SOL    HW1 2795   4.199   2.898   0.733
  632SOL    HW2 2796   4.290   3.029   0.697
  633SOL     OW 2797   2.934   4.569   6.807
  633SOL    HW1 2798   2.918   4.544   6.903
  633SOL    HW2 2799   2.971   4.490   6.758
  634SOL     OW 2800   3.705   3.261   2.967
  634SOL    HW1 2801   3.674   3.282   3.060
  634SOL    HW2 2802   3.731   3.165   2.961
  635SOL     OW 2803   4.473   6.726   0.455
  635SOL    HW1 2804   4.560   6.739   0.504
  635SOL    HW2 2805   4.402   6.699   0.520
  636SOL     OW 2806   2.952   6.948   5.882
  636SOL    HW1 2807   3.020   6.889   5.925
  636SOL    HW2 2808   2.861   6.910   5.896
  637SOL     OW 2809   6.272   2.626   2.199
  637SOL    HW1 2810   6.346   2.583   2.148
  637SOL    HW2 2811   6.209   2.670   2.135
  638SOL     OW 2812   5.685   3.925   3.738
  638SOL    HW1 2813   5.614   3.856   3.727
  638SOL    HW2 2814   5.715   3.928   3.833
  639SOL     OW 2815   5.269   4.423   3.777
  639SOL    HW1 2816   5.187   4.460   3.734
  639SOL    HW2 2817   5.314   4.359   3.715
  640SOL     OW 2818   6.914   4.806   3.681
  640SOL    HW1 2819   6.979   4.752   3.627
  640SOL    HW2 2820   6.919   4.779   3.777
  641SOL     OW 2821   0.856   4.549   4.741
  641SOL    HW1 2822   0.857   4.645   4.714
  641SOL    HW2 2823   0.939   4.529   4.794
  642SOL     OW 2824   1.487   2.695   4.434
  642SOL    HW1 2825   1.474   2.596   4.426
  642SOL    HW2 2826   1.583   2.713   4.458
  643SOL     OW 2827   6.284   0.320   6.129
  643SOL    HW1 2828   6.262   0.389   6.060
  643SOL    HW2 2829   6.378   0.289   6.116
  644SOL     OW 2830   1.959   0.669   4.522
  644SOL    HW1 2831   1.873   0.692   4.568
  644SOL    HW2 2832   1.943   0.659   4.424
  645SOL     OW 2833   3.294   5.303   4.171
  645SOL    HW1 2834   3.285   5.377   4.238
  645SOL    HW2 2835   3.289   5.341   4.079
  646SOL     OW 2836   3.887   0.657   4.503
  646SOL    HW1 2837   3.963   0.630   4.443
  646SOL    HW2 2838   3.919   0.659   4.597
  647SOL     OW 2839   5.685   2.062   4.846
  647SOL    HW1 2840   5.619   2.026   4.912
  647SOL    HW2 2841   5.640   2.124   4.783
  648SOL     OW 2842   6.789   3.550   3.625
  648SOL    HW1 2843   6.761   3.575   3.532
  648SOL    HW2 2844   6.771   3.627   3.687
  649SOL     OW 2845   2.343   3.890   0.724
  649SOL    HW1 2846   2.320   3.984   0.699
  649SOL    HW2 2847   2.357   3.883   0.822
  650SOL     OW 2848   6.491   5.435   0.906
  650SOL    HW1 2849   6.569   5.412   0.848
  650SOL    HW2 2850   6.407   5.424   0.853
  651SOL     OW 2851   1.894   0.407   5.313
  651SOL    HW1 2852   1.829   0.431   5.241
  651SOL    HW2 2853   1.858   0.435   5.402
  652SOL     OW 2854   4.325   6.510   2.282
  652SOL    HW1 2855   4.353   6.583   2.220
  652SOL    HW2 2856   4.311   6.426   2.231
  653SOL     OW 2857   0.556   6.252   0.625
  653SOL    HW1 2858   0.467   6.215   0.599
  653SOL    HW2 2859   0.572   6.234   0.722
  654SOL     OW 2860   6.793   6.557   6.078
  654SOL    HW1 2861   6.768   6.635   6.135
  654SOL    HW2 2862   6.743   6.476   6.107
  655SOL     OW 2863   6.629   5.627   1.816
  655SOL    HW1 2864   6.607   5.578   1.732
  655SOL    HW2 2865   6.575   5.590   1.891
  656SOL     OW 2866   1.972   5.994   0.011
  656SOL    HW1 2867   1.973   5.957   6.942
  656SOL    HW2 2868   1.997   6.090   0.008
  657SOL     OW 2869   3.472   3.851   0.835
  657SOL    HW1 2870   3.435   3.857   0.928
  657SOL    HW2 2871   3.467   3.756   0.804
  658SOL     OW 2872   1.453   4.103   5.516
  658SOL    HW1 2873   1.371   4.096   5.460
  658SOL    HW2 2874   1.486   4.198   5.516
  659SOL     OW 2875   2.524   5.991   4.679
  659SOL    HW1 2876   2.442   6.043   4.658
  659SOL    HW2 2877   2.604   6.034   4.636
  660SOL     OW 2878   4.298   4.636   2.431
  660SOL    HW1 2879   4.234   4.668   2.361
  660SOL    HW2 2880   4.391   4.640   2.394
  661SOL     OW 2881   4.795   3.975   4.345
  661SOL    HW1 2882   4.865   3.978   4.273
  661SOL    HW2 2883   4.738   4.057   4.340
  662SOL     OW 2884   4.463   1.078   5.801
  662SOL    HW1 2885   4.375   1.117   5.775
  662SOL    HW2 2886   4.522   1.150   5.838
  663SOL     OW 2887   0.432   4.637   0.205
  663SOL    HW1 2888   0.505   4.577   0.237
  663SOL    HW2 2889   0.449   4.662   0.110
  664SOL     OW 2890   1.382   5.724   6.725
  664SOL    HW1 2891   1.416   5.646   6.672
  664SOL    HW2 2892   1.410   5.809   6.681
  665SOL     OW 2893   4.128   5.388   0.876
  665SOL    HW1 2894   4.170   5.350   0.958
  665SOL    HW2 2895   4.182   5.466   0.844
  666SOL     OW 2896   4.139   2.615   1.153
  666SOL    HW1 2897   4.166   2.602   1.058
  666SOL    HW2 2898   4.078   2.541   1.181
  667SOL     OW 2899   0.403   4.154   3.644
  667SOL    HW1 2900   0.306   4.131   3.635
  667SOL    HW2 2901   0.433   4.134   3.737
  668SOL     OW 2902   4.780   5.635   0.319
  668SOL    HW1 2903   4.725   5.633   0.235
  668SOL    HW2 2904   4.858   5.573   0.310
  669SOL     OW 2905   2.668   6.104   3.207
  669SOL    HW1 2906   2.603   6.111   3.283
  669SOL    HW2 2907   2.619   6.117   3.121
  670SOL     OW 2908   3.320   3.841   2.089
  670SOL    HW1 2909   3.299   3.920   2.147
  670SOL    HW2 2910   3.308   3.757   2.143
  671SOL     OW 2911   2.424   6.229   6.588
  671SOL    HW1 2912   2.501   6.290   6.609
  671SOL    HW2 2913   2.440   6.141   6.632
  672SOL     OW 2914   0.660   3.965   2.348
  672SOL    HW1 2915   0.680   3.871   2.320
  672SOL    HW2 2916   0.721   4.028   2.301
  673SOL     OW 2917   4.521   0.189   1.072
  673SOL    HW1 2918   4.542   0.105   1.022
  673SOL    HW2 2919   4.484   0.257   1.009
  674SOL     OW 2920   6.910   2.970   4.187
  674SOL    HW1 2921   6.898   3.065   4.156
  674SOL    HW2 2922   6.822   2.924   4.187
  675SOL     OW 2923   0.680   1.634   5.014
  675SOL    HW1 2924   0.642   1.575   4.942
  675SOL    HW2 2925   0.628   1.720   5.016
  676SOL     OW 2926   3.003   5.011   3.469
  676SOL    HW1 2927   3.079   4.948   3.453
  676SOL    HW2 2928   3.000   5.079   3.396
  677SOL     OW 2929   5.992   1.297   6.383
  677SOL    HW1 2930   6.001   1.310   6.482
  677SOL    HW2 2931   6.075   1.331   6.338
  678SOL     OW 2932   1.999   1.333   5.040
  678SOL    HW1 2933   2.060   1.381   4.977
  678SOL    HW2 2934   2.052   1.296   5.117
  679SOL     OW 2935   4.502   0.948   4.795
  679SOL    HW1 2936   4.508   0.984   4.888
  679SOL    HW2 2937   4.472   1.022   4.733
  680SOL     OW 2938   6.115   4.936   5.885
  680SOL    HW1 2939   6.095   4.841   5.908
  680SOL    HW2 2940   6.073   4.996   5.952
  681SOL     OW 2941   5.734   0.302   0.813
  681SOL    HW1 2942   5.731   0.217   0.760
  681SOL    HW2 2943   5.826   0.341   0.807
  682SOL     OW 2944   1.487   6.813   6.506
  682SOL    HW1 2945   1.536   6.792   6.591
  682SOL    HW2 2946   1.425   6.891   6.521
  683SOL     OW 2947   3.270   0.826   6.002
  683SOL    HW1 2948   3.318   0.847   6.088
  683SOL    HW2 2949   3.243   0.912   5.958
  684SOL     OW 2950   6.248   1.609   6.366
  684SOL    HW1 2951   6.151   1.615   6.391
  684SOL    HW2 2952   6.303   1.658   6.433
  685SOL     OW 2953   4.866   6.716   5.393
  685SOL    HW1 2954   4.792   6.780   5.374
  685SOL    HW2 2955   4.907   6.739   5.482
  686SOL     OW 2956   5.584   2.796   2.974
  686SOL    HW1 2957   5.671   2.845   2.964
  686SOL    HW2 2958   5.540   2.824   3.059
  687SOL     OW 2959   6.879   2.926   5.461
  687SOL    HW1 2960   6.938   2.963   5.389
  687SOL    HW2 2961   6.789   2.905   5.423
  688SOL     OW 2962   1.674   4.241   0.418
  688SOL    HW1 2963   1.764   4.202   0.403
  688SOL    HW2 2964   1.675   4.338   0.392
  689SOL     OW 2965   0.862   4.332   5.518
  689SOL    HW1 2966   0.779   4.338   5.573
  689SOL    HW2 2967   0.839   4.342   5.421
  690SOL     OW 2968   0.226   3.669   3.415
  690SOL    HW1 2969   0.200   3.723   3.495
  690SOL    HW2 2970   0.246   3.575   3.442
  691SOL     OW 2971   2.139   1.519   6.693
  691SOL    HW1 2972   2.171   1.425   6.680
  691SOL    HW2 2973   2.075   1.522   6.770
  692SOL     OW 2974   3.265   6.642   3.969
  692SOL    HW1 2975   3.237   6.670   3.877
  692SOL    HW2 2976   3.238   6.712   4.035
  693SOL     OW 2977   6.452   1.259   3.173
  693SOL    HW1 2978   6.438   1.288   3.078
  693SOL    HW2 2979   6.548   1.233   3.186
  694SOL     OW 2980   3.100   5.614   2.240
  694SOL    HW1 2981   3.139   5.662   2.319
  694SOL    HW2 2982   3.130   5.658   2.156
  695SOL     OW 2983   5.017   4.894   5.699
  695SOL    HW1 2984   5.022   4.936   5.608
  695SOL    HW2 2985   5.054   4.958   5.766
  696SOL     OW 2986   3.266   5.191   1.592
  696SOL    HW1 2987   3.365   5.195   1.578
  696SOL    HW2 2988   3.245   5.196   1.689
  697SOL     OW 2989   1.283   2.958   5.553
  697SOL    HW1 2990   1.370   2.910   5.540
  697SOL    HW2 2991   1.209   2.903   5.512
  698SOL     OW 2992   6.095   0.556   5.692
  698SOL    HW1 2993   6.171   0.595   5.640
  698SOL    HW2 2994   6.028   0.628   5.712
  699SOL     OW 2995   0.476   4.199   0.199
  699SOL    HW1 2996   0.516   4.289   0.180
  699SOL    HW2 2997   0.463   4.150   0.113
  700SOL     OW 2998   3.350   1.886   3.816
  700SOL    HW1 2999   3.373   1.821   3.889
  700SOL    HW2 3000   3.433   1.936   3.789
  701SOL     OW 3001   0.582   4.246   5.986
  701SOL    HW1 3002   0.626   4.311   6.048
  701SOL    HW2 3003   0.485   4.267   5.980
  702SOL     OW 3004   5.561   6.115   6.508
  702SOL    HW1 3005   5.571   6.153   6.600
  702SOL    HW2 3006   5.595   6.180   6.440
  703SOL     OW 3007   4.444   3.765   6.348
  703SOL    HW1 3008   4.531   3.717   6.337
  703SOL    HW2 3009   4.461   3.864   6.344
  704SOL     OW 3010   1.828   1.414   6.105
  704SOL    HW1 3011   1.752   1.350   6.092
  704SOL    HW2 3012   1.827   1.447   6.199
  705SOL     OW 3013   5.270   6.891   3.661
  705SOL    HW1 3014   5.317   6.802   3.661
  705SOL    HW2 3015   5.184   6.883   3.711
  706SOL     OW 3016   3.953   2.086   3.178
  706SOL    HW1 3017   3.986   2.153   3.244
  706SOL    HW2 3018   3.952   1.995   3.221
  707SOL     OW 3019   4.488   0.193   2.819
  707SOL    HW1 3020   4.574   0.192   2.869
  707SOL    HW2 3021   4.474   0.284   2.780
  708SOL     OW 3022   4.194   0.328   1.101
  708SOL    HW1 3023   4.213   0.258   1.170
  708SOL    HW2 3024   4.230   0.300   1.013
  709SOL     OW 3025   1.615   5.542   0.410
  709SOL    HW1 3026   1.557   5.508   0.336
  709SOL    HW2 3027   1.563   5.544   0.495
  710SOL     OW 3028   4.059   3.159   2.723
  710SOL    HW1 3029   4.141   3.177   2.778
  710SOL    HW2 3030   4.018   3.245   2.694
  711SOL     OW 3031   1.238   1.856   6.280
  711SOL    HW1 3032   1.255   1.953   6.294
  711SOL    HW2 3033   1.322   1.813   6.245
  712SOL     OW 3034   2.359   4.510   0.534
  712SOL    HW1 3035   2.456   4.483   0.532
  712SOL    HW2 3036   2.350   4.598   0.581
  713SOL     OW 3037   2.894   3.643   0.315
  713SOL    HW1 3038   2.889   3.551   0.354
  713SOL    HW2 3039   2.956   3.699   0.371
  714SOL     OW 3040   6.725   4.693   4.978
  714SOL    HW1 3041   6.698   4.694   4.882
  714SOL    HW2 3042   6.821   4.667   4.986
  715SOL     OW 3043   5.072   6.285   0.695
  715SOL    HW1 3044   5.041   6.365   0.746
  715SOL    HW2 3045   4.996   6.220   0.688
  716SOL     OW 3046   0.657   6.510   0.871
  716SOL    HW1 3047   0.660   6.410   0.875
  716SOL    HW2 3048   0.743   6.544   0.833
  717SOL     OW 3049   5.837   5.451   6.524
  717SOL    HW1 3050   5.876   5.470   6.435
  717SOL    HW2 3051   5.757   5.509   6.539
  718SOL     OW 3052   4.561   2.204   5.726
  718SOL    HW1 3053   4.553   2.169   5.819
  718SOL    HW2 3054   4.550   2.128   5.661
  719SOL     OW 3055   6.034   2.791   1.294
  719SOL    HW1 3056   5.965   2.751   1.355
  719SOL    HW2 3057   6.033   2.742   1.207
  720SOL     OW 3058   3.386   1.015   6.158
  720SOL    HW1 3059   3.466   1.022   6.217
  720SOL    HW2 3060   3.372   1.101   6.109
  721SOL     OW 3061   1.853   0.087   4.581
  721SOL    HW1 3062   1.884   0.047   4.667
  721SOL    HW2 3063   1.892   0.035   4.504
  722SOL     OW 3064   3.279   6.941   5.312
  722SOL    HW1 3065   3.360   6.927   5.255
  722SOL    HW2 3066   3.291   7.024   5.366
  723SOL     OW 3067   2.184   3.194   2.723
  723SOL    HW1 3068   2.151   3.270   2.667
  723SOL    HW2 3069   2.223   3.230   2.808
  724SOL     OW 3070   1.248   1.089   4.358
  724SOL    HW1 3071   1.215   1.084   4.452
  724SOL    HW2 3072   1.345   1.115   4.358
  725SOL     OW 3073   3.016   5.218   1.454
  725SOL    HW1 3074   2.962   5.281   1.510
  725SOL    HW2 3075   3.102   5.198   1.499
  726SOL     OW 3076   4.383   4.365   0.791
  726SOL    HW1 3077   4.407   4.274   0.825
  726SOL    HW2 3078   4.434   4.434   0.844
  727SOL     OW 3079   4.989   5.708   5.350
  727SOL    HW1 3080   5.084   5.693   5.380
  727SOL    HW2 3081   4.927   5.664   5.414
  728SOL     OW 3082   0.907   4.000   5.307
  728SOL    HW1 3083   0.876   4.002   5.402
  728SOL    HW2 3084   0.882   4.086   5.262
  729SOL     OW 3085   2.159   0.732   0.226
  729SOL    HW1 3086   2.143   0.780   0.312
  729SOL    HW2 3087   2.258   0.725   0.209
  730SOL     OW 3088   5.599   0.174   3.692
  730SOL    HW1 3089   5.609   0.198   3.595
  730SOL    HW2 3090   5.566   0.254   3.742
  731SOL     OW 3091   6.130   3.529   5.987
  731SOL    HW1 3092   6.217   3.579   5.978
  731SOL    HW2 3093   6.087   3.553   6.074
  732SOL     OW 3094   0.232   3.775   0.898
  732SOL    HW1 3095   0.200   3.852   0.954
  732SOL    HW2 3096   0.310   3.731   0.942
  733SOL     OW 3097   6.114   4.516   4.905
  733SOL    HW1 3098   6.101   4.468   4.818
  733SOL    HW2 3099   6.207   4.555   4.908
  734SOL     OW 3100   6.462   4.658   2.651
  734SOL    HW1 3101   6.511   4.662   2.564
  734SOL    HW2 3102   6.415   4.746   2.666
  735SOL     OW 3103   3.307   2.828   0.940
  735SOL    HW1 3104   3.360   2.880   1.008
  735SOL    HW2 3105   3.250   2.761   0.987
  736SOL     OW 3106   6.480   5.885   2.707
  736SOL    HW1 3107   6.391   5.923   2.680
  736SOL    HW2 3108   6.466   5.813   2.774
  737SOL     OW 3109   4.406   2.971   0.279
  737SOL    HW1 3110   4.306   2.974   0.284
  737SOL    HW2 3111   4.443   3.063   0.295
  738SOL     OW 3112   2.209   4.662   2.925
  738SOL    HW1 3113   2.198   4.704   2.834
  738SOL    HW2 3114   2.303   4.631   2.935
  739SOL     OW 3115   4.696   6.441   5.474
  739SOL    HW1 3116   4.679   6.343   5.476
  739SOL    HW2 3117   4.790   6.458   5.442
  740SOL     OW 3118   5.121   6.975   0.959
  740SOL    HW1 3119   5.091   7.005   1.050
  740SOL    HW2 3120   5.067   6.896   0.931
  741SOL     OW 3121   2.049   6.551   2.976
  741SOL    HW1 3122   2.019   6.486   3.047
  741SOL    HW2 3123   2.091   6.630   3.020
  742SOL     OW 3124   2.328   6.784   1.508
  742SOL    HW1 3125   2.253   6.797   1.573
  742SOL    HW2 3126   2.291   6.776   1.416
  743SOL     OW 3127   1.552   3.807   4.442
  743SOL    HW1 3128   1.618   3.834   4.371
  743SOL    HW2 3129   1.548   3.879   4.512
  744SOL     OW 3130   6.072   0.225   6.284
  744SOL    HW1 3131   6.154   0.250   6.233
  744SOL    HW2 3132   6.072   0.126   6.300
  745SOL     OW 3133   0.882   5.214   4.386
  745SOL    HW1 3134   0.969   5.198   4.340
  745SOL    HW2 3135   0.879   5.308   4.420
  746SOL     OW 3136   0.933   5.980   5.666
  746SOL    HW1 3137   0.856   5.918   5.657
  746SOL    HW2 3138   0.904   6.074   5.646
  747SOL     OW 3139   4.616   4.723   5.051
  747SOL    HW1 3140   4.644   4.758   4.961
  747SOL    HW2 3141   4.615   4.798   5.117
  748SOL     OW 3142   3.651   5.648   2.876
  748SOL    HW1 3143   3.732   5.619   2.926
  748SOL    HW2 3144   3.655   5.746   2.858
  749SOL     OW 3145   6.625   3.553   4.956
  749SOL    HW1 3146   6.618   3.587   4.863
  749SOL    HW2 3147   6.605   3.627   5.020
  750SOL     OW 3148   2.059   3.546   0.786
  750SOL    HW1 3149   1.964   3.516   0.801
  750SOL    HW2 3150   2.081   3.618   0.852
  751SOL     OW 3151   4.045   1.906   6.446
  751SOL    HW1 3152   4.090   1.961   6.516
  751SOL    HW2 3153   3.948   1.900   6.465
  752SOL     OW 3154   4.236   2.485   1.703
  752SOL    HW1 3155   4.142   2.512   1.685
  752SOL    HW2 3156   4.283   2.466   1.617
  753SOL     OW 3157   2.098   2.778   4.345
  753SOL    HW1 3158   2.131   2.851   4.404
  753SOL    HW2 3159   2.085   2.695   4.399
  754SOL     OW 3160   5.597   3.197   6.616
  754SOL    HW1 3161   5.688   3.161   6.636
  754SOL    HW2 3162   5.606   3.291   6.582
  755SOL     OW 3163   1.560   5.681   6.331
  755SOL    HW1 3164   1.476   5.713   6.375
  755SOL    HW2 3165   1.639   5.719   6.379
  756SOL     OW 3166   4.116   6.731   1.498
  756SOL    HW1 3167   4.082   6.637   1.487
  756SOL    HW2 3168   4.153   6.742   1.590
  757SOL     OW 3169   0.513   6.413   2.917
  757SOL    HW1 3170   0.486   6.367   3.002
  757SOL    HW2 3171   0.514   6.347   2.842
  758SOL     OW 3172   4.265   0.926   1.632
  758SOL    HW1 3173   4.181   0.873   1.644
  758SOL    HW2 3174   4.280   0.943   1.535
  759SOL     OW 3175   0.493   0.849   0.781
  759SOL    HW1 3176   0.570   0.899   0.822
  759SOL    HW2 3177   0.487   0.758   0.823
  760SOL     OW 3178   4.570   0.937   6.399
  760SOL    HW1 3179   4.535   0.860   6.453
  760SOL    HW2 3180   4.502   0.963   6.330
  761SOL     OW 3181   5.688   4.033   5.838
  761SOL    HW1 3182   5.713   3.944   5.799
  761SOL    HW2 3183   5.598   4.060   5.804
  762SOL     OW 3184   2.195   6.739   4.231
  762SOL    HW1 3185   2.169   6.773   4.321
  762SOL    HW2 3186   2.259   6.803   4.188
  763SOL     OW 3187   4.061   4.906   6.383
  763SOL    HW1 3188   4.153   4.883   6.415
  763SOL    HW2 3189   4.064   4.933   6.287
  764SOL     OW 3190   4.728   0.784   3.718
  764SOL    HW1 3191   4.777   0.727   3.652
  764SOL    HW2 3192   4.662   0.841   3.669
  765SOL     OW 3193   1.366   6.687   1.116
  765SOL    HW1 3194   1.448   6.736   1.085
  765SOL    HW2 3195   1.339   6.621   1.047
  766SOL     OW 3196   0.660   2.468   0.784
  766SOL    HW1 3197   0.589   2.533   0.757
  766SOL    HW2 3198   0.632   2.421   0.868
  767SOL     OW 3199   6.720   5.948   2.536
  767SOL    HW1 3200   6.714   5.890   2.455
  767SOL    HW2 3201   6.634   5.942   2.588
  768SOL     OW 3202   2.887   6.744   2.301
  768SOL    HW1 3203   2.899   6.732   2.202
  768SOL    HW2 3204   2.893   6.656   2.346
  769SOL     OW 3205   3.174   0.679   4.164
  769SOL    HW1 3206   3.100   0.651   4.226
  769SOL    HW2 3207   3.199   0.602   4.106
  770SOL     OW 3208   1.423   4.693   3.009
  770SOL    HW1 3209   1.490   4.622   3.034
  770SOL    HW2 3210   1.403   4.687   2.912
  771SOL     OW 3211   2.189   5.332   2.424
  771SOL    HW1 3212   2.145   5.420   2.405
  771SOL    HW2 3213   2.252   5.342   2.501
  772SOL     OW 3214   0.045   5.291   0.716
  772SOL    HW1 3215   0.133   5.327   0.749
  772SOL    HW2 3216   6.995   5.345   0.755
  773SOL     OW 3217   0.162   4.197   3.445
  773SOL    HW1 3218   0.083   4.222   3.501
  773SOL    HW2 3219   0.142   4.113   3.394
  774SOL     OW 3220   1.345   1.286   2.504
  774SOL    HW1 3221   1.370   1.283   2.407
  774SOL    HW2 3222   1.384   1.367   2.546
  775SOL     OW 3223   0.458   1.845   3.204
  775SOL    HW1 3224   0.434   1.821   3.110
  775SOL    HW2 3225   0.497   1.937   3.206
  776SOL     OW 3226   6.797   1.064   5.466
  776SOL    HW1 3227   6.749   1.109   5.390
  776SOL    HW2 3228   6.730   1.035   5.535
  777SOL     OW 3229   3.206   6.371   1.163
  777SOL    HW1 3230   3.293   6.421   1.163
  777SOL    HW2 3231   3.203   6.310   1.084
  778SOL     OW 3232   3.392   1.173   2.851
  778SOL    HW1 3233   3.334   1.255   2.852
  778SOL    HW2 3234   3.482   1.196   2.816
  779SOL     OW 3235   0.912   2.023   2.730
  779SOL    HW1 3236   0.998   2.056   2.692
  779SOL    HW2 3237   0.905   2.049   2.826
  780SOL     OW 3238   6.672   3.838   4.158
  780SOL    HW1 3239   6.593   3.899   4.149
  780SOL    HW2 3240   6.739   3.879   4.219
  781SOL     OW 3241   5.256   1.941   6.529
  781SOL    HW1 3242   5.181   1.923   6.467
  781SOL    HW2 3243   5.340   1.958   6.477
  782SOL     OW 3244   0.609   3.697   0.165
  782SOL    HW1 3245   0.634   3.719   0.071
  782SOL    HW2 3246   0.513   3.669   0.169
  783SOL     OW 3247   3.987   4.814   0.671
  783SOL    HW1 3248   4.068   4.778   0.625
  783SOL    HW2 3249   4.011   4.843   0.763
  784SOL     OW 3250   4.944   6.862   6.535
  784SOL    HW1 3251   4.850   6.877   6.503
  784SOL    HW2 3252   4.968   6.933   6.601
  785SOL     OW 3253   6.744   2.201   3.613
  785SOL    HW1 3254   6.822   2.245   3.658
  785SOL    HW2 3255   6.734   2.238   3.521
  786SOL     OW 3256   1.847   1.417   1.256
  786SOL    HW1 3257   1.914   1.349   1.286
  786SOL    HW2 3258   1.895   1.494   1.213
  787SOL     OW 3259   3.160   1.521   6.366
  787SOL    HW1 3260   3.238   1.465   6.341
  787SOL    HW2 3261   3.140   1.586   6.292
  788SOL     OW 3262   2.350   2.213   4.899
  788SOL    HW1 3263   2.251   2.228   4.898
  788SOL    HW2 3264   2.378   2.182   4.990
  789SOL     OW 3265   5.138   3.930   0.717
  789SOL    HW1 3266   5.129   4.025   0.747
  789SOL    HW2 3267   5.110   3.922   0.622
  790SOL     OW 3268   2.671   1.043   3.850
  790SOL    HW1 3269   2.654   1.105   3.926
  790SOL    HW2 3270   2.595   0.978   3.842
  791SOL     OW 3271   3.522   6.658   3.129
  791SOL    HW1 3272   3.620   6.665   3.111
  791SOL    HW2 3273   3.488   6.572   3.093
  792SOL     OW 3274   0.322   0.456   1.871
  792SOL    HW1 3275   0.282   0.544   1.895
  792SOL    HW2 3276   0.265   0.410   1.803
  793SOL     OW 3277   4.653   6.127   2.432
  793SOL    HW1 3278   4.574   6.114   2.372
  793SOL    HW2 3279   4.648   6.062   2.508
  794SOL     OW 3280   3.042   3.378   5.164
  794SOL    HW1 3281   2.945   3.354   5.172
  794SOL    HW2 3282   3.093   3.298   5.132
  795SOL     OW 3283   3.422   5.616   4.695
  795SOL    HW1 3284   3.396   5.712   4.693
  795SOL    HW2 3285   3.521   5.607   4.688
  796SOL     OW 3286   1.292   2.397   6.255
  796SOL    HW1 3287   1.313   2.489   6.222
  796SOL    HW2 3288   1.301   2.395   6.355
  797SOL     OW 3289   4.941   2.351   2.293
  797SOL    HW1 3290   5.028   2.400   2.295
  797SOL    HW2 3291   4.905   2.343   2.386
  798SOL     OW 3292   5.358   6.768   1.384
  798SOL    HW1 3293   5.298   6.832   1.432
  798SOL    HW2 3294   5.369   6.798   1.289
  799SOL     OW 3295   5.939   1.513   4.196
  799SOL    HW1 3296   6.018   1.503   4.256
  799SOL    HW2 3297   5.937   1.606   4.158
  800SOL     OW 3298   5.409   1.290   2.692
  800SOL    HW1 3299   5.452   1.353   2.757
  800SOL    HW2 3300   5.352   1.342   2.628
  801SOL     OW 3301   1.860   3.060   3.443
  801SOL    HW1 3302   1.771   3.038   3.484
  801SOL    HW2 3303   1.846   3.100   3.352
  802SOL     OW 3304   4.173   0.081   0.450
  802SOL    HW1 3305   4.129   0.154   0.502
  802SOL    HW2 3306   4.236   0.121   0.383
  803SOL     OW 3307   0.744   5.122   5.031
  803SOL    HW1 3308   0.659   5.078   5.061
  803SOL    HW2 3309   0.731   5.161   4.940
  804SOL     OW 3310   6.018   6.206   6.996
  804SOL    HW1 3311   6.068   6.211   6.910
  804SOL    HW2 3312   5.991   6.111   7.013
  805SOL     OW 3313   3.281   2.032   5.524
  805SOL    HW1 3314   3.208   2.085   5.567
  805SOL    HW2 3315   3.242   1.952   5.479
  806SOL     OW 3316   4.463   1.113   4.588
  806SOL    HW1 3317   4.372   1.132   4.552
  806SOL    HW2 3318   4.527   1.100   4.512
  807SOL     OW 3319   0.336   1.874   4.110
  807SOL    HW1 3320   0.391   1.925   4.044
  807SOL    HW2 3321   0.258   1.833   4.064
  808SOL     OW 3322   4.627   3.880   6.077
  808SOL    HW1 3323   4.697   3.822   6.036
  808SOL    HW2 3324   4.669   3.961   6.117
  809SOL     OW 3325   0.491   4.732   1.602
  809SOL    HW1 3326   0.561   4.707   1.536
  809SOL    HW2 3327   0.533   4.741   1.693
  810SOL     OW 3328   3.767   2.416   1.290
  810SOL    HW1 3329   3.862   2.416   1.259
  810SOL    HW2 3330   3.712   2.361   1.227
  811SOL     OW 3331   4.150   5.699   4.157
  811SOL    HW1 3332   4.194   5.769   4.214
  811SOL    HW2 3333   4.065   5.669   4.202
  812SOL     OW 3334   0.739   1.352   2.537
  812SOL    HW1 3335   0.736   1.452   2.535
  812SOL    HW2 3336   0.829   1.322   2.569
  813SOL     OW 3337   3.921   4.866   4.635
  813SOL    HW1 3338   3.853   4.813   4.685
  813SOL    HW2 3339   3.914   4.962   4.660
  814SOL     OW 3340   5.447   6.233   3.543
  814SOL    HW1 3341   5.369   6.236   3.606
  814SOL    HW2 3342   5.471   6.138   3.523
  815SOL     OW 3343   7.003   3.154   3.104
  815SOL    HW1 3344   0.001   3.183   3.011
  815SOL    HW2 3345   6.993   3.054   3.106
  816SOL     OW 3346   6.687   6.656   0.341
  816SOL    HW1 3347   6.733   6.644   0.429
  816SOL    HW2 3348   6.745   6.619   0.268
  817SOL     OW 3349   2.315   4.002   1.836
  817SOL    HW1 3350   2.230   4.034   1.796
  817SOL    HW2 3351   2.339   3.913   1.796
  818SOL     OW 3352   6.204   3.388   1.564
  818SOL    HW1 3353   6.182   3.334   1.482
  818SOL    HW2 3354   6.263   3.334   1.624
  819SOL     OW 3355   5.706   3.240   3.337
  819SOL    HW1 3356   5.779   3.191   3.289
  819SOL    HW2 3357   5.663   3.305   3.274
  820SOL     OW 3358   1.890   2.594   6.555
  820SOL    HW1 3359   1.874   2.622   6.649
  820SOL    HW2 3360   1.819   2.632   6.496
  821SOL     OW 3361   2.434   4.791   0.645
  821SOL    HW1 3362   2.360   4.803   0.579
  821SOL    HW2 3363   2.497   4.868   0.639
  822SOL     OW 3364   0.830   4.777   4.502
  822SOL    HW1 3365   0.762   4.778   4.429
  822SOL    HW2 3366   0.905   4.717   4.477
  823SOL     OW 3367   4.892   4.177   6.938
  823SOL    HW1 3368   4.833   4.139   6.867
  823SOL    HW2 3369   4.854   4.156   0.004
  824SOL     OW 3370   5.160   0.833   5.193
  824SOL    HW1 3371   5.167   0.747   5.142
  824SOL    HW2 3372   5.190   0.909   5.135
  825SOL     OW 3373   1.352   4.130   1.651
  825SOL    HW1 3374   1.298   4.193   1.595
  825SOL    HW2 3375   1.423   4.088   1.595
  826SOL     OW 3376   5.693   3.291   0.261
  826SOL    HW1 3377   5.769   3.325   0.205
  826SOL    HW2 3378   5.656   3.208   0.220
  827SOL     OW 3379   3.357   5.825   6.152
  827SOL    HW1 3380   3.337   5.906   6.208
  827SOL    HW2 3381   3.452   5.829   6.122
  828SOL     OW 3382   6.094   0.092   5.666
  828SOL    HW1 3383   6.077   0.190   5.651
  828SOL    HW2 3384   6.073   0.042   5.583
  829SOL     OW 3385   2.937   3.735   3.812
  829SOL    HW1 3386   2.908   3.763   3.904
  829SOL    HW2 3387   2.943   3.635   3.807
  830SOL     OW 3388   5.106   5.050   6.632
  830SOL    HW1 3389   5.176   5.035   6.562
  830SOL    HW2 3390   5.151   5.067   6.720
  831SOL     OW 3391   6.533   0.765   5.314
  831SOL    HW1 3392   6.443   0.728   5.290
  831SOL    HW2 3393   6.560   0.732   5.404
  832SOL     OW 3394   2.143   0.942   0.754
  832SOL    HW1 3395   2.176   0.891   0.834
  832SOL    HW2 3396   2.054   0.906   0.727
  833SOL     OW 3397   0.216   4.889   5.794
  833SOL    HW1 3398   0.292   4.828   5.819
  833SOL    HW2 3399   0.251   4.982   5.782
  834SOL     OW 3400   3.189   3.507   1.261
  834SOL    HW1 3401   3.141   3.436   1.313
  834SOL    HW2 3402   3.267   3.466   1.214
  835SOL     OW 3403   3.588   6.756   3.949
  835SOL    HW1 3404   3.590   6.826   3.878
  835SOL    HW2 3405   3.672   6.702   3.945
  836SOL     OW 3406   3.746   6.858   6.852
  836SOL    HW1 3407   3.801   6.781   6.885
  836SOL    HW2 3408   3.650   6.829   6.844
  837SOL     OW 3409   5.209   6.574   7.002
  837SOL    HW1 3410   5.113   6.597   6.988
  837SOL    HW2 3411   5.263   6.609   6.925
  838SOL     OW 3412   1.212   0.740   5.046
  838SOL    HW1 3413   1.304   0.780   5.051
  838SOL    HW2 3414   1.217   0.651   5.002
  839SOL     OW 3415   2.460   2.608   2.199
  839SOL    HW1 3416   2.433   2.556   2.118
  839SOL    HW2 3417   2.518   2.685   2.172
  840SOL     OW 3418   6.202   0.020   5.908
  840SOL    HW1 3419   6.139   0.001   5.984
  840SOL    HW2 3420   6.151   0.061   5.833
  841SOL     OW 3421   5.974   4.759   0.367
  841SOL    HW1 3422   5.910   4.812   0.422
  841SOL    HW2 3423   5.926   4.717   0.291
  842SOL     OW 3424   4.570   4.917   4.413
  842SOL    HW1 3425   4.502   4.865   4.362
  842SOL    HW2 3426   4.539   4.930   4.507
  843SOL     OW 3427   4.259   1.899   6.789
  843SOL    HW1 3428   4.251   1.971   6.720
  843SOL    HW2 3429   4.349   1.854   6.781
  844SOL     OW 3430   4.382   6.841   1.021
  844SOL    HW1 3431   4.416   6.844   0.927
  844SOL    HW2 3432   4.457   6.860   1.084
  845SOL     OW 3433   6.093   3.697   4.686
  845SOL    HW1 3434   6.140   3.628   4.741
  845SOL    HW2 3435   6.112   3.788   4.723
  846SOL     OW 3436   4.691   1.941   6.764
  846SOL    HW1 3437   4.619   1.877   6.793
  846SOL    HW2 3438   4.776   1.919   6.811
  847SOL     OW 3439   0.105   3.421   0.116
  847SOL    HW1 3440   0.172   3.373   0.174
  847SOL    HW2 3441   0.023   3.440   0.170
  848SOL     OW 3442   6.466   1.811   6.400
  848SOL    HW1 3443   6.520   1.880   6.448
  848SOL    HW2 3444   6.388   1.854   6.355
  849SOL     OW 3445   1.148   4.818   6.067
  849SOL    HW1 3446   1.121   4.730   6.026
  849SOL    HW2 3447   1.215   4.863   6.009
  850SOL     OW 3448   5.508   1.025   3.519
  850SOL    HW1 3449   5.508   1.098   3.451
  850SOL    HW2 3450   5.470   1.059   3.605
  851SOL     OW 3451   0.364   1.835   1.823
  851SOL    HW1 3452   0.458   1.870   1.828
  851SOL    HW2 3453   0.365   1.736   1.839
  852SOL     OW 3454   2.825   2.600   0.103
  852SOL    HW1 3455   2.799   2.530   0.037
  852SOL    HW2 3456   2.747   2.659   0.121
  853SOL     OW 3457   1.202   4.019   1.849
  853SOL    HW1 3458   1.287   3.980   1.887
  853SOL    HW2 3459   1.185   3.980   1.759
  854SOL     OW 3460   4.720   5.721   2.225
  854SOL    HW1 3461   4.703   5.628   2.256
  854SOL    HW2 3462   4.769   5.720   2.138
  855SOL     OW 3463   6.558   0.273   1.308
  855SOL    HW1 3464   6.573   0.177   1.332
  855SOL    HW2 3465   6.478   0.308   1.356
  856SOL     OW 3466   1.789   1.669   4.560
  856SOL    HW1 3467   1.772   1.666   4.461
  856SOL    HW2 3468   1.786   1.764   4.591
  857SOL     OW 3469   6.049   5.297   1.281
  857SOL    HW1 3470   6.148   5.290   1.269
  857SOL    HW2 3471   6.021   5.392   1.267
  858SOL     OW 3472   2.075   4.343   1.614
  858SOL    HW1 3473   2.095   4.247   1.633
  858SOL    HW2 3474   1.987   4.349   1.565
  859SOL     OW 3475   5.094   5.359   6.801
  859SOL    HW1 3476   5.181   5.310   6.796
  859SOL    HW2 3477   5.091   5.413   6.885
  860SOL     OW 3478   4.368   4.196   1.005
  860SOL    HW1 3479   4.374   4.212   1.104
  860SOL    HW2 3480   4.272   4.189   0.978
  861SOL     OW 3481   2.386   0.429   4.802
  861SOL    HW1 3482   2.345   0.508   4.847
  861SOL    HW2 3483   2.317   0.358   4.790
  862SOL     OW 3484   6.778   4.526   5.472
  862SOL    HW1 3485   6.715   4.502   5.398
  862SOL    HW2 3486   6.790   4.625   5.475
  863SOL     OW 3487   1.296   0.289   0.731
  863SOL    HW1 3488   1.329   0.235   0.809
  863SOL    HW2 3489   1.197   0.283   0.727
  864SOL     OW 3490   4.977   4.783   3.606
  864SOL    HW1 3491   5.022   4.848   3.544
  864SOL    HW2 3492   4.887   4.819   3.631
  865SOL     OW 3493   1.665   6.389   5.624
  865SOL    HW1 3494   1.592   6.406   5.689
  865SOL    HW2 3495   1.661   6.457   5.551
  866SOL     OW 3496   2.049   3.014   1.295
  866SOL    HW1 3497   2.056   3.112   1.276
  866SOL    HW2 3498   2.044   2.964   1.209
  867SOL     OW 3499   3.835   2.891   0.929
  867SOL    HW1 3500   3.802   2.952   0.857
  867SOL    HW2 3501   3.801   2.799   0.912
  868SOL     OW 3502   6.069   6.447   1.297
  868SOL    HW1 3503   6.021   6.419   1.214
  868SOL    HW2 3504   6.104   6.366   1.345
  869SOL     OW 3505   6.604   5.326   2.675
  869SOL    HW1 3506   6.670   5.385   2.629
  869SOL    HW2 3507   6.571   5.370   2.758
  870SOL     OW 3508   5.949   3.592   0.450
  870SOL    HW1 3509   6.006   3.512   0.471
  870SOL    HW2 3510   5.852   3.566   0.456
  871SOL     OW 3511   6.652   3.552   2.045
  871SOL    HW1 3512   6.736   3.509   2.014
  871SOL    HW2 3513   6.615   3.611   1.973
  872SOL     OW 3514   6.411   4.163   3.917
  872SOL    HW1 3515   6.363   4.104   3.852
  872SOL    HW2 3516   6.374   4.256   3.912
  873SOL     OW 3517   4.694   0.037   3.646
  873SOL    HW1 3518   4.781   0.058   3.692
  873SOL    HW2 3519   4.619   0.082   3.696
  874SOL     OW 3520   1.549   4.380   5.468
  874SOL    HW1 3521   1.527   4.372   5.371
  874SOL    HW2 3522   1.535   4.474   5.498
  875SOL     OW 3523   4.907   3.273   1.394
  875SOL    HW1 3524   4.890   3.237   1.486
  875SOL    HW2 3525   4.938   3.368   1.401
  876SOL     OW 3526   0.272   5.379   3.570
  876SOL    HW1 3527   0.178   5.350   3.587
  876SOL    HW2 3528   0.279   5.417   3.477
  877SOL     OW 3529   3.802   4.668   6.776
  877SOL    HW1 3530   3.708   4.702   6.770
  877SOL    HW2 3531   3.852   4.695   6.695
  878SOL     OW 3532   4.029   5.790   6.501
  878SOL    HW1 3533   4.129   5.791   6.496
  878SOL    HW2 3534   3.991   5.748   6.418
  879SOL     OW 3535   3.697   1.967   2.288
  879SOL    HW1 3536   3.678   2.035   2.218
  879SOL    HW2 3537   3.614   1.914   2.307
  880SOL     OW 3538   2.905   5.046   6.948
  880SOL    HW1 3539   2.968   5.010   7.017
  880SOL    HW2 3540   2.925   5.007   6.859
  881SOL     OW 3541   4.062   4.483   5.298
  881SOL    HW1 3542   4.134   4.473   5.229
  881SOL    HW2 3543   4.011   4.397   5.306
  882SOL     OW 3544   1.992   1.252   3.643
  882SOL    HW1 3545   1.974   1.333   3.586
  882SOL    HW2 3546   2.076   1.267   3.695
  883SOL     OW 3547   4.968   5.156   5.245
  883SOL    HW1 3548   5.031   5.224   5.206
  883SOL    HW2 3549   4.904   5.125   5.174
  884SOL     OW 3550   6.807   3.872   2.065
  884SOL    HW1 3551   6.711   3.871   2.090
  884SOL    HW2 3552   6.823   3.942   1.996
  885SOL     OW 3553   5.480   5.969   6.824
  885SOL    HW1 3554   5.416   5.897   6.796
  885SOL    HW2 3555   5.448   6.057   6.788
  886SOL     OW 3556   4.065   0.607   0.215
  886SOL    HW1 3557   4.164   0.601   0.198
  886SOL    HW2 3558   4.049   0.602   0.314
  887SOL     OW 3559   4.421   6.483   5.377
  887SOL    HW1 3560   4.519   6.469   5.391
  887SOL    HW2 3561   4.384   6.409   5.321
  888SOL     OW 3562   6.619   6.481   3.389
  888SOL    HW1 3563   6.656   6.393   3.359
  888SOL    HW2 3564   6.526   6.469   3.423
  889SOL     OW 3565   0.287   6.746   5.661
  889SOL    HW1 3566   0.243   6.666   5.703
  889SOL    HW2 3567   0.219   6.800   5.612
  890SOL     OW 3568   2.709   4.844   1.916
  890SOL    HW1 3569   2.747   4.754   1.935
  890SOL    HW2 3570   2.772   4.915   1.948
  891SOL     OW 3571   5.447   3.821   1.073
  891SOL    HW1 3572   5.509   3.748   1.103
  891SOL    HW2 3573   5.353   3.786   1.072
  892SOL     OW 3574   4.141   3.764   0.358
  892SOL    HW1 3575   4.080   3.793   0.284
  892SOL    HW2 3576   4.138   3.833   0.431
  893SOL     OW 3577   2.325   0.627   1.386
  893SOL    HW1 3578   2.421   0.645   1.409
  893SOL    HW2 3579   2.306   0.529   1.398
  894SOL     OW 3580   2.221   3.892   4.034
  894SOL    HW1 3581   2.198   3.801   4.067
  894SOL    HW2 3582   2.234   3.953   4.112
  895SOL     OW 3583   1.977   6.162   4.959
  895SOL    HW1 3584   1.894   6.128   5.003
  895SOL    HW2 3585   1.953   6.226   4.886
  896SOL     OW 3586   5.094   5.748   3.015
  896SOL    HW1 3587   5.027   5.796   2.960
  896SOL    HW2 3588   5.184   5.789   3.002
  897SOL     OW 3589   4.839   1.106   0.545
  897SOL    HW1 3590   4.787   1.176   0.496
  897SOL    HW2 3591   4.781   1.026   0.560
  898SOL     OW 3592   4.217   6.087   3.587
  898SOL    HW1 3593   4.288   6.034   3.634
  898SOL    HW2 3594   4.190   6.164   3.644
  899SOL     OW 3595   0.692   5.475   0.083
  899SOL    HW1 3596   0.595   5.496   0.072
  899SOL    HW2 3597   0.727   5.436   7.022
  900SOL     OW 3598   5.213   5.694   1.657
  900SOL    HW1 3599   5.249   5.784   1.631
  900SOL    HW2 3600   5.244   5.671   1.749
  901SOL     OW 3601   6.862   1.328   5.001
  901SOL    HW1 3602   6.781   1.282   4.963
  901SOL    HW2 3603   6.905   1.384   4.931
  902SOL     OW 3604   0.198   1.282   6.387
  902SOL    HW1 3605   0.119   1.309   6.442
  902SOL    HW2 3606   0.167   1.229   6.308
  903SOL     OW 3607   6.818   4.604   0.178
  903SOL    HW1 3608   6.731   4.554   0.172
  903SOL    HW2 3609   6.830   4.658   0.095
  904SOL     OW 3610   1.498   2.089   4.322
  904SOL    HW1 3611   1.494   2.173   4.267
  904SOL    HW2 3612   1.589   2.049   4.315
  905SOL     OW 3613   5.096   2.728   6.605
  905SOL    HW1 3614   5.164   2.788   6.561
  905SOL    HW2 3615   5.022   2.784   6.643
  906SOL     OW 3616   0.439   3.718   6.304
  906SOL    HW1 3617   0.426   3.619   6.298
  906SOL    HW2 3618   0.532   3.741   6.274
  907SOL     OW 3619   6.008   2.566   3.027
  907SOL    HW1 3620   5.972   2.606   3.111
  907SOL    HW2 3621   5.933   2.547   2.965
  908SOL     OW 3622   1.226   6.920   4.223
  908SOL    HW1 3623   1.257   6.989   4.289
  908SOL    HW2 3624   1.294   6.910   4.150
  909SOL     OW 3625   2.541   0.934   0.947
  909SOL    HW1 3626   2.609   0.981   0.892
  909SOL    HW2 3627   2.557   0.955   1.044
  910SOL     OW 3628   2.408   0.767   0.768
  910SOL    HW1 3629   2.349   0.820   0.707
  910SOL    HW2 3630   2.462   0.830   0.824
  911SOL     OW 3631   0.302   5.290   1.155
  911SOL    HW1 3632   0.287   5.380   1.114
  911SOL    HW2 3633   0.315   5.300   1.253
  912SOL     OW 3634   0.252   0.835   5.380
  912SOL    HW1 3635   0.291   0.778   5.452
  912SOL    HW2 3636   0.156   0.854   5.399
  913SOL     OW 3637   2.132   0.309   3.377
  913SOL    HW1 3638   2.094   0.380   3.318
  913SOL    HW2 3639   2.230   0.323   3.388
  914SOL     OW 3640   2.439   5.573   5.451
  914SOL    HW1 3641   2.522   5.526   5.422
  914SOL    HW2 3642   2.410   5.538   5.540
  915SOL     OW 3643   0.611   3.364   1.162
  915SOL    HW1 3644   0.696   3.319   1.134
  915SOL    HW2 3645   0.535   3.299   1.154
  916SOL     OW 3646   1.621   2.137   2.368
  916SOL    HW1 3647   1.576   2.054   2.335
  916SOL    HW2 3648   1.658   2.188   2.290
  917SOL     OW 3649   3.878   0.965   1.396
  917SOL    HW1 3650   3.833   0.888   1.441
  917SOL    HW2 3651   3.917   1.026   1.465
  918SOL     OW 3652   2.962   6.169   0.285
  918SOL    HW1 3653   2.970   6.166   0.384
  918SOL    HW2 3654   2.867   6.151   0.258
  919SOL     OW 3655   1.817   6.710   1.847
  919SOL    HW1 3656   1.788   6.674   1.936
  919SOL    HW2 3657   1.903   6.668   1.821
  920SOL     OW 3658   2.441   0.232   3.473
  920SOL    HW1 3659   2.535   0.240   3.439
  920SOL    HW2 3660   2.409   0.139   3.459
  921SOL     OW 3661   4.722   4.853   3.697
  921SOL    HW1 3662   4.701   4.946   3.664
  921SOL    HW2 3663   4.718   4.852   3.796
  922SOL     OW 3664   3.332   2.873   6.589
  922SOL    HW1 3665   3.374   2.912   6.671
  922SOL    HW2 3666   3.301   2.946   6.529
  923SOL     OW 3667   3.361   6.017   0.741
  923SOL    HW1 3668   3.301   5.986   0.667
  923SOL    HW2 3669   3.421   5.942   0.769
  924SOL     OW 3670   5.100   3.280   2.773
  924SOL    HW1 3671   5.190   3.285   2.730
  924SOL    HW2 3672   5.053   3.197   2.743
  925SOL     OW 3673   6.874   1.675   5.103
  925SOL    HW1 3674   6.803   1.607   5.116
  925SOL    HW2 3675   6.864   1.748   5.171
  926SOL     OW 3676   5.928   1.143   6.809
  926SOL    HW1 3677   5.837   1.149   6.850
  926SOL    HW2 3678   5.971   1.057   6.835
  927SOL     OW 3679   5.114   3.913   4.125
  927SOL    HW1 3680   5.161   3.995   4.094
  927SOL    HW2 3681   5.061   3.874   4.049
  928SOL     OW 3682   1.688   0.674   0.625
  928SOL    HW1 3683   1.643   0.593   0.662
  928SOL    HW2 3684   1.629   0.754   0.639
  929SOL     OW 3685   6.722   2.496   1.385
  929SOL    HW1 3686   6.817   2.521   1.364
  929SOL    HW2 3687   6.712   2.483   1.484
  930SOL     OW 3688   6.795   5.704   4.751
  930SOL    HW1 3689   6.731   5.724   4.825
  930SOL    HW2 3690   6.884   5.743   4.774
  931SOL     OW 3691   0.163   3.967   3.278
  931SOL    HW1 3692   0.110   3.922   3.207
  931SOL    HW2 3693   0.207   3.898   3.336
  932SOL     OW 3694   3.059   6.358   1.654
  932SOL    HW1 3695   3.071   6.457   1.659
  932SOL    HW2 3696   3.083   6.327   1.562
  933SOL     OW 3697   0.798   4.907   2.366
  933SOL    HW1 3698   0.825   4.813   2.385
  933SOL    HW2 3699   0.703   4.921   2.393
  934SOL     OW 3700   2.468   1.364   4.341
  934SOL    HW1 3701   2.433   1.433   4.405
  934SOL    HW2 3702   2.544   1.402   4.289
  935SOL     OW 3703   4.745   3.463   5.542
  935SOL    HW1 3704   4.730   3.562   5.534
  935SOL    HW2 3705   4.696   3.428   5.621
  936SOL     OW 3706   0.583   6.917   0.067
  936SOL    HW1 3707   0.626   6.997   0.023
  936SOL    HW2 3708   0.588   6.839   0.006
  937SOL     OW 3709   4.412   2.050   5.129
  937SOL    HW1 3710   4.468   2.059   5.047
  937SOL    HW2 3711   4.462   2.085   5.208
  938SOL     OW 3712   6.662   4.958   6.016
  938SOL    HW1 3713   6.621   4.923   6.101
  938SOL    HW2 3714   6.704   4.882   5.966
  939SOL     OW 3715   5.003   1.289   5.545
  939SOL    HW1 3716   4.914   1.324   5.515
  939SOL    HW2 3717   5.053   1.361   5.593
  940SOL     OW 3718   6.637   2.102   2.740
  940SOL    HW1 3719   6.712   2.073   2.680
  940SOL    HW2 3720   6.672   2.111   2.834
  941SOL     OW 3721   6.145   0.838   4.187
  941SOL    HW1 3722   6.087   0.790   4.253
  941SOL    HW2 3723   6.198   0.908   4.234
  942SOL     OW 3724   5.135   0.946   4.773
  942SOL    HW1 3725   5.218   0.891   4.766
  942SOL    HW2 3726   5.057   0.887   4.792
  943SOL     OW 3727   0.827   3.256   2.908
  943SOL    HW1 3728   0.739   3.216   2.933
  943SOL    HW2 3729   0.900   3.191   2.929
  944SOL     OW 3730   6.353   3.672   5.976
  944SOL    HW1 3731   6.421   3.612   6.017
  944SOL    HW2 3732   6.380   3.693   5.882
  945SOL     OW 3733   5.936   4.722   4.971
  945SOL    HW1 3734   5.840   4.694   4.961
  945SOL    HW2 3735   5.996   4.648   4.939
  946SOL     OW 3736   5.638   2.701   6.545
  946SOL    HW1 3737   5.637   2.759   6.464
  946SOL    HW2 3738   5.546   2.693   6.582
  947SOL     OW 3739   2.780   3.379   5.272
  947SOL    HW1 3740   2.742   3.467   5.301
  947SOL    HW2 3741   2.727   3.304   5.313
  948SOL     OW 3742   4.270   0.839   1.154
  948SOL    HW1 3743   4.234   0.905   1.219
  948SOL    HW2 3744   4.242   0.747   1.180
  949SOL     OW 3745   6.493   6.220   6.008
  949SOL    HW1 3746   6.540   6.216   5.919
  949SOL    HW2 3747   6.539   6.287   6.067
  950SOL     OW 3748   4.372   4.975   2.633
  950SOL    HW1 3749   4.412   4.886   2.654
  950SOL    HW2 3750   4.344   5.020   2.718
  951SOL     OW 3751   1.948   0.594   2.023
  951SOL    HW1 3752   2.020   0.655   1.988
  951SOL    HW2 3753   1.980   0.500   2.020
  952SOL     OW 3754   5.958   1.522   2.276
  952SOL    HW1 3755   5.958   1.607   2.222
  952SOL    HW2 3756   5.924   1.542   2.368
  953SOL     OW 3757   4.805   5.939   5.549
  953SOL    HW1 3758   4.848   5.904   5.633
  953SOL    HW2 3759   4.868   5.928   5.472
  954SOL     OW 3760   5.512   0.450   0.727
  954SOL    HW1 3761   5.436   0.459   0.792
  954SOL    HW2 3762   5.578   0.383   0.762
  955SOL     OW 3763   0.960   4.895   3.583
  955SOL    HW1 3764   1.030   4.843   3.534
  955SOL    HW2 3765   0.989   4.989   3.594
  956SOL     OW 3766   1.128   1.691   1.870
  956SOL    HW1 3767   1.107   1.662   1.776
  956SOL    HW2 3768   1.064   1.763   1.898
  957SOL     OW 3769   1.326   4.472   5.041
  957SOL    HW1 3770   1.377   4.495   4.959
  957SOL    HW2 3771   1.374   4.400   5.091
  958SOL     OW 3772   4.884   2.129   0.930
  958SOL    HW1 3773   4.892   2.070   1.010
  958SOL    HW2 3774   4.788   2.130   0.900
  959SOL     OW 3775   3.263   5.055   3.138
  959SOL    HW1 3776   3.328   5.022   3.205
  959SOL    HW2 3777   3.172   5.061   3.180
  960SOL     OW 3778   0.570   5.839   3.946
  960SOL    HW1 3779   0.470   5.831   3.949
  960SOL    HW2 3780   0.609   5.752   3.915
  961SOL     OW 3781   4.688   6.275   3.182
  961SOL    HW1 3782   4.786   6.259   3.174
  961SOL    HW2 3783   4.663   6.355   3.128
  962SOL     OW 3784   1.659   1.238   3.723
  962SOL    HW1 3785   1.622   1.149   3.748
  962SOL    HW2 3786   1.684   1.238   3.627
  963SOL     OW 3787   5.848   0.681   0.309
  963SOL    HW1 3788   5.921   0.748   0.318
  963SOL    HW2 3789   5.871   0.616   0.237
  964SOL     OW 3790   6.167   3.313   1.042
  964SOL    HW1 3791   6.143   3.308   0.944
  964SOL    HW2 3792   6.118   3.241   1.091
  965SOL     OW 3793   5.983   1.741   0.809
  965SOL    HW1 3794   5.910   1.725   0.742
  965SOL    HW2 3795   6.072   1.732   0.764
  966SOL     OW 3796   6.250   1.472   2.336
  966SOL    HW1 3797   6.295   1.536   2.399
  966SOL    HW2 3798   6.151   1.488   2.338
  967SOL     OW 3799   1.538   5.172   0.283
  967SOL    HW1 3800   1.613   5.171   0.348
  967SOL    HW2 3801   1.456   5.133   0.325
  968SOL     OW 3802   4.556   2.537   2.100
  968SOL    HW1 3803   4.634   2.474   2.099
  968SOL    HW2 3804   4.488   2.507   2.034
  969SOL     OW 3805   3.421   6.036   5.760
  969SOL    HW1 3806   3.346   5.978   5.789
  969SOL    HW2 3807   3.433   6.111   5.825
  970SOL     OW 3808   4.918   1.329   5.001
  970SOL    HW1 3809   4.901   1.252   5.062
  970SOL    HW2 3810   4.837   1.346   4.945
  971SOL     OW 3811   0.305   1.488   2.746
  971SOL    HW1 3812   0.245   1.476   2.825
  971SOL    HW2 3813   0.318   1.586   2.728
  972SOL     OW 3814   5.572   4.008   0.820
  972SOL    HW1 3815   5.584   3.948   0.741
  972SOL    HW2 3816   5.506   3.967   0.883
  973SOL     OW 3817   0.295   4.734   6.181
  973SOL    HW1 3818   0.377   4.682   6.207
  973SOL    HW2 3819   0.296   4.751   6.083
  974SOL     OW 3820   4.163   0.608   2.153
  974SOL    HW1 3821   4.105   0.625   2.074
  974SOL    HW2 3822   4.130   0.528   2.202
  975SOL     OW 3823   1.671   6.012   6.648
  975SOL    HW1 3824   1.697   6.085   6.711
  975SOL    HW2 3825   1.583   6.033   6.607
  976SOL     OW 3826   6.650   2.988   2.916
  976SOL    HW1 3827   6.584   3.037   2.860
  976SOL    HW2 3828   6.701   2.924   2.859
  977SOL     OW 3829   2.480   1.531   3.720
  977SOL    HW1 3830   2.412   1.502   3.788
  977SOL    HW2 3831   2.447   1.614   3.675
  978SOL     OW 3832   5.119   3.947   5.382
  978SOL    HW1 3833   5.145   3.975   5.290
  978SOL    HW2 3834   5.146   4.017   5.448
  979SOL     OW 3835   6.477   1.265   2.825
  979SOL    HW1 3836   6.428   1.228   2.746
  979SOL    HW2 3837   6.516   1.190   2.878
  980SOL     OW 3838   4.931   1.763   3.743
  980SOL    HW1 3839   4.983   1.786   3.825
  980SOL    HW2 3840   4.842   1.726   3.769
  981SOL     OW 3841   1.337   1.629   4.854
  981SOL    HW1 3842   1.255   1.639   4.797
  981SOL    HW2 3843   1.412   1.594   4.798
  982SOL     OW 3844   2.123   2.697   3.299
  982SOL    HW1 3845   2.080   2.607   3.293
  982SOL    HW2 3846   2.188   2.697   3.375
  983SOL     OW 3847   5.783   2.638   3.511
  983SOL    HW1 3848   5.816   2.686   3.592
  983SOL    HW2 3849   5.730   2.558   3.539
  984SOL     OW 3850   3.683   0.679   4.900
  984SOL    HW1 3851   3.780   0.702   4.897
  984SOL    HW2 3852   3.666   0.598   4.844
  985SOL     OW 3853   5.344   4.913   6.725
  985SOL    HW1 3854   5.328   5.000   6.772
  985SOL    HW2 3855   5.353   4.840   6.793
  986SOL     OW 3856   5.424   5.412   0.291
  986SOL    HW1 3857   5.456   5.386   0.382
  986SOL    HW2 3858   5.466   5.353   0.223
  987SOL     OW 3859   3.815   6.366   1.167
  987SOL    HW1 3860   3.774   6.456   1.151
  987SOL    HW2 3861   3.746   6.305   1.207
  988SOL     OW 3862   3.919   2.881   1.816
  988SOL    HW1 3863   3.903   2.784   1.798
  988SOL    HW2 3864   3.836   2.922   1.853
  989SOL     OW 3865   0.486   0.723   5.564
  989SOL    HW1 3866   0.460   0.819   5.579
  989SOL    HW2 3867   0.406   0.665   5.571
  990SOL     OW 3868   4.820   0.363   3.604
  990SOL    HW1 3869   4.729   0.370   3.564
  990SOL    HW2 3870   4.836   0.268   3.633
  991SOL     OW 3871   1.758   1.451   5.130
  991SOL    HW1 3872   1.846   1.409   5.107
  991SOL    HW2 3873   1.715   1.486   5.047
  992SOL     OW 3874   0.977   3.420   0.861
  992SOL    HW1 3875   0.940   3.498   0.912
  992SOL    HW2 3876   1.061   3.448   0.815
  993SOL     OW 3877   1.804   5.247   2.059
  993SOL    HW1 3878   1.779   5.343   2.043
  993SOL    HW2 3879   1.835   5.236   2.153
  994SOL     OW 3880   3.767   3.682   2.541
  994SOL    HW1 3881   3.692   3.702   2.603
  994SOL    HW2 3882   3.846   3.651   2.594
  995SOL     OW 3883   2.722   2.205   6.156
  995SOL    HW1 3884   2.715   2.118   6.204
  995SOL    HW2 3885   2.638   2.258   6.170
  996SOL     OW 3886   1.757   4.078   3.873
  996SOL    HW1 3887   1.799   4.042   3.790
  996SOL    HW2 3888   1.741   4.176   3.863
  997SOL     OW 3889   6.846   0.154   1.385
  997SOL    HW1 3890   6.751   0.181   1.376
  997SOL    HW2 3891   6.854   0.079   1.451
  998SOL     OW 3892   4.619   6.965   3.993
  998SOL    HW1 3893   4.616   0.037   3.965
  998SOL    HW2 3894   4.711   6.943   4.026
  999SOL     OW 3895   5.394   5.347   1.097
  999SOL    HW1 3896   5.480   5.343   1.047
  999SOL    HW2 3897   5.403   5.408   1.175
 1000SOL     OW 3898   1.269   0.573   2.632
 1000SOL    HW1 3899   1.257   0.580   2.533
 1000SOL    HW2 3900   1.183   0.543   2.674
 1001SOL     OW 3901   4.968   6.816   6.868
 1001SOL    HW1 3902   5.065   6.814   6.843
 1001SOL    HW2 3903   4.934   6.722   6.876
 1002SOL     OW 3904   5.744   2.021   6.331
 1002SOL    HW1 3905   5.750   2.058   6.239
 1002SOL    HW2 3906   5.729   1.922   6.327
 1003SOL     OW 3907   2.446   6.937   1.667
 1003SOL    HW1 3908   2.414   0.006   1.680
 1003SOL    HW2 3909   2.398   6.897   1.588
 1004SOL     OW 3910   6.918   0.484   0.587
 1004SOL    HW1 3911   6.854   0.554   0.553
 1004SOL    HW2 3912   6.868   0.419   0.645
 1005SOL     OW 3913   0.163   1.215   3.271
 1005SOL    HW1 3914   0.255   1.233   3.237
 1005SOL    HW2 3915   0.102   1.196   3.194
 1006SOL     OW 3916   1.783   6.336   1.568
 1006SOL    HW1 3917   1.726   6.411   1.604
 1006SOL    HW2 3918   1.743   6.248   1.595
 1007SOL     OW 3919   6.288   7.023   3.798
 1007SOL    HW1 3920   6.237   0.046   3.726
 1007SOL    HW2 3921   6.364   6.972   3.757
 1008SOL     OW 3922   1.669   2.907   4.561
 1008SOL    HW1 3923   1.745   2.842   4.554
 1008SOL    HW2 3924   1.642   2.936   4.469
 1009SOL     OW 3925   0.281   5.866   3.967
 1009SOL    HW1 3926   0.262   5.929   3.891
 1009SOL    HW2 3927   0.238   5.778   3.948
 1010SOL     OW 3928   3.742   2.199   6.623
 1010SOL    HW1 3929   3.672   2.225   6.690
 1010SOL    HW2 3930   3.755   2.274   6.558
 1011SOL     OW 3931   2.682   5.302   2.667
 1011SOL    HW1 3932   2.653   5.353   2.586
 1011SOL    HW2 3933   2.782   5.302   2.673
 1012SOL     OW 3934   6.772   5.980   0.208
 1012SOL    HW1 3935   6.842   5.940   0.148
 1012SOL    HW2 3936   6.763   6.077   0.189
 1013SOL     OW 3937   0.143   0.821   6.297
 1013SOL    HW1 3938   0.106   0.868   6.377
 1013SOL    HW2 3939   0.240   0.801   6.313
 1014SOL     OW 3940   5.127   5.642   6.870
 1014SOL    HW1 3941   5.169   5.720   6.917
 1014SOL    HW2 3942   5.042   5.672   6.826
 1015SOL     OW 3943   2.103   6.452   5.455
 1015SOL    HW1 3944   2.088   6.450   5.554
 1015SOL    HW2 3945   2.054   6.376   5.413
 1016SOL     OW 3946   2.471   3.338   0.702
 1016SOL    HW1 3947   2.444   3.277   0.627
 1016SOL    HW2 3948   2.423   3.425   0.693
 1017SOL     OW 3949   4.558   2.440   0.733
 1017SOL    HW1 3950   4.649   2.467   0.700
 1017SOL    HW2 3951   4.513   2.520   0.773
 1018SOL     OW 3952   1.799   3.615   3.999
 1018SOL    HW1 3953   1.833   3.681   3.931
 1018SOL    HW2 3954   1.826   3.523   3.973
 1019SOL     OW 3955   1.236   0.994   0.365
 1019SOL    HW1 3956   1.311   0.929   0.352
 1019SOL    HW2 3957   1.196   0.982   0.456
 1020SOL     OW 3958   1.607   6.905   0.978
 1020SOL    HW1 3959   1.616   6.914   1.077
 1020SOL    HW2 3960   1.679   6.960   0.933
 1021SOL     OW 3961   6.148   0.381   0.429
 1021SOL    HW1 3962   6.157   0.478   0.451
 1021SOL    HW2 3963   6.077   0.340   0.485
 1022SOL     OW 3964   3.875   4.360   5.897
 1022SOL    HW1 3965   3.881   4.454   5.866
 1022SOL    HW2 3966   3.789   4.346   5.946
 1023SOL     OW 3967   6.070   0.158   2.658
 1023SOL    HW1 3968   6.083   0.226   2.730
 1023SOL    HW2 3969   5.979   0.169   2.617
 1024SOL     OW 3970   6.439   2.993   4.056
 1024SOL    HW1 3971   6.489   3.044   4.126
 1024SOL    HW2 3972   6.438   2.896   4.080
 1025SOL     OW 3973   3.306   4.102   0.092
 1025SOL    HW1 3974   3.384   4.092   0.031
 1025SOL    HW2 3975   3.300   4.023   0.153
 1026SOL     OW 3976   1.676   2.094   1.106
 1026SOL    HW1 3977   1.689   2.058   1.014
 1026SOL    HW2 3978   1.763   2.090   1.156
 1027SOL     OW 3979   2.534   6.360   1.036
 1027SOL    HW1 3980   2.490   6.290   0.979
 1027SOL    HW2 3981   2.631   6.338   1.047
 1028SOL     OW 3982   3.322   5.847   0.173
 1028SOL    HW1 3983   3.282   5.936   0.192
 1028SOL    HW2 3984   3.403   5.833   0.230
 1029SOL     OW 3985   1.610   0.207   0.375
 1029SOL    HW1 3986   1.631   0.305   0.376
 1029SOL    HW2 3987   1.638   0.166   0.461
 1030SOL     OW 3988   3.050   3.046   2.239
 1030SOL    HW1 3989   3.006   2.960   2.267
 1030SOL    HW2 3990   3.021   3.070   2.147
 1031SOL     OW 3991   5.065   5.242   0.513
 1031SOL    HW1 3992   4.979   5.191   0.504
 1031SOL    HW2 3993   5.093   5.274   0.422
 1032SOL     OW 3994   1.494   1.777   4.484
 1032SOL    HW1 3995   1.449   1.714   4.421
 1032SOL    HW2 3996   1.590   1.750   4.495
 1033SOL     OW 3997   1.106   6.877   1.471
 1033SOL    HW1 3998   1.071   6.885   1.565
 1033SOL    HW2 3999   1.197   6.917   1.466
 1034SOL     OW 4000   1.417   6.127   5.044
 1034SOL    HW1 4001   1.390   6.141   4.948
 1034SOL    HW2 4002   1.406   6.213   5.094
 1035SOL     OW 4003   2.866   1.453   3.481
 1035SOL    HW1 4004   2.960   1.460   3.446
 1035SOL    HW2 4005   2.804   1.502   3.420
 1036SOL     OW 4006   3.036   0.257   1.325
 1036SOL    HW1 4007   3.028   0.158   1.335
 1036SOL    HW2 4008   2.953   0.293   1.283
 1037SOL     OW 4009   1.327   1.247   1.642
 1037SOL    HW1 4010   1.290   1.273   1.731
 1037SOL    HW2 4011   1.422   1.276   1.636
 1038SOL     OW 4012   1.147   1.068   5.426
 1038SOL    HW1 4013   1.068   1.062   5.365
 1038SOL    HW2 4014   1.220   1.009   5.391
 1039SOL     OW 4015   4.247   2.677   5.568
 1039SOL    HW1 4016   4.208   2.768   5.580
 1039SOL    HW2 4017   4.276   2.666   5.473
 1040SOL     OW 4018   5.233   2.836   2.755
 1040SOL    HW1 4019   5.259   2.929   2.729
 1040SOL    HW2 4020   5.278   2.812   2.841
 1041SOL     OW 4021   6.596   6.775   4.404
 1041SOL    HW1 4022   6.689   6.804   4.426
 1041SOL    HW2 4023   6.595   6.733   4.313
 1042SOL     OW 4024   3.297   4.952   2.289
 1042SOL    HW1 4025   3.207   4.911   2.299
 1042SOL    HW2 4026   3.294   5.047   2.321
 1043SOL     OW 4027   4.652   1.082   5.618
 1043SOL    HW1 4028   4.624   1.177   5.603
 1043SOL    HW2 4029   4.598   1.043   5.693
 1044SOL     OW 4030   4.115   2.898   1.620
 1044SOL    HW1 4031   4.042   2.920   1.684
 1044SOL    HW2 4032   4.177   2.976   1.612
 1045SOL     OW 4033   2.685   0.021   1.610
 1045SOL    HW1 4034   2.597   7.000   1.628
 1045SOL    HW2 4035   2.757   6.977   1.604
 1046SOL     OW 4036   2.015   6.929   0.033
 1046SOL    HW1 4037   1.936   6.893   7.009
 1046SOL    HW2 4038   2.041   7.017   7.018
 1047SOL     OW 4039   1.559   5.519   3.071
 1047SOL    HW1 4040   1.648   5.550   3.104
 1047SOL    HW2 4041   1.550   5.420   3.085
 1048SOL     OW 4042   4.660   5.622   5.507
 1048SOL    HW1 4043   4.718   5.657   5.581
 1048SOL    HW2 4044   4.622   5.698   5.455
 1049SOL     OW 4045   6.689   4.366   4.932
 1049SOL    HW1 4046   6.663   4.375   4.836
 1049SOL    HW2 4047   6.646   4.285   4.971
 1050SOL     OW 4048   3.046   5.319   0.980
 1050SOL    HW1 4049   3.054   5.329   1.079
 1050SOL    HW2 4050   3.104   5.387   0.935
 1051SOL     OW 4051   3.482   5.064   0.144
 1051SOL    HW1 4052   3.482   5.039   0.241
 1051SOL    HW2 4053   3.543   5.004   0.094
 1052SOL     OW 4054   4.284   0.403   4.199
 1052SOL    HW1 4055   4.321   0.493   4.221
 1052SOL    HW2 4056   4.265   0.398   4.101
 1053SOL     OW 4057   5.338   5.926   3.392
 1053SOL    HW1 4058   5.364   5.834   3.362
 1053SOL    HW2 4059   5.334   5.929   3.492
 1054SOL     OW 4060   2.786   4.625   5.672
 1054SOL    HW1 4061   2.862   4.643   5.734
 1054SOL    HW2 4062   2.737   4.543   5.702
 1055SOL     OW 4063   5.764   6.712   4.143
 1055SOL    HW1 4064   5.754   6.737   4.239
 1055SOL    HW2 4065   5.859   6.687   4.124
 1056SOL     OW 4066   1.687   6.187   5.234
 1056SOL    HW1 4067   1.662   6.183   5.137
 1056SOL    HW2 4068   1.719   6.097   5.263
 1057SOL     OW 4069   3.288   3.606   2.986
 1057SOL    HW1 4070   3.294   3.569   2.893
 1057SOL    HW2 4071   3.334   3.695   2.989
 1058SOL     OW 4072   5.119   1.674   2.454
 1058SOL    HW1 4073   5.043   1.647   2.394
 1058SOL    HW2 4074   5.088   1.671   2.549
 1059SOL     OW 4075   3.103   0.393   2.093
 1059SOL    HW1 4076   3.124   0.333   2.170
 1059SOL    HW2 4077   3.189   0.425   2.052
 1060SOL     OW 4078   0.256   3.416   4.773
 1060SOL    HW1 4079   0.188   3.440   4.842
 1060SOL    HW2 4080   0.273   3.317   4.775
 1061SOL     OW 4081   4.548   4.029   1.395
 1061SOL    HW1 4082   4.633   4.009   1.444
 1061SOL    HW2 4083   4.470   3.995   1.448
 1062SOL     OW 4084   6.491   5.333   6.283
 1062SOL    HW1 4085   6.445   5.416   6.314
 1062SOL    HW2 4086   6.586   5.334   6.314
 1063SOL     OW 4087   1.276   4.527   1.270
 1063SOL    HW1 4088   1.205   4.565   1.329
 1063SOL    HW2 4089   1.287   4.585   1.190
 1064SOL     OW 4090   0.922   4.042   2.506
 1064SOL    HW1 4091   0.974   4.127   2.511
 1064SOL    HW2 4092   0.867   4.041   2.422
 1065SOL     OW 4093   5.207   0.562   4.688
 1065SOL    HW1 4094   5.125   0.618   4.698
 1065SOL    HW2 4095   5.199   0.481   4.745
 1066SOL     OW 4096   5.336   1.007   4.189
 1066SOL    HW1 4097   5.413   1.071   4.192
 1066SOL    HW2 4098   5.285   1.013   4.275
 1067SOL     OW 4099   1.660   2.192   0.205
 1067SOL    HW1 4100   1.731   2.158   0.143
 1067SOL    HW2 4101   1.703   2.231   0.286
 1068SOL     OW 4102   5.427   4.523   1.877
 1068SOL    HW1 4103   5.379   4.471   1.807
 1068SOL    HW2 4104   5.440   4.465   1.958
 1069SOL     OW 4105   4.885   5.004   1.202
 1069SOL    HW1 4106   4.936   4.925   1.169
 1069SOL    HW2 4107   4.907   5.020   1.298
 1070SOL     OW 4108   1.085   1.353   0.237
 1070SOL    HW1 4109   1.155   1.302   0.186
 1070SOL    HW2 4110   1.058   1.434   0.184
 1071SOL     OW 4111   4.073   0.561   3.423
 1071SOL    HW1 4112   4.123   0.638   3.463
 1071SOL    HW2 4113   4.117   0.533   3.338
 1072SOL     OW 4114   1.847   6.021   1.833
 1072SOL    HW1 4115   1.841   6.005   1.735
 1072SOL    HW2 4116   1.772   6.080   1.862
 1073SOL     OW 4117   3.694   5.930   2.787
 1073SOL    HW1 4118   3.790   5.958   2.797
 1073SOL    HW2 4119   3.665   5.942   2.692
 1074SOL     OW 4120   1.690   5.284   1.731
 1074SOL    HW1 4121   1.601   5.237   1.728
 1074SOL    HW2 4122   1.712   5.308   1.825
 1075SOL     OW 4123   4.918   5.610   3.608
 1075SOL    HW1 4124   4.941   5.649   3.697
 1075SOL    HW2 4125   4.988   5.638   3.541
 1076SOL     OW 4126   0.617   4.434   4.847
 1076SOL    HW1 4127   0.643   4.338   4.840
 1076SOL    HW2 4128   0.682   4.490   4.796
 1077SOL     OW 4129   6.076   7.008   0.178
 1077SOL    HW1 4130   6.050   0.073   0.215
 1077SOL    HW2 4131   6.062   6.938   0.249
 1078SOL     OW 4132   1.702   0.979   2.787
 1078SOL    HW1 4133   1.787   1.027   2.765
 1078SOL    HW2 4134   1.690   0.902   2.724
 1079SOL     OW 4135   1.830   5.358   2.900
 1079SOL    HW1 4136   1.905   5.421   2.918
 1079SOL    HW2 4137   1.866   5.273   2.860
 1080SOL     OW 4138   1.611   4.206   3.491
 1080SOL    HW1 4139   1.521   4.205   3.533
 1080SOL    HW2 4140   1.675   4.258   3.548
 1081SOL     OW 4141   0.340   0.745   5.155
 1081SOL    HW1 4142   0.434   0.777   5.146
 1081SOL    HW2 4143   0.300   0.781   5.240
 1082SOL     OW 4144   1.421   0.174   5.872
 1082SOL    HW1 4145   1.429   0.124   5.786
 1082SOL    HW2 4146   1.439   0.113   5.949
 1083SOL     OW 4147   3.668   4.106   1.933
 1083SOL    HW1 4148   3.569   4.112   1.919
 1083SOL    HW2 4149   3.713   4.098   1.844
 1084SOL     OW 4150   6.744   5.938   1.336
 1084SOL    HW1 4151   6.817   5.975   1.278
 1084SOL    HW2 4152   6.783   5.880   1.407
 1085SOL     OW 4153   1.999   4.072   3.391
 1085SOL    HW1 4154   1.977   4.062   3.293
 1085SOL    HW2 4155   2.019   4.168   3.410
 1086SOL     OW 4156   6.479   5.840   3.286
 1086SOL    HW1 4157   6.489   5.753   3.334
 1086SOL    HW2 4158   6.570   5.878   3.267
 1087SOL     OW 4159   5.324   2.729   5.532
 1087SOL    HW1 4160   5.227   2.754   5.535
 1087SOL    HW2 4161   5.373   2.790   5.469
 1088SOL     OW 4162   6.265   5.080   3.508
 1088SOL    HW1 4163   6.320   5.084   3.425
 1088SOL    HW2 4164   6.169   5.069   3.484
 1089SOL     OW 4165   1.188   6.963   4.603
 1089SOL    HW1 4166   1.089   6.977   4.613
 1089SOL    HW2 4167   1.223   7.020   4.529
 1090SOL     OW 4168   2.897   1.082   3.704
 1090SOL    HW1 4169   2.952   1.142   3.763
 1090SOL    HW2 4170   2.805   1.074   3.742
 1091SOL     OW 4171   1.732   1.948   4.244
 1091SOL    HW1 4172   1.799   1.969   4.316
 1091SOL    HW2 4173   1.758   1.864   4.197
 1092SOL     OW 4174   2.437   3.401   1.391
 1092SOL    HW1 4175   2.484   3.319   1.356
 1092SOL    HW2 4176   2.358   3.421   1.333
 1093SOL     OW 4177   2.364   1.764   3.256
 1093SOL    HW1 4178   2.330   1.855   3.232
 1093SOL    HW2 4179   2.434   1.772   3.327
 1094SOL     OW 4180   0.245   6.836   2.413
 1094SOL    HW1 4181   0.177   6.787   2.468
 1094SOL    HW2 4182   0.306   6.887   2.472
 1095SOL     OW 4183   6.645   2.324   5.851
 1095SOL    HW1 4184   6.655   2.420   5.879
 1095SOL    HW2 4185   6.705   2.305   5.773
 1096SOL     OW 4186   3.583   4.550   1.446
 1096SOL    HW1 4187   3.494   4.506   1.450
 1096SOL    HW2 4188   3.632   4.520   1.364
 1097SOL     OW 4189   1.012   4.623   4.382
 1097SOL    HW1 4190   0.992   4.551   4.315
 1097SOL    HW2 4191   1.110   4.642   4.383
 1098SOL     OW 4192   5.670   2.729   0.902
 1098SOL    HW1 4193   5.634   2.768   0.988
 1098SOL    HW2 4194   5.657   2.630   0.903
 1099SOL     OW 4195   4.093   1.289   4.762
 1099SOL    HW1 4196   4.004   1.270   4.720
 1099SOL    HW2 4197   4.100   1.238   4.848
 1100SOL     OW 4198   1.973   1.281   6.417
 1100SOL    HW1 4199   2.057   1.263   6.365
 1100SOL    HW2 4200   1.942   1.374   6.398
 1101SOL     OW 4201   5.256   2.647   1.220
 1101SOL    HW1 4202   5.233   2.708   1.295
 1101SOL    HW2 4203   5.271   2.700   1.137
 1102SOL     OW 4204   1.829   4.761   3.059
 1102SOL    HW1 4205   1.833   4.847   3.008
 1102SOL    HW2 4206   1.788   4.690   3.002
 1103SOL     OW 4207   2.571   0.617   0.964
 1103SOL    HW1 4208   2.517   0.558   1.024
 1103SOL    HW2 4209   2.509   0.677   0.913
 1104SOL     OW 4210   1.403   3.882   6.399
 1104SOL    HW1 4211   1.343   3.957   6.373
 1104SOL    HW2 4212   1.421   3.824   6.319
 1105SOL     OW 4213   5.268   3.945   5.733
 1105SOL    HW1 4214   5.311   4.030   5.702
 1105SOL    HW2 4215   5.244   3.952   5.829
 1106SOL     OW 4216   1.175   1.538   0.438
 1106SOL    HW1 4217   1.152   1.474   0.364
 1106SOL    HW2 4218   1.104   1.608   0.445
 1107SOL     OW 4219   0.341   0.615   6.788
 1107SOL    HW1 4220   0.390   0.595   6.872
 1107SOL    HW2 4221   0.358   0.710   6.761
 1108SOL     OW 4222   2.699   0.606   5.638
 1108SOL    HW1 4223   2.767   0.655   5.582
 1108SOL    HW2 4224   2.736   0.518   5.667
 1109SOL     OW 4225   4.474   5.707   4.774
 1109SOL    HW1 4226   4.542   5.750   4.834
 1109SOL    HW2 4227   4.518   5.638   4.718
 1110SOL     OW 4228   3.160   1.834   2.460
 1110SOL    HW1 4229   3.178   1.932   2.449
 1110SOL    HW2 4230   3.197   1.804   2.548
 1111SOL     OW 4231   5.533   5.800   0.403
 1111SOL    HW1 4232   5.633   5.789   0.409
 1111SOL    HW2 4233   5.496   5.812   0.495
 1112SOL     OW 4234   6.286   1.316   2.605
 1112SOL    HW1 4235   6.199   1.364   2.593
 1112SOL    HW2 4236   6.327   1.298   2.515
 1113SOL     OW 4237   6.118   3.268   2.571
 1113SOL    HW1 4238   6.127   3.337   2.643
 1113SOL    HW2 4239   6.170   3.297   2.491
 1114SOL     OW 4240   4.752   0.643   6.611
 1114SOL    HW1 4241   4.754   0.687   6.521
 1114SOL    HW2 4242   4.829   0.676   6.666
 1115SOL     OW 4243   4.060   3.596   6.749
 1115SOL    HW1 4244   4.054   3.622   6.845
 1115SOL    HW2 4245   4.140   3.538   6.734
 1116SOL     OW 4246   5.419   5.338   4.476
 1116SOL    HW1 4247   5.397   5.374   4.385
 1116SOL    HW2 4248   5.334   5.319   4.525
 1117SOL     OW 4249   2.573   2.349   1.301
 1117SOL    HW1 4250   2.619   2.413   1.363
 1117SOL    HW2 4251   2.582   2.383   1.207
 1118SOL     OW 4252   1.794   4.849   2.239
 1118SOL    HW1 4253   1.852   4.825   2.317
 1118SOL    HW2 4254   1.833   4.809   2.155
 1119SOL     OW 4255   3.680   4.047   1.057
 1119SOL    HW1 4256   3.698   4.069   1.152
 1119SOL    HW2 4257   3.581   4.041   1.042
 1120SOL     OW 4258   5.801   6.304   5.874
 1120SOL    HW1 4259   5.859   6.241   5.924
 1120SOL    HW2 4260   5.707   6.296   5.906
 1121SOL     OW 4261   4.851   3.610   2.644
 1121SOL    HW1 4262   4.761   3.570   2.630
 1121SOL    HW2 4263   4.906   3.598   2.561
 1122SOL     OW 4264   5.341   3.061   6.283
 1122SOL    HW1 4265   5.327   2.975   6.233
 1122SOL    HW2 4266   5.334   3.138   6.218
 1123SOL     OW 4267   4.867   1.587   2.353
 1123SOL    HW1 4268   4.771   1.615   2.356
 1123SOL    HW2 4269   4.877   1.507   2.294
 1124SOL     OW 4270   6.796   3.868   5.048
 1124SOL    HW1 4271   6.717   3.828   5.095
 1124SOL    HW2 4272   6.877   3.812   5.066
 1125SOL     OW 4273   2.513   1.900   4.961
 1125SOL    HW1 4274   2.475   1.975   5.016
 1125SOL    HW2 4275   2.438   1.844   4.925
 1126SOL     OW 4276   5.124   0.407   6.854
 1126SOL    HW1 4277   5.054   0.396   6.783
 1126SOL    HW2 4278   5.132   0.504   6.878
 1127SOL     OW 4279   3.874   5.398   5.128
 1127SOL    HW1 4280   3.841   5.360   5.041
 1127SOL    HW2 4281   3.835   5.490   5.140
 1128SOL     OW 4282   4.981   2.653   4.918
 1128SOL    HW1 4283   4.910   2.720   4.937
 1128SOL    HW2 4284   4.940   2.570   4.880
 1129SOL     OW 4285   4.100   7.000   6.919
 1129SOL    HW1 4286   4.190   7.022   6.955
 1129SOL    HW2 4287   4.056   6.932   6.977
 1130SOL     OW 4288   2.124   4.003   0.907
 1130SOL    HW1 4289   2.091   3.999   0.812
 1130SOL    HW2 4290   2.189   4.078   0.917
 1131SOL     OW 4291   0.321   6.364   5.877
 1131SOL    HW1 4292   0.288   6.322   5.962
 1131SOL    HW2 4293   0.377   6.299   5.827
 1132SOL     OW 4294   4.505   0.322   6.966
 1132SOL    HW1 4295   4.464   0.389   6.904
 1132SOL    HW2 4296   4.603   0.316   6.949
 1133SOL     OW 4297   6.689   2.145   0.498
 1133SOL    HW1 4298   6.732   2.220   0.448
 1133SOL    HW2 4299   6.591   2.163   0.507
 1134SOL     OW 4300   5.758   1.863   0.656
 1134SOL    HW1 4301   5.831   1.931   0.645
 1134SOL    HW2 4302   5.704   1.885   0.736
 1135SOL     OW 4303   3.000   1.911   2.231
 1135SOL    HW1 4304   3.062   1.865   2.294
 1135SOL    HW2 4305   2.905   1.891   2.256
 1136SOL     OW 4306   3.085   5.111   4.810
 1136SOL    HW1 4307   3.152   5.085   4.741
 1136SOL    HW2 4308   3.033   5.031   4.839
 1137SOL     OW 4309   0.932   3.368   0.483
 1137SOL    HW1 4310   0.987   3.426   0.422
 1137SOL    HW2 4311   0.983   3.286   0.506
 1138SOL     OW 4312   1.408   1.568   6.094
 1138SOL    HW1 4313   1.316   1.547   6.128
 1138SOL    HW2 4314   1.403   1.595   5.998
 1139SOL     OW 4315   2.176   0.244   2.296
 1139SOL    HW1 4316   2.267   0.259   2.257
 1139SOL    HW2 4317   2.170   0.151   2.332
 1140SOL     OW 4318   3.931   2.021   2.453
 1140SOL    HW1 4319   3.953   2.108   2.499
 1140SOL    HW2 4320   3.833   2.018   2.434
 1141SOL     OW 4321   6.698   5.652   5.854
 1141SOL    HW1 4322   6.629   5.590   5.816
 1141SOL    HW2 4323   6.696   5.647   5.954
 1142SOL     OW 4324   4.981   0.686   4.757
 1142SOL    HW1 4325   4.989   0.610   4.821
 1142SOL    HW2 4326   4.885   0.714   4.750
 1143SOL     OW 4327   3.247   2.105   2.453
 1143SOL    HW1 4328   3.337   2.116   2.495
 1143SOL    HW2 4329   3.177   2.141   2.514
 1144SOL     OW 4330   6.703   4.669   4.704
 1144SOL    HW1 4331   6.792   4.626   4.685
 1144SOL    HW2 4332   6.650   4.673   4.620
 1145SOL     OW 4333   0.272   4.989   3.317
 1145SOL    HW1 4334   0.275   4.909   3.256
 1145SOL    HW2 4335   0.185   5.036   3.305
 1146SOL     OW 4336   5.125   1.021   0.997
 1146SOL    HW1 4337   5.168   1.099   0.950
 1146SOL    HW2 4338   5.042   1.052   1.043
 1147SOL     OW 4339   1.092   4.103   0.806
 1147SOL    HW1 4340   1.033   4.029   0.774
 1147SOL    HW2 4341   1.044   4.190   0.800
 1148SOL     OW 4342   2.730   6.832   0.116
 1148SOL    HW1 4343   2.807   6.895   0.128
 1148SOL    HW2 4344   2.711   6.820   0.019
 1149SOL     OW 4345   5.308   3.302   3.173
 1149SOL    HW1 4346   5.231   3.322   3.112
 1149SOL    HW2 4347   5.394   3.328   3.128
 1150SOL     OW 4348   1.935   4.147   1.074
 1150SOL    HW1 4349   1.871   4.186   1.008
 1150SOL    HW2 4350   1.994   4.081   1.027
 1151SOL     OW 4351   5.319   5.732   6.657
 1151SOL    HW1 4352   5.295   5.718   6.561
 1151SOL    HW2 4353   5.274   5.663   6.713
 1152SOL     OW 4354   1.105   6.673   5.156
 1152SOL    HW1 4355   1.008   6.696   5.154
 1152SOL    HW2 4356   1.157   6.753   5.187
 1153SOL     OW 4357   2.751   6.597   1.988
 1153SOL    HW1 4358   2.685   6.527   2.016
 1153SOL    HW2 4359   2.701   6.681   1.965
 1154SOL     OW 4360   0.305   3.593   1.638
 1154SOL    HW1 4361   0.235   3.538   1.592
 1154SOL    HW2 4362   0.376   3.532   1.673
 1155SOL     OW 4363   3.763   5.011   6.316
 1155SOL    HW1 4364   3.723   5.012   6.407
 1155SOL    HW2 4365   3.855   4.972   6.320
 1156SOL     OW 4366   2.221   0.593   4.359
 1156SOL    HW1 4367   2.181   0.664   4.301
 1156SOL    HW2 4368   2.277   0.636   4.430
 1157SOL     OW 4369   6.123   2.009   4.618
 1157SOL    HW1 4370   6.139   1.913   4.642
 1157SOL    HW2 4371   6.160   2.027   4.527
 1158SOL     OW 4372   6.330   5.337   5.603
 1158SOL    HW1 4373   6.268   5.386   5.542
 1158SOL    HW2 4374   6.408   5.395   5.626
 1159SOL     OW 4375   4.601   0.687   2.732
 1159SOL    HW1 4376   4.672   0.698   2.663
 1159SOL    HW2 4377   4.636   0.716   2.821
 1160SOL     OW 4378   3.575   3.225   1.253
 1160SOL    HW1 4379   3.660   3.203   1.204
 1160SOL    HW2 4380   3.540   3.142   1.296
 1161SOL     OW 4381   5.212   0.557   5.144
 1161SOL    HW1 4382   5.310   0.554   5.123
 1161SOL    HW2 4383   5.193   0.496   5.220
 1162SOL     OW 4384   4.063   3.131   0.853
 1162SOL    HW1 4385   3.996   3.057   0.854
 1162SOL    HW2 4386   4.100   3.141   0.760
 1163SOL     OW 4387   5.585   2.268   2.123
 1163SOL    HW1 4388   5.556   2.215   2.202
 1163SOL    HW2 4389   5.504   2.292   2.068
 1164SOL     OW 4390   5.606   2.857   3.805
 1164SOL    HW1 4391   5.603   2.914   3.723
 1164SOL    HW2 4392   5.685   2.796   3.800
 1165SOL     OW 4393   1.948   4.306   3.945
 1165SOL    HW1 4394   1.950   4.241   4.021
 1165SOL    HW2 4395   2.042   4.326   3.917
 1166SOL     OW 4396   4.116   0.936   6.966
 1166SOL    HW1 4397   4.083   0.940   0.035
 1166SOL    HW2 4398   4.041   0.952   6.902
 1167SOL     OW 4399   3.011   0.392   5.820
 1167SOL    HW1 4400   3.012   0.332   5.900
 1167SOL    HW2 4401   2.933   0.369   5.762
 1168SOL     OW 4402   5.785   0.422   2.213
 1168SOL    HW1 4403   5.846   0.450   2.287
 1168SOL    HW2 4404   5.725   0.497   2.189
 1169SOL     OW 4405   0.466   3.099   0.250
 1169SOL    HW1 4406   0.508   3.125   0.337
 1169SOL    HW2 4407   0.486   3.003   0.230
 1170SOL     OW 4408   4.307   0.867   2.006
 1170SOL    HW1 4409   4.235   0.845   2.073
 1170SOL    HW2 4410   4.291   0.816   1.922
 1171SOL     OW 4411   2.378   5.891   0.576
 1171SOL    HW1 4412   2.330   5.916   0.660
 1171SOL    HW2 4413   2.472   5.864   0.598
 1172SOL     OW 4414   3.354   4.119   3.420
 1172SOL    HW1 4415   3.402   4.157   3.500
 1172SOL    HW2 4416   3.374   4.174   3.340
 1173SOL     OW 4417   3.617   6.931   6.115
 1173SOL    HW1 4418   3.606   7.000   6.043
 1173SOL    HW2 4419   3.555   6.952   6.191
 1174SOL     OW 4420   3.182   5.544   0.786
 1174SOL    HW1 4421   3.244   5.516   0.860
 1174SOL    HW2 4422   3.103   5.591   0.825
 1175SOL     OW 4423   4.878   4.104   6.619
 1175SOL    HW1 4424   4.793   4.075   6.575
 1175SOL    HW2 4425   4.936   4.024   6.636
 1176SOL     OW 4426   6.176   4.572   0.438
 1176SOL    HW1 4427   6.101   4.637   0.422
 1176SOL    HW2 4428   6.257   4.622   0.469
 1177SOL     OW 4429   0.171   2.072   5.312
 1177SOL    HW1 4430   0.131   2.114   5.393
 1177SOL    HW2 4431   0.227   2.140   5.263
 1178SOL     OW 4432   4.520   3.640   1.576
 1178SOL    HW1 4433   4.530   3.570   1.505
 1178SOL    HW2 4434   4.423   3.657   1.592
 1179SOL     OW 4435   3.174   5.080   0.672
 1179SOL    HW1 4436   3.110   5.121   0.607
 1179SOL    HW2 4437   3.172   4.980   0.664
 1180SOL     OW 4438   2.529   0.333   3.715
 1180SOL    HW1 4439   2.580   0.254   3.749
 1180SOL    HW2 4440   2.473   0.305   3.637
 1181SOL     OW 4441   0.663   3.342   4.755
 1181SOL    HW1 4442   0.644   3.284   4.677
 1181SOL    HW2 4443   0.760   3.368   4.755
 1182SOL     OW 4444   2.159   4.958   3.056
 1182SOL    HW1 4445   2.199   4.867   3.068
 1182SOL    HW2 4446   2.084   4.970   3.121
 1183SOL     OW 4447   4.206   5.335   2.569
 1183SOL    HW1 4448   4.163   5.325   2.659
 1183SOL    HW2 4449   4.185   5.255   2.513
 1184SOL     OW 4450   3.399   2.285   5.338
 1184SOL    HW1 4451   3.360   2.209   5.389
 1184SOL    HW2 4452   3.326   2.335   5.291
 1185SOL     OW 4453   2.072   0.564   0.548
 1185SOL    HW1 4454   2.126   0.646   0.565
 1185SOL    HW2 4455   2.116   0.509   0.477
 1186SOL     OW 4456   6.008   7.022   6.081
 1186SOL    HW1 4457   6.006   6.923   6.066
 1186SOL    HW2 4458   5.962   0.019   6.168
 1187SOL     OW 4459   5.599   5.878   5.024
 1187SOL    HW1 4460   5.624   5.974   5.019
 1187SOL    HW2 4461   5.538   5.863   5.102
 1188SOL     OW 4462   3.299   6.539   6.343
 1188SOL    HW1 4463   3.246   6.539   6.428
 1188SOL    HW2 4464   3.238   6.559   6.266
 1189SOL     OW 4465   5.492   1.344   1.792
 1189SOL    HW1 4466   5.430   1.341   1.714
 1189SOL    HW2 4467   5.549   1.261   1.792
 1190SOL     OW 4468   4.181   4.805   4.619
 1190SOL    HW1 4469   4.223   4.824   4.708
 1190SOL    HW2 4470   4.081   4.802   4.629
 1191SOL     OW 4471   3.606   5.664   5.352
 1191SOL    HW1 4472   3.620   5.591   5.418
 1191SOL    HW2 4473   3.516   5.654   5.309
 1192SOL     OW 4474   5.734   4.618   3.371
 1192SOL    HW1 4475   5.794   4.540   3.351
 1192SOL    HW2 4476   5.700   4.611   3.465
 1193SOL     OW 4477   6.524   0.699   4.111
 1193SOL    HW1 4478   6.470   0.672   4.031
 1193SOL    HW2 4479   6.486   0.656   4.193
 1194SOL     OW 4480   0.275   1.134   1.188
 1194SOL    HW1 4481   0.292   1.076   1.268
 1194SOL    HW2 4482   0.362   1.163   1.149
 1195SOL     OW 4483   6.547   1.678   0.628
 1195SOL    HW1 4484   6.497   1.702   0.711
 1195SOL    HW2 4485   6.511   1.732   0.552
 1196SOL     OW 4486   0.164   4.673   2.274
 1196SOL    HW1 4487   0.068   4.698   2.266
 1196SOL    HW2 4488   0.178   4.581   2.237
 1197SOL     OW 4489   3.749   6.102   5.633
 1197SOL    HW1 4490   3.699   6.139   5.555
 1197SOL    HW2 4491   3.729   6.158   5.714
 1198SOL     OW 4492   2.259   2.703   2.506
 1198SOL    HW1 4493   2.259   2.777   2.573
 1198SOL    HW2 4494   2.352   2.669   2.493
 1199SOL     OW 4495   3.779   2.976   2.864
 1199SOL    HW1 4496   3.802   3.021   2.777
 1199SOL    HW2 4497   3.723   2.896   2.845
 1200SOL     OW 4498   4.084   3.342   4.896
 1200SOL    HW1 4499   4.173   3.298   4.883
 1200SOL    HW2 4500   4.033   3.293   4.967
 1201SOL     OW 4501   0.126   1.027   4.188
 1201SOL    HW1 4502   0.031   1.012   4.159
 1201SOL    HW2 4503   0.163   1.105   4.137
 1202SOL     OW 4504   6.349   0.762   6.007
 1202SOL    HW1 4505   6.433   0.786   6.055
 1202SOL    HW2 4506   6.309   0.844   5.966
 1203SOL     OW 4507   5.659   6.864   0.757
 1203SOL    HW1 4508   5.662   6.848   0.856
 1203SOL    HW2 4509   5.659   6.776   0.709
 1204SOL     OW 4510   4.073   1.282   0.395
 1204SOL    HW1 4511   4.057   1.221   0.472
 1204SOL    HW2 4512   3.993   1.339   0.379
 1205SOL     OW 4513   4.462   3.265   6.652
 1205SOL    HW1 4514   4.546   3.316   6.635
 1205SOL    HW2 4515   4.484   3.175   6.690
 1206SOL     OW 4516   1.748   1.668   4.918
 1206SOL    HW1 4517   1.678   1.732   4.885
 1206SOL    HW2 4518   1.833   1.718   4.935
 1207SOL     OW 4519   6.848   6.583   1.193
 1207SOL    HW1 4520   6.920   6.634   1.145
 1207SOL    HW2 4521   6.758   6.609   1.156
 1208SOL     OW 4522   3.612   4.113   2.528
 1208SOL    HW1 4523   3.550   4.035   2.525
 1208SOL    HW2 4524   3.629   4.146   2.435
 1209SOL     OW 4525   5.694   6.680   4.813
 1209SOL    HW1 4526   5.670   6.707   4.906
 1209SOL    HW2 4527   5.755   6.749   4.773
 1210SOL     OW 4528   4.921   6.434   3.345
 1210SOL    HW1 4529   4.852   6.461   3.412
 1210SOL    HW2 4530   5.012   6.454   3.381
 1211SOL     OW 4531   1.841   3.449   3.476
 1211SOL    HW1 4532   1.832   3.549   3.484
 1211SOL    HW2 4533   1.765   3.406   3.524
 1212SOL     OW 4534   0.016   2.161   5.538
 1212SOL    HW1 4535   6.979   2.101   5.589
 1212SOL    HW2 4536   6.990   2.203   5.462
 1213SOL     OW 4537   5.726   2.725   5.097
 1213SOL    HW1 4538   5.784   2.719   5.016
 1213SOL    HW2 4539   5.708   2.821   5.119
 1214SOL     OW 4540   1.353   3.384   4.463
 1214SOL    HW1 4541   1.447   3.394   4.429
 1214SOL    HW2 4542   1.298   3.462   4.434
 1215SOL     OW 4543   2.241   4.837   2.140
 1215SOL    HW1 4544   2.335   4.861   2.116
 1215SOL    HW2 4545   2.187   4.920   2.150
 1216SOL     OW 4546   0.226   0.205   1.479
 1216SOL    HW1 4547   0.237   0.225   1.381
 1216SOL    HW2 4548   0.311   0.167   1.515
 1217SOL     OW 4549   2.008   6.572   0.720
 1217SOL    HW1 4550   1.912   6.591   0.700
 1217SOL    HW2 4551   2.016   6.487   0.773
 1218SOL     OW 4552   1.044   2.999   4.827
 1218SOL    HW1 4553   1.047   3.099   4.829
 1218SOL    HW2 4554   0.959   2.968   4.869
 1219SOL     OW 4555   4.583   4.623   1.144
 1219SOL    HW1 4556   4.562   4.607   1.240
 1219SOL    HW2 4557   4.542   4.710   1.115
 1220SOL     OW 4558   5.216   4.203   2.263
 1220SOL    HW1 4559   5.262   4.115   2.273
 1220SOL    HW2 4560   5.241   4.263   2.338
 1221SOL     OW 4561   5.719   3.761   6.819
 1221SOL    HW1 4562   5.784   3.834   6.841
 1221SOL    HW2 4563   5.751   3.712   6.737
 1222SOL     OW 4564   0.106   0.508   0.790
 1222SOL    HW1 4565   0.120   0.422   0.840
 1222SOL    HW2 4566   0.018   0.504   0.741
 1223SOL     OW 4567   5.305   1.259   0.666
 1223SOL    HW1 4568   5.261   1.176   0.632
 1223SOL    HW2 4569   5.310   1.326   0.592
 1224SOL     OW 4570   3.277   5.827   6.931
 1224SOL    HW1 4571   3.308   5.828   0.002
 1224SOL    HW2 4572   3.266   5.733   6.900
 1225SOL     OW 4573   3.964   2.314   0.873
 1225SOL    HW1 4574   3.885   2.274   0.825
 1225SOL    HW2 4575   4.036   2.245   0.880
 1226SOL     OW 4576   5.607   6.484   1.060
 1226SOL    HW1 4577   5.548   6.496   1.140
 1226SOL    HW2 4578   5.560   6.517   0.979
 1227SOL     OW 4579   6.099   5.167   5.629
 1227SOL    HW1 4580   6.109   5.129   5.721
 1227SOL    HW2 4581   6.160   5.245   5.618
 1228SOL     OW 4582   3.487   3.070   0.388
 1228SOL    HW1 4583   3.553   3.138   0.357
 1228SOL    HW2 4584   3.419   3.113   0.447
 1229SOL     OW 4585   1.305   0.015   1.500
 1229SOL    HW1 4586   1.327   0.076   1.576
 1229SOL    HW2 4587   1.348   0.049   1.417
 1230SOL     OW 4588   5.254   5.957   2.964
 1230SOL    HW1 4589   5.292   6.034   3.014
 1230SOL    HW2 4590   5.162   5.979   2.933
 1231SOL     OW 4591   1.464   2.564   5.854
 1231SOL    HW1 4592   1.509   2.591   5.939
 1231SOL    HW2 4593   1.444   2.466   5.856
 1232SOL     OW 4594   4.684   1.021   5.356
 1232SOL    HW1 4595   4.772   1.040   5.313
 1232SOL    HW2 4596   4.676   1.072   5.442
 1233SOL     OW 4597   1.162   5.479   3.704
 1233SOL    HW1 4598   1.173   5.423   3.621
 1233SOL    HW2 4599   1.236   5.458   3.768
 1234SOL     OW 4600   0.179   2.555   6.627
 1234SOL    HW1 4601   0.217   2.489   6.562
 1234SOL    HW2 4602   0.109   2.511   6.682
 1235SOL     OW 4603   6.518   5.375   0.098
 1235SOL    HW1 4604   6.588   5.332   0.040
 1235SOL    HW2 4605   6.477   5.306   0.158
 1236SOL     OW 4606   3.470   2.126   0.373
 1236SOL    HW1 4607   3.555   2.074   0.366
 1236SOL    HW2 4608   3.413   2.107   0.292
 1237SOL     OW 4609   1.849   6.363   4.794
 1237SOL    HW1 4610   1.802   6.426   4.856
 1237SOL    HW2 4611   1.807   6.368   4.703
 1238SOL     OW 4612   0.459   0.098   3.577
 1238SOL    HW1 4613   0.479   0.186   3.535
 1238SOL    HW2 4614   0.416   0.113   3.666
 1239SOL     OW 4615   6.623   5.523   4.676
 1239SOL    HW1 4616   6.680   5.587   4.727
 1239SOL    HW2 4617   6.679   5.445   4.647
 1240SOL     OW 4618   5.596   5.039   1.979
 1240SOL    HW1 4619   5.553   5.076   1.896
 1240SOL    HW2 4620   5.529   4.986   2.031
 1241SOL     OW 4621   0.015   4.804   4.771
 1241SOL    HW1 4622   7.000   4.850   4.851
 1241SOL    HW2 4623   0.067   4.725   4.802
 1242SOL     OW 4624   2.174   3.760   0.455
 1242SOL    HW1 4625   2.112   3.682   0.465
 1242SOL    HW2 4626   2.160   3.823   0.532
 1243SOL     OW 4627   0.156   1.804   4.804
 1243SOL    HW1 4628   0.076   1.766   4.758
 1243SOL    HW2 4629   0.237   1.788   4.748
 1244SOL     OW 4630   5.345   6.895   5.262
 1244SOL    HW1 4631   5.400   6.947   5.327
 1244SOL    HW2 4632   5.388   6.899   5.171
 1245SOL     OW 4633   5.111   5.891   1.369
 1245SOL    HW1 4634   5.016   5.859   1.363
 1245SOL    HW2 4635   5.112   5.990   1.383
 1246SOL     OW 4636   3.972   1.214   2.185
 1246SOL    HW1 4637   3.988   1.158   2.266
 1246SOL    HW2 4638   3.895   1.176   2.133
 1247SOL     OW 4639   6.170   6.827   4.695
 1247SOL    HW1 4640   6.192   6.913   4.651
 1247SOL    HW2 4641   6.119   6.768   4.632
 1248SOL     OW 4642   0.740   6.237   3.827
 1248SOL    HW1 4643   0.794   6.319   3.804
 1248SOL    HW2 4644   0.702   6.198   3.743
 1249SOL     OW 4645   6.702   4.355   1.800
 1249SOL    HW1 4646   6.608   4.343   1.833
 1249SOL    HW2 4647   6.754   4.271   1.816
 1250SOL     OW 4648   6.678   3.057   5.277
 1250SOL    HW1 4649   6.733   3.097   5.203
 1250SOL    HW2 4650   6.587   3.098   5.276
 1251SOL     OW 4651   2.197   0.662   2.700
 1251SOL    HW1 4652   2.122   0.629   2.758
 1251SOL    HW2 4653   2.271   0.595   2.698
 1252SOL     OW 4654   3.392   5.403   6.447
 1252SOL    HW1 4655   3.320   5.460   6.486
 1252SOL    HW2 4656   3.444   5.360   6.521
 1253SOL     OW 4657   2.750   0.678   1.734
 1253SOL    HW1 4658   2.652   0.692   1.748
 1253SOL    HW2 4659   2.764   0.606   1.667
 1254SOL     OW 4660   6.442   1.751   3.247
 1254SOL    HW1 4661   6.506   1.811   3.294
 1254SOL    HW2 4662   6.461   1.753   3.149
 1255SOL     OW 4663   5.963   2.533   5.224
 1255SOL    HW1 4664   5.889   2.482   5.179
 1255SOL    HW2 4665   6.013   2.587   5.155
 1256SOL     OW 4666   0.129   5.871   3.151
 1256SOL    HW1 4667   0.135   5.875   3.251
 1256SOL    HW2 4668   0.033   5.860   3.124
 1257SOL     OW 4669   6.788   4.549   4.223
 1257SOL    HW1 4670   6.888   4.553   4.216
 1257SOL    HW2 4671   6.748   4.547   4.132
 1258SOL     OW 4672   2.386   5.902   2.487
 1258SOL    HW1 4673   2.356   5.967   2.556
 1258SOL    HW2 4674   2.310   5.879   2.427
 1259SOL     OW 4675   3.703   6.665   5.011
 1259SOL    HW1 4676   3.681   6.605   4.934
 1259SOL    HW2 4677   3.796   6.700   5.001
 1260SOL     OW 4678   3.172   1.040   1.505
 1260SOL    HW1 4679   3.232   1.105   1.553
 1260SOL    HW2 4680   3.144   0.969   1.569
 1261SOL     OW 4681   6.821   3.529   0.298
 1261SOL    HW1 4682   6.891   3.577   0.351
 1261SOL    HW2 4683   6.810   3.437   0.335
 1262SOL     OW 4684   4.696   5.029   0.979
 1262SOL    HW1 4685   4.617   4.968   0.985
 1262SOL    HW2 4686   4.758   5.011   1.056
 1263SOL     OW 4687   6.244   2.083   0.785
 1263SOL    HW1 4688   6.276   2.082   0.690
 1263SOL    HW2 4689   6.294   2.154   0.835
 1264SOL     OW 4690   0.637   4.177   2.646
 1264SOL    HW1 4691   0.624   4.090   2.600
 1264SOL    HW2 4692   0.730   4.182   2.682
 1265SOL     OW 4693   6.604   4.713   3.497
 1265SOL    HW1 4694   6.539   4.762   3.440
 1265SOL    HW2 4695   6.622   4.623   3.457
 1266SOL     OW 4696   2.398   1.198   4.040
 1266SOL    HW1 4697   2.494   1.219   4.053
 1266SOL    HW2 4698   2.348   1.280   4.013
 1267SOL     OW 4699   5.687   5.750   1.511
 1267SOL    HW1 4700   5.617   5.821   1.522
 1267SOL    HW2 4701   5.643   5.664   1.486
 1268SOL     OW 4702   5.129   2.375   6.988
 1268SOL    HW1 4703   5.145   2.360   6.890
 1268SOL    HW2 4704   5.110   2.288   0.008
 1269SOL     OW 4705   5.953   6.267   5.154
 1269SOL    HW1 4706   5.944   6.329   5.076
 1269SOL    HW2 4707   5.988   6.179   5.123
 1270SOL     OW 4708   2.269   4.036   4.267
 1270SOL    HW1 4709   2.268   4.010   4.364
 1270SOL    HW2 4710   2.311   4.126   4.257
 1271SOL     OW 4711   3.493   1.841   3.024
 1271SOL    HW1 4712   3.444   1.905   2.965
 1271SOL    HW2 4713   3.468   1.858   3.119
 1272SOL     OW 4714   0.257   6.027   1.015
 1272SOL    HW1 4715   0.217   5.936   1.013
 1272SOL    HW2 4716   0.184   6.096   1.008
 1273SOL     OW 4717   1.664   4.055   6.924
 1273SOL    HW1 4718   1.595   4.015   6.984
 1273SOL    HW2 4719   1.680   3.994   6.846
 1274SOL     OW 4720   6.795   3.325   1.257
 1274SOL    HW1 4721   6.871   3.272   1.219
 1274SOL    HW2 4722   6.740   3.266   1.316
 1275SOL     OW 4723   4.468   0.267   3.288
 1275SOL    HW1 4724   4.508   0.192   3.342
 1275SOL    HW2 4725   4.412   0.228   3.215
 1276SOL     OW 4726   6.840   0.500   3.567
 1276SOL    HW1 4727   6.860   0.456   3.479
 1276SOL    HW2 4728   6.912   0.479   3.632
 1277SOL     OW 4729   0.762   0.495   4.486
 1277SOL    HW1 4730   0.718   0.478   4.574
 1277SOL    HW2 4731   0.693   0.521   4.419
 1278SOL     OW 4732   1.532   1.595   5.487
 1278SOL    HW1 4733   1.446   1.545   5.501
 1278SOL    HW2 4734   1.609   1.532   5.493
 1279SOL     OW 4735   2.067   0.015   0.733
 1279SOL    HW1 4736   2.164   0.004   0.711
 1279SOL    HW2 4737   2.022   0.067   0.660
 1280SOL     OW 4738   2.481   6.243   3.567
 1280SOL    HW1 4739   2.395   6.278   3.602
 1280SOL    HW2 4740   2.465   6.195   3.480
 1281SOL     OW 4741   1.297   5.658   3.079
 1281SOL    HW1 4742   1.293   5.754   3.053
 1281SOL    HW2 4743   1.387   5.621   3.058
 1282SOL     OW 4744   1.071   1.170   0.691
 1282SOL    HW1 4745   1.061   1.147   0.788
 1282SOL    HW2 4746   1.138   1.243   0.681
 1283SOL     OW 4747   5.662   2.596   5.325
 1283SOL    HW1 4748   5.728   2.628   5.392
 1283SOL    HW2 4749   5.675   2.644   5.239
 1284SOL     OW 4750   3.387   3.073   1.579
 1284SOL    HW1 4751   3.290   3.054   1.565
 1284SOL    HW2 4752   3.400   3.169   1.605
 1285SOL     OW 4753   5.751   3.601   6.598
 1285SOL    HW1 4754   5.828   3.537   6.604
 1285SOL    HW2 4755   5.665   3.552   6.611
 1286SOL     OW 4756   5.015   4.418   2.700
 1286SOL    HW1 4757   5.013   4.517   2.690
 1286SOL    HW2 4758   4.922   4.382   2.692
 1287SOL     OW 4759   5.350   4.522   6.293
 1287SOL    HW1 4760   5.298   4.549   6.374
 1287SOL    HW2 4761   5.340   4.424   6.278
 1288SOL     OW 4762   6.475   3.807   1.488
 1288SOL    HW1 4763   6.473   3.903   1.461
 1288SOL    HW2 4764   6.382   3.774   1.503
 1289SOL     OW 4765   0.763   6.159   1.935
 1289SOL    HW1 4766   0.749   6.135   2.031
 1289SOL    HW2 4767   0.851   6.206   1.925
 1290SOL     OW 4768   0.467   0.997   0.123
 1290SOL    HW1 4769   0.511   0.926   0.177
 1290SOL    HW2 4770   0.521   1.082   0.129
 1291SOL     OW 4771   1.485   3.934   6.068
 1291SOL    HW1 4772   1.506   4.030   6.047
 1291SOL    HW2 4773   1.558   3.895   6.123
 1292SOL     OW 4774   6.589   5.098   2.172
 1292SOL    HW1 4775   6.505   5.151   2.177
 1292SOL    HW2 4776   6.662   5.153   2.134
 1293SOL     OW 4777   2.647   1.445   6.443
 1293SOL    HW1 4778   2.725   1.491   6.487
 1293SOL    HW2 4779   2.566   1.455   6.500
 1294SOL     OW 4780   0.775   3.029   1.314
 1294SOL    HW1 4781   0.802   3.111   1.263
 1294SOL    HW2 4782   0.855   2.990   1.359
 1295SOL     OW 4783   6.469   3.154   2.763
 1295SOL    HW1 4784   6.454   3.248   2.732
 1295SOL    HW2 4785   6.450   3.090   2.689
 1296SOL     OW 4786   3.995   0.536   5.723
 1296SOL    HW1 4787   3.917   0.523   5.785
 1296SOL    HW2 4788   3.972   0.498   5.633
 1297SOL     OW 4789   6.013   0.704   6.409
 1297SOL    HW1 4790   5.964   0.788   6.388
 1297SOL    HW2 4791   5.962   0.651   6.476
 1298SOL     OW 4792   6.399   3.526   3.349
 1298SOL    HW1 4793   6.385   3.440   3.300
 1298SOL    HW2 4794   6.423   3.506   3.444
 1299SOL     OW 4795   1.168   3.463   2.529
 1299SOL    HW1 4796   1.092   3.510   2.574
 1299SOL    HW2 4797   1.249   3.522   2.531
 1300SOL     OW 4798   3.063   3.935   2.297
 1300SOL    HW1 4799   3.059   3.968   2.202
 1300SOL    HW2 4800   3.009   3.851   2.304
 1301SOL     OW 4801   0.936   5.989   2.605
 1301SOL    HW1 4802   1.023   6.014   2.562
 1301SOL    HW2 4803   0.866   6.054   2.577
 1302SOL     OW 4804   3.149   0.222   5.176
 1302SOL    HW1 4805   3.241   0.198   5.143
 1302SOL    HW2 4806   3.156   0.261   5.267
 1303SOL     OW 4807   4.329   1.770   0.470
 1303SOL    HW1 4808   4.292   1.711   0.542
 1303SOL    HW2 4809   4.375   1.849   0.512
 1304SOL     OW 4810   1.642   1.290   6.703
 1304SOL    HW1 4811   1.624   1.235   6.622
 1304SOL    HW2 4812   1.731   1.266   6.741
 1305SOL     OW 4813   5.547   5.450   6.570
 1305SOL    HW1 4814   5.536   5.521   6.640
 1305SOL    HW2 4815   5.570   5.363   6.613
 1306SOL     OW 4816   0.680   4.819   5.214
 1306SOL    HW1 4817   0.696   4.791   5.120
 1306SOL    HW2 4818   0.758   4.872   5.247
 1307SOL     OW 4819   2.082   2.550   4.521
 1307SOL    HW1 4820   2.057   2.479   4.456
 1307SOL    HW2 4821   2.158   2.518   4.578
 1308SOL     OW 4822   3.827   5.830   4.563
 1308SOL    HW1 4823   3.829   5.784   4.652
 1308SOL    HW2 4824   3.754   5.790   4.507
 1309SOL     OW 4825   5.426   2.891   5.329
 1309SOL    HW1 4826   5.496   2.962   5.335
 1309SOL    HW2 4827   5.338   2.933   5.307
 1310SOL     OW 4828   6.332   3.895   5.096
 1310SOL    HW1 4829   6.274   3.819   5.066
 1310SOL    HW2 4830   6.283   3.981   5.084
 1311SOL     OW 4831   6.622   6.236   4.058
 1311SOL    HW1 4832   6.704   6.291   4.052
 1311SOL    HW2 4833   6.576   6.254   4.146
 1312SOL     OW 4834   0.701   0.293   6.661
 1312SOL    HW1 4835   0.616   0.318   6.616
 1312SOL    HW2 4836   0.769   0.268   6.592
 1313SOL     OW 4837   1.894   5.448   5.659
 1313SOL    HW1 4838   1.861   5.535   5.621
 1313SOL    HW2 4839   1.871   5.373   5.597
 1314SOL     OW 4840   2.240   1.890   5.345
 1314SOL    HW1 4841   2.259   1.900   5.443
 1314SOL    HW2 4842   2.162   1.828   5.332
 1315SOL     OW 4843   0.913   1.072   0.505
 1315SOL    HW1 4844   0.975   1.105   0.575
 1315SOL    HW2 4845   0.874   0.984   0.533
 1316SOL     OW 4846   2.200   6.910   3.635
 1316SOL    HW1 4847   2.130   6.973   3.668
 1316SOL    HW2 4848   2.192   6.823   3.684
 1317SOL     OW 4849   1.181   3.999   4.489
 1317SOL    HW1 4850   1.178   4.096   4.512
 1317SOL    HW2 4851   1.209   3.989   4.393
 1318SOL     OW 4852   6.755   0.711   0.544
 1318SOL    HW1 4853   6.794   0.716   0.453
 1318SOL    HW2 4854   6.765   0.800   0.590
 1319SOL     OW 4855   6.679   1.820   0.069
 1319SOL    HW1 4856   6.765   1.825   0.018
 1319SOL    HW2 4857   6.603   1.811   0.005
 1320SOL     OW 4858   5.963   3.733   0.190
 1320SOL    HW1 4859   5.975   3.713   0.287
 1320SOL    HW2 4860   5.881   3.686   0.156
 1321SOL     OW 4861   4.314   2.654   6.333
 1321SOL    HW1 4862   4.360   2.590   6.271
 1321SOL    HW2 4863   4.331   2.627   6.428
 1322SOL     OW 4864   5.356   0.811   3.682
 1322SOL    HW1 4865   5.452   0.806   3.654
 1322SOL    HW2 4866   5.341   0.895   3.734
 1323SOL     OW 4867   5.194   1.853   5.330
 1323SOL    HW1 4868   5.241   1.894   5.408
 1323SOL    HW2 4869   5.185   1.755   5.344
 1324SOL     OW 4870   0.806   2.811   1.611
 1324SOL    HW1 4871   0.769   2.783   1.700
 1324SOL    HW2 4872   0.747   2.777   1.538
 1325SOL     OW 4873   2.796   6.887   1.990
 1325SOL    HW1 4874   2.705   6.879   1.949
 1325SOL    HW2 4875   2.862   6.911   1.919
 1326SOL     OW 4876   4.791   2.913   4.795
 1326SOL    HW1 4877   4.803   3.012   4.802
 1326SOL    HW2 4878   4.759   2.890   4.703
 1327SOL     OW 4879   2.986   5.269   2.668
 1327SOL    HW1 4880   2.960   5.349   2.614
 1327SOL    HW2 4881   3.027   5.298   2.754
 1328SOL     OW 4882   1.078   3.081   0.751
 1328SOL    HW1 4883   1.099   3.117   0.660
 1328SOL    HW2 4884   1.109   2.986   0.757
 1329SOL     OW 4885   6.898   1.963   0.545
 1329SOL    HW1 4886   6.827   2.034   0.538
 1329SOL    HW2 4887   6.865   1.878   0.505
 1330SOL     OW 4888   6.705   0.638   0.948
 1330SOL    HW1 4889   6.656   0.568   0.896
 1330SOL    HW2 4890   6.644   0.716   0.962
 1331SOL     OW 4891   4.498   2.187   2.867
 1331SOL    HW1 4892   4.596   2.202   2.878
 1331SOL    HW2 4893   4.471   2.103   2.914
 1332SOL     OW 4894   3.571   6.813   0.256
 1332SOL    HW1 4895   3.547   6.845   0.347
 1332SOL    HW2 4896   3.565   6.890   0.191
 1333SOL     OW 4897   3.554   4.183   6.275
 1333SOL    HW1 4898   3.471   4.126   6.281
 1333SOL    HW2 4899   3.604   4.177   6.361
 1334SOL     OW 4900   0.026   2.792   4.570
 1334SOL    HW1 4901   6.995   2.709   4.581
 1334SOL    HW2 4902   0.080   2.785   4.487
 1335SOL     OW 4903   3.148   6.350   2.919
 1335SOL    HW1 4904   3.218   6.383   2.856
 1335SOL    HW2 4905   3.185   6.346   3.011
 1336SOL     OW 4906   1.579   1.101   6.506
 1336SOL    HW1 4907   1.570   1.164   6.428
 1336SOL    HW2 4908   1.513   1.026   6.496
 1337SOL     OW 4909   0.946   1.520   4.988
 1337SOL    HW1 4910   1.008   1.526   5.067
 1337SOL    HW2 4911   0.857   1.559   5.013
 1338SOL     OW 4912   4.554   3.412   5.763
 1338SOL    HW1 4913   4.490   3.339   5.787
 1338SOL    HW2 4914   4.521   3.459   5.680
 1339SOL     OW 4915   6.914   6.561   0.149
 1339SOL    HW1 4916   6.981   6.632   0.127
 1339SOL    HW2 4917   6.941   6.516   0.234
 1340SOL     OW 4918   1.167   1.589   2.258
 1340SOL    HW1 4919   1.196   1.685   2.257
 1340SOL    HW2 4920   1.214   1.540   2.185
 1341SOL     OW 4921   3.880   0.256   5.287
 1341SOL    HW1 4922   3.867   0.293   5.379
 1341SOL    HW2 4923   3.873   0.330   5.220
 1342SOL     OW 4924   1.437   5.078   6.157
 1342SOL    HW1 4925   1.527   5.065   6.115
 1342SOL    HW2 4926   1.367   5.066   6.087
 1343SOL     OW 4927   4.187   6.664   2.604
 1343SOL    HW1 4928   4.263   6.727   2.589
 1343SOL    HW2 4929   4.222   6.571   2.610
 1344SOL     OW 4930   6.872   4.056   3.351
 1344SOL    HW1 4931   6.920   4.083   3.435
 1344SOL    HW2 4932   6.806   3.984   3.371
 1345SOL     OW 4933   0.936   1.702   3.495
 1345SOL    HW1 4934   0.913   1.660   3.583
 1345SOL    HW2 4935   0.853   1.740   3.454
 1346SOL     OW 4936   1.909   6.964   3.046
 1346SOL    HW1 4937   1.852   6.975   2.965
 1346SOL    HW2 4938   1.855   6.927   3.121
 1347SOL     OW 4939   6.362   6.351   3.906
 1347SOL    HW1 4940   6.427   6.317   3.974
 1347SOL    HW2 4941   6.380   6.306   3.818
 1348SOL     OW 4942   5.920   5.329   2.940
 1348SOL    HW1 4943   5.938   5.397   2.869
 1348SOL    HW2 4944   5.858   5.367   3.009
 1349SOL     OW 4945   4.709   2.514   6.395
 1349SOL    HW1 4946   4.672   2.516   6.488
 1349SOL    HW2 4947   4.787   2.576   6.389
 1350SOL     OW 4948   3.600   4.919   6.977
 1350SOL    HW1 4949   3.689   4.881   7.004
 1350SOL    HW2 4950   3.589   4.911   6.878
 1351SOL     OW 4951   0.366   1.711   2.978
 1351SOL    HW1 4952   0.312   1.784   2.937
 1351SOL    HW2 4953   0.305   1.644   3.019
 1352SOL     OW 4954   0.643   0.801   3.188
 1352SOL    HW1 4955   0.743   0.797   3.191
 1352SOL    HW2 4956   0.605   0.725   3.241
 1353SOL     OW 4957   0.189   4.256   5.846
 1353SOL    HW1 4958   0.208   4.209   5.760
 1353SOL    HW2 4959   0.092   4.279   5.851
 1354SOL     OW 4960   6.832   2.185   0.130
 1354SOL    HW1 4961   6.851   2.270   0.179
 1354SOL    HW2 4962   6.882   2.110   0.173
 1355SOL     OW 4963   5.658   3.258   5.952
 1355SOL    HW1 4964   5.568   3.217   5.970
 1355SOL    HW2 4965   5.654   3.356   5.967
 1356SOL     OW 4966   3.273   3.865   4.080
 1356SOL    HW1 4967   3.282   3.930   4.155
 1356SOL    HW2 4968   3.194   3.890   4.024
 1357SOL     OW 4969   2.590   3.298   5.834
 1357SOL    HW1 4970   2.658   3.275   5.765
 1357SOL    HW2 4971   2.534   3.375   5.801
 1358SOL     OW 4972   3.003   1.914   6.233
 1358SOL    HW1 4973   3.026   1.825   6.195
 1358SOL    HW2 4974   3.034   1.919   6.328
 1359SOL     OW 4975   6.817   4.824   0.911
 1359SOL    HW1 4976   6.854   4.916   0.906
 1359SOL    HW2 4977   6.891   4.757   0.902
 1360SOL     OW 4978   3.967   3.376   2.483
 1360SOL    HW1 4979   3.877   3.370   2.439
 1360SOL    HW2 4980   3.971   3.461   2.536
 1361SOL     OW 4981   6.902   6.828   6.464
 1361SOL    HW1 4982   6.993   6.789   6.475
 1361SOL    HW2 4983   6.850   6.816   6.548
 1362SOL     OW 4984   2.955   3.879   4.591
 1362SOL    HW1 4985   2.858   3.897   4.609
 1362SOL    HW2 4986   2.979   3.787   4.621
 1363SOL     OW 4987   0.032   6.168   3.780
 1363SOL    HW1 4988   0.086   6.251   3.796
 1363SOL    HW2 4989   6.990   6.158   3.854
 1364SOL     OW 4990   0.202   2.410   0.190
 1364SOL    HW1 4991   0.186   2.417   0.288
 1364SOL    HW2 4992   0.291   2.450   0.168
 1365SOL     OW 4993   1.481   3.834   5.609
 1365SOL    HW1 4994   1.490   3.927   5.573
 1365SOL    HW2 4995   1.482   3.769   5.533
 1366SOL     OW 4996   0.354   4.230   1.012
 1366SOL    HW1 4997   0.408   4.255   0.932
 1366SOL    HW2 4998   0.412   4.180   1.077
 1367SOL     OW 4999   1.298   5.529   2.725
 1367SOL    HW1 5000   1.331   5.522   2.819
 1367SOL    HW2 5001   1.354   5.473   2.665
 1368SOL     OW 5002   6.614   0.416   4.172
 1368SOL    HW1 5003   6.623   0.426   4.073
 1368SOL    HW2 5004   6.606   0.319   4.195
 1369SOL     OW 5005   2.447   6.763   2.168
 1369SOL    HW1 5006   2.519   6.813   2.216
 1369SOL    HW2 5007   2.452   6.784   2.070
 1370SOL     OW 5008   6.315   1.886   3.913
 1370SOL    HW1 5009   6.278   1.813   3.856
 1370SOL    HW2 5010   6.292   1.975   3.874
 1371SOL     OW 5011   4.667   1.298   4.813
 1371SOL    HW1 5012   4.591   1.297   4.877
 1371SOL    HW2 5013   4.657   1.375   4.749
 1372SOL     OW 5014   0.158   2.100   1.093
 1372SOL    HW1 5015   0.135   2.003   1.096
 1372SOL    HW2 5016   0.075   2.153   1.073
 1373SOL     OW 5017   4.793   2.135   0.442
 1373SOL    HW1 5018   4.872   2.094   0.395
 1373SOL    HW2 5019   4.711   2.121   0.387
 1374SOL     OW 5020   5.154   4.042   7.019
 1374SOL    HW1 5021   5.165   4.078   0.087
 1374SOL    HW2 5022   5.063   4.065   6.985
 1375SOL     OW 5023   0.142   6.768   6.484
 1375SOL    HW1 5024   0.158   6.738   6.391
 1375SOL    HW2 5025   0.176   6.699   6.548
 1376SOL     OW 5026   3.559   4.904   5.371
 1376SOL    HW1 5027   3.620   4.964   5.320
 1376SOL    HW2 5028   3.472   4.952   5.389
 1377SOL     OW 5029   1.135   3.014   3.561
 1377SOL    HW1 5030   1.169   2.938   3.506
 1377SOL    HW2 5031   1.135   2.987   3.658
 1378SOL     OW 5032   5.303   2.194   5.331
 1378SOL    HW1 5033   5.356   2.134   5.391
 1378SOL    HW2 5034   5.303   2.157   5.239
 1379SOL     OW 5035   4.231   5.233   3.346
 1379SOL    HW1 5036   4.282   5.307   3.304
 1379SOL    HW2 5037   4.289   5.185   3.413
 1380SOL     OW 5038   6.990   6.163   3.140
 1380SOL    HW1 5039   6.908   6.187   3.088
 1380SOL    HW2 5040   0.011   6.084   3.097
 1381SOL     OW 5041   5.708   1.888   0.046
 1381SOL    HW1 5042   5.699   1.957   0.117
 1381SOL    HW2 5043   5.639   1.903   7.000
 1382SOL     OW 5044   4.923   3.002   1.305
 1382SOL    HW1 5045   4.898   2.962   1.216
 1382SOL    HW2 5046   4.865   3.081   1.323
 1383SOL     OW 5047   0.973   0.276   1.568
 1383SOL    HW1 5048   0.911   0.333   1.622
 1383SOL    HW2 5049   1.012   0.204   1.626
 1384SOL     OW 5050   5.058   6.704   1.800
 1384SOL    HW1 5051   4.977   6.665   1.758
 1384SOL    HW2 5052   5.137   6.691   1.739
 1385SOL     OW 5053   2.750   4.970   3.545
 1385SOL    HW1 5054   2.841   4.990   3.508
 1385SOL    HW2 5055   2.710   5.055   3.580
 1386SOL     OW 5056   3.270   0.423   4.033
 1386SOL    HW1 5057   3.266   0.325   4.012
 1386SOL    HW2 5058   3.262   0.475   3.948
 1387SOL     OW 5059   3.365   5.687   2.990
 1387SOL    HW1 5060   3.349   5.640   3.077
 1387SOL    HW2 5061   3.463   5.687   2.970
 1388SOL     OW 5062   6.651   0.137   1.960
 1388SOL    HW1 5063   6.565   0.127   2.010
 1388SOL    HW2 5064   6.726   0.101   2.014
 1389SOL     OW 5065   6.065   1.569   4.419
 1389SOL    HW1 5066   6.139   1.619   4.375
 1389SOL    HW2 5067   6.101   1.515   4.495
 1390SOL     OW 5068   0.524   3.971   6.646
 1390SOL    HW1 5069   0.620   3.942   6.638
 1390SOL    HW2 5070   0.466   3.891   6.653
 1391SOL     OW 5071   6.166   6.412   4.459
 1391SOL    HW1 5072   6.197   6.325   4.496
 1391SOL    HW2 5073   6.201   6.487   4.516
 1392SOL     OW 5074   5.991   6.176   6.268
 1392SOL    HW1 5075   6.044   6.213   6.344
 1392SOL    HW2 5076   5.946   6.250   6.219
 1393SOL     OW 5077   6.476   4.663   5.318
 1393SOL    HW1 5078   6.528   4.578   5.318
 1393SOL    HW2 5079   6.535   4.739   5.290
 1394SOL     OW 5080   3.621   5.447   5.532
 1394SOL    HW1 5081   3.529   5.471   5.561
 1394SOL    HW2 5082   3.621   5.355   5.492
 1395SOL     OW 5083   2.316   4.389   5.494
 1395SOL    HW1 5084   2.342   4.293   5.481
 1395SOL    HW2 5085   2.360   4.424   5.577
 1396SOL     OW 5086   0.819   1.290   5.097
 1396SOL    HW1 5087   0.883   1.359   5.062
 1396SOL    HW2 5088   0.870   1.216   5.140
 1397SOL     OW 5089   0.351   0.175   3.815
 1397SOL    HW1 5090   0.362   0.260   3.868
 1397SOL    HW2 5091   0.391   0.099   3.866
 1398SOL     OW 5092   3.108   0.471   6.208
 1398SOL    HW1 5093   3.136   0.524   6.128
 1398SOL    HW2 5094   3.130   0.375   6.194
 1399SOL     OW 5095   3.793   5.396   0.537
 1399SOL    HW1 5096   3.870   5.339   0.565
 1399SOL    HW2 5097   3.753   5.360   0.453
 1400SOL     OW 5098   0.137   1.461   2.976
 1400SOL    HW1 5099   0.112   1.365   2.989
 1400SOL    HW2 5100   0.057   1.514   2.950
 1401SOL     OW 5101   6.142   1.180   4.444
 1401SOL    HW1 5102   6.191   1.152   4.361
 1401SOL    HW2 5103   6.167   1.120   4.519
 1402SOL     OW 5104   6.626   4.066   6.722
 1402SOL    HW1 5105   6.720   4.101   6.724
 1402SOL    HW2 5106   6.577   4.098   6.803
 1403SOL     OW 5107   2.266   2.737   1.211
 1403SOL    HW1 5108   2.275   2.652   1.262
 1403SOL    HW2 5109   2.342   2.798   1.234
 1404SOL     OW 5110   6.016   6.786   0.313
 1404SOL    HW1 5111   5.920   6.762   0.298
 1404SOL    HW2 5112   6.066   6.707   0.349
 1405SOL     OW 5113   2.360   3.727   1.248
 1405SOL    HW1 5114   2.301   3.675   1.310
 1405SOL    HW2 5115   2.422   3.785   1.302
 1406SOL     OW 5116   0.859   5.426   1.099
 1406SOL    HW1 5117   0.814   5.483   1.031
 1406SOL    HW2 5118   0.890   5.483   1.175
 1407SOL     OW 5119   0.391   2.226   2.563
 1407SOL    HW1 5120   0.477   2.276   2.556
 1407SOL    HW2 5121   0.363   2.194   2.473
 1408SOL     OW 5122   5.582   1.165   6.117
 1408SOL    HW1 5123   5.653   1.199   6.055
 1408SOL    HW2 5124   5.492   1.194   6.083
 1409SOL     OW 5125   0.297   0.245   5.073
 1409SOL    HW1 5126   0.324   0.338   5.050
 1409SOL    HW2 5127   0.198   0.242   5.088
 1410SOL     OW 5128   1.508   3.429   6.675
 1410SOL    HW1 5129   1.447   3.372   6.620
 1410SOL    HW2 5130   1.558   3.492   6.615
 1411SOL     OW 5131   3.373   6.663   1.365
 1411SOL    HW1 5132   3.320   6.663   1.450
 1411SOL    HW2 5133   3.379   6.756   1.330
 1412SOL     OW 5134   0.454   2.104   1.101
 1412SOL    HW1 5135   0.360   2.105   1.135
 1412SOL    HW2 5136   0.473   2.015   1.060
 1413SOL     OW 5137   1.287   1.964   5.224
 1413SOL    HW1 5138   1.291   2.058   5.188
 1413SOL    HW2 5139   1.378   1.923   5.221
 1414SOL     OW 5140   2.318   1.110   2.057
 1414SOL    HW1 5141   2.300   1.208   2.052
 1414SOL    HW2 5142   2.409   1.091   2.021
 1415SOL     OW 5143   2.769   1.024   4.714
 1415SOL    HW1 5144   2.747   1.119   4.739
 1415SOL    HW2 5145   2.686   0.968   4.723
 1416SOL     OW 5146   5.194   5.120   4.427
 1416SOL    HW1 5147   5.229   5.100   4.519
 1416SOL    HW2 5148   5.181   5.034   4.377
 1417SOL     OW 5149   2.929   2.002   0.377
 1417SOL    HW1 5150   2.984   1.939   0.322
 1417SOL    HW2 5151   2.930   2.093   0.335
 1418SOL     OW 5152   3.061   3.779   3.288
 1418SOL    HW1 5153   3.146   3.801   3.240
 1418SOL    HW2 5154   2.998   3.734   3.226
 1419SOL     OW 5155   2.820   5.617   4.704
 1419SOL    HW1 5156   2.781   5.618   4.611
 1419SOL    HW2 5157   2.784   5.695   4.755
 1420SOL     OW 5158   2.984   6.989   1.335
 1420SOL    HW1 5159   2.976   6.963   1.432
 1420SOL    HW2 5160   2.905   6.953   1.285
 1421SOL     OW 5161   2.023   4.325   3.296
 1421SOL    HW1 5162   2.102   4.358   3.349
 1421SOL    HW2 5163   2.040   4.338   3.199
 1422SOL     OW 5164   1.558   3.624   1.197
 1422SOL    HW1 5165   1.496   3.567   1.143
 1422SOL    HW2 5166   1.504   3.682   1.258
 1423SOL     OW 5167   5.300   6.394   3.347
 1423SOL    HW1 5168   5.344   6.347   3.424
 1423SOL    HW2 5169   5.263   6.481   3.379
 1424SOL     OW 5170   6.305   4.826   6.226
 1424SOL    HW1 5171   6.224   4.819   6.169
 1424SOL    HW2 5172   6.316   4.921   6.256
 1425SOL     OW 5173   1.226   5.908   5.289
 1425SOL    HW1 5174   1.218   5.956   5.376
 1425SOL    HW2 5175   1.164   5.950   5.222
 1426SOL     OW 5176   2.043   3.254   6.065
 1426SOL    HW1 5177   2.042   3.154   6.056
 1426SOL    HW2 5178   2.089   3.294   5.986
 1427SOL     OW 5179   0.311   0.523   3.704
 1427SOL    HW1 5180   0.249   0.506   3.781
 1427SOL    HW2 5181   0.260   0.523   3.618
 1428SOL     OW 5182   6.747   3.325   0.491
 1428SOL    HW1 5183   6.690   3.388   0.544
 1428SOL    HW2 5184   6.817   3.286   0.552
 1429SOL     OW 5185   4.468   2.260   7.016
 1429SOL    HW1 5186   4.538   2.263   0.062
 1429SOL    HW2 5187   4.407   2.182   0.008
 1430SOL     OW 5188   1.702   4.557   3.746
 1430SOL    HW1 5189   1.707   4.549   3.846
 1430SOL    HW2 5190   1.785   4.600   3.711
 1431SOL     OW 5191   2.689   1.919   0.715
 1431SOL    HW1 5192   2.649   2.006   0.742
 1431SOL    HW2 5193   2.708   1.920   0.617
 1432SOL     OW 5194   2.718   1.721   2.258
 1432SOL    HW1 5195   2.714   1.736   2.357
 1432SOL    HW2 5196   2.801   1.670   2.236
 1433SOL     OW 5197   3.992   0.773   5.213
 1433SOL    HW1 5198   4.070   0.824   5.176
 1433SOL    HW2 5199   3.909   0.828   5.203
 1434SOL     OW 5200   0.113   0.241   5.511
 1434SOL    HW1 5201   0.033   0.228   5.452
 1434SOL    HW2 5202   0.159   0.326   5.486
 1435SOL     OW 5203   6.421   0.247   3.083
 1435SOL    HW1 5204   6.374   0.182   3.142
 1435SOL    HW2 5205   6.411   0.219   2.987
 1436SOL     OW 5206   5.336   3.987   6.792
 1436SOL    HW1 5207   5.424   4.022   6.823
 1436SOL    HW2 5208   5.264   4.015   6.856
 1437SOL     OW 5209   2.758   2.146   3.512
 1437SOL    HW1 5210   2.846   2.170   3.471
 1437SOL    HW2 5211   2.752   2.186   3.604
 1438SOL     OW 5212   2.823   6.102   1.316
 1438SOL    HW1 5213   2.827   6.009   1.278
 1438SOL    HW2 5214   2.767   6.102   1.398
 1439SOL     OW 5215   6.860   5.769   1.510
 1439SOL    HW1 5216   6.829   5.675   1.525
 1439SOL    HW2 5217   6.956   5.777   1.538
 1440SOL     OW 5218   3.173   2.745   6.793
 1440SOL    HW1 5219   3.247   2.754   6.726
 1440SOL    HW2 5220   3.196   2.799   6.874
 1441SOL     OW 5221   6.331   0.256   3.977
 1441SOL    HW1 5222   6.354   0.182   3.914
 1441SOL    HW2 5223   6.291   0.218   4.060
 1442SOL     OW 5224   0.373   6.042   0.252
 1442SOL    HW1 5225   0.366   5.944   0.273
 1442SOL    HW2 5226   0.468   6.065   0.233
 1443SOL     OW 5227   0.439   3.278   4.179
 1443SOL    HW1 5228   0.520   3.330   4.151
 1443SOL    HW2 5229   0.428   3.283   4.278
 1444SOL     OW 5230   4.936   6.044   0.884
 1444SOL    HW1 5231   4.911   6.110   0.955
 1444SOL    HW2 5232   4.878   6.058   0.803
 1445SOL     OW 5233   1.202   2.804   3.407
 1445SOL    HW1 5234   1.214   2.844   3.316
 1445SOL    HW2 5235   1.266   2.727   3.418
 1446SOL     OW 5236   6.101   1.568   6.705
 1446SOL    HW1 5237   6.123   1.660   6.672
 1446SOL    HW2 5238   6.027   1.573   6.772
 1447SOL     OW 5239   5.918   6.412   4.534
 1447SOL    HW1 5240   6.010   6.403   4.496
 1447SOL    HW2 5241   5.905   6.343   4.605
 1448SOL     OW 5242   0.033   3.033   5.190
 1448SOL    HW1 5243   7.000   3.103   5.147
 1448SOL    HW2 5244   0.065   3.067   5.279
 1449SOL     OW 5245   1.333   2.947   6.147
 1449SOL    HW1 5246   1.391   2.978   6.071
 1449SOL    HW2 5247   1.269   3.020   6.172
 1450SOL     OW 5248   0.608   1.893   0.519
 1450SOL    HW1 5249   0.611   1.946   0.603
 1450SOL    HW2 5250   0.638   1.799   0.538
 1451SOL     OW 5251   0.835   6.293   2.782
 1451SOL    HW1 5252   0.752   6.315   2.730
 1451SOL    HW2 5253   0.857   6.369   2.843
 1452SOL     OW 5254   4.426   1.711   5.372
 1452SOL    HW1 5255   4.369   1.635   5.403
 1452SOL    HW2 5256   4.376   1.797   5.386
 1453SOL     OW 5257   0.728   3.948   5.622
 1453SOL    HW1 5258   0.719   3.970   5.719
 1453SOL    HW2 5259   0.645   3.903   5.590
 1454SOL     OW 5260   0.418   2.858   2.037
 1454SOL    HW1 5261   0.485   2.792   2.069
 1454SOL    HW2 5262   0.345   2.867   2.105
 1455SOL     OW 5263   1.348   0.183   1.238
 1455SOL    HW1 5264   1.374   0.246   1.311
 1455SOL    HW2 5265   1.389   0.213   1.152
 1456SOL     OW 5266   6.506   0.262   6.419
 1456SOL    HW1 5267   6.453   0.317   6.354
 1456SOL    HW2 5268   6.443   0.220   6.484
 1457SOL     OW 5269   0.616   6.464   1.219
 1457SOL    HW1 5270   0.523   6.447   1.184
 1457SOL    HW2 5271   0.629   6.414   1.305
 1458SOL     OW 5272   5.861   5.157   4.469
 1458SOL    HW1 5273   5.896   5.145   4.376
 1458SOL    HW2 5274   5.764   5.132   4.472
 1459SOL     OW 5275   3.725   6.384   6.085
 1459SOL    HW1 5276   3.810   6.346   6.120
 1459SOL    HW2 5277   3.687   6.449   6.150
 1460SOL     OW 5278   0.980   0.164   5.147
 1460SOL    HW1 5279   0.891   0.127   5.121
 1460SOL    HW2 5280   0.969   0.256   5.184
 1461SOL     OW 5281   6.168   4.157   2.733
 1461SOL    HW1 5282   6.210   4.191   2.817
 1461SOL    HW2 5283   6.199   4.064   2.715
 1462SOL     OW 5284   1.548   1.044   0.085
 1462SOL    HW1 5285   1.580   1.002   0.171
 1462SOL    HW2 5286   1.481   0.984   0.042
 1463SOL     OW 5287   0.442   5.540   6.055
 1463SOL    HW1 5288   0.372   5.520   6.123
 1463SOL    HW2 5289   0.440   5.637   6.032
 1464SOL     OW 5290   0.453   5.728   2.132
 1464SOL    HW1 5291   0.500   5.817   2.134
 1464SOL    HW2 5292   0.413   5.709   2.221
 1465SOL     OW 5293   1.782   0.880   3.937
 1465SOL    HW1 5294   1.698   0.887   3.884
 1465SOL    HW2 5295   1.764   0.830   4.022
 1466SOL     OW 5296   2.597   2.069   2.251
 1466SOL    HW1 5297   2.576   2.132   2.175
 1466SOL    HW2 5298   2.576   1.976   2.223
 1467SOL     OW 5299   2.214   1.362   3.126
 1467SOL    HW1 5300   2.117   1.355   3.101
 1467SOL    HW2 5301   2.223   1.375   3.224
 1468SOL     OW 5302   2.298   5.379   2.646
 1468SOL    HW1 5303   2.359   5.450   2.612
 1468SOL    HW2 5304   2.336   5.340   2.730
 1469SOL     OW 5305   0.170   0.641   2.613
 1469SOL    HW1 5306   0.177   0.567   2.680
 1469SOL    HW2 5307   0.243   0.707   2.629
 1470SOL     OW 5308   1.288   1.725   2.512
 1470SOL    HW1 5309   1.353   1.668   2.462
 1470SOL    HW2 5310   1.196   1.712   2.475
 1471SOL     OW 5311   0.664   0.250   0.927
 1471SOL    HW1 5312   0.751   0.211   0.957
 1471SOL    HW2 5313   0.680   0.331   0.871
 1472SOL     OW 5314   2.163   5.544   5.645
 1472SOL    HW1 5315   2.066   5.526   5.634
 1472SOL    HW2 5316   2.215   5.460   5.632
 1473SOL     OW 5317   3.346   5.674   5.260
 1473SOL    HW1 5318   3.283   5.598   5.278
 1473SOL    HW2 5319   3.350   5.690   5.161
 1474SOL     OW 5320   5.221   5.087   1.837
 1474SOL    HW1 5321   5.275   5.104   1.755
 1474SOL    HW2 5322   5.164   5.167   1.856
 1475SOL     OW 5323   5.437   0.742   1.715
 1475SOL    HW1 5324   5.404   0.834   1.696
 1475SOL    HW2 5325   5.374   0.675   1.675
 1476SOL     OW 5326   2.655   1.062   1.474
 1476SOL    HW1 5327   2.721   1.018   1.414
 1476SOL    HW2 5328   2.651   1.160   1.453
 1477SOL     OW 5329   3.154   6.552   6.085
 1477SOL    HW1 5330   3.139   6.454   6.081
 1477SOL    HW2 5331   3.168   6.587   5.992
 1478SOL     OW 5332   6.163   5.420   5.399
 1478SOL    HW1 5333   6.188   5.384   5.309
 1478SOL    HW2 5334   6.190   5.516   5.404
 1479SOL     OW 5335   2.329   2.663   0.902
 1479SOL    HW1 5336   2.316   2.726   0.826
 1479SOL    HW2 5337   2.285   2.699   0.984
 1480SOL     OW 5338   3.201   0.892   4.889
 1480SOL    HW1 5339   3.256   0.952   4.946
 1480SOL    HW2 5340   3.235   0.893   4.795
 1481SOL     OW 5341   6.142   3.153   6.581
 1481SOL    HW1 5342   6.133   3.137   6.483
 1481SOL    HW2 5343   6.064   3.114   6.629
 1482SOL     OW 5344   4.762   1.359   1.400
 1482SOL    HW1 5345   4.794   1.338   1.493
 1482SOL    HW2 5346   4.741   1.273   1.353
 1483SOL     OW 5347   5.207   2.479   6.101
 1483SOL    HW1 5348   5.297   2.443   6.076
 1483SOL    HW2 5349   5.136   2.426   6.055
 1484SOL     OW 5350   4.823   4.920   4.278
 1484SOL    HW1 5351   4.723   4.926   4.289
 1484SOL    HW2 5352   4.867   4.952   4.362
 1485SOL     OW 5353   4.335   0.781   4.639
 1485SOL    HW1 5354   4.399   0.837   4.692
 1485SOL    HW2 5355   4.298   0.835   4.564
 1486SOL     OW 5356   5.907   0.663   2.597
 1486SOL    HW1 5357   5.940   0.571   2.578
 1486SOL    HW2 5358   5.807   0.663   2.599
 1487SOL     OW 5359   0.143   2.817   0.325
 1487SOL    HW1 5360   0.200   2.803   0.243
 1487SOL    HW2 5361   0.082   2.739   0.337
 1488SOL     OW 5362   5.719   6.954   3.765
 1488SOL    HW1 5363   5.768   6.977   3.849
 1488SOL    HW2 5364   5.658   0.005   3.739
 1489SOL     OW 5365   4.445   5.355   6.072
 1489SOL    HW1 5366   4.463   5.326   5.978
 1489SOL    HW2 5367   4.477   5.449   6.084
 1490SOL     OW 5368   0.555   3.643   1.145
 1490SOL    HW1 5369   0.556   3.543   1.138
 1490SOL    HW2 5370   0.530   3.670   1.237
 1491SOL     OW 5371   6.085   5.014   2.068
 1491SOL    HW1 5372   6.138   4.940   2.110
 1491SOL    HW2 5373   6.045   4.982   1.982
 1492SOL     OW 5374   6.375   0.160   2.447
 1492SOL    HW1 5375   6.452   0.184   2.506
 1492SOL    HW2 5376   6.375   0.061   2.431
 1493SOL     OW 5377   4.011   6.854   6.318
 1493SOL    HW1 5378   3.954   6.812   6.247
 1493SOL    HW2 5379   4.107   6.833   6.300
 1494SOL     OW 5380   4.995   2.380   6.345
 1494SOL    HW1 5381   4.924   2.327   6.391
 1494SOL    HW2 5382   4.961   2.472   6.325
 1495SOL     OW 5383   0.731   3.800   5.229
 1495SOL    HW1 5384   0.795   3.739   5.182
 1495SOL    HW2 5385   0.775   3.888   5.246
 1496SOL     OW 5386   0.733   1.411   1.048
 1496SOL    HW1 5387   0.824   1.439   1.079
 1496SOL    HW2 5388   0.671   1.490   1.047
 1497SOL     OW 5389   5.191   3.109   2.474
 1497SOL    HW1 5390   5.258   3.087   2.546
 1497SOL    HW2 5391   5.099   3.108   2.513
 1498SOL     OW 5392   2.371   4.751   6.129
 1498SOL    HW1 5393   2.314   4.805   6.191
 1498SOL    HW2 5394   2.314   4.708   6.060
 1499SOL     OW 5395   0.783   2.210   5.236
 1499SOL    HW1 5396   0.830   2.222   5.148
 1499SOL    HW2 5397   0.725   2.129   5.232
 1500SOL     OW 5398   0.373   0.279   0.208
 1500SOL    HW1 5399   0.311   0.342   0.161
 1500SOL    HW2 5400   0.324   0.194   0.229
 1501SOL     OW 5401   5.454   2.480   6.351
 1501SOL    HW1 5402   5.532   2.458   6.410
 1501SOL    HW2 5403   5.369   2.469   6.403
 1502SOL     OW 5404   3.977   0.536   6.951
 1502SOL    HW1 5405   4.021   0.559   0.013
 1502SOL    HW2 5406   3.966   0.437   6.944
 1503SOL     OW 5407   1.413   2.548   2.489
 1503SOL    HW1 5408   1.475   2.624   2.472
 1503SOL    HW2 5409   1.366   2.524   2.404
 1504SOL     OW 5410   0.526   0.278   4.237
 1504SOL    HW1 5411   0.478   0.326   4.311
 1504SOL    HW2 5412   0.581   0.204   4.275
 1505SOL     OW 5413   4.633   0.261   4.838
 1505SOL    HW1 5414   4.599   0.181   4.888
 1505SOL    HW2 5415   4.566   0.290   4.770
 1506SOL     OW 5416   0.550   6.507   0.515
 1506SOL    HW1 5417   0.491   6.560   0.576
 1506SOL    HW2 5418   0.567   6.417   0.554
 1507SOL     OW 5419   6.927   1.759   5.928
 1507SOL    HW1 5420   6.904   1.753   5.831
 1507SOL    HW2 5421   6.975   1.845   5.945
 1508SOL     OW 5422   6.375   1.310   0.645
 1508SOL    HW1 5423   6.349   1.404   0.625
 1508SOL    HW2 5424   6.436   1.309   0.725
 1509SOL     OW 5425   4.214   1.762   5.150
 1509SOL    HW1 5426   4.280   1.781   5.222
 1509SOL    HW2 5427   4.243   1.681   5.099
 1510SOL     OW 5428   5.041   1.223   4.528
 1510SOL    HW1 5429   5.054   1.218   4.627
 1510SOL    HW2 5430   4.949   1.190   4.505
 1511SOL     OW 5431   4.043   3.221   3.467
 1511SOL    HW1 5432   3.980   3.158   3.422
 1511SOL    HW2 5433   3.991   3.280   3.530
 1512SOL     OW 5434   6.925   6.000   0.918
 1512SOL    HW1 5435   6.979   6.079   0.950
 1512SOL    HW2 5436   6.828   6.015   0.940
 1513SOL     OW 5437   3.915   0.597   4.803
 1513SOL    HW1 5438   3.985   0.669   4.799
 1513SOL    HW2 5439   3.957   0.513   4.838
 1514SOL     OW 5440   3.465   2.649   5.330
 1514SOL    HW1 5441   3.397   2.640   5.403
 1514SOL    HW2 5442   3.517   2.564   5.322
 1515SOL     OW 5443   5.427   2.060   2.332
 1515SOL    HW1 5444   5.476   1.982   2.294
 1515SOL    HW2 5445   5.471   2.089   2.417
 1516SOL     OW 5446   6.568   5.461   5.692
 1516SOL    HW1 5447   6.550   5.389   5.759
 1516SOL    HW2 5448   6.649   5.438   5.638
 1517SOL     OW 5449   4.456   5.778   2.859
 1517SOL    HW1 5450   4.367   5.822   2.852
 1517SOL    HW2 5451   4.506   5.790   2.773
 1518SOL     OW 5452   0.401   2.575   0.312
 1518SOL    HW1 5453   0.324   2.537   0.364
 1518SOL    HW2 5454   0.472   2.505   0.301
 1519SOL     OW 5455   6.656   4.546   1.569
 1519SOL    HW1 5456   6.629   4.622   1.627
 1519SOL    HW2 5457   6.676   4.466   1.626
 1520SOL     OW 5458   0.309   4.476   1.894
 1520SOL    HW1 5459   0.315   4.463   1.795
 1520SOL    HW2 5460   0.221   4.519   1.916
 1521SOL     OW 5461   2.211   4.114   6.190
 1521SOL    HW1 5462   2.256   4.105   6.279
 1521SOL    HW2 5463   2.113   4.097   6.200
 1522SOL     OW 5464   5.696   6.141   5.211
 1522SOL    HW1 5465   5.638   6.222   5.195
 1522SOL    HW2 5466   5.792   6.168   5.209
 1523SOL     OW 5467   4.262   6.386   6.778
 1523SOL    HW1 5468   4.293   6.471   6.735
 1523SOL    HW2 5469   4.164   6.375   6.763
 1524SOL     OW 5470   2.480   1.529   2.762
 1524SOL    HW1 5471   2.407   1.596   2.772
 1524SOL    HW2 5472   2.492   1.507   2.665
 1525SOL     OW 5473   6.346   3.597   0.705
 1525SOL    HW1 5474   6.265   3.555   0.663
 1525SOL    HW2 5475   6.426   3.541   0.684
 1526SOL     OW 5476   6.820   0.954   6.984
 1526SOL    HW1 5477   6.750   0.883   6.994
 1526SOL    HW2 5478   6.908   0.919   7.014
 1527SOL     OW 5479   3.952   1.581   4.931
 1527SOL    HW1 5480   3.944   1.665   4.984
 1527SOL    HW2 5481   4.013   1.597   4.852
 1528SOL     OW 5482   3.994   4.901   2.958
 1528SOL    HW1 5483   4.027   4.876   2.867
 1528SOL    HW2 5484   4.050   4.857   3.028
 1529SOL     OW 5485   3.896   0.039   0.325
 1529SOL    HW1 5486   3.948   0.088   0.395
 1529SOL    HW2 5487   3.930   6.970   0.317
 1530SOL     OW 5488   4.149   1.868   2.389
 1530SOL    HW1 5489   4.079   1.918   2.440
 1530SOL    HW2 5490   4.238   1.910   2.406
 1531SOL     OW 5491   4.589   6.877   5.642
 1531SOL    HW1 5492   4.602   6.780   5.665
 1531SOL    HW2 5493   4.613   6.934   5.720
 1532SOL     OW 5494   3.198   3.636   6.404
 1532SOL    HW1 5495   3.141   3.559   6.376
 1532SOL    HW2 5496   3.286   3.631   6.357
 1533SOL     OW 5497   5.993   5.167   6.382
 1533SOL    HW1 5498   5.898   5.151   6.354
 1533SOL    HW2 5499   5.997   5.178   6.481
 1534SOL     OW 5500   2.946   6.016   6.882
 1534SOL    HW1 5501   2.948   5.976   6.790
 1534SOL    HW2 5502   2.913   5.947   6.947
 1535SOL     OW 5503   5.041   5.875   4.369
 1535SOL    HW1 5504   4.951   5.850   4.333
 1535SOL    HW2 5505   5.083   5.795   4.411
 1536SOL     OW 5506   3.801   3.978   5.741
 1536SOL    HW1 5507   3.803   4.018   5.650
 1536SOL    HW2 5508   3.806   3.878   5.734
 1537SOL     OW 5509   3.955   5.769   3.664
 1537SOL    HW1 5510   3.983   5.722   3.580
 1537SOL    HW2 5511   4.030   5.765   3.730
 1538SOL     OW 5512   3.065   0.117   6.466
 1538SOL    HW1 5513   2.966   0.128   6.469
 1538SOL    HW2 5514   3.109   0.199   6.502
 1539SOL     OW 5515   4.742   3.886   1.805
 1539SOL    HW1 5516   4.822   3.940   1.780
 1539SOL    HW2 5517   4.755   3.792   1.773
 1540SOL     OW 5518   0.890   6.203   5.405
 1540SOL    HW1 5519   0.907   6.104   5.398
 1540SOL    HW2 5520   0.974   6.249   5.433
 1541SOL     OW 5521   3.090   3.178   3.678
 1541SOL    HW1 5522   3.043   3.255   3.636
 1541SOL    HW2 5523   3.047   3.157   3.766
 1542SOL     OW 5524   6.712   6.967   2.604
 1542SOL    HW1 5525   6.800   6.924   2.589
 1542SOL    HW2 5526   6.709   7.005   2.697
 1543SOL     OW 5527   3.148   5.057   5.239
 1543SOL    HW1 5528   3.077   5.125   5.223
 1543SOL    HW2 5529   3.152   4.994   5.161
 1544SOL     OW 5530   3.105   3.500   2.770
 1544SOL    HW1 5531   3.031   3.446   2.729
 1544SOL    HW2 5532   3.089   3.597   2.751
 1545SOL     OW 5533   5.245   0.628   3.057
 1545SOL    HW1 5534   5.242   0.607   2.959
 1545SOL    HW2 5535   5.339   0.650   3.084
 1546SOL     OW 5536   3.927   6.763   5.574
 1546SOL    HW1 5537   4.018   6.770   5.532
 1546SOL    HW2 5538   3.882   6.852   5.571
 1547SOL     OW 5539   1.764   4.157   1.954
 1547SOL    HW1 5540   1.822   4.077   1.967
 1547SOL    HW2 5541   1.821   4.239   1.949
 1548SOL     OW 5542   5.605   3.530   5.926
 1548SOL    HW1 5543   5.698   3.564   5.943
 1548SOL    HW2 5544   5.576   3.558   5.834
 1549SOL     OW 5545   4.140   1.891   1.676
 1549SOL    HW1 5546   4.101   1.982   1.693
 1549SOL    HW2 5547   4.113   1.829   1.750
 1550SOL     OW 5548   2.404   3.643   0.131
 1550SOL    HW1 5549   2.426   3.680   0.221
 1550SOL    HW2 5550   2.334   3.572   0.139
 1551SOL     OW 5551   2.062   4.395   5.990
 1551SOL    HW1 5552   2.129   4.342   6.043
 1551SOL    HW2 5553   2.105   4.479   5.956
 1552SOL     OW 5554   1.582   5.801   0.274
 1552SOL    HW1 5555   1.671   5.839   0.299
 1552SOL    HW2 5556   1.586   5.702   0.275
 1553SOL     OW 5557   6.872   1.905   6.747
 1553SOL    HW1 5558   6.937   1.917   6.672
 1553SOL    HW2 5559   6.779   1.906   6.712
 1554SOL     OW 5560   3.986   2.233   2.598
 1554SOL    HW1 5561   4.023   2.188   2.679
 1554SOL    HW2 5562   3.923   2.306   2.626
 1555SOL     OW 5563   5.290   2.722   0.285
 1555SOL    HW1 5564   5.342   2.676   0.357
 1555SOL    HW2 5565   5.314   2.683   0.196
 1556SOL     OW 5566   3.099   1.863   0.220
 1556SOL    HW1 5567   3.192   1.898   0.209
 1556SOL    HW2 5568   3.050   1.871   0.134
 1557SOL     OW 5569   1.940   1.981   5.159
 1557SOL    HW1 5570   1.876   2.057   5.171
 1557SOL    HW2 5571   1.911   1.904   5.216
 1558SOL     OW 5572   5.843   0.361   5.071
 1558SOL    HW1 5573   5.919   0.400   5.018
 1558SOL    HW2 5574   5.830   0.415   5.154
 1559SOL     OW 5575   1.560   2.679   0.049
 1559SOL    HW1 5576   1.606   2.652   0.134
 1559SOL    HW2 5577   1.466   2.645   0.049
 1560SOL     OW 5578   0.100   1.368   5.735
 1560SOL    HW1 5579   0.173   1.312   5.696
 1560SOL    HW2 5580   0.131   1.407   5.822
 1561SOL     OW 5581   6.443   6.225   4.262
 1561SOL    HW1 5582   6.523   6.264   4.308
 1561SOL    HW2 5583   6.389   6.298   4.222
 1562SOL     OW 5584   4.407   5.404   2.888
 1562SOL    HW1 5585   4.452   5.371   2.971
 1562SOL    HW2 5586   4.471   5.458   2.834
 1563SOL     OW 5587   2.378   6.976   5.473
 1563SOL    HW1 5588   2.399   0.049   5.482
 1563SOL    HW2 5589   2.284   6.960   5.504
 1564SOL     OW 5590   1.369   2.563   3.772
 1564SOL    HW1 5591   1.399   2.489   3.713
 1564SOL    HW2 5592   1.389   2.651   3.729
 1565SOL     OW 5593   4.296   4.632   3.674
 1565SOL    HW1 5594   4.394   4.615   3.674
 1565SOL    HW2 5595   4.259   4.615   3.765
 1566SOL     OW 5596   5.806   4.820   2.740
 1566SOL    HW1 5597   5.743   4.761   2.690
 1566SOL    HW2 5598   5.821   4.905   2.689
 1567SOL     OW 5599   6.256   6.166   0.820
 1567SOL    HW1 5600   6.270   6.215   0.906
 1567SOL    HW2 5601   6.300   6.217   0.746
 1568SOL     OW 5602   1.609   6.461   6.974
 1568SOL    HW1 5603   1.697   6.445   7.019
 1568SOL    HW2 5604   1.621   6.460   6.875
 1569SOL     OW 5605   4.563   6.349   3.405
 1569SOL    HW1 5606   4.606   6.300   3.329
 1569SOL    HW2 5607   4.553   6.288   3.483
 1570SOL     OW 5608   1.918   0.392   1.056
 1570SOL    HW1 5609   1.938   0.365   1.150
 1570SOL    HW2 5610   1.997   0.372   0.998
 1571SOL     OW 5611   5.200   2.136   1.370
 1571SOL    HW1 5612   5.126   2.162   1.431
 1571SOL    HW2 5613   5.226   2.213   1.313
 1572SOL     OW 5614   0.621   6.773   0.956
 1572SOL    HW1 5615   0.638   6.686   0.910
 1572SOL    HW2 5616   0.701   6.798   1.010
 1573SOL     OW 5617   5.444   2.728   2.561
 1573SOL    HW1 5618   5.414   2.790   2.489
 1573SOL    HW2 5619   5.401   2.754   2.648
 1574SOL     OW 5620   6.306   0.620   1.379
 1574SOL    HW1 5621   6.346   0.637   1.289
 1574SOL    HW2 5622   6.359   0.667   1.449
 1575SOL     OW 5623   3.523   1.225   0.666
 1575SOL    HW1 5624   3.615   1.239   0.629
 1575SOL    HW2 5625   3.460   1.292   0.625
 1576SOL     OW 5626   0.882   0.011   3.428
 1576SOL    HW1 5627   0.785   7.023   3.405
 1576SOL    HW2 5628   0.891   0.026   3.526
 1577SOL     OW 5629   3.073   2.198   4.450
 1577SOL    HW1 5630   3.055   2.102   4.471
 1577SOL    HW2 5631   3.056   2.215   4.353
 1578SOL     OW 5632   6.441   3.187   6.057
 1578SOL    HW1 5633   6.468   3.274   6.099
 1578SOL    HW2 5634   6.344   3.189   6.034
 1579SOL     OW 5635   6.834   1.521   2.957
 1579SOL    HW1 5636   6.780   1.480   2.883
 1579SOL    HW2 5637   6.899   1.586   2.918
 1580SOL     OW 5638   2.950   4.086   5.307
 1580SOL    HW1 5639   2.967   4.174   5.350
 1580SOL    HW2 5640   2.851   4.076   5.290
 1581SOL     OW 5641   0.616   3.999   5.005
 1581SOL    HW1 5642   0.571   3.910   5.000
 1581SOL    HW2 5643   0.594   4.043   5.092
 1582SOL     OW 5644   1.561   0.030   4.477
 1582SOL    HW1 5645   1.599   0.045   4.568
 1582SOL    HW2 5646   1.605   6.973   4.437
 1583SOL     OW 5647   1.084   4.384   3.115
 1583SOL    HW1 5648   1.167   4.401   3.169
 1583SOL    HW2 5649   1.109   4.342   3.028
 1584SOL     OW 5650   1.727   6.580   4.965
 1584SOL    HW1 5651   1.746   6.675   4.937
 1584SOL    HW2 5652   1.633   6.573   4.998
 1585SOL     OW 5653   5.905   1.477   3.275
 1585SOL    HW1 5654   5.883   1.523   3.361
 1585SOL    HW2 5655   5.984   1.521   3.234
 1586SOL     OW 5656   3.366   4.035   1.142
 1586SOL    HW1 5657   3.404   4.084   1.063
 1586SOL    HW2 5658   3.281   3.989   1.114
 1587SOL     OW 5659   2.928   6.081   6.177
 1587SOL    HW1 5660   2.969   5.992   6.155
 1587SOL    HW2 5661   2.855   6.101   6.113
 1588SOL     OW 5662   5.174   1.806   3.360
 1588SOL    HW1 5663   5.140   1.740   3.427
 1588SOL    HW2 5664   5.097   1.847   3.311
 1589SOL     OW 5665   5.968   4.020   2.199
 1589SOL    HW1 5666   5.892   4.028   2.263
 1589SOL    HW2 5667   5.966   4.097   2.135
 1590SOL     OW 5668   2.607   6.427   6.635
 1590SOL    HW1 5669   2.707   6.416   6.642
 1590SOL    HW2 5670   2.586   6.508   6.581
 1591SOL     OW 5671   0.169   5.349   2.463
 1591SOL    HW1 5672   0.102   5.313   2.528
 1591SOL    HW2 5673   0.149   5.445   2.445
 1592SOL     OW 5674   1.976   4.414   0.742
 1592SOL    HW1 5675   1.920   4.337   0.710
 1592SOL    HW2 5676   1.956   4.495   0.687
 1593SOL     OW 5677   0.961   6.465   3.663
 1593SOL    HW1 5678   0.933   6.552   3.703
 1593SOL    HW2 5679   1.010   6.411   3.732
 1594SOL     OW 5680   6.786   5.886   2.857
 1594SOL    HW1 5681   6.693   5.908   2.826
 1594SOL    HW2 5682   6.850   5.955   2.824
 1595SOL     OW 5683   1.425   5.150   6.975
 1595SOL    HW1 5684   1.491   5.076   6.971
 1595SOL    HW2 5685   1.473   5.238   6.980
 1596SOL     OW 5686   0.648   3.144   4.535
 1596SOL    HW1 5687   0.608   3.114   4.448
 1596SOL    HW2 5688   0.742   3.110   4.541
 1597SOL     OW 5689   2.293   6.246   6.939
 1597SOL    HW1 5690   2.279   6.206   6.849
 1597SOL    HW2 5691   2.372   6.307   6.937
 1598SOL     OW 5692   0.873   3.565   0.220
 1598SOL    HW1 5693   0.855   3.468   0.241
 1598SOL    HW2 5694   0.788   3.609   0.191
 1599SOL     OW 5695   4.683   4.424   5.846
 1599SOL    HW1 5696   4.621   4.346   5.851
 1599SOL    HW2 5697   4.703   4.443   5.750
 1600SOL     OW 5698   5.147   1.920   5.060
 1600SOL    HW1 5699   5.157   1.873   5.148
 1600SOL    HW2 5700   5.161   1.855   4.986
 1601SOL     OW 5701   0.032   4.609   4.148
 1601SOL    HW1 5702   0.015   4.688   4.207
 1601SOL    HW2 5703   0.130   4.601   4.131
 1602SOL     OW 5704   2.222   5.374   3.997
 1602SOL    HW1 5705   2.288   5.389   4.071
 1602SOL    HW2 5706   2.209   5.276   3.983
 1603SOL     OW 5707   0.009   6.070   2.838
 1603SOL    HW1 5708   6.996   6.153   2.798
 1603SOL    HW2 5709   0.083   6.035   2.780
 1604SOL     OW 5710   6.532   4.470   0.201
 1604SOL    HW1 5711   6.592   4.424   0.266
 1604SOL    HW2 5712   6.504   4.405   0.130
 1605SOL     OW 5713   6.315   6.651   2.274
 1605SOL    HW1 5714   6.312   6.637   2.175
 1605SOL    HW2 5715   6.408   6.679   2.301
 1606SOL     OW 5716   3.279   0.731   5.229
 1606SOL    HW1 5717   3.186   0.755   5.199
 1606SOL    HW2 5718   3.292   0.760   5.324
 1607SOL     OW 5719   4.312   2.277   0.343
 1607SOL    HW1 5720   4.325   2.365   0.296
 1607SOL    HW2 5721   4.314   2.293   0.442
 1608SOL     OW 5722   1.774   0.219   4.902
 1608SOL    HW1 5723   1.676   0.214   4.883
 1608SOL    HW2 5724   1.789   0.214   5.001
 1609SOL     OW 5725   4.419   0.158   0.370
 1609SOL    HW1 5726   4.474   0.124   0.294
 1609SOL    HW2 5727   4.469   0.230   0.418
 1610SOL     OW 5728   5.745   4.296   5.741
 1610SOL    HW1 5729   5.763   4.198   5.750
 1610SOL    HW2 5730   5.647   4.311   5.726
 1611SOL     OW 5731   3.057   3.077   1.576
 1611SOL    HW1 5732   3.104   2.988   1.578
 1611SOL    HW2 5733   2.972   3.071   1.627
 1612SOL     OW 5734   2.660   1.375   5.180
 1612SOL    HW1 5735   2.678   1.472   5.198
 1612SOL    HW2 5736   2.735   1.319   5.215
 1613SOL     OW 5737   1.906   5.871   1.148
 1613SOL    HW1 5738   1.903   5.812   1.228
 1613SOL    HW2 5739   1.818   5.918   1.137
 1614SOL     OW 5740   6.132   3.790   0.424
 1614SOL    HW1 5741   6.061   3.724   0.447
 1614SOL    HW2 5742   6.204   3.745   0.370
 1615SOL     OW 5743   6.548   5.126   0.738
 1615SOL    HW1 5744   6.509   5.037   0.714
 1615SOL    HW2 5745   6.566   5.129   0.836
 1616SOL     OW 5746   3.989   1.927   5.198
 1616SOL    HW1 5747   4.075   1.881   5.175
 1616SOL    HW2 5748   3.917   1.894   5.137
 1617SOL     OW 5749   6.352   0.281   1.931
 1617SOL    HW1 5750   6.312   0.275   2.022
 1617SOL    HW2 5751   6.357   0.190   1.890
 1618SOL     OW 5752   1.056   3.647   1.473
 1618SOL    HW1 5753   1.104   3.713   1.417
 1618SOL    HW2 5754   1.036   3.565   1.419
 1619SOL     OW 5755   1.099   1.827   3.190
 1619SOL    HW1 5756   1.088   1.755   3.258
 1619SOL    HW2 5757   1.015   1.882   3.185
 1620SOL     OW 5758   2.468   5.464   1.369
 1620SOL    HW1 5759   2.515   5.376   1.360
 1620SOL    HW2 5760   2.410   5.462   1.451
 1621SOL     OW 5761   0.863   1.313   0.398
 1621SOL    HW1 5762   0.920   1.322   0.316
 1621SOL    HW2 5763   0.880   1.223   0.439
 1622SOL     OW 5764   0.650   2.574   4.530
 1622SOL    HW1 5765   0.578   2.603   4.593
 1622SOL    HW2 5766   0.737   2.570   4.578
 1623SOL     OW 5767   2.474   3.387   5.411
 1623SOL    HW1 5768   2.523   3.302   5.392
 1623SOL    HW2 5769   2.380   3.380   5.377
 1624SOL     OW 5770   2.829   1.106   5.754
 1624SOL    HW1 5771   2.907   1.169   5.759
 1624SOL    HW2 5772   2.806   1.074   5.846
 1625SOL     OW 5773   1.149   5.401   1.931
 1625SOL    HW1 5774   1.240   5.361   1.941
 1625SOL    HW2 5775   1.121   5.442   2.017
 1626SOL     OW 5776   3.131   2.386   6.389
 1626SOL    HW1 5777   3.101   2.302   6.345
 1626SOL    HW2 5778   3.054   2.449   6.399
 1627SOL     OW 5779   6.422   2.592   3.907
 1627SOL    HW1 5780   6.507   2.619   3.862
 1627SOL    HW2 5781   6.412   2.644   3.992
 1628SOL     OW 5782   4.412   4.700   6.809
 1628SOL    HW1 5783   4.443   4.783   6.855
 1628SOL    HW2 5784   4.456   4.693   6.720
 1629SOL     OW 5785   2.796   1.490   4.035
 1629SOL    HW1 5786   2.795   1.499   3.936
 1629SOL    HW2 5787   2.882   1.526   4.072
 1630SOL     OW 5788   1.157   6.335   5.794
 1630SOL    HW1 5789   1.191   6.341   5.700
 1630SOL    HW2 5790   1.224   6.285   5.850
 1631SOL     OW 5791   0.418   1.381   6.486
 1631SOL    HW1 5792   0.334   1.348   6.443
 1631SOL    HW2 5793   0.486   1.403   6.416
 1632SOL     OW 5794   0.154   1.839   0.038
 1632SOL    HW1 5795   0.213   1.865   6.986
 1632SOL    HW2 5796   0.210   1.823   0.119
 1633SOL     OW 5797   5.071   2.188   4.122
 1633SOL    HW1 5798   5.145   2.254   4.111
 1633SOL    HW2 5799   4.983   2.236   4.117
 1634SOL     OW 5800   3.842   4.602   5.831
 1634SOL    HW1 5801   3.841   4.631   5.926
 1634SOL    HW2 5802   3.850   4.682   5.772
 1635SOL     OW 5803   6.770   5.349   5.551
 1635SOL    HW1 5804   6.735   5.271   5.500
 1635SOL    HW2 5805   6.866   5.335   5.574
 1636SOL     OW 5806   2.475   3.942   1.390
 1636SOL    HW1 5807   2.528   3.998   1.327
 1636SOL    HW2 5808   2.532   3.915   1.467
 1637SOL     OW 5809   0.195   0.546   3.093
 1637SOL    HW1 5810   0.210   0.619   3.026
 1637SOL    HW2 5811   0.116   0.570   3.150
 1638SOL     OW 5812   0.517   4.074   3.921
 1638SOL    HW1 5813   0.570   4.104   4.000
 1638SOL    HW2 5814   0.432   4.032   3.952
 1639SOL     OW 5815   4.099   6.716   3.091
 1639SOL    HW1 5816   4.135   6.796   3.138
 1639SOL    HW2 5817   4.002   6.706   3.110
 1640SOL     OW 5818   5.982   1.823   1.229
 1640SOL    HW1 5819   5.980   1.815   1.329
 1640SOL    HW2 5820   5.975   1.919   1.202
 1641SOL     OW 5821   5.233   2.773   4.077
 1641SOL    HW1 5822   5.298   2.842   4.046
 1641SOL    HW2 5823   5.255   2.745   4.171
 1642SOL     OW 5824   5.852   3.303   6.849
 1642SOL    HW1 5825   5.904   3.301   6.935
 1642SOL    HW2 5826   5.757   3.276   6.866
 1643SOL     OW 5827   2.827   5.054   3.988
 1643SOL    HW1 5828   2.732   5.052   3.957
 1643SOL    HW2 5829   2.888   5.057   3.909
 1644SOL     OW 5830   1.047   3.236   1.450
 1644SOL    HW1 5831   1.043   3.231   1.549
 1644SOL    HW2 5832   1.045   3.143   1.412
 1645SOL     OW 5833   2.560   6.098   5.686
 1645SOL    HW1 5834   2.591   6.132   5.597
 1645SOL    HW2 5835   2.464   6.123   5.699
 1646SOL     OW 5836   2.148   6.934   0.972
 1646SOL    HW1 5837   2.117   7.008   0.913
 1646SOL    HW2 5838   2.241   6.908   0.947
 1647SOL     OW 5839   5.761   2.934   4.483
 1647SOL    HW1 5840   5.748   2.940   4.582
 1647SOL    HW2 5841   5.676   2.960   4.437
 1648SOL     OW 5842   6.061   6.010   0.939
 1648SOL    HW1 5843   6.103   5.920   0.948
 1648SOL    HW2 5844   6.133   6.079   0.925
 1649SOL     OW 5845   4.222   0.090   3.855
 1649SOL    HW1 5846   4.261   0.015   3.909
 1649SOL    HW2 5847   4.128   0.068   3.832
 1650SOL     OW 5848   2.067   6.916   5.081
 1650SOL    HW1 5849   2.096   6.826   5.113
 1650SOL    HW2 5850   2.076   6.982   5.154
 1651SOL     OW 5851   0.838   1.008   1.836
 1651SOL    HW1 5852   0.937   1.010   1.819
 1651SOL    HW2 5853   0.790   1.002   1.749
 1652SOL     OW 5854   1.706   3.172   1.768
 1652SOL    HW1 5855   1.730   3.240   1.698
 1652SOL    HW2 5856   1.635   3.211   1.827
 1653SOL     OW 5857   0.026   6.820   1.130
 1653SOL    HW1 5858   0.075   6.811   1.043
 1653SOL    HW2 5859   0.088   6.798   1.206
 1654SOL     OW 5860   6.401   3.150   2.013
 1654SOL    HW1 5861   6.432   3.159   2.108
 1654SOL    HW2 5862   6.322   3.209   1.999
 1655SOL     OW 5863   5.989   3.072   5.216
 1655SOL    HW1 5864   6.016   3.056   5.311
 1655SOL    HW2 5865   6.045   3.016   5.155
 1656SOL     OW 5866   1.739   4.576   2.880
 1656SOL    HW1 5867   1.805   4.508   2.850
 1656SOL    HW2 5868   1.713   4.635   2.803
 1657SOL     OW 5869   6.873   0.398   4.277
 1657SOL    HW1 5870   6.797   0.376   4.216
 1657SOL    HW2 5871   6.838   0.419   4.368
 1658SOL     OW 5872   0.805   0.629   2.584
 1658SOL    HW1 5873   0.751   0.547   2.566
 1658SOL    HW2 5874   0.747   0.697   2.630
 1659SOL     OW 5875   3.638   1.069   5.935
 1659SOL    HW1 5876   3.726   1.074   5.889
 1659SOL    HW2 5877   3.591   0.984   5.909
 1660SOL     OW 5878   1.526   4.929   3.823
 1660SOL    HW1 5879   1.444   4.901   3.773
 1660SOL    HW2 5880   1.527   4.884   3.912
 1661SOL     OW 5881   3.219   1.540   1.643
 1661SOL    HW1 5882   3.214   1.631   1.683
 1661SOL    HW2 5883   3.129   1.513   1.608
 1662SOL     OW 5884   6.706   0.937   4.369
 1662SOL    HW1 5885   6.778   0.875   4.336
 1662SOL    HW2 5886   6.616   0.894   4.354
 1663SOL     OW 5887   3.325   0.608   2.840
 1663SOL    HW1 5888   3.420   0.604   2.810
 1663SOL    HW2 5889   3.321   0.637   2.935
 1664SOL     OW 5890   1.967   0.284   3.933
 1664SOL    HW1 5891   1.992   0.375   3.898
 1664SOL    HW2 5892   2.004   0.214   3.872
 1665SOL     OW 5893   6.867   1.359   2.673
 1665SOL    HW1 5894   6.777   1.398   2.692
 1665SOL    HW2 5895   6.856   1.264   2.645
 1666SOL     OW 5896   5.233   3.288   0.533
 1666SOL    HW1 5897   5.274   3.372   0.571
 1666SOL    HW2 5898   5.233   3.293   0.433
 1667SOL     OW 5899   5.839   6.803   1.367
 1667SOL    HW1 5900   5.819   6.716   1.323
 1667SOL    HW2 5901   5.762   6.865   1.355
 1668SOL     OW 5902   5.198   5.575   5.641
 1668SOL    HW1 5903   5.284   5.525   5.650
 1668SOL    HW2 5904   5.212   5.657   5.587
 1669SOL     OW 5905   6.121   7.000   6.828
 1669SOL    HW1 5906   6.145   6.950   6.745
 1669SOL    HW2 5907   6.178   6.969   6.904
 1670SOL     OW 5908   6.747   5.212   6.563
 1670SOL    HW1 5909   6.749   5.117   6.531
 1670SOL    HW2 5910   6.664   5.228   6.617
 1671SOL     OW 5911   4.405   2.689   1.118
 1671SOL    HW1 5912   4.401   2.600   1.073
 1671SOL    HW2 5913   4.318   2.708   1.163
 1672SOL     OW 5914   2.137   3.814   2.314
 1672SOL    HW1 5915   2.058   3.875   2.300
 1672SOL    HW2 5916   2.194   3.815   2.232
 1673SOL     OW 5917   0.251   2.469   4.649
 1673SOL    HW1 5918   0.259   2.373   4.678
 1673SOL    HW2 5919   0.298   2.528   4.715
 1674SOL     OW 5920   0.399   4.296   2.081
 1674SOL    HW1 5921   0.369   4.363   2.014
 1674SOL    HW2 5922   0.449   4.223   2.035
 1675SOL     OW 5923   4.332   0.730   6.211
 1675SOL    HW1 5924   4.348   0.635   6.238
 1675SOL    HW2 5925   4.291   0.779   6.288
 1676SOL     OW 5926   3.271   1.213   2.127
 1676SOL    HW1 5927   3.205   1.141   2.149
 1676SOL    HW2 5928   3.252   1.250   2.037
 1677SOL     OW 5929   4.273   2.714   5.296
 1677SOL    HW1 5930   4.201   2.651   5.267
 1677SOL    HW2 5931   4.361   2.667   5.294
 1678SOL     OW 5932   4.795   4.451   5.059
 1678SOL    HW1 5933   4.781   4.445   4.960
 1678SOL    HW2 5934   4.825   4.543   5.083
 1679SOL     OW 5935   2.014   3.222   5.081
 1679SOL    HW1 5936   2.044   3.299   5.024
 1679SOL    HW2 5937   2.086   3.199   5.147
 1680SOL     OW 5938   0.657   2.000   4.049
 1680SOL    HW1 5939   0.690   2.080   3.998
 1680SOL    HW2 5940   0.642   2.025   4.144
 1681SOL     OW 5941   6.700   6.055   1.682
 1681SOL    HW1 5942   6.698   5.971   1.629
 1681SOL    HW2 5943   6.679   6.034   1.778
 1682SOL     OW 5944   6.797   2.641   4.822
 1682SOL    HW1 5945   6.814   2.658   4.725
 1682SOL    HW2 5946   6.876   2.672   4.875
 1683SOL     OW 5947   4.092   5.767   0.767
 1683SOL    HW1 5948   4.033   5.713   0.707
 1683SOL    HW2 5949   4.077   5.742   0.862
 1684SOL     OW 5950   1.272   6.054   2.542
 1684SOL    HW1 5951   1.359   6.083   2.582
 1684SOL    HW2 5952   1.271   6.076   2.445
 1685SOL     OW 5953   2.789   1.246   6.277
 1685SOL    HW1 5954   2.747   1.304   6.346
 1685SOL    HW2 5955   2.775   1.285   6.186
 1686SOL     OW 5956   1.793   4.895   5.253
 1686SOL    HW1 5957   1.744   4.968   5.207
 1686SOL    HW2 5958   1.866   4.934   5.309
 1687SOL     OW 5959   2.343   2.854   0.699
 1687SOL    HW1 5960   2.438   2.884   0.689
 1687SOL    HW2 5961   2.300   2.848   0.609
 1688SOL     OW 5962   1.532   2.393   3.616
 1688SOL    HW1 5963   1.596   2.469   3.603
 1688SOL    HW2 5964   1.572   2.326   3.679
 1689SOL     OW 5965   4.119   1.022   1.877
 1689SOL    HW1 5966   4.196   0.994   1.935
 1689SOL    HW2 5967   4.151   1.033   1.783
 1690SOL     OW 5968   1.637   2.976   3.575
 1690SOL    HW1 5969   1.550   3.015   3.608
 1690SOL    HW2 5970   1.630   2.876   3.572
 1691SOL     OW 5971   5.198   3.730   3.389
 1691SOL    HW1 5972   5.231   3.654   3.445
 1691SOL    HW2 5973   5.119   3.699   3.336
 1692SOL     OW 5974   6.513   0.647   1.567
 1692SOL    HW1 5975   6.554   0.620   1.479
 1692SOL    HW2 5976   6.490   0.565   1.619
 1693SOL     OW 5977   0.387   2.096   2.262
 1693SOL    HW1 5978   0.376   2.002   2.296
 1693SOL    HW2 5979   0.298   2.135   2.243
 1694SOL     OW 5980   5.269   0.157   3.580
 1694SOL    HW1 5981   5.307   0.071   3.613
 1694SOL    HW2 5982   5.332   0.197   3.513
 1695SOL     OW 5983   2.323   0.969   5.824
 1695SOL    HW1 5984   2.377   1.003   5.901
 1695SOL    HW2 5985   2.368   0.890   5.783
 1696SOL     OW 5986   5.245   4.996   0.463
 1696SOL    HW1 5987   5.184   5.074   0.476
 1696SOL    HW2 5988   5.204   4.915   0.504
 1697SOL     OW 5989   5.775   6.248   2.193
 1697SOL    HW1 5990   5.716   6.286   2.263
 1697SOL    HW2 5991   5.859   6.302   2.187
 1698SOL     OW 5992   4.400   0.828   0.639
 1698SOL    HW1 5993   4.425   0.736   0.609
 1698SOL    HW2 5994   4.454   0.896   0.588
 1699SOL     OW 5995   2.720   1.114   1.741
 1699SOL    HW1 5996   2.674   1.052   1.805
 1699SOL    HW2 5997   2.680   1.103   1.650
 1700SOL     OW 5998   6.478   1.900   3.484
 1700SOL    HW1 5999   6.451   1.987   3.527
 1700SOL    HW2 6000   6.396   1.848   3.460
 1701SOL     OW 6001   5.201   3.041   5.239
 1701SOL    HW1 6002   5.143   2.975   5.286
 1701SOL    HW2 6003   5.204   3.126   5.291
 1702SOL     OW 6004   6.796   2.815   0.888
 1702SOL    HW1 6005   6.702   2.786   0.871
 1702SOL    HW2 6006   6.825   2.785   0.979
 1703SOL     OW 6007   3.814   4.031   2.683
 1703SOL    HW1 6008   3.794   4.052   2.779
 1703SOL    HW2 6009   3.745   4.074   2.625
 1704SOL     OW 6010   0.500   1.369   2.115
 1704SOL    HW1 6011   0.520   1.378   2.213
 1704SOL    HW2 6012   0.562   1.300   2.075
 1705SOL     OW 6013   3.540   1.958   1.970
 1705SOL    HW1 6014   3.549   2.014   2.053
 1705SOL    HW2 6015   3.563   2.013   1.890
 1706SOL     OW 6016   4.767   0.159   1.557
 1706SOL    HW1 6017   4.764   0.258   1.542
 1706SOL    HW2 6018   4.841   0.137   1.621
 1707SOL     OW 6019   4.606   1.772   3.102
 1707SOL    HW1 6020   4.696   1.816   3.108
 1707SOL    HW2 6021   4.612   1.690   3.045
 1708SOL     OW 6022   4.351   5.064   2.259
 1708SOL    HW1 6023   4.315   5.011   2.182
 1708SOL    HW2 6024   4.289   5.058   2.337
 1709SOL     OW 6025   2.563   5.910   1.683
 1709SOL    HW1 6026   2.574   6.002   1.645
 1709SOL    HW2 6027   2.642   5.854   1.658
 1710SOL     OW 6028   5.667   4.496   3.615
 1710SOL    HW1 6029   5.588   4.458   3.567
 1710SOL    HW2 6030   5.728   4.421   3.642
 1711SOL     OW 6031   1.099   4.476   4.844
 1711SOL    HW1 6032   1.187   4.453   4.803
 1711SOL    HW2 6033   1.055   4.393   4.878
 1712SOL     OW 6034   1.030   3.151   6.518
 1712SOL    HW1 6035   1.119   3.109   6.503
 1712SOL    HW2 6036   1.039   3.251   6.510
 1713SOL     OW 6037   3.766   2.119   0.846
 1713SOL    HW1 6038   3.733   2.144   0.937
 1713SOL    HW2 6039   3.707   2.049   0.807
 1714SOL     OW 6040   4.982   1.614   5.810
 1714SOL    HW1 6041   4.972   1.596   5.908
 1714SOL    HW2 6042   5.065   1.570   5.776
 1715SOL     OW 6043   6.854   3.592   2.492
 1715SOL    HW1 6044   6.830   3.617   2.586
 1715SOL    HW2 6045   6.884   3.673   2.442
 1716SOL     OW 6046   5.061   6.751   2.065
 1716SOL    HW1 6047   5.077   6.848   2.081
 1716SOL    HW2 6048   5.054   6.735   1.967
 1717SOL     OW 6049   1.862   6.891   6.252
 1717SOL    HW1 6050   1.853   6.800   6.211
 1717SOL    HW2 6051   1.948   6.896   6.302
 1718SOL     OW 6052   1.919   2.046   1.555
 1718SOL    HW1 6053   1.931   2.145   1.542
 1718SOL    HW2 6054   2.008   2.001   1.548
 1719SOL     OW 6055   2.511   4.155   0.948
 1719SOL    HW1 6056   2.499   4.059   0.970
 1719SOL    HW2 6057   2.431   4.207   0.979
 1720SOL     OW 6058   6.451   1.237   1.073
 1720SOL    HW1 6059   6.500   1.247   0.986
 1720SOL    HW2 6060   6.510   1.188   1.138
 1721SOL     OW 6061   0.973   6.261   3.109
 1721SOL    HW1 6062   0.999   6.223   3.020
 1721SOL    HW2 6063   1.024   6.214   3.181
 1722SOL     OW 6064   4.687   1.716   3.860
 1722SOL    HW1 6065   4.677   1.805   3.905
 1722SOL    HW2 6066   4.693   1.644   3.929
 1723SOL     OW 6067   6.534   2.835   3.120
 1723SOL    HW1 6068   6.495   2.749   3.088
 1723SOL    HW2 6069   6.567   2.888   3.042
 1724SOL     OW 6070   5.975   1.999   0.853
 1724SOL    HW1 6071   6.063   2.030   0.817
 1724SOL    HW2 6072   5.968   1.900   0.843
 1725SOL     OW 6073   2.972   5.190   0.520
 1725SOL    HW1 6074   2.976   5.290   0.524
 1725SOL    HW2 6075   2.929   5.155   0.603
 1726SOL     OW 6076   5.623   4.088   4.980
 1726SOL    HW1 6077   5.606   4.129   5.069
 1726SOL    HW2 6078   5.606   3.989   4.985
 1727SOL     OW 6079   3.719   2.962   4.288
 1727SOL    HW1 6080   3.741   2.958   4.386
 1727SOL    HW2 6081   3.628   2.921   4.273
 1728SOL     OW 6082   5.747   5.280   4.804
 1728SOL    HW1 6083   5.808   5.282   4.884
 1728SOL    HW2 6084   5.791   5.329   4.728
 1729SOL     OW 6085   2.187   3.794   3.445
 1729SOL    HW1 6086   2.097   3.827   3.417
 1729SOL    HW2 6087   2.236   3.759   3.366
 1730SOL     OW 6088   6.622   0.264   5.201
 1730SOL    HW1 6089   6.704   0.315   5.174
 1730SOL    HW2 6090   6.547   0.328   5.218
 1731SOL     OW 6091   0.832   5.213   2.099
 1731SOL    HW1 6092   0.855   5.254   2.011
 1731SOL    HW2 6093   0.842   5.282   2.171
 1732SOL     OW 6094   2.082   4.522   5.448
 1732SOL    HW1 6095   2.162   4.473   5.481
 1732SOL    HW2 6096   2.010   4.520   5.517
 1733SOL     OW 6097   1.149   3.817   2.275
 1733SOL    HW1 6098   1.068   3.802   2.219
 1733SOL    HW2 6099   1.130   3.795   2.370
 1734SOL     OW 6100   5.008   3.098   1.847
 1734SOL    HW1 6101   5.078   3.120   1.915
 1734SOL    HW2 6102   4.919   3.095   1.892
 1735SOL     OW 6103   6.189   5.837   1.295
 1735SOL    HW1 6104   6.248   5.847   1.376
 1735SOL    HW2 6105   6.210   5.909   1.230
 1736SOL     OW 6106   4.189   1.987   1.101
 1736SOL    HW1 6107   4.149   2.023   1.185
 1736SOL    HW2 6108   4.189   1.887   1.103
 1737SOL     OW 6109   3.028   1.326   4.404
 1737SOL    HW1 6110   3.109   1.352   4.458
 1737SOL    HW2 6111   3.018   1.227   4.405
 1738SOL     OW 6112   2.056   1.711   3.654
 1738SOL    HW1 6113   1.965   1.734   3.690
 1738SOL    HW2 6114   2.056   1.723   3.554
 1739SOL     OW 6115   5.235   2.454   5.492
 1739SOL    HW1 6116   5.286   2.540   5.487
 1739SOL    HW2 6117   5.290   2.381   5.452
 1740SOL     OW 6118   0.164   1.894   6.141
 1740SOL    HW1 6119   0.099   1.928   6.208
 1740SOL    HW2 6120   0.247   1.951   6.142
 1741SOL     OW 6121   2.355   0.784   4.160
 1741SOL    HW1 6122   2.386   0.840   4.083
 1741SOL    HW2 6123   2.373   0.833   4.246
 1742SOL     OW 6124   4.520   6.058   6.402
 1742SOL    HW1 6125   4.463   6.140   6.409
 1742SOL    HW2 6126   4.542   6.040   6.307
 1743SOL     OW 6127   2.023   1.984   2.084
 1743SOL    HW1 6128   2.064   1.915   2.024
 1743SOL    HW2 6129   1.976   2.052   2.027
 1744SOL     OW 6130   0.642   0.429   1.395
 1744SOL    HW1 6131   0.572   0.362   1.371
 1744SOL    HW2 6132   0.605   0.521   1.385
 1745SOL     OW 6133   6.449   0.454   3.857
 1745SOL    HW1 6134   6.418   0.367   3.897
 1745SOL    HW2 6135   6.544   0.470   3.882
 1746SOL     OW 6136   2.115   5.269   4.915
 1746SOL    HW1 6137   2.079   5.273   5.008
 1746SOL    HW2 6138   2.106   5.177   4.879
 1747SOL     OW 6139   5.514   0.658   3.169
 1747SOL    HW1 6140   5.509   0.751   3.207
 1747SOL    HW2 6141   5.578   0.657   3.092
 1748SOL     OW 6142   0.396   1.145   3.824
 1748SOL    HW1 6143   0.455   1.190   3.758
 1748SOL    HW2 6144   0.322   1.098   3.776
 1749SOL     OW 6145   2.785   6.731   5.476
 1749SOL    HW1 6146   2.857   6.732   5.407
 1749SOL    HW2 6147   2.826   6.730   5.568
 1750SOL     OW 6148   6.592   6.942   3.360
 1750SOL    HW1 6149   6.547   0.004   3.381
 1750SOL    HW2 6150   6.687   6.945   3.394
 1751SOL     OW 6151   3.992   6.045   5.020
 1751SOL    HW1 6152   3.914   6.005   4.973
 1751SOL    HW2 6153   3.962   6.121   5.077
 1752SOL     OW 6154   0.135   2.149   2.393
 1752SOL    HW1 6155   0.113   2.085   2.319
 1752SOL    HW2 6156   0.161   2.097   2.474
 1753SOL     OW 6157   0.290   2.401   0.939
 1753SOL    HW1 6158   0.351   2.377   1.015
 1753SOL    HW2 6159   0.270   2.320   0.885
 1754SOL     OW 6160   3.385   3.145   0.973
 1754SOL    HW1 6161   3.454   3.089   1.018
 1754SOL    HW2 6162   3.365   3.108   0.883
 1755SOL     OW 6163   5.932   5.492   2.703
 1755SOL    HW1 6164   6.025   5.481   2.668
 1755SOL    HW2 6165   5.900   5.585   2.684
 1756SOL     OW 6166   4.190   4.398   6.105
 1756SOL    HW1 6167   4.217   4.487   6.141
 1756SOL    HW2 6168   4.091   4.399   6.086
 1757SOL     OW 6169   2.616   5.316   4.868
 1757SOL    HW1 6170   2.642   5.398   4.919
 1757SOL    HW2 6171   2.654   5.235   4.913
 1758SOL     OW 6172   2.690   0.392   3.987
 1758SOL    HW1 6173   2.599   0.424   3.962
 1758SOL    HW2 6174   2.687   0.293   4.002
 1759SOL     OW 6175   1.132   4.699   5.751
 1759SOL    HW1 6176   1.158   4.755   5.673
 1759SOL    HW2 6177   1.192   4.619   5.757
 1760SOL     OW 6178   6.647   1.897   1.681
 1760SOL    HW1 6179   6.634   1.996   1.669
 1760SOL    HW2 6180   6.594   1.848   1.612
 1761SOL     OW 6181   0.422   0.512   0.589
 1761SOL    HW1 6182   0.365   0.526   0.508
 1761SOL    HW2 6183   0.442   0.414   0.598
 1762SOL     OW 6184   6.302   1.550   4.998
 1762SOL    HW1 6185   6.300   1.650   5.002
 1762SOL    HW2 6186   6.248   1.518   4.920
 1763SOL     OW 6187   2.073   3.687   4.101
 1763SOL    HW1 6188   2.075   3.673   4.200
 1763SOL    HW2 6189   2.091   3.600   4.055
 1764SOL     OW 6190   1.571   3.891   2.708
 1764SOL    HW1 6191   1.471   3.891   2.696
 1764SOL    HW2 6192   1.593   3.862   2.801
 1765SOL     OW 6193   3.734   1.766   6.715
 1765SOL    HW1 6194   3.738   1.806   6.624
 1765SOL    HW2 6195   3.826   1.748   6.748
 1766SOL     OW 6196   5.150   3.362   3.737
 1766SOL    HW1 6197   5.148   3.325   3.643
 1766SOL    HW2 6198   5.067   3.416   3.752
 1767SOL     OW 6199   6.234   3.623   2.933
 1767SOL    HW1 6200   6.314   3.628   2.874
 1767SOL    HW2 6201   6.236   3.538   2.986
 1768SOL     OW 6202   3.471   1.369   4.770
 1768SOL    HW1 6203   3.498   1.275   4.788
 1768SOL    HW2 6204   3.553   1.425   4.756
 1769SOL     OW 6205   4.153   2.216   4.812
 1769SOL    HW1 6206   4.163   2.281   4.888
 1769SOL    HW2 6207   4.210   2.244   4.736
 1770SOL     OW 6208   0.693   5.267   4.738
 1770SOL    HW1 6209   0.751   5.200   4.692
 1770SOL    HW2 6210   0.616   5.290   4.680
 1771SOL     OW 6211   2.484   5.437   0.037
 1771SOL    HW1 6212   2.395   5.480   0.045
 1771SOL    HW2 6213   2.479   5.343   0.072
 1772SOL     OW 6214   2.591   6.687   3.676
 1772SOL    HW1 6215   2.675   6.678   3.729
 1772SOL    HW2 6216   2.599   6.636   3.591
 1773SOL     OW 6217   2.559   4.768   6.423
 1773SOL    HW1 6218   2.637   4.732   6.475
 1773SOL    HW2 6219   2.527   4.852   6.466
 1774SOL     OW 6220   4.421   0.056   1.782
 1774SOL    HW1 6221   4.501   0.008   1.819
 1774SOL    HW2 6222   4.432   0.155   1.797
 1775SOL     OW 6223   1.104   3.945   3.774
 1775SOL    HW1 6224   1.025   4.003   3.789
 1775SOL    HW2 6225   1.131   3.950   3.678
 1776SOL     OW 6226   3.625   0.574   4.505
 1776SOL    HW1 6227   3.612   0.669   4.477
 1776SOL    HW2 6228   3.723   0.554   4.511
 1777SOL     OW 6229   3.469   5.040   5.886
 1777SOL    HW1 6230   3.404   5.082   5.949
 1777SOL    HW2 6231   3.425   5.020   5.799
 1778SOL     OW 6232   4.783   2.700   6.048
 1778SOL    HW1 6233   4.866   2.741   6.087
 1778SOL    HW2 6234   4.779   2.718   5.950
 1779SOL     OW 6235   4.426   1.249   4.991
 1779SOL    HW1 6236   4.405   1.288   5.080
 1779SOL    HW2 6237   4.344   1.206   4.953
 1780SOL     OW 6238   3.141   3.222   5.968
 1780SOL    HW1 6239   3.160   3.299   5.909
 1780SOL    HW2 6240   3.054   3.180   5.941
 1781SOL     OW 6241   4.371   5.930   3.724
 1781SOL    HW1 6242   4.366   5.961   3.819
 1781SOL    HW2 6243   4.418   5.843   3.719
 1782SOL     OW 6244   2.789   2.059   2.835
 1782SOL    HW1 6245   2.807   2.103   2.747
 1782SOL    HW2 6246   2.869   2.067   2.894
 1783SOL     OW 6247   0.920   4.104   6.566
 1783SOL    HW1 6248   0.934   4.107   6.467
 1783SOL    HW2 6249   1.002   4.067   6.610
 1784SOL     OW 6250   3.605   1.482   5.032
 1784SOL    HW1 6251   3.596   1.561   4.971
 1784SOL    HW2 6252   3.667   1.415   4.991
 1785SOL     OW 6253   6.210   5.420   3.768
 1785SOL    HW1 6254   6.137   5.354   3.752
 1785SOL    HW2 6255   6.259   5.396   3.852
 1786SOL     OW 6256   1.295   2.820   1.324
 1786SOL    HW1 6257   1.322   2.737   1.373
 1786SOL    HW2 6258   1.278   2.798   1.228
 1787SOL     OW 6259   2.521   0.655   4.921
 1787SOL    HW1 6260   2.476   0.677   5.007
 1787SOL    HW2 6261   2.529   0.555   4.912
 1788SOL     OW 6262   3.296   2.839   7.002
 1788SOL    HW1 6263   3.373   2.872   0.031
 1788SOL    HW2 6264   3.211   2.858   0.026
 1789SOL     OW 6265   5.898   1.954   2.694
 1789SOL    HW1 6266   5.896   2.026   2.624
 1789SOL    HW2 6267   5.845   1.985   2.773
 1790SOL     OW 6268   3.824   6.619   3.939
 1790SOL    HW1 6269   3.824   6.519   3.948
 1790SOL    HW2 6270   3.918   6.653   3.949
 1791SOL     OW 6271   6.832   1.192   3.748
 1791SOL    HW1 6272   6.807   1.239   3.664
 1791SOL    HW2 6273   6.885   1.253   3.807
 1792SOL     OW 6274   0.154   2.690   3.936
 1792SOL    HW1 6275   0.144   2.662   3.840
 1792SOL    HW2 6276   0.188   2.613   3.990
 1793SOL     OW 6277   7.003   0.052   3.459
 1793SOL    HW1 6278   0.033   0.134   3.477
 1793SOL    HW2 6279   0.035   7.008   3.412
 1794SOL     OW 6280   5.996   6.391   6.118
 1794SOL    HW1 6281   6.079   6.409   6.065
 1794SOL    HW2 6282   5.916   6.413   6.062
 1795SOL     OW 6283   6.978   3.653   1.530
 1795SOL    HW1 6284   6.949   3.665   1.625
 1795SOL    HW2 6285   6.898   3.643   1.472
 1796SOL     OW 6286   2.609   0.511   4.532
 1796SOL    HW1 6287   2.604   0.498   4.433
 1796SOL    HW2 6288   2.600   0.423   4.578
 1797SOL     OW 6289   1.248   0.540   0.057
 1797SOL    HW1 6290   1.281   0.467   7.021
 1797SOL    HW2 6291   1.314   0.557   0.130
 1798SOL     OW 6292   5.177   2.150   4.532
 1798SOL    HW1 6293   5.121   2.228   4.501
 1798SOL    HW2 6294   5.211   2.101   4.452
 1799SOL     OW 6295   6.516   2.121   5.975
 1799SOL    HW1 6296   6.573   2.039   5.961
 1799SOL    HW2 6297   6.557   2.198   5.928
 1800SOL     OW 6298   4.064   4.847   2.695
 1800SOL    HW1 6299   4.109   4.764   2.725
 1800SOL    HW2 6300   4.062   4.850   2.595
 1801SOL     OW 6301   0.699   0.839   2.296
 1801SOL    HW1 6302   0.645   0.758   2.320
 1801SOL    HW2 6303   0.729   0.884   2.380
 1802SOL     OW 6304   4.976   5.592   2.346
 1802SOL    HW1 6305   4.989   5.619   2.442
 1802SOL    HW2 6306   4.879   5.602   2.323
 1803SOL     OW 6307   0.032   6.340   6.786
 1803SOL    HW1 6308   0.074   6.422   6.826
 1803SOL    HW2 6309   0.063   6.330   6.691
 1804SOL     OW 6310   2.333   3.776   5.641
 1804SOL    HW1 6311   2.285   3.822   5.566
 1804SOL    HW2 6312   2.408   3.833   5.673
 1805SOL     OW 6313   6.401   3.922   5.367
 1805SOL    HW1 6314   6.367   3.934   5.273
 1805SOL    HW2 6315   6.325   3.896   5.426
 1806SOL     OW 6316   1.035   1.488   0.713
 1806SOL    HW1 6317   1.058   1.485   0.616
 1806SOL    HW2 6318   0.946   1.445   0.727
 1807SOL     OW 6319   4.962   2.398   5.959
 1807SOL    HW1 6320   4.899   2.412   6.036
 1807SOL    HW2 6321   4.910   2.369   5.879
 1808SOL     OW 6322   0.332   3.336   5.424
 1808SOL    HW1 6323   0.259   3.299   5.481
 1808SOL    HW2 6324   0.347   3.432   5.449
 1809SOL     OW 6325   2.251   2.458   4.720
 1809SOL    HW1 6326   2.202   2.540   4.748
 1809SOL    HW2 6327   2.225   2.381   4.779
 1810SOL     OW 6328   2.961   0.616   4.328
 1810SOL    HW1 6329   2.871   0.590   4.293
 1810SOL    HW2 6330   2.952   0.657   4.418
 1811SOL     OW 6331   4.570   4.617   3.706
 1811SOL    HW1 6332   4.638   4.690   3.705
 1811SOL    HW2 6333   4.595   4.550   3.776
 1812SOL     OW 6334   4.158   6.731   5.745
 1812SOL    HW1 6335   4.223   6.772   5.808
 1812SOL    HW2 6336   4.184   6.636   5.728
 1813SOL     OW 6337   6.076   4.969   0.728
 1813SOL    HW1 6338   6.151   5.003   0.670
 1813SOL    HW2 6339   6.072   4.870   0.723
 1814SOL     OW 6340   6.734   1.590   0.209
 1814SOL    HW1 6341   6.649   1.554   0.249
 1814SOL    HW2 6342   6.711   1.664   0.145
 1815SOL     OW 6343   6.362   2.519   1.732
 1815SOL    HW1 6344   6.263   2.533   1.729
 1815SOL    HW2 6345   6.381   2.422   1.753
 1816SOL     OW 6346   2.786   3.707   0.686
 1816SOL    HW1 6347   2.769   3.609   0.675
 1816SOL    HW2 6348   2.737   3.758   0.616
 1817SOL     OW 6349   3.327   6.696   3.309
 1817SOL    HW1 6350   3.272   6.615   3.329
 1817SOL    HW2 6351   3.398   6.673   3.243
 1818SOL     OW 6352   1.776   6.600   2.080
 1818SOL    HW1 6353   1.682   6.621   2.104
 1818SOL    HW2 6354   1.813   6.534   2.144
 1819SOL     OW 6355   0.370   5.244   1.645
 1819SOL    HW1 6356   0.466   5.229   1.671
 1819SOL    HW2 6357   0.311   5.218   1.721
 1820SOL     OW 6358   5.031   0.840   1.854
 1820SOL    HW1 6359   5.023   0.747   1.890
 1820SOL    HW2 6360   4.943   0.887   1.864
 1821SOL     OW 6361   2.515   0.714   1.957
 1821SOL    HW1 6362   2.531   0.637   2.020
 1821SOL    HW2 6363   2.463   0.682   1.878
 1822SOL     OW 6364   1.669   2.588   1.740
 1822SOL    HW1 6365   1.659   2.647   1.659
 1822SOL    HW2 6366   1.764   2.589   1.770
 1823SOL     OW 6367   2.982   5.575   3.270
 1823SOL    HW1 6368   3.049   5.509   3.305
 1823SOL    HW2 6369   3.008   5.667   3.300
 1824SOL     OW 6370   3.433   2.938   1.150
 1824SOL    HW1 6371   3.514   2.949   1.208
 1824SOL    HW2 6372   3.354   2.916   1.207
 1825SOL     OW 6373   1.150   1.699   3.853
 1825SOL    HW1 6374   1.173   1.604   3.873
 1825SOL    HW2 6375   1.216   1.736   3.788
 1826SOL     OW 6376   3.158   0.117   0.764
 1826SOL    HW1 6377   3.151   0.052   0.839
 1826SOL    HW2 6378   3.122   0.205   0.793
 1827SOL     OW 6379   0.099   5.805   1.964
 1827SOL    HW1 6380   0.052   5.761   1.888
 1827SOL    HW2 6381   0.182   5.754   1.986
 1828SOL     OW 6382   1.236   2.846   0.740
 1828SOL    HW1 6383   1.283   2.781   0.681
 1828SOL    HW2 6384   1.305   2.897   0.793
 1829SOL     OW 6385   3.250   0.370   3.604
 1829SOL    HW1 6386   3.308   0.302   3.648
 1829SOL    HW2 6387   3.232   0.445   3.667
 1830SOL     OW 6388   5.721   6.105   3.884
 1830SOL    HW1 6389   5.770   6.053   3.954
 1830SOL    HW2 6390   5.662   6.173   3.927
 1831SOL     OW 6391   6.210   0.214   2.172
 1831SOL    HW1 6392   6.151   0.135   2.191
 1831SOL    HW2 6393   6.234   0.259   2.258
 1832SOL     OW 6394   5.269   1.349   0.910
 1832SOL    HW1 6395   5.299   1.309   0.823
 1832SOL    HW2 6396   5.170   1.360   0.910
 1833SOL     OW 6397   5.117   0.341   6.134
 1833SOL    HW1 6398   5.211   0.372   6.118
 1833SOL    HW2 6399   5.108   0.246   6.105
 1834SOL     OW 6400   2.555   4.334   0.236
 1834SOL    HW1 6401   2.578   4.431   0.234
 1834SOL    HW2 6402   2.633   4.281   0.267
 1835SOL     OW 6403   0.464   4.064   1.960
 1835SOL    HW1 6404   0.394   4.009   2.007
 1835SOL    HW2 6405   0.549   4.013   1.955
 1836SOL     OW 6406   5.039   2.043   0.657
 1836SOL    HW1 6407   4.954   2.021   0.704
 1836SOL    HW2 6408   5.082   1.958   0.625
 1837SOL     OW 6409   1.169   1.664   4.561
 1837SOL    HW1 6410   1.172   1.637   4.464
 1837SOL    HW2 6411   1.235   1.737   4.578
 1838SOL     OW 6412   6.893   1.048   4.116
 1838SOL    HW1 6413   6.818   1.100   4.158
 1838SOL    HW2 6414   6.868   1.025   4.022
 1839SOL     OW 6415   5.395   2.494   5.062
 1839SOL    HW1 6416   5.314   2.548   5.087
 1839SOL    HW2 6417   5.450   2.545   4.997
 1840SOL     OW 6418   3.249   5.762   1.637
 1840SOL    HW1 6419   3.174   5.828   1.640
 1840SOL    HW2 6420   3.336   5.810   1.655
 1841SOL     OW 6421   2.301   1.302   3.735
 1841SOL    HW1 6422   2.309   1.366   3.811
 1841SOL    HW2 6423   2.392   1.280   3.700
 1842SOL     OW 6424   1.426   5.424   0.224
 1842SOL    HW1 6425   1.339   5.456   0.259
 1842SOL    HW2 6426   1.437   5.327   0.245
 1843SOL     OW 6427   6.804   1.966   3.753
 1843SOL    HW1 6428   6.753   1.893   3.708
 1843SOL    HW2 6429   6.783   2.054   3.709
 1844SOL     OW 6430   3.558   0.201   5.249
 1844SOL    HW1 6431   3.549   0.223   5.346
 1844SOL    HW2 6432   3.587   0.282   5.199
 1845SOL     OW 6433   2.135   6.642   5.136
 1845SOL    HW1 6434   2.065   6.603   5.196
 1845SOL    HW2 6435   2.223   6.643   5.184
 1846SOL     OW 6436   4.437   1.988   0.560
 1846SOL    HW1 6437   4.426   1.943   0.648
 1846SOL    HW2 6438   4.495   2.069   0.570
 1847SOL     OW 6439   1.285   0.502   6.213
 1847SOL    HW1 6440   1.342   0.584   6.217
 1847SOL    HW2 6441   1.189   0.528   6.229
 1848SOL     OW 6442   1.140   6.766   2.765
 1848SOL    HW1 6443   1.088   6.822   2.701
 1848SOL    HW2 6444   1.090   6.682   2.784
 1849SOL     OW 6445   3.649   2.376   0.650
 1849SOL    HW1 6446   3.584   2.376   0.726
 1849SOL    HW2 6447   3.601   2.391   0.564
 1850SOL     OW 6448   0.626   2.869   2.435
 1850SOL    HW1 6449   0.618   2.888   2.337
 1850SOL    HW2 6450   0.722   2.873   2.462
 1851SOL     OW 6451   0.160   2.878   1.478
 1851SOL    HW1 6452   0.177   2.787   1.516
 1851SOL    HW2 6453   0.213   2.889   1.394
 1852SOL     OW 6454   5.844   3.718   2.495
 1852SOL    HW1 6455   5.745   3.722   2.511
 1852SOL    HW2 6456   5.862   3.689   2.401
 1853SOL     OW 6457   0.252   3.148   3.233
 1853SOL    HW1 6458   0.346   3.120   3.253
 1853SOL    HW2 6459   0.228   3.120   3.140
 1854SOL     OW 6460   2.666   6.018   3.579
 1854SOL    HW1 6461   2.671   5.976   3.671
 1854SOL    HW2 6462   2.621   6.107   3.585
 1855SOL     OW 6463   5.408   3.662   6.054
 1855SOL    HW1 6464   5.329   3.603   6.037
 1855SOL    HW2 6465   5.492   3.613   6.030
 1856SOL     OW 6466   6.215   3.992   5.663
 1856SOL    HW1 6467   6.173   3.902   5.663
 1856SOL    HW2 6468   6.145   4.062   5.648
 1857SOL     OW 6469   3.902   1.251   5.406
 1857SOL    HW1 6470   3.929   1.347   5.419
 1857SOL    HW2 6471   3.851   1.220   5.486
 1858SOL     OW 6472   6.332   3.524   3.905
 1858SOL    HW1 6473   6.419   3.478   3.887
 1858SOL    HW2 6474   6.288   3.547   3.819
 1859SOL     OW 6475   4.734   2.072   3.163
 1859SOL    HW1 6476   4.683   2.120   3.235
 1859SOL    HW2 6477   4.747   2.132   3.085
 1860SOL     OW 6478   6.718   0.324   4.530
 1860SOL    HW1 6479   6.792   0.256   4.521
 1860SOL    HW2 6480   6.754   0.407   4.572
 1861SOL     OW 6481   5.713   0.485   1.885
 1861SOL    HW1 6482   5.649   0.505   1.959
 1861SOL    HW2 6483   5.700   0.550   1.810
 1862SOL     OW 6484   2.367   0.463   6.079
 1862SOL    HW1 6485   2.359   0.428   6.173
 1862SOL    HW2 6486   2.383   0.561   6.081
 1863SOL     OW 6487   1.238   1.952   1.724
 1863SOL    HW1 6488   1.236   1.898   1.640
 1863SOL    HW2 6489   1.306   1.913   1.787
 1864SOL     OW 6490   0.804   0.164   5.420
 1864SOL    HW1 6491   0.867   0.206   5.486
 1864SOL    HW2 6492   0.730   0.227   5.399
 1865SOL     OW 6493   3.805   6.737   6.156
 1865SOL    HW1 6494   3.766   6.694   6.074
 1865SOL    HW2 6495   3.756   6.822   6.175
 1866SOL     OW 6496   4.141   4.730   3.455
 1866SOL    HW1 6497   4.152   4.674   3.537
 1866SOL    HW2 6498   4.229   4.772   3.432
 1867SOL     OW 6499   0.248   3.910   0.077
 1867SOL    HW1 6500   0.236   3.888   0.174
 1867SOL    HW2 6501   0.195   3.846   0.021
 1868SOL     OW 6502   4.829   4.672   6.736
 1868SOL    HW1 6503   4.758   4.742   6.746
 1868SOL    HW2 6504   4.815   4.623   6.650
 1869SOL     OW 6505   5.909   2.760   5.803
 1869SOL    HW1 6506   5.990   2.703   5.811
 1869SOL    HW2 6507   5.935   2.856   5.798
 1870SOL     OW 6508   2.155   2.860   5.588
 1870SOL    HW1 6509   2.239   2.897   5.628
 1870SOL    HW2 6510   2.091   2.836   5.662
 1871SOL     OW 6511   0.722   0.603   0.518
 1871SOL    HW1 6512   0.754   0.531   0.457
 1871SOL    HW2 6513   0.625   0.623   0.499
 1872SOL     OW 6514   3.791   2.124   6.289
 1872SOL    HW1 6515   3.751   2.082   6.207
 1872SOL    HW2 6516   3.775   2.066   6.368
 1873SOL     OW 6517   5.084   1.790   5.631
 1873SOL    HW1 6518   5.018   1.732   5.680
 1873SOL    HW2 6519   5.141   1.839   5.697
 1874SOL     OW 6520   3.417   1.496   0.857
 1874SOL    HW1 6521   3.451   1.516   0.949
 1874SOL    HW2 6522   3.417   1.397   0.843
 1875SOL     OW 6523   0.254   1.049   0.385
 1875SOL    HW1 6524   0.324   1.103   0.340
 1875SOL    HW2 6525   0.254   0.956   0.348
 1876SOL     OW 6526   4.074   6.538   6.051
 1876SOL    HW1 6527   3.980   6.573   6.047
 1876SOL    HW2 6528   4.092   6.480   5.972
 1877SOL     OW 6529   0.357   0.167   2.361
 1877SOL    HW1 6530   0.388   0.225   2.286
 1877SOL    HW2 6531   0.435   0.119   2.401
 1878SOL     OW 6532   6.805   2.532   3.439
 1878SOL    HW1 6533   6.901   2.516   3.417
 1878SOL    HW2 6534   6.795   2.623   3.480
 1879SOL     OW 6535   1.249   4.495   3.929
 1879SOL    HW1 6536   1.288   4.427   3.992
 1879SOL    HW2 6537   1.274   4.587   3.960
 1880SOL     OW 6538   6.388   1.414   4.411
 1880SOL    HW1 6539   6.429   1.459   4.331
 1880SOL    HW2 6540   6.322   1.345   4.379
 1881SOL     OW 6541   5.917   2.130   3.050
 1881SOL    HW1 6542   5.824   2.116   3.017
 1881SOL    HW2 6543   5.975   2.054   3.021
 1882SOL     OW 6544   1.201   3.935   6.104
 1882SOL    HW1 6545   1.155   3.853   6.070
 1882SOL    HW2 6546   1.300   3.922   6.098
 1883SOL     OW 6547   0.500   2.190   3.882
 1883SOL    HW1 6548   0.579   2.220   3.935
 1883SOL    HW2 6549   0.456   2.270   3.841
 1884SOL     OW 6550   6.647   2.666   0.545
 1884SOL    HW1 6551   6.615   2.593   0.607
 1884SOL    HW2 6552   6.627   2.640   0.451
 1885SOL     OW 6553   1.719   1.928   6.547
 1885SOL    HW1 6554   1.819   1.929   6.534
 1885SOL    HW2 6555   1.692   1.840   6.586
 1886SOL     OW 6556   1.908   1.022   1.579
 1886SOL    HW1 6557   1.883   1.017   1.675
 1886SOL    HW2 6558   1.831   1.059   1.526
 1887SOL     OW 6559   1.065   6.084   5.102
 1887SOL    HW1 6560   1.049   6.178   5.132
 1887SOL    HW2 6561   1.087   6.083   5.005
 1888SOL     OW 6562   2.454   1.984   0.391
 1888SOL    HW1 6563   2.400   1.979   0.475
 1888SOL    HW2 6564   2.540   1.935   0.403
 1889SOL     OW 6565   0.692   3.265   5.864
 1889SOL    HW1 6566   0.651   3.176   5.881
 1889SOL    HW2 6567   0.763   3.257   5.794
 1890SOL     OW 6568   1.894   6.291   4.418
 1890SOL    HW1 6569   1.982   6.285   4.466
 1890SOL    HW2 6570   1.826   6.236   4.466
 1891SOL     OW 6571   6.097   2.515   1.791
 1891SOL    HW1 6572   6.029   2.496   1.719
 1891SOL    HW2 6573   6.077   2.460   1.871
 1892SOL     OW 6574   2.772   0.220   2.921
 1892SOL    HW1 6575   2.853   0.275   2.939
 1892SOL    HW2 6576   2.704   0.275   2.871
 1893SOL     OW 6577   3.039   3.018   0.021
 1893SOL    HW1 6578   2.959   2.971   7.008
 1893SOL    HW2 6579   3.064   3.094   6.986
 1894SOL     OW 6580   3.563   4.136   3.977
 1894SOL    HW1 6581   3.568   4.168   4.072
 1894SOL    HW2 6582   3.467   4.131   3.949
 1895SOL     OW 6583   4.877   0.690   1.634
 1895SOL    HW1 6584   4.892   0.676   1.536
 1895SOL    HW2 6585   4.956   0.737   1.674
 1896SOL     OW 6586   5.477   0.504   1.353
 1896SOL    HW1 6587   5.469   0.490   1.452
 1896SOL    HW2 6588   5.568   0.475   1.322
 1897SOL     OW 6589   2.295   5.483   1.585
 1897SOL    HW1 6590   2.344   5.451   1.666
 1897SOL    HW2 6591   2.209   5.432   1.576
 1898SOL     OW 6592   2.344   5.861   3.192
 1898SOL    HW1 6593   2.346   5.826   3.099
 1898SOL    HW2 6594   2.373   5.789   3.256
 1899SOL     OW 6595   0.716   1.230   2.036
 1899SOL    HW1 6596   0.700   1.208   1.939
 1899SOL    HW2 6597   0.808   1.199   2.062
 1900SOL     OW 6598   1.620   0.476   6.387
 1900SOL    HW1 6599   1.669   0.528   6.458
 1900SOL    HW2 6600   1.683   0.412   6.343
 1901SOL     OW 6601   1.523   2.360   1.133
 1901SOL    HW1 6602   1.522   2.261   1.115
 1901SOL    HW2 6603   1.582   2.378   1.212
 1902SOL     OW 6604   2.111   1.239   5.276
 1902SOL    HW1 6605   2.048   1.192   5.338
 1902SOL    HW2 6606   2.164   1.307   5.327
 1903SOL     OW 6607   0.206   3.467   2.534
 1903SOL    HW1 6608   0.168   3.559   2.544
 1903SOL    HW2 6609   0.133   3.399   2.540
 1904SOL     OW 6610   5.225   5.586   3.379
 1904SOL    HW1 6611   5.299   5.590   3.313
 1904SOL    HW2 6612   5.173   5.502   3.366
 1905SOL     OW 6613   1.225   0.196   3.625
 1905SOL    HW1 6614   1.265   0.172   3.713
 1905SOL    HW2 6615   1.238   0.120   3.561
 1906SOL     OW 6616   2.516   0.009   4.870
 1906SOL    HW1 6617   2.602   7.014   4.916
 1906SOL    HW2 6618   2.526   0.089   4.811
 1907SOL     OW 6619   3.404   1.535   1.862
 1907SOL    HW1 6620   3.403   1.621   1.913
 1907SOL    HW2 6621   3.319   1.526   1.810
 1908SOL     OW 6622   3.563   6.893   5.593
 1908SOL    HW1 6623   3.583   6.915   5.497
 1908SOL    HW2 6624   3.608   6.960   5.652
 1909SOL     OW 6625   0.326   3.754   2.738
 1909SOL    HW1 6626   0.348   3.700   2.820
 1909SOL    HW2 6627   0.405   3.753   2.676
 1910SOL     OW 6628   0.281   4.752   6.958
 1910SOL    HW1 6629   0.368   4.730   6.912
 1910SOL    HW2 6630   0.206   4.746   6.892
 1911SOL     OW 6631   0.039   3.756   5.047
 1911SOL    HW1 6632   0.132   3.793   5.051
 1911SOL    HW2 6633   0.011   3.727   5.138
 1912SOL     OW 6634   3.314   5.578   0.556
 1912SOL    HW1 6635   3.268   5.566   0.644
 1912SOL    HW2 6636   3.253   5.549   0.482
 1913SOL     OW 6637   2.496   6.616   4.696
 1913SOL    HW1 6638   2.545   6.530   4.688
 1913SOL    HW2 6639   2.509   6.654   4.788
 1914SOL     OW 6640   3.700   2.975   5.998
 1914SOL    HW1 6641   3.664   2.929   5.916
 1914SOL    HW2 6642   3.736   2.906   6.061
 1915SOL     OW 6643   3.593   2.110   5.257
 1915SOL    HW1 6644   3.680   2.159   5.265
 1915SOL    HW2 6645   3.518   2.174   5.271
 1916SOL     OW 6646   3.800   5.552   1.359
 1916SOL    HW1 6647   3.717   5.592   1.321
 1916SOL    HW2 6648   3.855   5.624   1.401
 1917SOL     OW 6649   2.206   2.990   6.708
 1917SOL    HW1 6650   2.244   3.038   6.629
 1917SOL    HW2 6651   2.279   2.967   6.772
 1918SOL     OW 6652   1.419   1.336   5.197
 1918SOL    HW1 6653   1.420   1.332   5.297
 1918SOL    HW2 6654   1.390   1.427   5.167
 1919SOL     OW 6655   1.504   0.784   1.821
 1919SOL    HW1 6656   1.443   0.750   1.892
 1919SOL    HW2 6657   1.596   0.746   1.835
 1920SOL     OW 6658   0.329   4.241   2.844
 1920SOL    HW1 6659   0.409   4.296   2.867
 1920SOL    HW2 6660   0.310   4.177   2.918
 1921SOL     OW 6661   1.652   3.594   6.502
 1921SOL    HW1 6662   1.675   3.689   6.521
 1921SOL    HW2 6663   1.660   3.576   6.404
 1922SOL     OW 6664   2.526   3.156   1.590
 1922SOL    HW1 6665   2.549   3.146   1.493
 1922SOL    HW2 6666   2.568   3.081   1.642
 1923SOL     OW 6667   4.237   1.179   5.700
 1923SOL    HW1 6668   4.154   1.123   5.697
 1923SOL    HW2 6669   4.212   1.276   5.694
 1924SOL     OW 6670   4.902   6.443   0.453
 1924SOL    HW1 6671   4.850   6.362   0.479
 1924SOL    HW2 6672   4.884   6.465   0.357
 1925SOL     OW 6673   1.963   4.834   0.819
 1925SOL    HW1 6674   1.869   4.869   0.814
 1925SOL    HW2 6675   2.007   4.866   0.903
 1926SOL     OW 6676   2.778   6.882   2.956
 1926SOL    HW1 6677   2.849   6.828   2.911
 1926SOL    HW2 6678   2.738   6.829   3.030
 1927SOL     OW 6679   2.568   4.812   0.223
 1927SOL    HW1 6680   2.560   4.885   0.291
 1927SOL    HW2 6681   2.515   4.836   0.142
 1928SOL     OW 6682   6.054   3.950   4.802
 1928SOL    HW1 6683   5.994   3.978   4.728
 1928SOL    HW2 6684   6.094   4.031   4.846
 1929SOL     OW 6685   2.537   0.257   1.275
 1929SOL    HW1 6686   2.538   0.176   1.216
 1929SOL    HW2 6687   2.446   0.298   1.274
 1930SOL     OW 6688   4.642   3.962   6.562
 1930SOL    HW1 6689   4.592   3.999   6.641
 1930SOL    HW2 6690   4.599   3.995   6.478
 1931SOL     OW 6691   0.910   2.478   1.292
 1931SOL    HW1 6692   0.860   2.417   1.353
 1931SOL    HW2 6693   0.935   2.428   1.209
 1932SOL     OW 6694   4.876   2.401   2.760
 1932SOL    HW1 6695   4.914   2.311   2.741
 1932SOL    HW2 6696   4.946   2.471   2.743
 1933SOL     OW 6697   1.178   3.501   0.689
 1933SOL    HW1 6698   1.208   3.472   0.599
 1933SOL    HW2 6699   1.179   3.601   0.695
 1934SOL     OW 6700   6.865   0.531   4.962
 1934SOL    HW1 6701   6.958   0.545   4.998
 1934SOL    HW2 6702   6.799   0.554   5.033
 1935SOL     OW 6703   4.675   5.141   3.525
 1935SOL    HW1 6704   4.726   5.217   3.565
 1935SOL    HW2 6705   4.683   5.143   3.426
 1936SOL     OW 6706   5.206   4.425   4.070
 1936SOL    HW1 6707   5.270   4.453   4.141
 1936SOL    HW2 6708   5.218   4.483   3.989
 1937SOL     OW 6709   3.845   6.199   7.020
 1937SOL    HW1 6710   3.845   6.195   0.095
 1937SOL    HW2 6711   3.931   6.163   6.985
 1938SOL     OW 6712   1.446   1.618   2.062
 1938SOL    HW1 6713   1.513   1.654   1.997
 1938SOL    HW2 6714   1.424   1.523   2.039
 1939SOL     OW 6715   6.823   6.421   4.059
 1939SOL    HW1 6716   6.820   6.461   3.967
 1939SOL    HW2 6717   6.845   6.492   4.125
 1940SOL     OW 6718   6.273   5.304   0.785
 1940SOL    HW1 6719   6.214   5.372   0.744
 1940SOL    HW2 6720   6.303   5.238   0.715
 1941SOL     OW 6721   1.499   2.781   4.156
 1941SOL    HW1 6722   1.520   2.824   4.244
 1941SOL    HW2 6723   1.567   2.711   4.136
 1942SOL     OW 6724   5.816   2.555   2.289
 1942SOL    HW1 6725   5.839   2.492   2.214
 1942SOL    HW2 6726   5.731   2.603   2.267
 1943SOL     OW 6727   1.963   6.795   3.414
 1943SOL    HW1 6728   1.907   6.792   3.331
 1943SOL    HW2 6729   2.037   6.860   3.403
 1944SOL     OW 6730   6.214   3.725   0.056
 1944SOL    HW1 6731   6.120   3.704   0.084
 1944SOL    HW2 6732   6.271   3.739   0.137
 1945SOL     OW 6733   4.063   5.175   0.287
 1945SOL    HW1 6734   4.112   5.176   0.374
 1945SOL    HW2 6735   3.982   5.117   0.295
 1946SOL     OW 6736   5.632   6.816   1.055
 1946SOL    HW1 6737   5.694   6.894   1.049
 1946SOL    HW2 6738   5.683   6.733   1.074
 1947SOL     OW 6739   5.454   6.361   4.571
 1947SOL    HW1 6740   5.428   6.447   4.613
 1947SOL    HW2 6741   5.540   6.373   4.520
 1948SOL     OW 6742   6.278   4.852   2.714
 1948SOL    HW1 6743   6.219   4.772   2.708
 1948SOL    HW2 6744   6.224   4.932   2.738
 1949SOL     OW 6745   3.672   3.393   6.892
 1949SOL    HW1 6746   3.616   3.392   6.809
 1949SOL    HW2 6747   3.656   3.478   6.942
 1950SOL     OW 6748   3.375   3.007   1.893
 1950SOL    HW1 6749   3.382   3.098   1.933
 1950SOL    HW2 6750   3.350   3.015   1.797
 1951SOL     OW 6751   6.821   4.700   6.936
 1951SOL    HW1 6752   6.764   4.713   6.855
 1951SOL    HW2 6753   6.892   4.632   6.917
 1952SOL     OW 6754   5.067   4.178   0.857
 1952SOL    HW1 6755   4.989   4.119   0.880
 1952SOL    HW2 6756   5.038   4.273   0.860
 1953SOL     OW 6757   6.661   1.823   6.003
 1953SOL    HW1 6758   6.758   1.798   6.002
 1953SOL    HW2 6759   6.615   1.775   6.077
 1954SOL     OW 6760   6.270   0.386   1.173
 1954SOL    HW1 6761   6.285   0.420   1.266
 1954SOL    HW2 6762   6.175   0.403   1.146
 1955SOL     OW 6763   0.559   0.512   2.809
 1955SOL    HW1 6764   0.568   0.604   2.770
 1955SOL    HW2 6765   0.619   0.503   2.888
 1956SOL     OW 6766   5.065   0.487   1.655
 1956SOL    HW1 6767   5.065   0.388   1.644
 1956SOL    HW2 6768   4.971   0.520   1.662
 1957SOL     OW 6769   5.110   4.785   3.901
 1957SOL    HW1 6770   5.187   4.723   3.920
 1957SOL    HW2 6771   5.084   4.776   3.805
 1958SOL     OW 6772   4.663   1.737   1.579
 1958SOL    HW1 6773   4.749   1.691   1.602
 1958SOL    HW2 6774   4.664   1.830   1.618
 1959SOL     OW 6775   0.828   6.980   3.915
 1959SOL    HW1 6776   0.868   6.958   3.826
 1959SOL    HW2 6777   0.902   6.997   3.980
 1960SOL     OW 6778   0.231   3.973   2.834
 1960SOL    HW1 6779   0.270   3.893   2.789
 1960SOL    HW2 6780   0.245   4.054   2.777
 1961SOL     OW 6781   6.202   4.391   4.483
 1961SOL    HW1 6782   6.242   4.423   4.570
 1961SOL    HW2 6783   6.275   4.363   4.421
 1962SOL     OW 6784   1.308   6.849   2.031
 1962SOL    HW1 6785   1.238   6.888   2.089
 1962SOL    HW2 6786   1.274   6.841   1.937
 1963SOL     OW 6787   1.339   1.095   2.023
 1963SOL    HW1 6788   1.261   1.146   1.987
 1963SOL    HW2 6789   1.316   0.998   2.029
 1964SOL     OW 6790   4.168   4.646   1.342
 1964SOL    HW1 6791   4.176   4.617   1.247
 1964SOL    HW2 6792   4.072   4.662   1.365
 1965SOL     OW 6793   2.053   2.381   4.291
 1965SOL    HW1 6794   2.029   2.288   4.319
 1965SOL    HW2 6795   2.142   2.380   4.246
 1966SOL     OW 6796   0.703   5.994   1.666
 1966SOL    HW1 6797   0.750   6.015   1.752
 1966SOL    HW2 6798   0.716   5.897   1.643
 1967SOL     OW 6799   6.154   2.806   4.008
 1967SOL    HW1 6800   6.131   2.806   4.106
 1967SOL    HW2 6801   6.143   2.899   3.972
 1968SOL     OW 6802   2.142   0.230   5.616
 1968SOL    HW1 6803   2.144   0.266   5.709
 1968SOL    HW2 6804   2.236   0.217   5.583
 1969SOL     OW 6805   2.912   1.379   1.233
 1969SOL    HW1 6806   2.953   1.465   1.202
 1969SOL    HW2 6807   2.983   1.322   1.275
 1970SOL     OW 6808   1.210   6.887   4.875
 1970SOL    HW1 6809   1.124   6.846   4.905
 1970SOL    HW2 6810   1.197   6.930   4.786
 1971SOL     OW 6811   0.384   0.968   5.643
 1971SOL    HW1 6812   0.411   1.012   5.557
 1971SOL    HW2 6813   0.288   0.990   5.663
 1972SOL     OW 6814   5.752   2.214   1.246
 1972SOL    HW1 6815   5.715   2.155   1.317
 1972SOL    HW2 6816   5.835   2.172   1.208
 1973SOL     OW 6817   2.943   4.019   1.356
 1973SOL    HW1 6818   3.015   4.084   1.381
 1973SOL    HW2 6819   2.985   3.931   1.334
 1974SOL     OW 6820   5.026   0.480   4.951
 1974SOL    HW1 6821   5.093   0.519   5.014
 1974SOL    HW2 6822   5.067   0.403   4.901
 1975SOL     OW 6823   1.826   2.031   3.765
 1975SOL    HW1 6824   1.793   1.950   3.716
 1975SOL    HW2 6825   1.902   2.071   3.715
 1976SOL     OW 6826   6.031   6.130   0.665
 1976SOL    HW1 6827   5.947   6.145   0.718
 1976SOL    HW2 6828   6.110   6.139   0.725
 1977SOL     OW 6829   1.753   3.269   5.122
 1977SOL    HW1 6830   1.720   3.196   5.062
 1977SOL    HW2 6831   1.853   3.277   5.113
 1978SOL     OW 6832   1.995   5.960   2.859
 1978SOL    HW1 6833   1.925   5.903   2.902
 1978SOL    HW2 6834   2.046   6.009   2.930
 1979SOL     OW 6835   5.521   5.123   0.059
 1979SOL    HW1 6836   5.605   5.074   0.085
 1979SOL    HW2 6837   5.542   5.219   0.044
 1980SOL     OW 6838   4.180   0.443   3.659
 1980SOL    HW1 6839   4.153   0.431   3.564
 1980SOL    HW2 6840   4.237   0.525   3.667
 1981SOL     OW 6841   5.663   3.003   2.591
 1981SOL    HW1 6842   5.636   2.907   2.580
 1981SOL    HW2 6843   5.674   3.045   2.501
 1982SOL     OW 6844   6.724   3.805   3.683
 1982SOL    HW1 6845   6.777   3.888   3.701
 1982SOL    HW2 6846   6.655   3.794   3.755
 1983SOL     OW 6847   1.924   0.775   1.639
 1983SOL    HW1 6848   1.931   0.702   1.572
 1983SOL    HW2 6849   1.900   0.861   1.593
 1984SOL     OW 6850   4.479   2.479   5.045
 1984SOL    HW1 6851   4.380   2.474   5.030
 1984SOL    HW2 6852   4.515   2.561   5.000
 1985SOL     OW 6853   0.264   5.971   2.473
 1985SOL    HW1 6854   0.249   6.070   2.473
 1985SOL    HW2 6855   0.179   5.924   2.494
 1986SOL     OW 6856   3.121   1.134   6.453
 1986SOL    HW1 6857   3.127   1.222   6.500
 1986SOL    HW2 6858   3.204   1.119   6.399
 1987SOL     OW 6859   2.507   1.423   3.367
 1987SOL    HW1 6860   2.540   1.331   3.347
 1987SOL    HW2 6861   2.408   1.420   3.382
 1988SOL     OW 6862   6.864   2.826   0.610
 1988SOL    HW1 6863   6.788   2.767   0.581
 1988SOL    HW2 6864   6.852   2.851   0.706
 1989SOL     OW 6865   2.061   5.545   4.869
 1989SOL    HW1 6866   2.105   5.632   4.890
 1989SOL    HW2 6867   2.115   5.470   4.907
 1990SOL     OW 6868   3.545   5.871   0.341
 1990SOL    HW1 6869   3.565   5.969   0.340
 1990SOL    HW2 6870   3.616   5.822   0.291
 1991SOL     OW 6871   1.866   6.347   0.419
 1991SOL    HW1 6872   1.824   6.437   0.434
 1991SOL    HW2 6873   1.817   6.299   0.346
 1992SOL     OW 6874   0.231   0.820   0.647
 1992SOL    HW1 6875   0.207   0.726   0.670
 1992SOL    HW2 6876   0.317   0.844   0.691
 1993SOL     OW 6877   3.074   1.976   5.843
 1993SOL    HW1 6878   3.148   1.910   5.834
 1993SOL    HW2 6879   3.112   2.069   5.845
 1994SOL     OW 6880   6.007   2.402   1.384
 1994SOL    HW1 6881   6.027   2.330   1.318
 1994SOL    HW2 6882   5.990   2.488   1.335
 1995SOL     OW 6883   5.407   3.237   3.646
 1995SOL    HW1 6884   5.400   3.207   3.741
 1995SOL    HW2 6885   5.479   3.306   3.638
 1996SOL     OW 6886   2.602   1.695   1.106
 1996SOL    HW1 6887   2.535   1.762   1.073
 1996SOL    HW2 6888   2.678   1.691   1.041
 1997SOL     OW 6889   3.909   1.891   3.890
 1997SOL    HW1 6890   3.978   1.929   3.951
 1997SOL    HW2 6891   3.833   1.955   3.881
 1998SOL     OW 6892   1.533   3.792   0.649
 1998SOL    HW1 6893   1.511   3.858   0.577
 1998SOL    HW2 6894   1.594   3.722   0.612
 1999SOL     OW 6895   1.199   0.183   5.642
 1999SOL    HW1 6896   1.150   0.166   5.556
 1999SOL    HW2 6897   1.293   0.150   5.633
 2000SOL     OW 6898   3.663   2.841   5.690
 2000SOL    HW1 6899   3.581   2.787   5.708
 2000SOL    HW2 6900   3.742   2.779   5.682
 2001SOL     OW 6901   2.118   1.469   0.974
 2001SOL    HW1 6902   2.045   1.428   0.919
 2001SOL    HW2 6903   2.187   1.399   0.994
 2002SOL     OW 6904   0.678   4.981   0.996
 2002SOL    HW1 6905   0.603   5.007   1.058
 2002SOL    HW2 6906   0.641   4.923   0.923
 2003SOL     OW 6907   6.510   4.830   2.227
 2003SOL    HW1 6908   6.551   4.916   2.197
 2003SOL    HW2 6909   6.570   4.754   2.203
 2004SOL     OW 6910   4.828   1.058   4.780
 2004SOL    HW1 6911   4.763   1.134   4.788
 2004SOL    HW2 6912   4.777   0.971   4.780
 2005SOL     OW 6913   0.110   4.842   0.486
 2005SOL    HW1 6914   0.170   4.776   0.440
 2005SOL    HW2 6915   0.156   4.877   0.567
 2006SOL     OW 6916   5.676   6.649   3.750
 2006SOL    HW1 6917   5.736   6.631   3.672
 2006SOL    HW2 6918   5.664   6.747   3.762
 2007SOL     OW 6919   5.235   4.561   0.938
 2007SOL    HW1 6920   5.282   4.612   1.009
 2007SOL    HW2 6921   5.297   4.543   0.862
 2008SOL     OW 6922   2.053   3.387   3.329
 2008SOL    HW1 6923   2.052   3.429   3.238
 2008SOL    HW2 6924   1.976   3.421   3.382
 2009SOL     OW 6925   4.856   6.591   2.468
 2009SOL    HW1 6926   4.888   6.583   2.562
 2009SOL    HW2 6927   4.799   6.512   2.445
 2010SOL     OW 6928   2.581   1.699   1.903
 2010SOL    HW1 6929   2.571   1.680   1.806
 2010SOL    HW2 6930   2.555   1.794   1.922
 2011SOL     OW 6931   0.482   1.129   4.806
 2011SOL    HW1 6932   0.576   1.133   4.839
 2011SOL    HW2 6933   0.428   1.200   4.850
 2012SOL     OW 6934   1.415   3.772   2.322
 2012SOL    HW1 6935   1.476   3.743   2.248
 2012SOL    HW2 6936   1.323   3.788   2.285
 2013SOL     OW 6937   6.007   3.057   3.887
 2013SOL    HW1 6938   5.915   3.070   3.925
 2013SOL    HW2 6939   6.074   3.103   3.946
 2014SOL     OW 6940   3.124   0.062   3.257
 2014SOL    HW1 6941   3.090   0.108   3.339
 2014SOL    HW2 6942   3.127   6.988   3.272
 2015SOL     OW 6943   2.776   6.725   0.976
 2015SOL    HW1 6944   2.767   6.701   0.880
 2015SOL    HW2 6945   2.775   6.824   0.986
 2016SOL     OW 6946   1.525   5.521   5.348
 2016SOL    HW1 6947   1.444   5.464   5.331
 2016SOL    HW2 6948   1.519   5.560   5.440
 2017SOL     OW 6949   4.319   0.188   3.079
 2017SOL    HW1 6950   4.338   0.120   3.009
 2017SOL    HW2 6951   4.284   0.272   3.036
 2018SOL     OW 6952   6.483   2.862   3.553
 2018SOL    HW1 6953   6.522   2.920   3.625
 2018SOL    HW2 6954   6.396   2.824   3.585
 2019SOL     OW 6955   5.737   4.299   6.409
 2019SOL    HW1 6956   5.799   4.375   6.392
 2019SOL    HW2 6957   5.677   4.321   6.486
 2020SOL     OW 6958   2.055   6.476   6.081
 2020SOL    HW1 6959   1.989   6.551   6.083
 2020SOL    HW2 6960   2.098   6.467   6.171
 2021SOL     OW 6961   6.580   6.534   4.574
 2021SOL    HW1 6962   6.607   6.618   4.525
 2021SOL    HW2 6963   6.484   6.541   4.600
 2022SOL     OW 6964   1.566   4.830   4.087
 2022SOL    HW1 6965   1.546   4.745   4.136
 2022SOL    HW2 6966   1.501   4.900   4.114
 2023SOL     OW 6967   0.736   0.693   7.017
 2023SOL    HW1 6968   0.789   0.623   6.969
 2023SOL    HW2 6969   0.709   0.765   6.952
 2024SOL     OW 6970   0.161   5.616   3.991
 2024SOL    HW1 6971   0.147   5.646   4.085
 2024SOL    HW2 6972   0.079   5.569   3.958
 2025SOL     OW 6973   3.813   1.148   4.240
 2025SOL    HW1 6974   3.814   1.066   4.296
 2025SOL    HW2 6975   3.743   1.211   4.274
 2026SOL     OW 6976   6.531   2.277   6.517
 2026SOL    HW1 6977   6.548   2.262   6.420
 2026SOL    HW2 6978   6.434   2.261   6.537
 2027SOL     OW 6979   1.075   0.266   1.305
 2027SOL    HW1 6980   1.174   0.274   1.312
 2027SOL    HW2 6981   1.033   0.282   1.394
 2028SOL     OW 6982   3.308   5.465   3.939
 2028SOL    HW1 6983   3.268   5.495   3.852
 2028SOL    HW2 6984   3.381   5.528   3.965
 2029SOL     OW 6985   6.377   2.479   6.857
 2029SOL    HW1 6986   6.405   2.444   6.946
 2029SOL    HW2 6987   6.455   2.521   6.811
 2030SOL     OW 6988   3.399   0.137   2.956
 2030SOL    HW1 6989   3.386   0.040   2.975
 2030SOL    HW2 6990   3.349   0.192   3.022
 2031SOL     OW 6991   0.167   6.234   2.480
 2031SOL    HW1 6992   0.172   6.290   2.398
 2031SOL    HW2 6993   0.071   6.213   2.501
 2032SOL     OW 6994   3.346   1.215   1.615
 2032SOL    HW1 6995   3.377   1.296   1.564
 2032SOL    HW2 6996   3.424   1.173   1.661
 2033SOL     OW 6997   2.299   1.163   0.583
 2033SOL    HW1 6998   2.390   1.149   0.623
 2033SOL    HW2 6999   2.237   1.199   0.654
 2034SOL     OW 7000   2.134   4.930   5.881
 2034SOL    HW1 7001   2.206   4.985   5.924
 2034SOL    HW2 7002   2.057   4.922   5.944
 2035SOL     OW 7003   6.383   6.566   3.082
 2035SOL    HW1 7004   6.377   6.656   3.125
 2035SOL    HW2 7005   6.442   6.507   3.137
 2036SOL     OW 7006   1.175   3.583   3.059
 2036SOL    HW1 7007   1.201   3.653   2.992
 2036SOL    HW2 7008   1.076   3.568   3.055
 2037SOL     OW 7009   6.107   3.021   6.363
 2037SOL    HW1 7010   6.176   3.021   6.291
 2037SOL    HW2 7011   6.102   2.930   6.404
 2038SOL     OW 7012   2.453   1.477   0.591
 2038SOL    HW1 7013   2.433   1.557   0.647
 2038SOL    HW2 7014   2.506   1.411   0.646
 2039SOL     OW 7015   0.244   6.592   3.143
 2039SOL    HW1 7016   0.308   6.617   3.216
 2039SOL    HW2 7017   0.284   6.616   3.055
 2040SOL     OW 7018   2.303   1.981   0.160
 2040SOL    HW1 7019   2.260   1.891   0.158
 2040SOL    HW2 7020   2.365   1.985   0.239
 2041SOL     OW 7021   1.476   0.474   4.981
 2041SOL    HW1 7022   1.489   0.396   5.042
 2041SOL    HW2 7023   1.378   0.490   4.968
 2042SOL     OW 7024   4.967   0.300   5.807
 2042SOL    HW1 7025   4.977   0.239   5.886
 2042SOL    HW2 7026   4.949   0.246   5.725
 2043SOL     OW 7027   6.418   2.692   2.884
 2043SOL    HW1 7028   6.325   2.728   2.890
 2043SOL    HW2 7029   6.471   2.747   2.820
 2044SOL     OW 7030   5.968   0.507   0.660
 2044SOL    HW1 7031   5.957   0.603   0.636
 2044SOL    HW2 7032   5.906   0.451   0.606
 2045SOL     OW 7033   1.169   5.234   4.813
 2045SOL    HW1 7034   1.243   5.178   4.850
 2045SOL    HW2 7035   1.141   5.198   4.724
 2046SOL     OW 7036   6.553   2.056   5.371
 2046SOL    HW1 7037   6.501   1.971   5.377
 2046SOL    HW2 7038   6.574   2.088   5.463
 2047SOL     OW 7039   6.520   3.044   0.967
 2047SOL    HW1 7040   6.499   3.137   0.936
 2047SOL    HW2 7041   6.488   3.032   1.061
 2048SOL     OW 7042   0.429   0.526   5.054
 2048SOL    HW1 7043   0.395   0.593   5.120
 2048SOL    HW2 7044   0.393   0.547   4.963
 2049SOL     OW 7045   5.559   1.725   4.140
 2049SOL    HW1 7046   5.477   1.690   4.094
 2049SOL    HW2 7047   5.536   1.753   4.233
 2050SOL     OW 7048   6.929   2.387   4.307
 2050SOL    HW1 7049   7.024   2.355   4.303
 2050SOL    HW2 7050   6.884   2.349   4.387
 2051SOL     OW 7051   1.773   6.172   6.875
 2051SOL    HW1 7052   1.842   6.236   6.909
 2051SOL    HW2 7053   1.714   6.143   6.950
 2052SOL     OW 7054   1.452   2.924   0.895
 2052SOL    HW1 7055   1.421   2.870   0.973
 2052SOL    HW2 7056   1.477   3.016   0.926
 2053SOL     OW 7057   0.974   5.590   5.114
 2053SOL    HW1 7058   0.882   5.606   5.080
 2053SOL    HW2 7059   1.001   5.496   5.095
 2054SOL     OW 7060   3.185   3.972   2.814
 2054SOL    HW1 7061   3.125   3.902   2.855
 2054SOL    HW2 7062   3.198   4.047   2.879
 2055SOL     OW 7063   6.460   3.089   4.919
 2055SOL    HW1 7064   6.547   3.135   4.935
 2055SOL    HW2 7065   6.476   2.998   4.883
 2056SOL     OW 7066   4.296   4.773   1.564
 2056SOL    HW1 7067   4.237   4.854   1.562
 2056SOL    HW2 7068   4.280   4.719   1.481
 2057SOL     OW 7069   4.991   3.454   5.450
 2057SOL    HW1 7070   5.029   3.516   5.519
 2057SOL    HW2 7071   4.891   3.463   5.447
 2058SOL     OW 7072   0.765   6.319   2.237
 2058SOL    HW1 7073   0.855   6.352   2.267
 2058SOL    HW2 7074   0.707   6.397   2.214
 2059SOL     OW 7075   2.558   6.894   6.534
 2059SOL    HW1 7076   2.525   6.955   6.462
 2059SOL    HW2 7077   2.503   6.907   6.616
 2060SOL     OW 7078   0.237   4.199   1.831
 2060SOL    HW1 7079   0.184   4.143   1.895
 2060SOL    HW2 7080   0.334   4.181   1.844
 2061SOL     OW 7081   1.959   2.198   2.685
 2061SOL    HW1 7082   1.859   2.203   2.684
 2061SOL    HW2 7083   1.997   2.272   2.629
 2062SOL     OW 7084   0.003   5.647   5.308
 2062SOL    HW1 7085   0.041   5.740   5.309
 2062SOL    HW2 7086   6.934   5.649   5.273
 2063SOL     OW 7087   1.360   6.394   5.029
 2063SOL    HW1 7088   1.377   6.489   5.005
 2063SOL    HW2 7089   1.395   6.334   4.957
 2064SOL     OW 7090   6.886   3.077   4.457
 2064SOL    HW1 7091   6.977   3.109   4.430
 2064SOL    HW2 7092   6.846   3.024   4.382
 2065SOL     OW 7093   5.859   3.099   6.014
 2065SOL    HW1 7094   5.805   3.174   5.977
 2065SOL    HW2 7095   5.922   3.065   5.944
 2066SOL     OW 7096   6.387   4.191   5.540
 2066SOL    HW1 7097   6.408   4.175   5.443
 2066SOL    HW2 7098   6.346   4.108   5.578
 2067SOL     OW 7099   6.570   5.305   1.117
 2067SOL    HW1 7100   6.523   5.345   1.038
 2067SOL    HW2 7101   6.606   5.215   1.091
 2068SOL     OW 7102   4.091   0.599   4.315
 2068SOL    HW1 7103   4.051   0.684   4.283
 2068SOL    HW2 7104   4.047   0.521   4.269
 2069SOL     OW 7105   0.250   2.503   4.114
 2069SOL    HW1 7106   0.219   2.410   4.096
 2069SOL    HW2 7107   0.306   2.505   4.197
 2070SOL     OW 7108   1.023   2.738   0.891
 2070SOL    HW1 7109   0.969   2.671   0.841
 2070SOL    HW2 7110   1.081   2.789   0.827
 2071SOL     OW 7111   6.209   1.376   6.229
 2071SOL    HW1 7112   6.209   1.423   6.141
 2071SOL    HW2 7113   6.256   1.432   6.297
 2072SOL     OW 7114   4.610   5.154   4.773
 2072SOL    HW1 7115   4.595   5.089   4.698
 2072SOL    HW2 7116   4.522   5.188   4.805
 2073SOL     OW 7117   3.610   6.263   5.445
 2073SOL    HW1 7118   3.645   6.274   5.352
 2073SOL    HW2 7119   3.566   6.348   5.474
 2074SOL     OW 7120   1.924   2.293   6.618
 2074SOL    HW1 7121   1.913   2.383   6.577
 2074SOL    HW2 7122   1.917   2.301   6.717
 2075SOL     OW 7123   6.709   2.349   2.984
 2075SOL    HW1 7124   6.709   2.360   3.084
 2075SOL    HW2 7125   6.624   2.388   2.947
 2076SOL     OW 7126   5.675   0.341   5.747
 2076SOL    HW1 7127   5.696   0.391   5.832
 2076SOL    HW2 7128   5.654   0.246   5.769
 2077SOL     OW 7129   6.650   2.193   1.943
 2077SOL    HW1 7130   6.664   2.153   2.034
 2077SOL    HW2 7131   6.716   2.267   1.930
 2078SOL     OW 7132   1.306   4.695   6.320
 2078SOL    HW1 7133   1.279   4.726   6.229
 2078SOL    HW2 7134   1.335   4.774   6.374
 2079SOL     OW 7135   6.215   1.151   3.017
 2079SOL    HW1 7136   6.151   1.228   3.020
 2079SOL    HW2 7137   6.218   1.113   2.925
 2080SOL     OW 7138   3.334   1.672   5.002
 2080SOL    HW1 7139   3.272   1.730   4.948
 2080SOL    HW2 7140   3.285   1.592   5.035
 2081SOL     OW 7141   0.767   6.475   4.059
 2081SOL    HW1 7142   0.723   6.485   3.970
 2081SOL    HW2 7143   0.862   6.445   4.046
 2082SOL     OW 7144   0.741   6.769   3.413
 2082SOL    HW1 7145   0.823   6.720   3.443
 2082SOL    HW2 7146   0.707   6.729   3.328
 2083SOL     OW 7147   1.336   6.050   4.528
 2083SOL    HW1 7148   1.396   6.112   4.478
 2083SOL    HW2 7149   1.341   6.071   4.626
 2084SOL     OW 7150   0.718   3.071   1.764
 2084SOL    HW1 7151   0.675   3.133   1.699
 2084SOL    HW2 7152   0.815   3.062   1.742
 2085SOL     OW 7153   4.879   6.374   0.863
 2085SOL    HW1 7154   4.922   6.327   0.940
 2085SOL    HW2 7155   4.807   6.435   0.898
 2086SOL     OW 7156   3.608   6.054   6.911
 2086SOL    HW1 7157   3.687   6.108   6.940
 2086SOL    HW2 7158   3.613   5.962   6.950
 2087SOL     OW 7159   4.601   2.103   0.254
 2087SOL    HW1 7160   4.508   2.082   0.226
 2087SOL    HW2 7161   4.665   2.070   0.184
 2088SOL     OW 7162   1.436   5.883   5.954
 2088SOL    HW1 7163   1.479   5.890   5.864
 2088SOL    HW2 7164   1.357   5.823   5.949
 2089SOL     OW 7165   4.212   2.226   5.226
 2089SOL    HW1 7166   4.196   2.303   5.164
 2089SOL    HW2 7167   4.270   2.158   5.182
 2090SOL     OW 7168   4.963   3.082   5.459
 2090SOL    HW1 7169   5.002   2.995   5.428
 2090SOL    HW2 7170   4.867   3.068   5.483
 2091SOL     OW 7171   6.597   6.094   0.647
 2091SOL    HW1 7172   6.644   6.025   0.592
 2091SOL    HW2 7173   6.571   6.054   0.735
 2092SOL     OW 7174   5.487   4.092   1.152
 2092SOL    HW1 7175   5.449   4.083   1.243
 2092SOL    HW2 7176   5.447   4.023   1.091
 2093SOL     OW 7177   3.745   1.776   1.992
 2093SOL    HW1 7178   3.660   1.816   2.024
 2093SOL    HW2 7179   3.766   1.694   2.046
 2094SOL     OW 7180   5.303   2.240   0.892
 2094SOL    HW1 7181   5.383   2.262   0.946
 2094SOL    HW2 7182   5.222   2.285   0.931
 2095SOL     OW 7183   6.094   6.409   3.680
 2095SOL    HW1 7184   6.131   6.352   3.753
 2095SOL    HW2 7185   6.062   6.496   3.719
 2096SOL     OW 7186   4.679   5.156   2.731
 2096SOL    HW1 7187   4.618   5.126   2.805
 2096SOL    HW2 7188   4.627   5.211   2.665
 2097SOL     OW 7189   2.884   3.321   0.013
 2097SOL    HW1 7190   2.892   3.419   0.032
 2097SOL    HW2 7191   2.930   3.269   0.085
 2098SOL     OW 7192   3.856   5.590   3.062
 2098SOL    HW1 7193   3.923   5.564   3.131
 2098SOL    HW2 7194   3.769   5.544   3.081
 2099SOL     OW 7195   4.322   1.521   6.751
 2099SOL    HW1 7196   4.222   1.519   6.744
 2099SOL    HW2 7197   4.361   1.456   6.686
 2100SOL     OW 7198   4.916   1.835   0.320
 2100SOL    HW1 7199   5.000   1.865   0.365
 2100SOL    HW2 7200   4.846   1.817   0.389
 2101SOL     OW 7201   6.843   6.311   1.237
 2101SOL    HW1 7202   6.922   6.252   1.253
 2101SOL    HW2 7203   6.874   6.405   1.220
 2102SOL     OW 7204   4.973   3.490   1.525
 2102SOL    HW1 7205   5.002   3.432   1.601
 2102SOL    HW2 7206   4.887   3.536   1.549
 2103SOL     OW 7207   3.497   3.587   0.564
 2103SOL    HW1 7208   3.517   3.567   0.661
 2103SOL    HW2 7209   3.416   3.646   0.558
 2104SOL     OW 7210   1.228   4.849   1.882
 2104SOL    HW1 7211   1.253   4.753   1.871
 2104SOL    HW2 7212   1.292   4.894   1.944
 2105SOL     OW 7213   3.945   4.778   6.601
 2105SOL    HW1 7214   3.919   4.852   6.663
 2105SOL    HW2 7215   3.993   4.816   6.522
 2106SOL     OW 7216   5.180   3.702   1.123
 2106SOL    HW1 7217   5.105   3.765   1.106
 2106SOL    HW2 7218   5.166   3.656   1.211
 2107SOL     OW 7219   6.150   2.787   5.416
 2107SOL    HW1 7220   6.242   2.753   5.438
 2107SOL    HW2 7221   6.082   2.722   5.446
 2108SOL     OW 7222   5.637   6.098   5.678
 2108SOL    HW1 7223   5.561   6.109   5.743
 2108SOL    HW2 7224   5.613   6.143   5.592
 2109SOL     OW 7225   3.250   5.920   1.991
 2109SOL    HW1 7226   3.229   5.829   1.955
 2109SOL    HW2 7227   3.165   5.967   2.013
 2110SOL     OW 7228   3.707   0.517   5.918
 2110SOL    HW1 7229   3.761   0.590   5.961
 2110SOL    HW2 7230   3.618   0.511   5.962
 2111SOL     OW 7231   1.345   2.234   5.108
 2111SOL    HW1 7232   1.435   2.215   5.068
 2111SOL    HW2 7233   1.356   2.257   5.205
 2112SOL     OW 7234   5.443   2.422   6.713
 2112SOL    HW1 7235   5.485   2.346   6.664
 2112SOL    HW2 7236   5.355   2.445   6.670
 2113SOL     OW 7237   2.178   0.229   4.776
 2113SOL    HW1 7238   2.116   0.156   4.803
 2113SOL    HW2 7239   2.135   0.283   4.703
 2114SOL     OW 7240   1.995   2.949   6.867
 2114SOL    HW1 7241   2.072   2.970   6.806
 2114SOL    HW2 7242   1.909   2.971   6.821
 2115SOL     OW 7243   1.265   4.573   1.832
 2115SOL    HW1 7244   1.209   4.510   1.886
 2115SOL    HW2 7245   1.359   4.539   1.828
 2116SOL     OW 7246   1.039   2.952   1.400
 2116SOL    HW1 7247   1.000   2.897   1.326
 2116SOL    HW2 7248   1.139   2.941   1.400
 2117SOL     OW 7249   5.336   3.241   1.796
 2117SOL    HW1 7250   5.287   3.210   1.878
 2117SOL    HW2 7251   5.352   3.164   1.735
 2118SOL     OW 7252   5.964   3.894   2.681
 2118SOL    HW1 7253   6.060   3.915   2.664
 2118SOL    HW2 7254   5.931   3.831   2.612
 2119SOL     OW 7255   1.580   1.486   0.387
 2119SOL    HW1 7256   1.516   1.562   0.398
 2119SOL    HW2 7257   1.598   1.445   0.477
 2120SOL     OW 7258   6.916   2.843   2.660
 2120SOL    HW1 7259   6.969   2.758   2.664
 2120SOL    HW2 7260   6.856   2.841   2.581
 2121SOL     OW 7261   2.002   2.315   6.282
 2121SOL    HW1 7262   2.101   2.308   6.294
 2121SOL    HW2 7263   1.978   2.406   6.248
 2122SOL     OW 7264   5.966   6.767   5.976
 2122SOL    HW1 7265   5.933   6.834   5.909
 2122SOL    HW2 7266   6.059   6.739   5.952
 2123SOL     OW 7267   6.492   6.134   2.429
 2123SOL    HW1 7268   6.532   6.214   2.475
 2123SOL    HW2 7269   6.561   6.089   2.373
 2124SOL     OW 7270   2.869   1.690   5.884
 2124SOL    HW1 7271   2.863   1.760   5.956
 2124SOL    HW2 7272   2.799   1.707   5.816
 2125SOL     OW 7273   1.565   5.935   2.501
 2125SOL    HW1 7274   1.577   5.976   2.591
 2125SOL    HW2 7275   1.588   6.002   2.431
 2126SOL     OW 7276   4.149   2.774   6.735
 2126SOL    HW1 7277   4.057   2.747   6.706
 2126SOL    HW2 7278   4.217   2.732   6.675
 2127SOL     OW 7279   0.720   1.960   5.277
 2127SOL    HW1 7280   0.785   1.891   5.307
 2127SOL    HW2 7281   0.652   1.919   5.217
 2128SOL     OW 7282   6.273   3.050   0.717
 2128SOL    HW1 7283   6.270   3.026   0.620
 2128SOL    HW2 7284   6.203   3.118   0.737
 2129SOL     OW 7285   5.322   4.514   4.314
 2129SOL    HW1 7286   5.248   4.581   4.325
 2129SOL    HW2 7287   5.292   4.427   4.353
 2130SOL     OW 7288   2.318   1.665   1.216
 2130SOL    HW1 7289   2.314   1.643   1.118
 2130SOL    HW2 7290   2.317   1.581   1.269
 2131SOL     OW 7291   5.089   2.439   0.303
 2131SOL    HW1 7292   5.124   2.496   0.378
 2131SOL    HW2 7293   5.087   2.343   0.332
 2132SOL     OW 7294   3.628   1.419   6.752
 2132SOL    HW1 7295   3.643   1.344   6.817
 2132SOL    HW2 7296   3.603   1.502   6.801
 2133SOL     OW 7297   2.665   2.103   1.052
 2133SOL    HW1 7298   2.729   2.129   1.124
 2133SOL    HW2 7299   2.606   2.029   1.084
 2134SOL     OW 7300   1.440   1.137   4.948
 2134SOL    HW1 7301   1.400   1.178   4.866
 2134SOL    HW2 7302   1.428   1.199   5.026
 2135SOL     OW 7303   0.218   1.890   4.378
 2135SOL    HW1 7304   0.273   1.914   4.298
 2135SOL    HW2 7305   0.144   1.828   4.350
 2136SOL     OW 7306   1.289   3.836   4.716
 2136SOL    HW1 7307   1.260   3.902   4.647
 2136SOL    HW2 7308   1.315   3.750   4.672
 2137SOL     OW 7309   0.615   6.755   4.672
 2137SOL    HW1 7310   0.617   6.762   4.572
 2137SOL    HW2 7311   0.571   6.836   4.711
 2138SOL     OW 7312   5.394   3.000   1.702
 2138SOL    HW1 7313   5.479   2.956   1.731
 2138SOL    HW2 7314   5.318   2.935   1.709
 2139SOL     OW 7315   4.413   1.027   3.297
 2139SOL    HW1 7316   4.508   1.000   3.315
 2139SOL    HW2 7317   4.411   1.095   3.223
 2140SOL     OW 7318   2.892   6.387   2.721
 2140SOL    HW1 7319   2.969   6.433   2.765
 2140SOL    HW2 7320   2.912   6.290   2.709
 2141SOL     OW 7321   6.473   3.380   1.658
 2141SOL    HW1 7322   6.528   3.459   1.632
 2141SOL    HW2 7323   6.533   3.304   1.683
 2142SOL     OW 7324   1.054   2.290   3.207
 2142SOL    HW1 7325   1.045   2.390   3.214
 2142SOL    HW2 7326   0.974   2.253   3.160
 2143SOL     OW 7327   3.655   5.791   0.854
 2143SOL    HW1 7328   3.707   5.875   0.870
 2143SOL    HW2 7329   3.630   5.786   0.757
 2144SOL     OW 7330   2.054   0.486   3.175
 2144SOL    HW1 7331   2.038   0.582   3.153
 2144SOL    HW2 7332   2.132   0.453   3.121
 2145SOL     OW 7333   3.592   5.473   4.294
 2145SOL    HW1 7334   3.588   5.410   4.217
 2145SOL    HW2 7335   3.666   5.445   4.356
 2146SOL     OW 7336   3.214   3.836   2.583
 2146SOL    HW1 7337   3.128   3.831   2.532
 2146SOL    HW2 7338   3.199   3.882   2.670
 2147SOL     OW 7339   0.129   1.149   7.002
 2147SOL    HW1 7340   0.133   1.197   0.066
 2147SOL    HW2 7341   0.034   1.128   6.980
 2148SOL     OW 7342   4.836   3.083   4.341
 2148SOL    HW1 7343   4.805   3.171   4.306
 2148SOL    HW2 7344   4.898   3.097   4.418
 2149SOL     OW 7345   4.147   0.312   1.807
 2149SOL    HW1 7346   4.232   0.321   1.755
 2149SOL    HW2 7347   4.118   0.216   1.807
 2150SOL     OW 7348   3.098   2.131   2.694
 2150SOL    HW1 7349   3.011   2.109   2.651
 2150SOL    HW2 7350   3.092   2.115   2.793
 2151SOL     OW 7351   2.840   1.845   5.036
 2151SOL    HW1 7352   2.779   1.783   4.987
 2151SOL    HW2 7353   2.789   1.925   5.068
 2152SOL     OW 7354   4.775   6.272   1.973
 2152SOL    HW1 7355   4.817   6.227   1.894
 2152SOL    HW2 7356   4.788   6.216   2.054
 2153SOL     OW 7357   4.351   0.998   3.697
 2153SOL    HW1 7358   4.390   1.017   3.788
 2153SOL    HW2 7359   4.256   0.969   3.707
 2154SOL     OW 7360   3.345   6.177   4.633
 2154SOL    HW1 7361   3.318   6.226   4.716
 2154SOL    HW2 7362   3.429   6.219   4.596
 2155SOL     OW 7363   1.754   5.000   6.882
 2155SOL    HW1 7364   1.823   4.954   6.827
 2155SOL    HW2 7365   1.789   5.089   6.911
 2156SOL     OW 7366   2.736   0.254   1.725
 2156SOL    HW1 7367   2.719   0.162   1.689
 2156SOL    HW2 7368   2.781   0.247   1.814
 2157SOL     OW 7369   6.314   1.032   4.299
 2157SOL    HW1 7370   6.375   1.020   4.221
 2157SOL    HW2 7371   6.354   0.989   4.380
 2158SOL     OW 7372   3.406   6.554   0.447
 2158SOL    HW1 7373   3.430   6.544   0.544
 2158SOL    HW2 7374   3.308   6.570   0.438
 2159SOL     OW 7375   1.437   5.924   5.588
 2159SOL    HW1 7376   1.413   5.834   5.550
 2159SOL    HW2 7377   1.363   5.988   5.569
 2160SOL     OW 7378   4.338   3.845   1.429
 2160SOL    HW1 7379   4.358   3.878   1.521
 2160SOL    HW2 7380   4.240   3.854   1.411
 2161SOL     OW 7381   4.915   3.526   3.706
 2161SOL    HW1 7382   4.881   3.510   3.799
 2161SOL    HW2 7383   4.887   3.616   3.674
 2162SOL     OW 7384   1.688   0.545   0.382
 2162SOL    HW1 7385   1.773   0.550   0.329
 2162SOL    HW2 7386   1.698   0.601   0.465
 2163SOL     OW 7387   0.731   6.202   6.578
 2163SOL    HW1 7388   0.698   6.125   6.633
 2163SOL    HW2 7389   0.666   6.222   6.505
 2164SOL     OW 7390   1.706   0.875   6.724
 2164SOL    HW1 7391   1.776   0.946   6.724
 2164SOL    HW2 7392   1.615   0.917   6.720
 2165SOL     OW 7393   1.710   1.475   2.145
 2165SOL    HW1 7394   1.781   1.425   2.194
 2165SOL    HW2 7395   1.744   1.502   2.055
 2166SOL     OW 7396   2.220   2.223   5.875
 2166SOL    HW1 7397   2.316   2.248   5.890
 2166SOL    HW2 7398   2.207   2.194   5.780
 2167SOL     OW 7399   2.829   6.941   2.627
 2167SOL    HW1 7400   2.822   0.009   2.665
 2167SOL    HW2 7401   2.851   6.877   2.701
 2168SOL     OW 7402   6.314   2.782   5.188
 2168SOL    HW1 7403   6.375   2.861   5.198
 2168SOL    HW2 7404   6.224   2.805   5.224
 2169SOL     OW 7405   5.351   2.097   6.076
 2169SOL    HW1 7406   5.375   2.194   6.080
 2169SOL    HW2 7407   5.388   2.057   5.992
 2170SOL     OW 7408   5.439   4.450   5.139
 2170SOL    HW1 7409   5.505   4.518   5.105
 2170SOL    HW2 7410   5.382   4.418   5.063
 2171SOL     OW 7411   6.376   2.347   0.085
 2171SOL    HW1 7412   6.339   2.437   0.109
 2171SOL    HW2 7413   6.324   2.276   0.132
 2172SOL     OW 7414   3.302   1.346   0.505
 2172SOL    HW1 7415   3.216   1.358   0.554
 2172SOL    HW2 7416   3.285   1.303   0.416
 2173SOL     OW 7417   3.794   0.323   5.579
 2173SOL    HW1 7418   3.852   0.245   5.599
 2173SOL    HW2 7419   3.724   0.333   5.650
 2174SOL     OW 7420   6.188   4.413   5.914
 2174SOL    HW1 7421   6.089   4.402   5.903
 2174SOL    HW2 7422   6.232   4.407   5.824
 2175SOL     OW 7423   3.250   1.378   2.966
 2175SOL    HW1 7424   3.188   1.415   2.897
 2175SOL    HW2 7425   3.203   1.373   3.054
 2176SOL     OW 7426   1.061   2.142   1.811
 2176SOL    HW1 7427   1.134   2.196   1.853
 2176SOL    HW2 7428   1.100   2.062   1.766
 2177SOL     OW 7429   6.627   0.664   2.201
 2177SOL    HW1 7430   6.643   0.571   2.168
 2177SOL    HW2 7431   6.655   0.671   2.297
 2178SOL     OW 7432   1.289   4.005   0.613
 2178SOL    HW1 7433   1.254   3.914   0.635
 2178SOL    HW2 7434   1.271   4.067   0.690
 2179SOL     OW 7435   2.059   5.664   4.178
 2179SOL    HW1 7436   2.098   5.584   4.132
 2179SOL    HW2 7437   2.114   5.687   4.259
 2180SOL     OW 7438   2.923   3.317   2.695
 2180SOL    HW1 7439   2.887   3.231   2.732
 2180SOL    HW2 7440   2.927   3.311   2.595
 2181SOL     OW 7441   4.296   4.308   5.857
 2181SOL    HW1 7442   4.241   4.251   5.795
 2181SOL    HW2 7443   4.241   4.331   5.938
 2182SOL     OW 7444   0.215   3.725   6.507
 2182SOL    HW1 7445   0.284   3.744   6.437
 2182SOL    HW2 7446   0.134   3.685   6.464
 2183SOL     OW 7447   3.465   2.895   0.712
 2183SOL    HW1 7448   3.469   2.820   0.646
 2183SOL    HW2 7449   3.420   2.864   0.796
 2184SOL     OW 7450   3.799   0.265   5.945
 2184SOL    HW1 7451   3.759   0.357   5.941
 2184SOL    HW2 7452   3.897   0.273   5.963
 2185SOL     OW 7453   1.750   1.794   1.270
 2185SOL    HW1 7454   1.708   1.878   1.305
 2185SOL    HW2 7455   1.816   1.817   1.199
 2186SOL     OW 7456   6.886   4.437   2.496
 2186SOL    HW1 7457   6.830   4.381   2.558
 2186SOL    HW2 7458   6.837   4.521   2.473
 2187SOL     OW 7459   0.600   1.228   1.769
 2187SOL    HW1 7460   0.506   1.204   1.791
 2187SOL    HW2 7461   0.625   1.188   1.680
 2188SOL     OW 7462   4.764   5.968   3.756
 2188SOL    HW1 7463   4.832   5.933   3.693
 2188SOL    HW2 7464   4.733   5.895   3.817
 2189SOL     OW 7465   1.306   6.807   6.041
 2189SOL    HW1 7466   1.259   6.765   6.119
 2189SOL    HW2 7467   1.242   6.863   5.989
 2190SOL     OW 7468   5.907   3.025   1.650
 2190SOL    HW1 7469   5.996   2.989   1.677
 2190SOL    HW2 7470   5.854   3.049   1.732
 2191SOL     OW 7471   3.368   2.011   5.970
 2191SOL    HW1 7472   3.312   2.016   6.053
 2191SOL    HW2 7473   3.334   2.078   5.903
 2192SOL     OW 7474   4.638   6.845   5.382
 2192SOL    HW1 7475   4.614   6.861   5.478
 2192SOL    HW2 7476   4.557   6.815   5.331
 2193SOL     OW 7477   6.943   5.414   5.968
 2193SOL    HW1 7478   6.899   5.426   6.057
 2193SOL    HW2 7479   6.938   5.318   5.940
 2194SOL     OW 7480   1.996   5.775   0.416
 2194SOL    HW1 7481   2.092   5.752   0.399
 2194SOL    HW2 7482   1.953   5.700   0.468
 2195SOL     OW 7483   0.152   6.500   2.000
 2195SOL    HW1 7484   0.112   6.587   1.971
 2195SOL    HW2 7485   0.111   6.425   1.947
 2196SOL     OW 7486   2.464   0.432   5.620
 2196SOL    HW1 7487   2.516   0.516   5.609
 2196SOL    HW2 7488   2.470   0.400   5.714
 2197SOL     OW 7489   4.856   4.203   1.550
 2197SOL    HW1 7490   4.777   4.162   1.594
 2197SOL    HW2 7491   4.914   4.247   1.619
 2198SOL     OW 7492   0.082   3.468   6.863
 2198SOL    HW1 7493   0.171   3.454   6.819
 2198SOL    HW2 7494   0.093   3.465   6.962
 2199SOL     OW 7495   5.357   6.887   1.111
 2199SOL    HW1 7496   5.449   6.865   1.078
 2199SOL    HW2 7497   5.292   6.882   1.036
 2200SOL     OW 7498   4.270   0.522   4.551
 2200SOL    HW1 7499   4.291   0.612   4.588
 2200SOL    HW2 7500   4.268   0.527   4.451
 2201SOL     OW 7501   5.612   3.857   2.238
 2201SOL    HW1 7502   5.678   3.827   2.169
 2201SOL    HW2 7503   5.558   3.779   2.270
 2202SOL     OW 7504   3.261   5.020   4.158
 2202SOL    HW1 7505   3.263   5.119   4.170
 2202SOL    HW2 7506   3.170   4.986   4.184
 2203SOL     OW 7507   3.018   2.062   2.963
 2203SOL    HW1 7508   3.056   2.115   3.038
 2203SOL    HW2 7509   3.083   1.992   2.934
 2204SOL     OW 7510   3.929   0.999   6.721
 2204SOL    HW1 7511   3.853   0.971   6.663
 2204SOL    HW2 7512   4.009   0.941   6.703
 2205SOL     OW 7513   1.522   0.612   0.032
 2205SOL    HW1 7514   1.513   0.523   0.076
 2205SOL    HW2 7515   1.618   0.640   0.031
 2206SOL     OW 7516   3.342   3.829   5.524
 2206SOL    HW1 7517   3.273   3.759   5.539
 2206SOL    HW2 7518   3.298   3.918   5.516
 2207SOL     OW 7519   0.890   4.267   6.239
 2207SOL    HW1 7520   0.830   4.332   6.193
 2207SOL    HW2 7521   0.835   4.194   6.281
 2208SOL     OW 7522   1.474   4.255   2.334
 2208SOL    HW1 7523   1.532   4.335   2.348
 2208SOL    HW2 7524   1.403   4.277   2.267
 2209SOL     OW 7525   1.580   5.944   6.204
 2209SOL    HW1 7526   1.545   5.893   6.126
 2209SOL    HW2 7527   1.604   5.881   6.278
 2210SOL     OW 7528   1.040   5.202   2.802
 2210SOL    HW1 7529   0.984   5.285   2.800
 2210SOL    HW2 7530   0.988   5.128   2.844
 2211SOL     OW 7531   6.144   1.589   5.431
 2211SOL    HW1 7532   6.091   1.596   5.346
 2211SOL    HW2 7533   6.229   1.538   5.413
 2212SOL     OW 7534   0.636   6.193   6.235
 2212SOL    HW1 7535   0.651   6.288   6.206
 2212SOL    HW2 7536   0.687   6.132   6.174
 2213SOL     OW 7537   4.245   2.336   4.238
 2213SOL    HW1 7538   4.218   2.316   4.144
 2213SOL    HW2 7539   4.173   2.306   4.301
 2214SOL     OW 7540   4.627   0.599   5.587
 2214SOL    HW1 7541   4.709   0.601   5.644
 2214SOL    HW2 7542   4.639   0.660   5.508
 2215SOL     OW 7543   6.891   1.830   5.593
 2215SOL    HW1 7544   6.989   1.819   5.574
 2215SOL    HW2 7545   6.847   1.740   5.591
 2216SOL     OW 7546   1.049   0.707   0.653
 2216SOL    HW1 7547   1.056   0.638   0.725
 2216SOL    HW2 7548   1.042   0.661   0.564
 2217SOL     OW 7549   3.980   0.179   0.893
 2217SOL    HW1 7550   4.038   0.139   0.964
 2217SOL    HW2 7551   4.034   0.194   0.810
 2218SOL     OW 7552   0.991   6.509   0.166
 2218SOL    HW1 7553   1.072   6.456   0.191
 2218SOL    HW2 7554   1.019   6.598   0.130
 2219SOL     OW 7555   1.572   3.585   2.731
 2219SOL    HW1 7556   1.608   3.646   2.801
 2219SOL    HW2 7557   1.585   3.490   2.760
 2220SOL     OW 7558   0.234   1.399   4.562
 2220SOL    HW1 7559   0.158   1.382   4.501
 2220SOL    HW2 7560   0.212   1.365   4.654
 2221SOL     OW 7561   6.468   2.147   1.068
 2221SOL    HW1 7562   6.508   2.199   1.143
 2221SOL    HW2 7563   6.528   2.071   1.044
 2222SOL     OW 7564   4.239   0.547   1.264
 2222SOL    HW1 7565   4.186   0.521   1.345
 2222SOL    HW2 7566   4.232   0.476   1.195
 2223SOL     OW 7567   5.981   4.984   3.490
 2223SOL    HW1 7568   5.907   5.044   3.461
 2223SOL    HW2 7569   5.948   4.919   3.559
 2224SOL     OW 7570   1.990   4.716   1.356
 2224SOL    HW1 7571   1.939   4.717   1.270
 2224SOL    HW2 7572   1.929   4.689   1.430
 2225SOL     OW 7573   5.803   4.829   2.409
 2225SOL    HW1 7574   5.784   4.878   2.324
 2225SOL    HW2 7575   5.878   4.765   2.394
 2226SOL     OW 7576   3.791   3.445   1.004
 2226SOL    HW1 7577   3.863   3.461   0.936
 2226SOL    HW2 7578   3.782   3.347   1.022
 2227SOL     OW 7579   6.192   4.023   6.307
 2227SOL    HW1 7580   6.250   4.095   6.269
 2227SOL    HW2 7581   6.096   4.050   6.299
 2228SOL     OW 7582   3.104   5.497   0.372
 2228SOL    HW1 7583   3.036   5.507   0.445
 2228SOL    HW2 7584   3.087   5.567   0.302
 2229SOL     OW 7585   4.683   1.614   4.252
 2229SOL    HW1 7586   4.659   1.681   4.322
 2229SOL    HW2 7587   4.781   1.595   4.256
 2230SOL     OW 7588   1.401   5.410   3.834
 2230SOL    HW1 7589   1.412   5.335   3.900
 2230SOL    HW2 7590   1.414   5.374   3.741
 2231SOL     OW 7591   2.045   1.655   2.306
 2231SOL    HW1 7592   1.962   1.674   2.357
 2231SOL    HW2 7593   2.025   1.652   2.208
 2232SOL     OW 7594   0.580   3.289   3.790
 2232SOL    HW1 7595   0.658   3.337   3.829
 2232SOL    HW2 7596   0.585   3.293   3.690
 2233SOL     OW 7597   4.009   5.308   6.531
 2233SOL    HW1 7598   3.934   5.301   6.467
 2233SOL    HW2 7599   4.094   5.330   6.482
 2234SOL     OW 7600   3.771   2.624   0.920
 2234SOL    HW1 7601   3.718   2.589   0.842
 2234SOL    HW2 7602   3.806   2.547   0.973
 2235SOL     OW 7603   1.182   0.051   6.754
 2235SOL    HW1 7604   1.184   0.025   6.851
 2235SOL    HW2 7605   1.092   0.031   6.716
 2236SOL     OW 7606   0.621   4.227   0.879
 2236SOL    HW1 7607   0.575   4.138   0.886
 2236SOL    HW2 7608   0.686   4.237   0.954
 2237SOL     OW 7609   6.745   3.625   4.327
 2237SOL    HW1 7610   6.759   3.718   4.291
 2237SOL    HW2 7611   6.682   3.629   4.404
 2238SOL     OW 7612   7.019   5.464   2.000
 2238SOL    HW1 7613   0.078   5.410   1.993
 2238SOL    HW2 7614   7.011   5.503   2.092
 2239SOL     OW 7615   4.204   4.654   3.927
 2239SOL    HW1 7616   4.134   4.676   3.994
 2239SOL    HW2 7617   4.272   4.593   3.967
 2240SOL     OW 7618   6.416   5.270   3.217
 2240SOL    HW1 7619   6.340   5.334   3.215
 2240SOL    HW2 7620   6.381   5.177   3.224
 2241SOL     OW 7621   0.442   6.479   2.376
 2241SOL    HW1 7622   0.486   6.550   2.431
 2241SOL    HW2 7623   0.484   6.477   2.285
 2242SOL     OW 7624   5.487   1.447   2.903
 2242SOL    HW1 7625   5.425   1.378   2.941
 2242SOL    HW2 7626   5.565   1.458   2.965
 2243SOL     OW 7627   2.601   6.067   5.176
 2243SOL    HW1 7628   2.666   6.073   5.100
 2243SOL    HW2 7629   2.602   5.975   5.214
 2244SOL     OW 7630   4.188   0.768   3.568
 2244SOL    HW1 7631   4.263   0.721   3.615
 2244SOL    HW2 7632   4.222   0.811   3.484
 2245SOL     OW 7633   0.023   2.006   2.180
 2245SOL    HW1 7634   0.069   2.087   2.145
 2245SOL    HW2 7635   0.018   1.936   2.109
 2246SOL     OW 7636   1.808   2.940   5.502
 2246SOL    HW1 7637   1.853   2.988   5.427
 2246SOL    HW2 7638   1.794   3.004   5.578
 2247SOL     OW 7639   2.712   2.090   5.205
 2247SOL    HW1 7640   2.796   2.139   5.181
 2247SOL    HW2 7641   2.711   2.072   5.303
 2248SOL     OW 7642   5.381   3.793   5.518
 2248SOL    HW1 7643   5.301   3.757   5.471
 2248SOL    HW2 7644   5.353   3.837   5.604
 2249SOL     OW 7645   5.674   6.055   2.868
 2249SOL    HW1 7646   5.628   6.073   2.781
 2249SOL    HW2 7647   5.631   6.108   2.941
 2250SOL     OW 7648   5.162   3.885   1.385
 2250SOL    HW1 7649   5.139   3.801   1.433
 2250SOL    HW2 7650   5.184   3.864   1.289
 2251SOL     OW 7651   6.109   1.359   0.109
 2251SOL    HW1 7652   6.163   1.324   0.032
 2251SOL    HW2 7653   6.155   1.335   0.194
 2252SOL     OW 7654   5.916   3.283   5.537
 2252SOL    HW1 7655   6.001   3.332   5.558
 2252SOL    HW2 7656   5.927   3.187   5.560
 2253SOL     OW 7657   1.656   3.138   6.137
 2253SOL    HW1 7658   1.583   3.134   6.069
 2253SOL    HW2 7659   1.745   3.126   6.092
 2254SOL     OW 7660   2.536   3.369   6.095
 2254SOL    HW1 7661   2.438   3.386   6.107
 2254SOL    HW2 7662   2.553   3.328   6.005
 2255SOL     OW 7663   6.130   2.725   1.957
 2255SOL    HW1 7664   6.147   2.650   1.892
 2255SOL    HW2 7665   6.031   2.735   1.972
 2256SOL     OW 7666   3.176   5.211   1.861
 2256SOL    HW1 7667   3.114   5.242   1.933
 2256SOL    HW2 7668   3.178   5.111   1.860
 2257SOL     OW 7669   1.679   3.250   4.147
 2257SOL    HW1 7670   1.775   3.221   4.156
 2257SOL    HW2 7671   1.665   3.332   4.203
 2258SOL     OW 7672   1.561   4.844   4.941
 2258SOL    HW1 7673   1.618   4.875   4.865
 2258SOL    HW2 7674   1.619   4.818   5.018
 2259SOL     OW 7675   5.642   4.365   6.665
 2259SOL    HW1 7676   5.569   4.340   6.728
 2259SOL    HW2 7677   5.728   4.370   6.714
 2260SOL     OW 7678   4.281   4.665   2.729
 2260SOL    HW1 7679   4.369   4.683   2.773
 2260SOL    HW2 7680   4.293   4.671   2.629
 2261SOL     OW 7681   5.391   6.577   0.873
 2261SOL    HW1 7682   5.361   6.665   0.837
 2261SOL    HW2 7683   5.434   6.524   0.800
 2262SOL     OW 7684   5.694   1.891   3.939
 2262SOL    HW1 7685   5.677   1.984   3.971
 2262SOL    HW2 7686   5.678   1.827   4.015
 2263SOL     OW 7687   2.202   5.714   6.085
 2263SOL    HW1 7688   2.286   5.768   6.085
 2263SOL    HW2 7689   2.143   5.745   6.010
 2264SOL     OW 7690   2.938   3.648   2.354
 2264SOL    HW1 7691   2.895   3.581   2.294
 2264SOL    HW2 7692   3.032   3.620   2.372
 2265SOL     OW 7693   0.351   1.144   2.882
 2265SOL    HW1 7694   0.265   1.113   2.840
 2265SOL    HW2 7695   0.413   1.176   2.810
 2266SOL     OW 7696   6.584   1.305   0.830
 2266SOL    HW1 7697   6.618   1.220   0.790
 2266SOL    HW2 7698   6.661   1.360   0.862
 2267SOL     OW 7699   5.575   2.605   4.865
 2267SOL    HW1 7700   5.652   2.542   4.869
 2267SOL    HW2 7701   5.576   2.664   4.946
 2268SOL     OW 7702   6.684   5.891   0.460
 2268SOL    HW1 7703   6.747   5.816   0.481
 2268SOL    HW2 7704   6.703   5.925   0.368
 2269SOL     OW 7705   5.863   5.437   5.478
 2269SOL    HW1 7706   5.951   5.395   5.452
 2269SOL    HW2 7707   5.794   5.413   5.409
 2270SOL     OW 7708   3.492   3.726   1.599
 2270SOL    HW1 7709   3.425   3.800   1.604
 2270SOL    HW2 7710   3.584   3.765   1.594
 2271SOL     OW 7711   5.950   4.579   1.504
 2271SOL    HW1 7712   5.979   4.485   1.489
 2271SOL    HW2 7713   6.029   4.640   1.494
 2272SOL     OW 7714   5.742   2.421   4.773
 2272SOL    HW1 7715   5.802   2.416   4.694
 2272SOL    HW2 7716   5.662   2.362   4.759
 2273SOL     OW 7717   1.329   1.240   3.247
 2273SOL    HW1 7718   1.239   1.242   3.289
 2273SOL    HW2 7719   1.321   1.256   3.149
 2274SOL     OW 7720   1.681   3.856   4.790
 2274SOL    HW1 7721   1.666   3.760   4.766
 2274SOL    HW2 7722   1.691   3.864   4.889
 2275SOL     OW 7723   5.027   6.128   4.533
 2275SOL    HW1 7724   5.038   6.037   4.493
 2275SOL    HW2 7725   4.929   6.150   4.537
 2276SOL     OW 7726   3.845   4.779   1.124
 2276SOL    HW1 7727   3.751   4.809   1.138
 2276SOL    HW2 7728   3.846   4.683   1.096
 2277SOL     OW 7729   3.354   3.300   4.926
 2277SOL    HW1 7730   3.308   3.222   4.883
 2277SOL    HW2 7731   3.426   3.334   4.865
 2278SOL     OW 7732   4.581   6.043   3.071
 2278SOL    HW1 7733   4.617   6.131   3.104
 2278SOL    HW2 7734   4.631   5.969   3.116
 2279SOL     OW 7735   5.273   4.219   4.342
 2279SOL    HW1 7736   5.346   4.235   4.276
 2279SOL    HW2 7737   5.263   4.121   4.357
 2280SOL     OW 7738   6.601   6.337   5.048
 2280SOL    HW1 7739   6.568   6.316   5.140
 2280SOL    HW2 7740   6.647   6.257   5.010
 2281SOL     OW 7741   3.614   2.103   1.757
 2281SOL    HW1 7742   3.666   2.171   1.808
 2281SOL    HW2 7743   3.599   2.136   1.664
 2282SOL     OW 7744   4.908   5.760   4.725
 2282SOL    HW1 7745   4.909   5.663   4.750
 2282SOL    HW2 7746   4.999   5.787   4.694
 2283SOL     OW 7747   6.854   3.683   2.751
 2283SOL    HW1 7748   6.946   3.649   2.768
 2283SOL    HW2 7749   6.814   3.714   2.838
 2284SOL     OW 7750   2.502   2.239   2.018
 2284SOL    HW1 7751   2.411   2.244   2.060
 2284SOL    HW2 7752   2.564   2.299   2.068
 2285SOL     OW 7753   1.462   3.885   0.887
 2285SOL    HW1 7754   1.537   3.913   0.947
 2285SOL    HW2 7755   1.499   3.854   0.800
 2286SOL     OW 7756   6.739   5.699   5.231
 2286SOL    HW1 7757   6.673   5.720   5.303
 2286SOL    HW2 7758   6.717   5.611   5.189
 2287SOL     OW 7759   2.243   2.923   1.519
 2287SOL    HW1 7760   2.208   2.831   1.533
 2287SOL    HW2 7761   2.182   2.974   1.459
 2288SOL     OW 7762   0.879   5.687   3.652
 2288SOL    HW1 7763   0.889   5.615   3.719
 2288SOL    HW2 7764   0.828   5.652   3.572
 2289SOL     OW 7765   5.503   1.891   1.862
 2289SOL    HW1 7766   5.494   1.866   1.959
 2289SOL    HW2 7767   5.466   1.983   1.848
 2290SOL     OW 7768   2.914   3.291   3.121
 2290SOL    HW1 7769   2.936   3.307   3.025
 2290SOL    HW2 7770   2.945   3.369   3.176
 2291SOL     OW 7771   2.042   2.255   1.811
 2291SOL    HW1 7772   2.016   2.295   1.722
 2291SOL    HW2 7773   2.103   2.177   1.795
 2292SOL     OW 7774   5.206   2.857   3.728
 2292SOL    HW1 7775   5.221   2.917   3.650
 2292SOL    HW2 7776   5.163   2.908   3.803
 2293SOL     OW 7777   5.613   1.270   0.710
 2293SOL    HW1 7778   5.520   1.298   0.686
 2293SOL    HW2 7779   5.616   1.170   0.720
 2294SOL     OW 7780   2.759   1.743   5.584
 2294SOL    HW1 7781   2.772   1.647   5.562
 2294SOL    HW2 7782   2.846   1.792   5.575
 2295SOL     OW 7783   6.863   0.834   1.626
 2295SOL    HW1 7784   6.841   0.784   1.543
 2295SOL    HW2 7785   6.899   0.770   1.695
 2296SOL     OW 7786   2.957   5.158   3.239
 2296SOL    HW1 7787   2.879   5.216   3.265
 2296SOL    HW2 7788   2.925   5.086   3.177
 2297SOL     OW 7789   5.278   4.769   5.808
 2297SOL    HW1 7790   5.269   4.785   5.906
 2297SOL    HW2 7791   5.321   4.680   5.793
 2298SOL     OW 7792   4.052   3.812   3.524
 2298SOL    HW1 7793   3.967   3.821   3.472
 2298SOL    HW2 7794   4.128   3.845   3.468
 2299SOL     OW 7795   4.981   3.695   4.758
 2299SOL    HW1 7796   4.936   3.718   4.672
 2299SOL    HW2 7797   4.916   3.650   4.819
 2300SOL     OW 7798   3.212   6.719   3.691
 2300SOL    HW1 7799   3.196   6.815   3.669
 2300SOL    HW2 7800   3.146   6.662   3.641
 2301SOL     OW 7801   3.355   3.024   4.201
 2301SOL    HW1 7802   3.421   3.020   4.126
 2301SOL    HW2 7803   3.397   2.987   4.284
 2302SOL     OW 7804   3.994   0.993   0.170
 2302SOL    HW1 7805   3.928   0.933   0.215
 2302SOL    HW2 7806   3.951   1.080   0.149
 2303SOL     OW 7807   2.089   2.862   1.064
 2303SOL    HW1 7808   2.121   2.930   0.998
 2303SOL    HW2 7809   2.167   2.831   1.119
 2304SOL     OW 7810   6.601   5.653   4.018
 2304SOL    HW1 7811   6.606   5.719   3.944
 2304SOL    HW2 7812   6.618   5.699   4.105
 2305SOL     OW 7813   1.602   0.966   3.752
 2305SOL    HW1 7814   1.687   0.966   3.700
 2305SOL    HW2 7815   1.536   0.904   3.709
 2306SOL     OW 7816   1.583   5.158   2.411
 2306SOL    HW1 7817   1.683   5.159   2.402
 2306SOL    HW2 7818   1.545   5.087   2.351
 2307SOL     OW 7819   1.392   2.795   5.279
 2307SOL    HW1 7820   1.306   2.797   5.330
 2307SOL    HW2 7821   1.374   2.773   5.183
 2308SOL     OW 7822   2.091   4.989   1.011
 2308SOL    HW1 7823   2.189   4.987   0.992
 2308SOL    HW2 7824   2.075   4.972   1.108
 2309SOL     OW 7825   1.557   0.431   4.295
 2309SOL    HW1 7826   1.614   0.373   4.354
 2309SOL    HW2 7827   1.612   0.505   4.257
 2310SOL     OW 7828   5.348   6.744   2.406
 2310SOL    HW1 7829   5.371   6.808   2.333
 2310SOL    HW2 7830   5.368   6.785   2.495
 2311SOL     OW 7831   2.055   6.021   0.594
 2311SOL    HW1 7832   1.993   6.039   0.518
 2311SOL    HW2 7833   2.053   5.924   0.618
 2312SOL     OW 7834   3.625   5.269   3.169
 2312SOL    HW1 7835   3.704   5.232   3.216
 2312SOL    HW2 7836   3.630   5.247   3.072
 2313SOL     OW 7837   5.098   5.335   2.347
 2313SOL    HW1 7838   5.035   5.265   2.313
 2313SOL    HW2 7839   5.053   5.425   2.344
 2314SOL     OW 7840   3.519   5.841   3.295
 2314SOL    HW1 7841   3.587   5.898   3.343
 2314SOL    HW2 7842   3.548   5.746   3.298
 2315SOL     OW 7843   4.800   3.069   6.409
 2315SOL    HW1 7844   4.877   3.098   6.352
 2315SOL    HW2 7845   4.716   3.073   6.355
 2316SOL     OW 7846   4.872   2.701   3.393
 2316SOL    HW1 7847   4.827   2.612   3.394
 2316SOL    HW2 7848   4.962   2.694   3.435
 2317SOL     OW 7849   0.805   4.652   2.468
 2317SOL    HW1 7850   0.834   4.669   2.562
 2317SOL    HW2 7851   0.757   4.564   2.463
 2318SOL     OW 7852   0.622   2.264   3.598
 2318SOL    HW1 7853   0.593   2.254   3.693
 2318SOL    HW2 7854   0.573   2.340   3.556
 2319SOL     OW 7855   2.206   4.094   4.784
 2319SOL    HW1 7856   2.257   4.086   4.870
 2319SOL    HW2 7857   2.108   4.100   4.804
 2320SOL     OW 7858   0.211   2.237   4.071
 2320SOL    HW1 7859   0.158   2.159   4.037
 2320SOL    HW2 7860   0.308   2.223   4.052
 2321SOL     OW 7861   3.070   0.479   5.030
 2321SOL    HW1 7862   3.099   0.570   5.061
 2321SOL    HW2 7863   3.096   0.411   5.098
 2322SOL     OW 7864   1.308   1.934   5.692
 2322SOL    HW1 7865   1.389   1.877   5.678
 2322SOL    HW2 7866   1.262   1.949   5.605
 2323SOL     OW 7867   4.199   5.632   3.285
 2323SOL    HW1 7868   4.213   5.702   3.214
 2323SOL    HW2 7869   4.228   5.668   3.374
 2324SOL     OW 7870   1.017   6.416   2.309
 2324SOL    HW1 7871   1.032   6.508   2.272
 2324SOL    HW2 7872   1.062   6.408   2.398
 2325SOL     OW 7873   0.744   3.989   1.694
 2325SOL    HW1 7874   0.782   4.074   1.731
 2325SOL    HW2 7875   0.678   3.950   1.758
 2326SOL     OW 7876   1.734   3.890   6.506
 2326SOL    HW1 7877   1.829   3.905   6.530
 2326SOL    HW2 7878   1.696   3.971   6.461
 2327SOL     OW 7879   4.790   2.840   4.512
 2327SOL    HW1 7880   4.818   2.923   4.463
 2327SOL    HW2 7881   4.717   2.794   4.462
 2328SOL     OW 7882   5.069   1.271   3.077
 2328SOL    HW1 7883   5.011   1.325   3.138
 2328SOL    HW2 7884   5.150   1.240   3.126
 2329SOL     OW 7885   1.294   5.611   4.056
 2329SOL    HW1 7886   1.335   5.554   3.984
 2329SOL    HW2 7887   1.207   5.648   4.023
 2330SOL     OW 7888   0.368   4.993   1.451
 2330SOL    HW1 7889   0.389   5.084   1.415
 2330SOL    HW2 7890   0.452   4.953   1.488
 2331SOL     OW 7891   0.250   4.205   5.167
 2331SOL    HW1 7892   0.156   4.179   5.188
 2331SOL    HW2 7893   0.280   4.160   5.083
 2332SOL     OW 7894   5.018   2.857   6.093
 2332SOL    HW1 7895   5.090   2.816   6.149
 2332SOL    HW2 7896   5.053   2.939   6.049
 2333SOL     OW 7897   0.868   5.030   2.926
 2333SOL    HW1 7898   0.834   4.975   2.850
 2333SOL    HW2 7899   0.798   5.096   2.954
 2334SOL     OW 7900   3.577   0.069   6.729
 2334SOL    HW1 7901   3.668   0.108   6.738
 2334SOL    HW2 7902   3.576   7.002   6.771
 2335SOL     OW 7903   5.687   0.628   3.395
 2335SOL    HW1 7904   5.606   0.615   3.338
 2335SOL    HW2 7905   5.729   0.715   3.373
 2336SOL     OW 7906   4.889   1.118   5.710
 2336SOL    HW1 7907   4.793   1.111   5.683
 2336SOL    HW2 7908   4.939   1.169   5.640
 2337SOL     OW 7909   5.698   0.705   2.977
 2337SOL    HW1 7910   5.760   0.627   2.981
 2337SOL    HW2 7911   5.738   0.782   3.025
 2338SOL     OW 7912   6.590   6.445   6.997
 2338SOL    HW1 7913   6.630   6.535   7.010
 2338SOL    HW2 7914   6.659   6.383   6.959
 2339SOL     OW 7915   3.647   4.336   6.046
 2339SOL    HW1 7916   3.580   4.394   5.999
 2339SOL    HW2 7917   3.606   4.296   6.127
 2340SOL     OW 7918   3.400   6.035   5.486
 2340SOL    HW1 7919   3.476   6.075   5.435
 2340SOL    HW2 7920   3.418   6.044   5.584
 2341SOL     OW 7921   6.126   4.690   0.729
 2341SOL    HW1 7922   6.112   4.592   0.714
 2341SOL    HW2 7923   6.120   4.710   0.826
 2342SOL     OW 7924   0.013   6.390   5.495
 2342SOL    HW1 7925   6.971   6.314   5.492
 2342SOL    HW2 7926   0.078   6.374   5.569
 2343SOL     OW 7927   1.043   6.423   0.965
 2343SOL    HW1 7928   1.136   6.455   0.951
 2343SOL    HW2 7929   1.036   6.327   0.935
 2344SOL     OW 7930   2.808   1.600   2.789
 2344SOL    HW1 7931   2.731   1.548   2.754
 2344SOL    HW2 7932   2.780   1.650   2.871
 2345SOL     OW 7933   1.604   0.591   4.781
 2345SOL    HW1 7934   1.546   0.541   4.846
 2345SOL    HW2 7935   1.657   0.660   4.830
 2346SOL     OW 7936   4.675   3.042   5.454
 2346SOL    HW1 7937   4.638   3.046   5.547
 2346SOL    HW2 7938   4.605   3.069   5.388
 2347SOL     OW 7939   1.505   3.674   2.089
 2347SOL    HW1 7940   1.604   3.667   2.084
 2347SOL    HW2 7941   1.467   3.673   1.997
 2348SOL     OW 7942   2.269   6.576   3.558
 2348SOL    HW1 7943   2.368   6.585   3.570
 2348SOL    HW2 7944   2.222   6.637   3.621
 2349SOL     OW 7945   6.867   6.719   5.799
 2349SOL    HW1 7946   6.876   6.666   5.884
 2349SOL    HW2 7947   6.826   6.662   5.728
 2350SOL     OW 7948   3.175   1.076   5.508
 2350SOL    HW1 7949   3.263   1.124   5.505
 2350SOL    HW2 7950   3.170   1.022   5.592
 2351SOL     OW 7951   2.653   5.185   3.671
 2351SOL    HW1 7952   2.584   5.183   3.744
 2351SOL    HW2 7953   2.739   5.222   3.707
 2352SOL     OW 7954   6.391   4.031   3.158
 2352SOL    HW1 7955   6.318   3.962   3.157
 2352SOL    HW2 7956   6.433   4.036   3.067
 2353SOL     OW 7957   2.522   4.036   5.649
 2353SOL    HW1 7958   2.441   4.068   5.600
 2353SOL    HW2 7959   2.593   4.107   5.643
 2354SOL     OW 7960   3.658   2.700   0.036
 2354SOL    HW1 7961   3.605   2.785   0.048
 2354SOL    HW2 7962   3.754   2.723   0.022
 2355SOL     OW 7963   0.407   6.924   0.897
 2355SOL    HW1 7964   0.435   7.003   0.843
 2355SOL    HW2 7965   0.487   6.866   0.915
 2356SOL     OW 7966   2.413   4.988   2.382
 2356SOL    HW1 7967   2.498   5.019   2.426
 2356SOL    HW2 7968   2.433   4.954   2.290
 2357SOL     OW 7969   5.525   4.660   3.153
 2357SOL    HW1 7970   5.549   4.755   3.131
 2357SOL    HW2 7971   5.590   4.624   3.220
 2358SOL     OW 7972   3.402   0.076   4.392
 2358SOL    HW1 7973   3.321   0.029   4.358
 2358SOL    HW2 7974   3.461   0.101   4.315
 2359SOL     OW 7975   2.421   1.664   5.889
 2359SOL    HW1 7976   2.502   1.684   5.943
 2359SOL    HW2 7977   2.448   1.635   5.797
 2360SOL     OW 7978   3.865   4.455   0.625
 2360SOL    HW1 7979   3.778   4.460   0.673
 2360SOL    HW2 7980   3.934   4.412   0.683
 2361SOL     OW 7981   3.155   6.762   3.004
 2361SOL    HW1 7982   3.246   6.803   3.017
 2361SOL    HW2 7983   3.103   6.768   3.089
 2362SOL     OW 7984   4.245   5.855   4.771
 2362SOL    HW1 7985   4.321   5.789   4.773
 2362SOL    HW2 7986   4.252   5.916   4.850
 2363SOL     OW 7987   3.763   1.963   6.504
 2363SOL    HW1 7988   3.766   2.048   6.557
 2363SOL    HW2 7989   3.669   1.946   6.474
 2364SOL     OW 7990   5.309   1.599   1.835
 2364SOL    HW1 7991   5.279   1.624   1.927
 2364SOL    HW2 7992   5.377   1.526   1.841
 2365SOL     OW 7993   5.328   3.690   4.644
 2365SOL    HW1 7994   5.364   3.608   4.688
 2365SOL    HW2 7995   5.282   3.664   4.559
 2366SOL     OW 7996   1.779   4.189   5.392
 2366SOL    HW1 7997   1.738   4.097   5.392
 2366SOL    HW2 7998   1.724   4.248   5.333
 2367SOL     OW 7999   1.264   3.633   5.691
 2367SOL    HW1 8000   1.274   3.646   5.593
 2367SOL    HW2 8001   1.353   3.616   5.733
 2368SOL     OW 8002   4.612   1.029   4.363
 2368SOL    HW1 8003   4.616   0.968   4.283
 2368SOL    HW2 8004   4.615   1.124   4.332
 2369SOL     OW 8005   3.822   1.740   3.257
 2369SOL    HW1 8006   3.877   1.676   3.204
 2369SOL    HW2 8007   3.726   1.712   3.254
 2370SOL     OW 8008   4.813   2.507   0.698
 2370SOL    HW1 8009   4.846   2.578   0.635
 2370SOL    HW2 8010   4.884   2.439   0.712
 2371SOL     OW 8011   0.798   6.883   2.548
 2371SOL    HW1 8012   0.872   6.816   2.542
 2371SOL    HW2 8013   0.783   6.906   2.644
 2372SOL     OW 8014   6.573   1.117   6.089
 2372SOL    HW1 8015   6.579   1.176   6.009
 2372SOL    HW2 8016   6.588   1.171   6.172
 2373SOL     OW 8017   5.887   0.926   6.360
 2373SOL    HW1 8018   5.833   1.011   6.361
 2373SOL    HW2 8019   5.969   0.940   6.305
 2374SOL     OW 8020   6.205   5.726   3.185
 2374SOL    HW1 8021   6.139   5.800   3.174
 2374SOL    HW2 8022   6.169   5.642   3.142
 2375SOL     OW 8023   0.688   0.601   3.974
 2375SOL    HW1 8024   0.630   0.528   4.009
 2375SOL    HW2 8025   0.665   0.619   3.878
 2376SOL     OW 8026   0.098   2.192   3.415
 2376SOL    HW1 8027   0.066   2.232   3.501
 2376SOL    HW2 8028   0.098   2.092   3.423
 2377SOL     OW 8029   3.280   4.651   6.366
 2377SOL    HW1 8030   3.343   4.728   6.361
 2377SOL    HW2 8031   3.307   4.591   6.441
 2378SOL     OW 8032   5.903   2.039   0.516
 2378SOL    HW1 8033   5.957   2.122   0.525
 2378SOL    HW2 8034   5.809   2.063   0.488
 2379SOL     OW 8035   6.795   5.007   0.582
 2379SOL    HW1 8036   6.751   5.053   0.659
 2379SOL    HW2 8037   6.876   5.059   0.554
 2380SOL     OW 8038   5.914   2.629   5.477
 2380SOL    HW1 8039   5.958   2.590   5.396
 2380SOL    HW2 8040   5.878   2.555   5.534
 2381SOL     OW 8041   2.191   4.668   4.959
 2381SOL    HW1 8042   2.152   4.740   5.017
 2381SOL    HW2 8043   2.244   4.710   4.886
 2382SOL     OW 8044   1.768   5.565   2.665
 2382SOL    HW1 8045   1.689   5.510   2.693
 2382SOL    HW2 8046   1.766   5.653   2.712
 2383SOL     OW 8047   5.602   5.664   5.621
 2383SOL    HW1 8048   5.525   5.681   5.683
 2383SOL    HW2 8049   5.652   5.750   5.606
 2384SOL     OW 8050   0.366   1.909   1.366
 2384SOL    HW1 8051   0.404   1.980   1.425
 2384SOL    HW2 8052   0.271   1.891   1.393
 2385SOL     OW 8053   1.100   1.981   0.330
 2385SOL    HW1 8054   1.146   2.043   0.394
 2385SOL    HW2 8055   1.058   1.906   0.381
 2386SOL     OW 8056   3.044   5.120   4.401
 2386SOL    HW1 8057   3.009   5.210   4.426
 2386SOL    HW2 8058   3.144   5.120   4.403
 2387SOL     OW 8059   0.083   2.781   4.176
 2387SOL    HW1 8060   0.106   2.764   4.080
 2387SOL    HW2 8061   0.012   2.852   4.181
 2388SOL     OW 8062   0.253   2.091   5.752
 2388SOL    HW1 8063   0.242   2.155   5.675
 2388SOL    HW2 8064   0.337   2.113   5.801
 2389SOL     OW 8065   5.151   4.630   4.480
 2389SOL    HW1 8066   5.168   4.683   4.563
 2389SOL    HW2 8067   5.148   4.533   4.502
 2390SOL     OW 8068   4.179   3.468   5.595
 2390SOL    HW1 8069   4.178   3.379   5.640
 2390SOL    HW2 8070   4.085   3.494   5.570
 2391SOL     OW 8071   3.119   3.243   6.611
 2391SOL    HW1 8072   3.188   3.243   6.538
 2391SOL    HW2 8073   3.056   3.319   6.597
 2392SOL     OW 8074   3.470   4.268   5.739
 2392SOL    HW1 8075   3.497   4.364   5.728
 2392SOL    HW2 8076   3.378   4.264   5.777
 2393SOL     OW 8077   4.035   5.539   1.726
 2393SOL    HW1 8078   4.104   5.468   1.715
 2393SOL    HW2 8079   3.975   5.515   1.802
 2394SOL     OW 8080   0.172   4.306   3.916
 2394SOL    HW1 8081   0.106   4.300   3.990
 2394SOL    HW2 8082   0.187   4.402   3.893
 2395SOL     OW 8083   0.619   2.659   6.586
 2395SOL    HW1 8084   0.610   2.752   6.552
 2395SOL    HW2 8085   0.573   2.596   6.524
 2396SOL     OW 8086   5.508   0.727   6.299
 2396SOL    HW1 8087   5.424   0.725   6.245
 2396SOL    HW2 8088   5.509   0.810   6.355
 2397SOL     OW 8089   0.235   4.446   6.130
 2397SOL    HW1 8090   0.280   4.357   6.126
 2397SOL    HW2 8091   0.267   4.497   6.210
 2398SOL     OW 8092   2.814   5.762   4.080
 2398SOL    HW1 8093   2.909   5.790   4.065
 2398SOL    HW2 8094   2.785   5.794   4.171
 2399SOL     OW 8095   3.573   2.124   3.662
 2399SOL    HW1 8096   3.563   2.045   3.602
 2399SOL    HW2 8097   3.648   2.181   3.630
 2400SOL     OW 8098   1.998   3.548   0.503
 2400SOL    HW1 8099   2.025   3.531   0.597
 2400SOL    HW2 8100   1.899   3.544   0.495
 2401SOL     OW 8101   3.792   6.738   4.386
 2401SOL    HW1 8102   3.826   6.781   4.470
 2401SOL    HW2 8103   3.813   6.797   4.308
 2402SOL     OW 8104   0.666   2.443   3.137
 2402SOL    HW1 8105   0.765   2.457   3.126
 2402SOL    HW2 8106   0.626   2.525   3.178
 2403SOL     OW 8107   3.711   3.474   1.304
 2403SOL    HW1 8108   3.744   3.495   1.211
 2403SOL    HW2 8109   3.653   3.393   1.301
 2404SOL     OW 8110   6.123   1.493   1.344
 2404SOL    HW1 8111   6.130   1.591   1.329
 2404SOL    HW2 8112   6.179   1.445   1.276
 2405SOL     OW 8113   3.013   4.848   5.707
 2405SOL    HW1 8114   3.081   4.919   5.726
 2405SOL    HW2 8115   2.983   4.855   5.612
 2406SOL     OW 8116   2.346   7.009   3.442
 2406SOL    HW1 8117   2.281   0.010   3.370
 2406SOL    HW2 8118   2.299   6.960   3.515
 2407SOL     OW 8119   4.548   2.606   2.985
 2407SOL    HW1 8120   4.516   2.550   2.909
 2407SOL    HW2 8121   4.498   2.582   3.068
 2408SOL     OW 8122   2.728   5.304   2.975
 2408SOL    HW1 8123   2.690   5.310   3.067
 2408SOL    HW2 8124   2.659   5.330   2.908
 2409SOL     OW 8125   2.918   2.930   0.871
 2409SOL    HW1 8126   2.838   2.883   0.834
 2409SOL    HW2 8127   2.890   2.991   0.945
 2410SOL     OW 8128   6.550   3.502   6.114
 2410SOL    HW1 8129   6.467   3.474   6.161
 2410SOL    HW2 8130   6.607   3.557   6.176
 2411SOL     OW 8131   2.578   4.003   5.967
 2411SOL    HW1 8132   2.599   4.083   6.023
 2411SOL    HW2 8133   2.539   4.032   5.880
 2412SOL     OW 8134   2.627   3.149   6.984
 2412SOL    HW1 8135   2.702   3.092   6.952
 2412SOL    HW2 8136   2.659   3.242   6.997
 2413SOL     OW 8137   6.355   3.282   6.726
 2413SOL    HW1 8138   6.294   3.234   6.663
 2413SOL    HW2 8139   6.445   3.237   6.726
 2414SOL     OW 8140   5.554   1.830   3.722
 2414SOL    HW1 8141   5.599   1.863   3.804
 2414SOL    HW2 8142   5.574   1.892   3.646
 2415SOL     OW 8143   2.285   6.873   0.036
 2415SOL    HW1 8144   2.190   6.878   0.065
 2415SOL    HW2 8145   2.315   6.778   0.035
 2416SOL     OW 8146   0.837   3.150   3.405
 2416SOL    HW1 8147   0.779   3.232   3.413
 2416SOL    HW2 8148   0.922   3.164   3.454
 2417SOL     OW 8149   4.536   2.472   6.730
 2417SOL    HW1 8150   4.573   2.380   6.735
 2417SOL    HW2 8151   4.500   2.499   6.820
 2418SOL     OW 8152   3.749   4.029   5.479
 2418SOL    HW1 8153   3.666   4.085   5.473
 2418SOL    HW2 8154   3.730   3.937   5.444
 2419SOL     OW 8155   2.200   6.902   4.463
 2419SOL    HW1 8156   2.275   6.899   4.529
 2419SOL    HW2 8157   2.115   6.871   4.506
 2420SOL     OW 8158   3.321   5.442   1.986
 2420SOL    HW1 8159   3.273   5.362   1.950
 2420SOL    HW2 8160   3.363   5.493   1.910
 2421SOL     OW 8161   3.848   6.796   3.715
 2421SOL    HW1 8162   3.822   6.767   3.622
 2421SOL    HW2 8163   3.830   6.721   3.779
 2422SOL     OW 8164   3.843   6.996   0.978
 2422SOL    HW1 8165   3.867   7.003   1.075
 2422SOL    HW2 8166   3.904   0.031   0.925
 2423SOL     OW 8167   1.860   5.767   1.554
 2423SOL    HW1 8168   1.802   5.708   1.611
 2423SOL    HW2 8169   1.817   5.857   1.544
 2424SOL     OW 8170   5.794   6.577   6.704
 2424SOL    HW1 8171   5.842   6.657   6.740
 2424SOL    HW2 8172   5.856   6.524   6.645
 2425SOL     OW 8173   4.679   6.011   5.888
 2425SOL    HW1 8174   4.770   5.977   5.913
 2425SOL    HW2 8175   4.685   6.110   5.873
 2426SOL     OW 8176   1.100   5.678   5.320
 2426SOL    HW1 8177   1.152   5.763   5.313
 2426SOL    HW2 8178   1.054   5.659   5.233
 2427SOL     OW 8179   4.842   6.208   6.624
 2427SOL    HW1 8180   4.788   6.174   6.701
 2427SOL    HW2 8181   4.787   6.273   6.571
 2428SOL     OW 8182   0.384   1.244   3.142
 2428SOL    HW1 8183   0.385   1.205   3.050
 2428SOL    HW2 8184   0.419   1.338   3.138
 2429SOL     OW 8185   5.166   4.699   2.303
 2429SOL    HW1 8186   5.249   4.657   2.266
 2429SOL    HW2 8187   5.098   4.627   2.319
 2430SOL     OW 8188   6.051   2.470   0.691
 2430SOL    HW1 8189   6.042   2.392   0.629
 2430SOL    HW2 8190   5.963   2.517   0.699
 2431SOL     OW 8191   5.954   1.518   1.545
 2431SOL    HW1 8192   5.898   1.440   1.519
 2431SOL    HW2 8193   6.017   1.541   1.471
 2432SOL     OW 8194   3.134   5.990   1.528
 2432SOL    HW1 8195   3.200   6.062   1.552
 2432SOL    HW2 8196   3.125   5.986   1.428
 2433SOL     OW 8197   0.716   6.078   0.168
 2433SOL    HW1 8198   0.773   6.002   0.200
 2433SOL    HW2 8199   0.752   6.164   0.205
 2434SOL     OW 8200   4.921   1.937   2.154
 2434SOL    HW1 8201   5.014   1.954   2.123
 2434SOL    HW2 8202   4.908   1.975   2.246
 2435SOL     OW 8203   5.794   5.667   0.402
 2435SOL    HW1 8204   5.859   5.591   0.402
 2435SOL    HW2 8205   5.839   5.749   0.436
 2436SOL     OW 8206   1.623   1.249   1.639
 2436SOL    HW1 8207   1.611   1.176   1.706
 2436SOL    HW2 8208   1.647   1.209   1.550
 2437SOL     OW 8209   5.759   5.997   2.076
 2437SOL    HW1 8210   5.745   6.088   2.116
 2437SOL    HW2 8211   5.825   6.004   2.001
 2438SOL     OW 8212   4.005   1.659   4.436
 2438SOL    HW1 8213   3.962   1.574   4.465
 2438SOL    HW2 8214   4.066   1.642   4.359
 2439SOL     OW 8215   0.273   5.078   6.618
 2439SOL    HW1 8216   0.343   5.013   6.590
 2439SOL    HW2 8217   0.308   5.171   6.608
 2440SOL     OW 8218   4.299   6.957   5.338
 2440SOL    HW1 8219   4.257   0.021   5.315
 2440SOL    HW2 8220   4.295   6.943   5.437
 2441SOL     OW 8221   5.634   1.135   6.953
 2441SOL    HW1 8222   5.649   1.062   7.020
 2441SOL    HW2 8223   5.616   1.221   7.001
 2442SOL     OW 8224   5.829   4.455   2.927
 2442SOL    HW1 8225   5.730   4.450   2.914
 2442SOL    HW2 8226   5.876   4.431   2.842
 2443SOL     OW 8227   2.462   0.910   6.300
 2443SOL    HW1 8228   2.546   0.964   6.312
 2443SOL    HW2 8229   2.459   0.875   6.207
 2444SOL     OW 8230   4.177   4.629   0.096
 2444SOL    HW1 8231   4.082   4.604   0.113
 2444SOL    HW2 8232   4.215   4.675   0.176
 2445SOL     OW 8233   6.530   1.198   2.122
 2445SOL    HW1 8234   6.467   1.153   2.059
 2445SOL    HW2 8235   6.604   1.134   2.147
 2446SOL     OW 8236   0.918   2.737   3.362
 2446SOL    HW1 8237   1.005   2.760   3.406
 2446SOL    HW2 8238   0.933   2.664   3.296
 2447SOL     OW 8239   2.359   0.513   1.122
 2447SOL    HW1 8240   2.338   0.594   1.177
 2447SOL    HW2 8241   2.321   0.432   1.167
 2448SOL     OW 8242   6.184   1.785   4.263
 2448SOL    HW1 8243   6.088   1.795   4.239
 2448SOL    HW2 8244   6.236   1.758   4.182
 2449SOL     OW 8245   1.273   3.294   1.936
 2449SOL    HW1 8246   1.275   3.198   1.965
 2449SOL    HW2 8247   1.331   3.348   1.997
 2450SOL     OW 8248   2.535   5.425   6.649
 2450SOL    HW1 8249   2.623   5.406   6.693
 2450SOL    HW2 8250   2.538   5.393   6.554
 2451SOL     OW 8251   0.954   0.305   3.563
 2451SOL    HW1 8252   1.038   0.256   3.585
 2451SOL    HW2 8253   0.875   0.247   3.586
 2452SOL     OW 8254   2.670   1.917   3.707
 2452SOL    HW1 8255   2.623   1.833   3.680
 2452SOL    HW2 8256   2.759   1.921   3.663
 2453SOL     OW 8257   6.987   3.194   0.637
 2453SOL    HW1 8258   0.023   3.140   0.579
 2453SOL    HW2 8259   0.015   3.263   0.687
 2454SOL     OW 8260   2.509   6.428   6.898
 2454SOL    HW1 8261   2.582   6.479   6.945
 2454SOL    HW2 8262   2.524   6.431   6.800
 2455SOL     OW 8263   4.110   0.889   0.614
 2455SOL    HW1 8264   4.209   0.876   0.606
 2455SOL    HW2 8265   4.077   0.840   0.694
 2456SOL     OW 8266   0.766   2.281   6.518
 2456SOL    HW1 8267   0.853   2.262   6.563
 2456SOL    HW2 8268   0.770   2.370   6.473
 2457SOL     OW 8269   6.633   1.191   5.301
 2457SOL    HW1 8270   6.541   1.188   5.341
 2457SOL    HW2 8271   6.657   1.286   5.280
 2458SOL     OW 8272   1.019   6.944   3.704
 2458SOL    HW1 8273   1.102   6.989   3.670
 2458SOL    HW2 8274   1.040   6.849   3.726
 2459SOL     OW 8275   2.983   5.771   6.018
 2459SOL    HW1 8276   2.956   5.729   6.104
 2459SOL    HW2 8277   2.942   5.722   5.941
 2460SOL     OW 8278   1.531   1.360   0.896
 2460SOL    HW1 8279   1.452   1.421   0.888
 2460SOL    HW2 8280   1.607   1.409   0.939
 2461SOL     OW 8281   5.340   0.921   3.945
 2461SOL    HW1 8282   5.342   0.971   4.032
 2461SOL    HW2 8283   5.252   0.876   3.934
 2462SOL     OW 8284   2.468   5.197   0.139
 2462SOL    HW1 8285   2.384   5.147   0.160
 2462SOL    HW2 8286   2.532   5.135   0.092
 2463SOL     OW 8287   6.269   1.813   0.166
 2463SOL    HW1 8288   6.192   1.750   0.174
 2463SOL    HW2 8289   6.316   1.798   0.079
 2464SOL     OW 8290   1.528   3.103   3.198
 2464SOL    HW1 8291   1.500   3.191   3.236
 2464SOL    HW2 8292   1.625   3.089   3.213
 2465SOL     OW 8293   0.347   6.299   6.243
 2465SOL    HW1 8294   0.254   6.322   6.215
 2465SOL    HW2 8295   0.389   6.240   6.175
 2466SOL     OW 8296   1.836   1.425   2.830
 2466SOL    HW1 8297   1.746   1.394   2.861
 2466SOL    HW2 8298   1.830   1.456   2.735
 2467SOL     OW 8299   4.878   1.732   5.383
 2467SOL    HW1 8300   4.801   1.775   5.336
 2467SOL    HW2 8301   4.947   1.800   5.404
 2468SOL     OW 8302   4.091   6.809   0.761
 2468SOL    HW1 8303   4.137   6.897   0.775
 2468SOL    HW2 8304   4.073   6.766   0.850
 2469SOL     OW 8305   3.847   3.321   4.770
 2469SOL    HW1 8306   3.893   3.410   4.769
 2469SOL    HW2 8307   3.879   3.268   4.848
 2470SOL     OW 8308   3.949   4.773   5.623
 2470SOL    HW1 8309   3.878   4.771   5.553
 2470SOL    HW2 8310   4.022   4.709   5.598
 2471SOL     OW 8311   3.101   6.494   0.467
 2471SOL    HW1 8312   3.097   6.590   0.440
 2471SOL    HW2 8313   3.088   6.437   0.386
 2472SOL     OW 8314   4.591   2.191   3.360
 2472SOL    HW1 8315   4.611   2.284   3.390
 2472SOL    HW2 8316   4.527   2.148   3.423
 2473SOL     OW 8317   1.417   3.908   5.251
 2473SOL    HW1 8318   1.368   3.975   5.306
 2473SOL    HW2 8319   1.402   3.927   5.154
 2474SOL     OW 8320   1.041   6.264   1.191
 2474SOL    HW1 8321   1.067   6.331   1.122
 2474SOL    HW2 8322   0.967   6.207   1.156
 2475SOL     OW 8323   4.268   1.206   2.379
 2475SOL    HW1 8324   4.338   1.182   2.447
 2475SOL    HW2 8325   4.313   1.226   2.292
 2476SOL     OW 8326   5.489   0.342   2.235
 2476SOL    HW1 8327   5.570   0.290   2.264
 2476SOL    HW2 8328   5.518   0.424   2.186
 2477SOL     OW 8329   4.669   1.243   3.305
 2477SOL    HW1 8330   4.742   1.192   3.260
 2477SOL    HW2 8331   4.593   1.257   3.241
 2478SOL     OW 8332   6.404   1.223   1.416
 2478SOL    HW1 8333   6.360   1.140   1.381
 2478SOL    HW2 8334   6.444   1.204   1.506
 2479SOL     OW 8335   0.799   2.997   2.665
 2479SOL    HW1 8336   0.777   3.092   2.644
 2479SOL    HW2 8337   0.715   2.947   2.690
 2480SOL     OW 8338   4.406   3.378   0.769
 2480SOL    HW1 8339   4.382   3.471   0.796
 2480SOL    HW2 8340   4.504   3.373   0.751
 2481SOL     OW 8341   3.556   6.290   0.725
 2481SOL    HW1 8342   3.627   6.302   0.655
 2481SOL    HW2 8343   3.471   6.263   0.681
 2482SOL     OW 8344   5.070   3.590   6.024
 2482SOL    HW1 8345   5.103   3.661   6.086
 2482SOL    HW2 8346   4.983   3.619   5.983
 2483SOL     OW 8347   1.743   1.834   0.074
 2483SOL    HW1 8348   1.777   1.925   0.050
 2483SOL    HW2 8349   1.682   1.801   0.002
 2484SOL     OW 8350   3.809   0.765   6.954
 2484SOL    HW1 8351   3.822   0.799   0.023
 2484SOL    HW2 8352   3.860   0.679   6.944
 2485SOL     OW 8353   5.978   3.516   1.235
 2485SOL    HW1 8354   5.986   3.598   1.292
 2485SOL    HW2 8355   6.055   3.513   1.171
 2486SOL     OW 8356   1.216   4.930   5.211
 2486SOL    HW1 8357   1.135   4.939   5.269
 2486SOL    HW2 8358   1.196   4.873   5.132
 2487SOL     OW 8359   4.250   6.694   0.574
 2487SOL    HW1 8360   4.215   6.743   0.655
 2487SOL    HW2 8361   4.248   6.596   0.591
 2488SOL     OW 8362   1.172   4.126   2.281
 2488SOL    HW1 8363   1.143   4.031   2.275
 2488SOL    HW2 8364   1.108   4.177   2.338
 2489SOL     OW 8365   0.560   6.278   4.169
 2489SOL    HW1 8366   0.641   6.329   4.140
 2489SOL    HW2 8367   0.570   6.182   4.145
 2490SOL     OW 8368   0.235   5.034   1.032
 2490SOL    HW1 8369   0.310   4.984   1.074
 2490SOL    HW2 8370   0.245   5.131   1.049
 2491SOL     OW 8371   3.065   4.597   0.241
 2491SOL    HW1 8372   3.032   4.631   0.153
 2491SOL    HW2 8373   3.121   4.516   0.226
 2492SOL     OW 8374   4.662   3.741   0.585
 2492SOL    HW1 8375   4.675   3.783   0.674
 2492SOL    HW2 8376   4.565   3.745   0.560
 2493SOL     OW 8377   5.739   0.168   2.141
 2493SOL    HW1 8378   5.770   0.259   2.167
 2493SOL    HW2 8379   5.816   0.104   2.143
 2494SOL     OW 8380   5.680   4.215   3.166
 2494SOL    HW1 8381   5.733   4.164   3.098
 2494SOL    HW2 8382   5.742   4.256   3.233
 2495SOL     OW 8383   5.226   6.034   3.841
 2495SOL    HW1 8384   5.267   6.018   3.930
 2495SOL    HW2 8385   5.277   5.984   3.771
 2496SOL     OW 8386   0.273   2.024   6.359
 2496SOL    HW1 8387   0.333   2.054   6.284
 2496SOL    HW2 8388   0.282   2.088   6.435
 2497SOL     OW 8389   7.005   0.138   0.613
 2497SOL    HW1 8390   0.019   0.176   0.698
 2497SOL    HW2 8391   6.951   0.057   0.634
 2498SOL     OW 8392   3.072   1.977   4.862
 2498SOL    HW1 8393   2.997   1.944   4.919
 2498SOL    HW2 8394   3.061   2.075   4.845
 2499SOL     OW 8395   5.909   2.833   2.666
 2499SOL    HW1 8396   5.882   2.876   2.580
 2499SOL    HW2 8397   5.884   2.737   2.665
 2500SOL     OW 8398   3.962   4.442   6.757
 2500SOL    HW1 8399   4.047   4.481   6.720
 2500SOL    HW2 8400   3.897   4.514   6.777
 2501SOL     OW 8401   5.265   5.244   0.715
 2501SOL    HW1 8402   5.247   5.326   0.769
 2501SOL    HW2 8403   5.203   5.241   0.637
 2502SOL     OW 8404   0.964   0.618   3.843
 2502SOL    HW1 8405   0.877   0.604   3.890
 2502SOL    HW2 8406   1.007   0.702   3.878
 2503SOL     OW 8407   2.238   6.526   4.697
 2503SOL    HW1 8408   2.184   6.583   4.759
 2503SOL    HW2 8409   2.336   6.542   4.714
 2504SOL     OW 8410   3.801   5.335   4.431
 2504SOL    HW1 8411   3.865   5.403   4.467
 2504SOL    HW2 8412   3.827   5.309   4.339
 2505SOL     OW 8413   0.439   6.898   3.189
 2505SOL    HW1 8414   0.520   6.941   3.227
 2505SOL    HW2 8415   0.357   6.945   3.221
 2506SOL     OW 8416   6.529   4.128   6.092
 2506SOL    HW1 8417   6.458   4.198   6.094
 2506SOL    HW2 8418   6.528   4.076   6.177
 2507SOL     OW 8419   6.730   3.106   0.283
 2507SOL    HW1 8420   6.739   3.185   0.344
 2507SOL    HW2 8421   6.686   3.031   0.331
 2508SOL     OW 8422   3.113   1.446   3.363
 2508SOL    HW1 8423   3.137   1.349   3.362
 2508SOL    HW2 8424   3.065   1.470   3.278
 2509SOL     OW 8425   0.130   4.006   1.029
 2509SOL    HW1 8426   0.129   4.009   1.129
 2509SOL    HW2 8427   0.184   4.082   0.994
 2510SOL     OW 8428   3.147   5.118   1.212
 2510SOL    HW1 8429   3.093   5.084   1.135
 2510SOL    HW2 8430   3.093   5.112   1.295
 2511SOL     OW 8431   3.705   1.719   4.370
 2511SOL    HW1 8432   3.773   1.646   4.380
 2511SOL    HW2 8433   3.665   1.739   4.460
 2512SOL     OW 8434   4.532   3.105   5.683
 2512SOL    HW1 8435   4.534   3.074   5.778
 2512SOL    HW2 8436   4.572   3.197   5.677
 2513SOL     OW 8437   1.988   3.972   5.110
 2513SOL    HW1 8438   2.011   3.904   5.040
 2513SOL    HW2 8439   2.065   4.033   5.124
 2514SOL     OW 8440   0.461   3.832   5.231
 2514SOL    HW1 8441   0.423   3.806   5.142
 2514SOL    HW2 8442   0.561   3.829   5.228
 2515SOL     OW 8443   1.003   0.323   1.036
 2515SOL    HW1 8444   1.073   0.312   1.106
 2515SOL    HW2 8445   0.949   0.239   1.029
 2516SOL     OW 8446   5.807   2.047   2.268
 2516SOL    HW1 8447   5.813   2.091   2.357
 2516SOL    HW2 8448   5.859   1.962   2.269
 2517SOL     OW 8449   0.476   6.776   6.219
 2517SOL    HW1 8450   0.513   6.700   6.166
 2517SOL    HW2 8451   0.505   6.862   6.179
 2518SOL     OW 8452   1.513   4.528   0.057
 2518SOL    HW1 8453   1.556   4.614   0.031
 2518SOL    HW2 8454   1.505   4.468   7.002
 2519SOL     OW 8455   4.030   6.173   2.172
 2519SOL    HW1 8456   4.016   6.121   2.088
 2519SOL    HW2 8457   3.988   6.125   2.249
 2520SOL     OW 8458   3.260   1.684   0.499
 2520SOL    HW1 8459   3.321   1.607   0.520
 2520SOL    HW2 8460   3.180   1.649   0.450
 2521SOL     OW 8461   2.881   0.709   5.461
 2521SOL    HW1 8462   2.842   0.635   5.406
 2521SOL    HW2 8463   2.837   0.795   5.438
 2522SOL     OW 8464   0.884   2.738   5.086
 2522SOL    HW1 8465   0.933   2.817   5.123
 2522SOL    HW2 8466   0.948   2.664   5.068
 2523SOL     OW 8467   0.263   3.487   1.220
 2523SOL    HW1 8468   0.219   3.572   1.193
 2523SOL    HW2 8469   0.242   3.468   1.316
 2524SOL     OW 8470   0.806   6.520   4.936
 2524SOL    HW1 8471   0.829   6.606   4.891
 2524SOL    HW2 8472   0.723   6.482   4.893
 2525SOL     OW 8473   1.454   2.746   5.617
 2525SOL    HW1 8474   1.439   2.697   5.703
 2525SOL    HW2 8475   1.532   2.706   5.569
 2526SOL     OW 8476   1.133   4.414   6.275
 2526SOL    HW1 8477   1.125   4.465   6.360
 2526SOL    HW2 8478   1.041   4.393   6.240
 2527SOL     OW 8479   5.426   5.999   5.250
 2527SOL    HW1 8480   5.365   6.025   5.175
 2527SOL    HW2 8481   5.489   6.074   5.269
 2528SOL     OW 8482   6.226   5.051   0.044
 2528SOL    HW1 8483   6.174   4.989   0.102
 2528SOL    HW2 8484   6.224   5.019   6.974
 2529SOL     OW 8485   6.839   5.856   6.186
 2529SOL    HW1 8486   6.908   5.866   6.258
 2529SOL    HW2 8487   6.798   5.946   6.167
 2530SOL     OW 8488   2.816   6.315   5.397
 2530SOL    HW1 8489   2.900   6.263   5.380
 2530SOL    HW2 8490   2.737   6.253   5.390
 2531SOL     OW 8491   5.786   5.701   4.934
 2531SOL    HW1 8492   5.760   5.682   4.840
 2531SOL    HW2 8493   5.727   5.772   4.972
 2532SOL     OW 8494   0.537   5.789   0.920
 2532SOL    HW1 8495   0.582   5.831   0.999
 2532SOL    HW2 8496   0.574   5.698   0.904
 2533SOL     OW 8497   3.109   6.424   4.350
 2533SOL    HW1 8498   3.076   6.460   4.263
 2533SOL    HW2 8499   3.209   6.430   4.353
 2534SOL     OW 8500   3.978   0.490   2.893
 2534SOL    HW1 8501   3.932   0.409   2.929
 2534SOL    HW2 8502   3.913   0.548   2.844
 2535SOL     OW 8503   3.306   2.377   5.615
 2535SOL    HW1 8504   3.229   2.324   5.578
 2535SOL    HW2 8505   3.301   2.471   5.582
 2536SOL     OW 8506   1.493   1.383   4.230
 2536SOL    HW1 8507   1.480   1.384   4.131
 2536SOL    HW2 8508   1.420   1.436   4.273
 2537SOL     OW 8509   3.578   0.126   5.943
 2537SOL    HW1 8510   3.532   0.177   5.871
 2537SOL    HW2 8511   3.673   0.159   5.951
 2538SOL     OW 8512   0.725   4.487   3.051
 2538SOL    HW1 8513   0.625   4.485   3.048
 2538SOL    HW2 8514   0.762   4.435   2.975
 2539SOL     OW 8515   6.240   0.861   4.920
 2539SOL    HW1 8516   6.254   0.787   4.854
 2539SOL    HW2 8517   6.145   0.860   4.952
 2540SOL     OW 8518   4.092   1.781   2.928
 2540SOL    HW1 8519   4.173   1.796   2.872
 2540SOL    HW2 8520   4.093   1.844   3.006
 2541SOL     OW 8521   2.804   0.448   5.024
 2541SOL    HW1 8522   2.902   0.467   5.013
 2541SOL    HW2 8523   2.759   0.456   4.935
 2542SOL     OW 8524   3.385   1.736   5.920
 2542SOL    HW1 8525   3.398   1.834   5.939
 2542SOL    HW2 8526   3.368   1.724   5.822
 2543SOL     OW 8527   1.527   1.071   3.358
 2543SOL    HW1 8528   1.476   1.034   3.435
 2543SOL    HW2 8529   1.468   1.132   3.304
 2544SOL     OW 8530   0.394   7.004   1.196
 2544SOL    HW1 8531   0.366   6.938   1.266
 2544SOL    HW2 8532   0.381   6.963   1.105
 2545SOL     OW 8533   1.010   0.045   2.038
 2545SOL    HW1 8534   0.965   0.126   2.076
 2545SOL    HW2 8535   1.071   0.072   1.964
 2546SOL     OW 8536   0.309   1.126   1.919
 2546SOL    HW1 8537   0.254   1.183   1.858
 2546SOL    HW2 8538   0.311   1.032   1.885
 2547SOL     OW 8539   6.273   5.359   0.399
 2547SOL    HW1 8540   6.362   5.402   0.383
 2547SOL    HW2 8541   6.235   5.330   0.311
 2548SOL     OW 8542   1.439   6.549   6.007
 2548SOL    HW1 8543   1.415   6.488   6.083
 2548SOL    HW2 8544   1.393   6.637   6.019
 2549SOL     OW 8545   2.170   0.499   0.864
 2549SOL    HW1 8546   2.235   0.567   0.898
 2549SOL    HW2 8547   2.205   0.457   0.781
 2550SOL     OW 8548   6.848   0.281   6.903
 2550SOL    HW1 8549   6.883   0.366   6.864
 2550SOL    HW2 8550   6.883   0.270   6.996
 2551SOL     OW 8551   2.959   5.469   0.585
 2551SOL    HW1 8552   2.898   5.548   0.576
 2551SOL    HW2 8553   3.011   5.476   0.670
 2552SOL     OW 8554   1.645   5.751   5.252
 2552SOL    HW1 8555   1.590   5.784   5.175
 2552SOL    HW2 8556   1.601   5.671   5.293
 2553SOL     OW 8557   4.922   3.341   5.733
 2553SOL    HW1 8558   4.884   3.336   5.640
 2553SOL    HW2 8559   4.886   3.422   5.779
 2554SOL     OW 8560   2.075   0.010   0.285
 2554SOL    HW1 8561   2.070   6.988   0.374
 2554SOL    HW2 8562   2.072   6.967   0.212
 2555SOL     OW 8563   5.526   7.021   5.397
 2555SOL    HW1 8564   5.613   0.037   5.371
 2555SOL    HW2 8565   5.525   7.004   5.495
 2556SOL     OW 8566   3.999   5.964   0.601
 2556SOL    HW1 8567   4.061   5.896   0.641
 2556SOL    HW2 8568   3.909   5.956   0.642
 2557SOL     OW 8569   2.346   4.272   0.033
 2557SOL    HW1 8570   2.379   4.337   0.101
 2557SOL    HW2 8571   2.351   4.179   0.070
 2558SOL     OW 8572   5.495   1.694   4.679
 2558SOL    HW1 8573   5.521   1.599   4.696
 2558SOL    HW2 8574   5.518   1.718   4.584
 2559SOL     OW 8575   0.167   3.469   4.139
 2559SOL    HW1 8576   0.251   3.415   4.142
 2559SOL    HW2 8577   0.114   3.445   4.058
 2560SOL     OW 8578   5.774   3.464   4.285
 2560SOL    HW1 8579   5.869   3.492   4.274
 2560SOL    HW2 8580   5.765   3.366   4.266
 2561SOL     OW 8581   3.271   6.266   5.376
 2561SOL    HW1 8582   3.343   6.294   5.313
 2561SOL    HW2 8583   3.307   6.201   5.442
 2562SOL     OW 8584   2.085   5.779   1.768
 2562SOL    HW1 8585   1.994   5.793   1.728
 2562SOL    HW2 8586   2.144   5.856   1.744
 2563SOL     OW 8587   3.730   2.683   0.607
 2563SOL    HW1 8588   3.661   2.672   0.536
 2563SOL    HW2 8589   3.776   2.771   0.596
 2564SOL     OW 8590   2.086   5.728   5.828
 2564SOL    HW1 8591   2.124   5.651   5.776
 2564SOL    HW2 8592   2.111   5.814   5.783
 2565SOL     OW 8593   1.083   0.603   0.399
 2565SOL    HW1 8594   1.017   0.635   0.332
 2565SOL    HW2 8595   1.176   0.622   0.366
 2566SOL     OW 8596   2.935   6.919   0.742
 2566SOL    HW1 8597   2.904   6.950   0.832
 2566SOL    HW2 8598   2.921   6.821   0.733
 2567SOL     OW 8599   0.865   1.186   0.933
 2567SOL    HW1 8600   0.953   1.229   0.953
 2567SOL    HW2 8601   0.791   1.245   0.968
 2568SOL     OW 8602   3.819   0.337   6.721
 2568SOL    HW1 8603   3.778   0.384   6.798
 2568SOL    HW2 8604   3.885   0.269   6.754
 2569SOL     OW 8605   2.939   1.655   1.669
 2569SOL    HW1 8606   2.945   1.697   1.759
 2569SOL    HW2 8607   2.885   1.570   1.676
 2570SOL     OW 8608   5.592   0.221   6.505
 2570SOL    HW1 8609   5.531   0.264   6.438
 2570SOL    HW2 8610   5.575   0.260   6.595
 2571SOL     OW 8611   2.557   4.538   6.121
 2571SOL    HW1 8612   2.493   4.612   6.105
 2571SOL    HW2 8613   2.642   4.574   6.160
 2572SOL     OW 8614   2.380   5.256   0.702
 2572SOL    HW1 8615   2.327   5.181   0.663
 2572SOL    HW2 8616   2.477   5.243   0.683
 2573SOL     OW 8617   6.879   2.349   1.984
 2573SOL    HW1 8618   6.901   2.428   2.042
 2573SOL    HW2 8619   6.962   2.317   1.938
 2574SOL     OW 8620   5.791   4.029   0.506
 2574SOL    HW1 8621   5.768   4.124   0.526
 2574SOL    HW2 8622   5.864   3.998   0.568
 2575SOL     OW 8623   4.992   5.484   1.167
 2575SOL    HW1 8624   5.078   5.475   1.218
 2575SOL    HW2 8625   4.975   5.399   1.116
 2576SOL     OW 8626   4.147   6.410   4.586
 2576SOL    HW1 8627   4.095   6.487   4.552
 2576SOL    HW2 8628   4.232   6.401   4.534
 2577SOL     OW 8629   4.496   6.727   1.862
 2577SOL    HW1 8630   4.522   6.694   1.771
 2577SOL    HW2 8631   4.553   6.681   1.931
 2578SOL     OW 8632   4.652   1.829   5.246
 2578SOL    HW1 8633   4.564   1.788   5.270
 2578SOL    HW2 8634   4.672   1.811   5.150
 2579SOL     OW 8635   1.366   6.185   3.184
 2579SOL    HW1 8636   1.424   6.208   3.262
 2579SOL    HW2 8637   1.278   6.149   3.216
 2580SOL     OW 8638   2.893   3.977   6.116
 2580SOL    HW1 8639   2.889   3.947   6.211
 2580SOL    HW2 8640   2.801   3.975   6.076
 2581SOL     OW 8641   1.609   4.918   1.405
 2581SOL    HW1 8642   1.512   4.920   1.378
 2581SOL    HW2 8643   1.660   4.982   1.348
 2582SOL     OW 8644   0.470   4.249   1.688
 2582SOL    HW1 8645   0.501   4.196   1.609
 2582SOL    HW2 8646   0.390   4.303   1.663
 2583SOL     OW 8647   1.257   1.645   6.803
 2583SOL    HW1 8648   1.300   1.556   6.821
 2583SOL    HW2 8649   1.254   1.661   6.704
 2584SOL     OW 8650   4.172   5.064   6.036
 2584SOL    HW1 8651   4.129   5.148   6.004
 2584SOL    HW2 8652   4.101   4.994   6.048
 2585SOL     OW 8653   4.407   3.142   6.931
 2585SOL    HW1 8654   4.480   3.117   6.867
 2585SOL    HW2 8655   4.345   3.065   6.942
 2586SOL     OW 8656   4.171   1.380   3.162
 2586SOL    HW1 8657   4.161   1.381   3.262
 2586SOL    HW2 8658   4.110   1.449   3.122
 2587SOL     OW 8659   7.009   0.602   3.254
 2587SOL    HW1 8660   6.913   0.586   3.233
 2587SOL    HW2 8661   7.020   0.692   3.296
 2588SOL     OW 8662   5.062   1.343   6.404
 2588SOL    HW1 8663   5.014   1.265   6.443
 2588SOL    HW2 8664   5.142   1.310   6.352
 2589SOL     OW 8665   0.940   6.540   5.852
 2589SOL    HW1 8666   0.960   6.629   5.810
 2589SOL    HW2 8667   1.012   6.475   5.829
 2590SOL     OW 8668   3.176   5.259   0.245
 2590SOL    HW1 8669   3.270   5.294   0.242
 2590SOL    HW2 8670   3.113   5.334   0.266
 2591SOL     OW 8671   6.867   4.982   3.377
 2591SOL    HW1 8672   6.786   5.022   3.335
 2591SOL    HW2 8673   6.848   4.961   3.473
 2592SOL     OW 8674   3.279   5.530   0.088
 2592SOL    HW1 8675   3.335   5.466   0.140
 2592SOL    HW2 8676   3.219   5.581   0.150
 2593SOL     OW 8677   3.756   5.378   0.013
 2593SOL    HW1 8678   3.692   5.321   6.985
 2593SOL    HW2 8679   3.706   5.453   0.056
 2594SOL     OW 8680   1.837   4.745   5.941
 2594SOL    HW1 8681   1.873   4.697   5.860
 2594SOL    HW2 8682   1.826   4.842   5.920
 2595SOL     OW 8683   6.910   0.346   3.797
 2595SOL    HW1 8684   6.816   0.314   3.794
 2595SOL    HW2 8685   6.972   0.272   3.773
 2596SOL     OW 8686   3.279   2.099   1.813
 2596SOL    HW1 8687   3.283   2.101   1.913
 2596SOL    HW2 8688   3.259   2.006   1.783
 2597SOL     OW 8689   0.146   5.003   5.320
 2597SOL    HW1 8690   0.142   4.916   5.370
 2597SOL    HW2 8691   0.055   5.045   5.319
 2598SOL     OW 8692   6.326   1.502   2.857
 2598SOL    HW1 8693   6.231   1.505   2.888
 2598SOL    HW2 8694   6.349   1.410   2.825
 2599SOL     OW 8695   1.254   5.853   1.140
 2599SOL    HW1 8696   1.294   5.857   1.048
 2599SOL    HW2 8697   1.264   5.941   1.185
 2600SOL     OW 8698   5.618   2.925   4.708
 2600SOL    HW1 8699   5.589   2.888   4.797
 2600SOL    HW2 8700   5.544   2.979   4.668
 2601SOL     OW 8701   2.187   1.385   2.017
 2601SOL    HW1 8702   2.192   1.376   2.117
 2601SOL    HW2 8703   2.233   1.470   1.989
 2602SOL     OW 8704   1.102   4.737   5.046
 2602SOL    HW1 8705   1.038   4.810   5.022
 2602SOL    HW2 8706   1.073   4.651   5.002
 2603SOL     OW 8707   3.238   0.593   3.799
 2603SOL    HW1 8708   3.311   0.640   3.750
 2603SOL    HW2 8709   3.176   0.661   3.840
 2604SOL     OW 8710   4.779   2.311   2.507
 2604SOL    HW1 8711   4.723   2.370   2.449
 2604SOL    HW2 8712   4.775   2.344   2.602
 2605SOL     OW 8713   1.904   2.802   3.481
 2605SOL    HW1 8714   1.993   2.773   3.445
 2605SOL    HW2 8715   1.896   2.901   3.475
 2606SOL     OW 8716   5.517   4.954   1.359
 2606SOL    HW1 8717   5.580   4.912   1.294
 2606SOL    HW2 8718   5.424   4.920   1.343
 2607SOL     OW 8719   1.486   1.598   2.383
 2607SOL    HW1 8720   1.520   1.507   2.404
 2607SOL    HW2 8721   1.506   1.620   2.287
 2608SOL     OW 8722   4.057   5.272   0.643
 2608SOL    HW1 8723   4.107   5.308   0.564
 2608SOL    HW2 8724   4.066   5.335   0.720
 2609SOL     OW 8725   6.739   1.038   2.151
 2609SOL    HW1 8726   6.799   0.998   2.220
 2609SOL    HW2 8727   6.679   0.967   2.113
 2610SOL     OW 8728   0.819   3.855   4.227
 2610SOL    HW1 8729   0.759   3.807   4.291
 2610SOL    HW2 8730   0.773   3.938   4.195
 2611SOL     OW 8731   3.967   6.214   0.866
 2611SOL    HW1 8732   4.020   6.186   0.785
 2611SOL    HW2 8733   3.979   6.312   0.881
 2612SOL     OW 8734   6.307   6.578   4.632
 2612SOL    HW1 8735   6.332   6.526   4.714
 2612SOL    HW2 8736   6.264   6.664   4.659
 2613SOL     OW 8737   1.843   5.733   6.153
 2613SOL    HW1 8738   1.942   5.741   6.167
 2613SOL    HW2 8739   1.816   5.792   6.077
 2614SOL     OW 8740   6.315   2.079   0.201
 2614SOL    HW1 8741   6.286   1.983   0.195
 2614SOL    HW2 8742   6.410   2.083   0.229
 2615SOL     OW 8743   0.818   3.416   2.342
 2615SOL    HW1 8744   0.912   3.407   2.308
 2615SOL    HW2 8745   0.756   3.364   2.282
 2616SOL     OW 8746   2.509   2.926   6.264
 2616SOL    HW1 8747   2.517   2.853   6.332
 2616SOL    HW2 8748   2.583   2.992   6.277
 2617SOL     OW 8749   4.288   0.622   0.445
 2617SOL    HW1 8750   4.303   0.719   0.422
 2617SOL    HW2 8751   4.297   0.566   0.363
 2618SOL     OW 8752   6.824   0.183   4.060
 2618SOL    HW1 8753   6.823   0.123   4.141
 2618SOL    HW2 8754   6.916   0.183   4.020
 2619SOL     OW 8755   5.193   1.810   1.590
 2619SOL    HW1 8756   5.181   1.730   1.531
 2619SOL    HW2 8757   5.239   1.783   1.675
 2620SOL     OW 8758   0.155   6.875   3.648
 2620SOL    HW1 8759   0.127   6.884   3.552
 2620SOL    HW2 8760   0.079   6.903   3.707
 2621SOL     OW 8761   0.780   5.377   2.325
 2621SOL    HW1 8762   0.810   5.308   2.391
 2621SOL    HW2 8763   0.686   5.356   2.296
 2622SOL     OW 8764   1.963   4.086   6.259
 2622SOL    HW1 8765   1.926   4.031   6.184
 2622SOL    HW2 8766   1.888   4.137   6.302
 2623SOL     OW 8767   0.915   0.628   5.484
 2623SOL    HW1 8768   0.970   0.640   5.402
 2623SOL    HW2 8769   0.937   0.699   5.551
 2624SOL     OW 8770   0.556   1.474   4.838
 2624SOL    HW1 8771   0.484   1.406   4.848
 2624SOL    HW2 8772   0.561   1.503   4.742
 2625SOL     OW 8773   2.571   3.694   5.903
 2625SOL    HW1 8774   2.593   3.781   5.859
 2625SOL    HW2 8775   2.634   3.678   5.978
 2626SOL     OW 8776   0.098   0.337   6.473
 2626SOL    HW1 8777   0.081   0.239   6.476
 2626SOL    HW2 8778   0.033   0.384   6.533
 2627SOL     OW 8779   1.429   0.938   6.234
 2627SOL    HW1 8780   1.350   0.953   6.174
 2627SOL    HW2 8781   1.426   0.844   6.269
 2628SOL     OW 8782   2.328   4.084   5.432
 2628SOL    HW1 8783   2.235   4.113   5.410
 2628SOL    HW2 8784   2.364   4.028   5.358
 2629SOL     OW 8785   3.878   3.376   2.017
 2629SOL    HW1 8786   3.972   3.386   2.049
 2629SOL    HW2 8787   3.855   3.279   2.010
 2630SOL     OW 8788   3.750   1.317   2.355
 2630SOL    HW1 8789   3.748   1.244   2.424
 2630SOL    HW2 8790   3.843   1.326   2.318
 2631SOL     OW 8791   5.270   0.603   6.473
 2631SOL    HW1 8792   5.201   0.598   6.401
 2631SOL    HW2 8793   5.276   0.696   6.508
 2632SOL     OW 8794   5.834   3.106   0.858
 2632SOL    HW1 8795   5.776   3.039   0.813
 2632SOL    HW2 8796   5.869   3.068   0.943
 2633SOL     OW 8797   7.022   1.482   4.842
 2633SOL    HW1 8798   0.027   1.515   4.932
 2633SOL    HW2 8799   0.035   1.390   4.826
 2634SOL     OW 8800   0.973   5.159   3.629
 2634SOL    HW1 8801   1.059   5.204   3.604
 2634SOL    HW2 8802   0.902   5.227   3.645
 2635SOL     OW 8803   0.147   6.017   4.582
 2635SOL    HW1 8804   0.139   6.046   4.487
 2635SOL    HW2 8805   0.242   6.030   4.613
 2636SOL     OW 8806   4.012   0.576   6.538
 2636SOL    HW1 8807   4.022   0.615   6.630
 2636SOL    HW2 8808   3.996   0.477   6.545
 2637SOL     OW 8809   6.178   2.046   4.179
 2637SOL    HW1 8810   6.253   2.076   4.120
 2637SOL    HW2 8811   6.185   1.947   4.193
 2638SOL     OW 8812   6.898   6.536   4.328
 2638SOL    HW1 8813   6.898   6.561   4.425
 2638SOL    HW2 8814   6.981   6.572   4.284
 2639SOL     OW 8815   6.729   6.255   0.190
 2639SOL    HW1 8816   6.766   6.319   0.258
 2639SOL    HW2 8817   6.770   6.274   0.101
 2640SOL     OW 8818   6.735   6.660   5.332
 2640SOL    HW1 8819   6.730   6.668   5.232
 2640SOL    HW2 8820   6.645   6.633   5.367
 2641SOL     OW 8821   5.559   2.587   1.977
 2641SOL    HW1 8822   5.483   2.640   1.938
 2641SOL    HW2 8823   5.538   2.490   1.970
 2642SOL     OW 8824   6.117   0.427   3.777
 2642SOL    HW1 8825   6.099   0.525   3.793
 2642SOL    HW2 8826   6.120   0.380   3.865
 2643SOL     OW 8827   1.350   3.616   3.575
 2643SOL    HW1 8828   1.300   3.562   3.507
 2643SOL    HW2 8829   1.316   3.596   3.666
 2644SOL     OW 8830   4.806   5.185   4.979
 2644SOL    HW1 8831   4.785   5.265   5.035
 2644SOL    HW2 8832   4.740   5.180   4.904
 2645SOL     OW 8833   4.373   5.365   3.834
 2645SOL    HW1 8834   4.463   5.407   3.832
 2645SOL    HW2 8835   4.372   5.290   3.900
 2646SOL     OW 8836   6.581   2.003   0.258
 2646SOL    HW1 8837   6.607   1.948   0.179
 2646SOL    HW2 8838   6.659   2.009   0.321
 2647SOL     OW 8839   6.382   0.021   1.813
 2647SOL    HW1 8840   6.382   7.019   1.910
 2647SOL    HW2 8841   6.427   6.974   1.760
 2648SOL     OW 8842   0.104   6.115   4.307
 2648SOL    HW1 8843   0.065   6.188   4.251
 2648SOL    HW2 8844   0.194   6.090   4.271
 2649SOL     OW 8845   6.453   3.292   0.919
 2649SOL    HW1 8846   6.459   3.391   0.906
 2649SOL    HW2 8847   6.363   3.268   0.956
 2650SOL     OW 8848   1.835   4.868   4.067
 2650SOL    HW1 8849   1.745   4.826   4.078
 2650SOL    HW2 8850   1.884   4.822   3.993
 2651SOL     OW 8851   2.693   1.731   1.384
 2651SOL    HW1 8852   2.785   1.695   1.400
 2651SOL    HW2 8853   2.667   1.717   1.289
 2652SOL     OW 8854   4.210   3.247   5.366
 2652SOL    HW1 8855   4.132   3.309   5.358
 2652SOL    HW2 8856   4.236   3.239   5.462
 2653SOL     OW 8857   4.694   6.271   5.879
 2653SOL    HW1 8858   4.737   6.293   5.967
 2653SOL    HW2 8859   4.605   6.315   5.874
 2654SOL     OW 8860   4.471   0.114   1.517
 2654SOL    HW1 8861   4.437   0.087   1.607
 2654SOL    HW2 8862   4.568   0.090   1.510
 2655SOL     OW 8863   5.084   5.780   3.812
 2655SOL    HW1 8864   5.097   5.833   3.896
 2655SOL    HW2 8865   5.053   5.841   3.739
 2656SOL     OW 8866   3.296   5.520   4.323
 2656SOL    HW1 8867   3.396   5.522   4.325
 2656SOL    HW2 8868   3.260   5.606   4.358
 2657SOL     OW 8869   1.559   3.814   0.231
 2657SOL    HW1 8870   1.573   3.852   0.322
 2657SOL    HW2 8871   1.462   3.815   0.209
 2658SOL     OW 8872   4.713   4.793   0.115
 2658SOL    HW1 8873   4.718   4.702   0.074
 2658SOL    HW2 8874   4.698   4.784   0.214
 2659SOL     OW 8875   4.966   3.247   5.234
 2659SOL    HW1 8876   4.977   3.342   5.263
 2659SOL    HW2 8877   4.957   3.189   5.314
 2660SOL     OW 8878   0.823   0.277   2.061
 2660SOL    HW1 8879   0.789   0.232   2.144
 2660SOL    HW2 8880   0.837   0.374   2.079
 2661SOL     OW 8881   1.972   6.505   1.258
 2661SOL    HW1 8882   2.028   6.461   1.328
 2661SOL    HW2 8883   2.015   6.496   1.169
 2662SOL     OW 8884   3.186   0.079   4.785
 2662SOL    HW1 8885   3.263   0.113   4.732
 2662SOL    HW2 8886   3.138   0.156   4.827
 2663SOL     OW 8887   4.493   4.376   6.491
 2663SOL    HW1 8888   4.425   4.327   6.545
 2663SOL    HW2 8889   4.471   4.366   6.394
 2664SOL     OW 8890   4.465   3.160   5.332
 2664SOL    HW1 8891   4.371   3.192   5.318
 2664SOL    HW2 8892   4.528   3.237   5.321
 2665SOL     OW 8893   2.634   3.619   5.341
 2665SOL    HW1 8894   2.572   3.542   5.351
 2665SOL    HW2 8895   2.648   3.662   5.430
 2666SOL     OW 8896   1.561   4.528   1.573
 2666SOL    HW1 8897   1.569   4.436   1.535
 2666SOL    HW2 8898   1.542   4.522   1.671
 2667SOL     OW 8899   1.315   5.712   3.599
 2667SOL    HW1 8900   1.230   5.663   3.616
 2667SOL    HW2 8901   1.305   5.806   3.631
 2668SOL     OW 8902   6.233   2.876   4.777
 2668SOL    HW1 8903   6.179   2.941   4.725
 2668SOL    HW2 8904   6.215   2.783   4.744
 2669SOL     OW 8905   2.899   5.298   6.298
 2669SOL    HW1 8906   2.962   5.221   6.306
 2669SOL    HW2 8907   2.921   5.351   6.216
 2670SOL     OW 8908   5.748   3.110   4.885
 2670SOL    HW1 8909   5.702   3.042   4.827
 2670SOL    HW2 8910   5.763   3.071   4.976
 2671SOL     OW 8911   4.684   5.295   6.292
 2671SOL    HW1 8912   4.687   5.252   6.382
 2671SOL    HW2 8913   4.673   5.394   6.302
 2672SOL     OW 8914   2.885   6.512   1.284
 2672SOL    HW1 8915   2.943   6.454   1.341
 2672SOL    HW2 8916   2.823   6.455   1.230
 2673SOL     OW 8917   6.449   2.463   2.052
 2673SOL    HW1 8918   6.416   2.396   1.986
 2673SOL    HW2 8919   6.507   2.417   2.120
 2674SOL     OW 8920   0.926   4.678   3.937
 2674SOL    HW1 8921   1.018   4.686   3.975
 2674SOL    HW2 8922   0.901   4.764   3.892
 2675SOL     OW 8923   6.706   6.225   3.788
 2675SOL    HW1 8924   6.678   6.215   3.884
 2675SOL    HW2 8925   6.625   6.228   3.729
 2676SOL     OW 8926   3.101   3.275   1.373
 2676SOL    HW1 8927   3.079   3.226   1.458
 2676SOL    HW2 8928   3.140   3.211   1.307
 2677SOL     OW 8929   2.625   4.501   1.131
 2677SOL    HW1 8930   2.708   4.551   1.108
 2677SOL    HW2 8931   2.553   4.565   1.156
 2678SOL     OW 8932   0.238   2.883   2.262
 2678SOL    HW1 8933   0.138   2.876   2.270
 2678SOL    HW2 8934   0.280   2.842   2.343
 2679SOL     OW 8935   1.880   4.640   2.465
 2679SOL    HW1 8936   1.955   4.575   2.460
 2679SOL    HW2 8937   1.917   4.732   2.484
 2680SOL     OW 8938   0.968   2.245   0.421
 2680SOL    HW1 8939   0.904   2.215   0.491
 2680SOL    HW2 8940   0.920   2.302   0.354
 2681SOL     OW 8941   1.211   2.203   4.711
 2681SOL    HW1 8942   1.220   2.303   4.712
 2681SOL    HW2 8943   1.273   2.165   4.643
 2682SOL     OW 8944   4.623   4.404   3.897
 2682SOL    HW1 8945   4.623   4.446   3.987
 2682SOL    HW2 8946   4.684   4.324   3.898
 2683SOL     OW 8947   2.531   4.575   2.079
 2683SOL    HW1 8948   2.468   4.604   2.007
 2683SOL    HW2 8949   2.625   4.589   2.048
 2684SOL     OW 8950   4.652   0.033   2.137
 2684SOL    HW1 8951   4.656   6.961   2.164
 2684SOL    HW2 8952   4.569   0.074   2.173
 2685SOL     OW 8953   5.300   5.273   5.956
 2685SOL    HW1 8954   5.261   5.341   5.894
 2685SOL    HW2 8955   5.308   5.185   5.909
 2686SOL     OW 8956   1.091   1.575   5.215
 2686SOL    HW1 8957   1.183   1.607   5.196
 2686SOL    HW2 8958   1.095   1.485   5.258
 2687SOL     OW 8959   3.937   5.702   0.308
 2687SOL    HW1 8960   4.000   5.723   0.234
 2687SOL    HW2 8961   3.843   5.705   0.274
 2688SOL     OW 8962   2.213   2.590   0.480
 2688SOL    HW1 8963   2.183   2.501   0.514
 2688SOL    HW2 8964   2.302   2.613   0.520
 2689SOL     OW 8965   6.901   3.821   2.321
 2689SOL    HW1 8966   6.915   3.907   2.370
 2689SOL    HW2 8967   6.876   3.841   2.226
 2690SOL     OW 8968   2.957   3.375   6.225
 2690SOL    HW1 8969   2.859   3.384   6.207
 2690SOL    HW2 8970   3.009   3.411   6.148
 2691SOL     OW 8971   0.093   4.623   3.817
 2691SOL    HW1 8972   0.188   4.615   3.846
 2691SOL    HW2 8973   0.090   4.649   3.721
 2692SOL     OW 8974   2.500   6.858   3.282
 2692SOL    HW1 8975   2.452   6.770   3.275
 2692SOL    HW2 8976   2.439   6.925   3.325
 2693SOL     OW 8977   2.560   4.762   4.169
 2693SOL    HW1 8978   2.592   4.724   4.082
 2693SOL    HW2 8979   2.489   4.829   4.152
 2694SOL     OW 8980   3.756   6.693   3.443
 2694SOL    HW1 8981   3.683   6.757   3.419
 2694SOL    HW2 8982   3.716   6.607   3.474
 2695SOL     OW 8983   5.457   0.486   2.713
 2695SOL    HW1 8984   5.525   0.559   2.710
 2695SOL    HW2 8985   5.367   0.525   2.731
 2696SOL     OW 8986   4.421   3.505   5.542
 2696SOL    HW1 8987   4.431   3.591   5.491
 2696SOL    HW2 8988   4.324   3.486   5.557
 2697SOL     OW 8989   3.916   1.561   2.602
 2697SOL    HW1 8990   3.858   1.589   2.526
 2697SOL    HW2 8991   4.010   1.549   2.569
 2698SOL     OW 8992   1.904   4.658   6.843
 2698SOL    HW1 8993   1.936   4.563   6.837
 2698SOL    HW2 8994   1.939   4.709   6.765
 2699SOL     OW 8995   3.016   6.179   0.896
 2699SOL    HW1 8996   3.072   6.234   0.834
 2699SOL    HW2 8997   3.064   6.094   0.917
 2700SOL     OW 8998   2.738   1.717   0.875
 2700SOL    HW1 8999   2.715   1.787   0.806
 2700SOL    HW2 9000   2.823   1.671   0.848
 2701SOL     OW 9001   5.304   2.363   5.794
 2701SOL    HW1 9002   5.243   2.355   5.716
 2701SOL    HW2 9003   5.315   2.460   5.817
 2702SOL     OW 9004   0.961   2.580   3.143
 2702SOL    HW1 9005   0.926   2.562   3.051
 2702SOL    HW2 9006   1.057   2.607   3.138
 2703SOL     OW 9007   1.178   5.990   1.514
 2703SOL    HW1 9008   1.186   5.905   1.566
 2703SOL    HW2 9009   1.141   6.062   1.572
 2704SOL     OW 9010   6.750   6.304   2.215
 2704SOL    HW1 9011   6.696   6.226   2.247
 2704SOL    HW2 9012   6.700   6.351   2.142
 2705SOL     OW 9013   6.672   0.595   5.160
 2705SOL    HW1 9014   6.618   0.652   5.221
 2705SOL    HW2 9015   6.614   0.524   5.120
 2706SOL     OW 9016   6.376   4.723   3.309
 2706SOL    HW1 9017   6.406   4.628   3.306
 2706SOL    HW2 9018   6.296   4.731   3.369
 2707SOL     OW 9019   4.104   0.153   4.328
 2707SOL    HW1 9020   4.186   0.191   4.285
 2707SOL    HW2 9021   4.132   0.088   4.399
 2708SOL     OW 9022   6.209   2.970   1.235
 2708SOL    HW1 9023   6.144   2.901   1.266
 2708SOL    HW2 9024   6.220   2.964   1.136
 2709SOL     OW 9025   5.212   0.164   6.775
 2709SOL    HW1 9026   5.190   0.258   6.802
 2709SOL    HW2 9027   5.261   0.118   6.849
 2710SOL     OW 9028   1.625   2.732   3.850
 2710SOL    HW1 9029   1.635   2.678   3.934
 2710SOL    HW2 9030   1.585   2.821   3.873
 2711SOL     OW 9031   2.925   0.809   3.660
 2711SOL    HW1 9032   2.894   0.905   3.660
 2711SOL    HW2 9033   2.922   0.773   3.753
 2712SOL     OW 9034   2.147   5.474   2.066
 2712SOL    HW1 9035   2.114   5.459   1.973
 2712SOL    HW2 9036   2.239   5.512   2.063
 2713SOL     OW 9037   3.100   4.084   6.559
 2713SOL    HW1 9038   3.107   4.037   6.647
 2713SOL    HW2 9039   3.011   4.130   6.553
 2714SOL     OW 9040   3.448   3.466   6.652
 2714SOL    HW1 9041   3.365   3.516   6.677
 2714SOL    HW2 9042   3.497   3.515   6.580
 2715SOL     OW 9043   5.347   2.460   0.422
 2715SOL    HW1 9044   5.367   2.473   0.325
 2715SOL    HW2 9045   5.429   2.476   0.476
 2716SOL     OW 9046   4.844   3.438   3.984
 2716SOL    HW1 9047   4.830   3.525   4.031
 2716SOL    HW2 9048   4.878   3.370   4.050
 2717SOL     OW 9049   0.452   0.101   1.634
 2717SOL    HW1 9050   0.494   0.174   1.688
 2717SOL    HW2 9051   0.440   0.020   1.692
 2718SOL     OW 9052   0.472   1.086   5.370
 2718SOL    HW1 9053   0.563   1.046   5.374
 2718SOL    HW2 9054   0.421   1.047   5.293
 2719SOL     OW 9055   1.068   4.656   1.642
 2719SOL    HW1 9056   1.153   4.652   1.694
 2719SOL    HW2 9057   1.007   4.582   1.670
 2720SOL     OW 9058   1.250   0.224   2.586
 2720SOL    HW1 9059   1.320   0.291   2.611
 2720SOL    HW2 9060   1.192   0.206   2.664
 2721SOL     OW 9061   3.220   6.464   3.358
 2721SOL    HW1 9062   3.230   6.375   3.313
 2721SOL    HW2 9063   3.239   6.455   3.456
 2722SOL     OW 9064   5.244   5.117   6.876
 2722SOL    HW1 9065   5.325   5.174   6.888
 2722SOL    HW2 9066   5.206   5.094   6.965
 2723SOL     OW 9067   1.766   5.775   6.515
 2723SOL    HW1 9068   1.744   5.866   6.549
 2723SOL    HW2 9069   1.831   5.782   6.440
 2724SOL     OW 9070   1.377   6.412   6.243
 2724SOL    HW1 9071   1.385   6.464   6.327
 2724SOL    HW2 9072   1.281   6.388   6.227
 2725SOL     OW 9073   5.300   4.051   5.214
 2725SOL    HW1 9074   5.243   4.124   5.176
 2725SOL    HW2 9075   5.392   4.087   5.230
 2726SOL     OW 9076   0.448   2.475   2.007
 2726SOL    HW1 9077   0.516   2.546   2.021
 2726SOL    HW2 9078   0.493   2.385   2.007
 2727SOL     OW 9079   1.106   3.820   4.212
 2727SOL    HW1 9080   1.108   3.784   4.118
 2727SOL    HW2 9081   1.012   3.845   4.236
 2728SOL     OW 9082   5.087   6.318   6.046
 2728SOL    HW1 9083   5.147   6.254   6.094
 2728SOL    HW2 9084   5.039   6.270   5.973
 2729SOL     OW 9085   6.373   6.361   0.153
 2729SOL    HW1 9086   6.399   6.282   0.209
 2729SOL    HW2 9087   6.440   6.372   0.079
 2730SOL     OW 9088   1.225   6.353   1.888
 2730SOL    HW1 9089   1.243   6.276   1.826
 2730SOL    HW2 9090   1.312   6.391   1.920
 2731SOL     OW 9091   3.014   3.769   2.813
 2731SOL    HW1 9092   2.968   3.790   2.726
 2731SOL    HW2 9093   2.951   3.719   2.872
 2732SOL     OW 9094   5.647   1.574   0.812
 2732SOL    HW1 9095   5.708   1.652   0.799
 2732SOL    HW2 9096   5.598   1.584   0.899
 2733SOL     OW 9097   6.573   1.603   5.117
 2733SOL    HW1 9098   6.606   1.606   5.023
 2733SOL    HW2 9099   6.477   1.578   5.118
 2734SOL     OW 9100   2.788   5.813   1.277
 2734SOL    HW1 9101   2.838   5.741   1.229
 2734SOL    HW2 9102   2.723   5.771   1.340
 2735SOL     OW 9103   1.380   2.285   2.061
 2735SOL    HW1 9104   1.466   2.237   2.078
 2735SOL    HW2 9105   1.396   2.357   1.993
 2736SOL     OW 9106   6.353   6.197   4.853
 2736SOL    HW1 9107   6.375   6.286   4.895
 2736SOL    HW2 9108   6.389   6.196   4.760
 2737SOL     OW 9109   3.077   3.651   5.222
 2737SOL    HW1 9110   3.093   3.552   5.217
 2737SOL    HW2 9111   2.993   3.674   5.173
 2738SOL     OW 9112   6.143   6.159   2.127
 2738SOL    HW1 9113   6.215   6.173   2.195
 2738SOL    HW2 9114   6.101   6.069   2.142
 2739SOL     OW 9115   1.402   4.681   1.036
 2739SOL    HW1 9116   1.474   4.673   1.105
 2739SOL    HW2 9117   1.417   4.615   0.963
 2740SOL     OW 9118   6.915   5.215   1.863
 2740SOL    HW1 9119   6.916   5.313   1.885
 2740SOL    HW2 9120   6.859   5.200   1.781
 2741SOL     OW 9121   6.599   1.268   4.879
 2741SOL    HW1 9122   6.549   1.324   4.812
 2741SOL    HW2 9123   6.537   1.200   4.919
 2742SOL     OW 9124   1.938   5.301   0.554
 2742SOL    HW1 9125   2.003   5.269   0.486
 2742SOL    HW2 9126   1.977   5.292   0.646
 2743SOL     OW 9127   0.211   4.757   2.545
 2743SOL    HW1 9128   0.138   4.825   2.546
 2743SOL    HW2 9129   0.198   4.695   2.467
 2744SOL     OW 9130   4.589   3.087   0.642
 2744SOL    HW1 9131   4.608   3.182   0.668
 2744SOL    HW2 9132   4.565   3.034   0.723
 2745SOL     OW 9133   6.606   1.051   4.675
 2745SOL    HW1 9134   6.678   1.093   4.619
 2745SOL    HW2 9135   6.592   1.105   4.758
 2746SOL     OW 9136   1.082   2.631   4.534
 2746SOL    HW1 9137   1.156   2.692   4.561
 2746SOL    HW2 9138   0.998   2.659   4.580
 2747SOL     OW 9139   4.900   5.746   6.724
 2747SOL    HW1 9140   4.899   5.651   6.695
 2747SOL    HW2 9141   4.844   5.801   6.663
 2748SOL     OW 9142   4.778   1.283   1.977
 2748SOL    HW1 9143   4.709   1.288   2.049
 2748SOL    HW2 9144   4.861   1.330   2.007
 2749SOL     OW 9145   6.707   4.603   1.011
 2749SOL    HW1 9146   6.734   4.695   0.982
 2749SOL    HW2 9147   6.716   4.595   1.110
 2750SOL     OW 9148   2.261   4.003   2.099
 2750SOL    HW1 9149   2.285   3.941   2.025
 2750SOL    HW2 9150   2.248   4.095   2.063
 2751SOL     OW 9151   0.343   2.561   1.668
 2751SOL    HW1 9152   0.364   2.552   1.571
 2751SOL    HW2 9153   0.391   2.640   1.706
 2752SOL     OW 9154   3.087   4.561   6.141
 2752SOL    HW1 9155   3.115   4.620   6.216
 2752SOL    HW2 9156   3.066   4.617   6.060
 2753SOL     OW 9157   6.737   6.436   4.814
 2753SOL    HW1 9158   6.720   6.342   4.847
 2753SOL    HW2 9159   6.785   6.487   4.885
 2754SOL     OW 9160   0.163   0.207   0.424
 2754SOL    HW1 9161   0.090   0.186   0.490
 2754SOL    HW2 9162   0.224   0.128   0.417
 2755SOL     OW 9163   3.937   6.760   2.609
 2755SOL    HW1 9164   4.015   6.698   2.605
 2755SOL    HW2 9165   3.967   6.850   2.640
 2756SOL     OW 9166   4.045   6.042   6.909
 2756SOL    HW1 9167   4.134   5.996   6.904
 2756SOL    HW2 9168   4.012   6.060   6.817
 2757SOL     OW 9169   2.194   6.484   0.184
 2757SOL    HW1 9170   2.192   6.396   0.233
 2757SOL    HW2 9171   2.132   6.548   0.230
 2758SOL     OW 9172   4.587   0.606   3.901
 2758SOL    HW1 9173   4.642   0.654   3.834
 2758SOL    HW2 9174   4.642   0.534   3.945
 2759SOL     OW 9175   5.568   6.527   5.562
 2759SOL    HW1 9176   5.585   6.568   5.473
 2759SOL    HW2 9177   5.654   6.496   5.602
 2760SOL     OW 9178   0.735   5.818   1.965
 2760SOL    HW1 9179   0.737   5.732   2.016
 2760SOL    HW2 9180   0.687   5.888   2.019
 2761SOL     OW 9181   2.016   4.505   4.252
 2761SOL    HW1 9182   2.096   4.524   4.311
 2761SOL    HW2 9183   2.013   4.407   4.231
 2762SOL     OW 9184   1.809   0.710   5.384
 2762SOL    HW1 9185   1.842   0.718   5.478
 2762SOL    HW2 9186   1.857   0.777   5.327
 2763SOL     OW 9187   5.353   1.583   4.027
 2763SOL    HW1 9188   5.338   1.485   4.043
 2763SOL    HW2 9189   5.400   1.596   3.941
 2764SOL     OW 9190   6.129   0.679   0.998
 2764SOL    HW1 9191   6.165   0.691   0.906
 2764SOL    HW2 9192   6.035   0.645   0.993
 2765SOL     OW 9193   5.408   0.235   0.562
 2765SOL    HW1 9194   5.461   0.260   0.481
 2765SOL    HW2 9195   5.454   0.270   0.644
 2766SOL     OW 9196   4.624   2.404   0.321
 2766SOL    HW1 9197   4.566   2.323   0.326
 2766SOL    HW2 9198   4.709   2.380   0.274
 2767SOL     OW 9199   6.873   5.403   6.974
 2767SOL    HW1 9200   6.799   5.469   6.957
 2767SOL    HW2 9201   6.849   5.315   6.933
 2768SOL     OW 9202   4.935   0.448   0.456
 2768SOL    HW1 9203   4.966   0.527   0.404
 2768SOL    HW2 9204   4.998   0.431   0.532
 2769SOL     OW 9205   0.604   4.446   3.776
 2769SOL    HW1 9206   0.689   4.396   3.757
 2769SOL    HW2 9207   0.595   4.521   3.711
 2770SOL     OW 9208   2.574   5.659   5.851
 2770SOL    HW1 9209   2.573   5.628   5.947
 2770SOL    HW2 9210   2.662   5.700   5.830
 2771SOL     OW 9211   6.350   0.738   2.764
 2771SOL    HW1 9212   6.251   0.748   2.776
 2771SOL    HW2 9213   6.389   0.825   2.733
 2772SOL     OW 9214   4.243   1.202   0.702
 2772SOL    HW1 9215   4.245   1.149   0.786
 2772SOL    HW2 9216   4.153   1.193   0.659
 2773SOL     OW 9217   5.716   2.344   5.401
 2773SOL    HW1 9218   5.682   2.438   5.400
 2773SOL    HW2 9219   5.794   2.336   5.339
 2774SOL     OW 9220   6.187   3.751   3.398
 2774SOL    HW1 9221   6.265   3.689   3.398
 2774SOL    HW2 9222   6.106   3.703   3.430
 2775SOL     OW 9223   6.913   5.419   6.498
 2775SOL    HW1 9224   6.862   5.343   6.538
 2775SOL    HW2 9225   6.992   5.441   6.556
 2776SOL     OW 9226   5.207   4.832   6.090
 2776SOL    HW1 9227   5.290   4.864   6.135
 2776SOL    HW2 9228   5.128   4.850   6.148
 2777SOL     OW 9229   2.578   0.990   1.958
 2777SOL    HW1 9230   2.563   0.893   1.974
 2777SOL    HW2 9231   2.658   1.020   2.011
 2778SOL     OW 9232   1.264   0.228   5.019
 2778SOL    HW1 9233   1.289   0.260   5.111
 2778SOL    HW2 9234   1.227   0.136   5.025
 2779SOL     OW 9235   5.007   6.646   1.222
 2779SOL    HW1 9236   5.039   6.609   1.135
 2779SOL    HW2 9237   4.921   6.601   1.248
 2780SOL     OW 9238   6.677   6.204   6.689
 2780SOL    HW1 9239   6.582   6.233   6.707
 2780SOL    HW2 9240   6.728   6.281   6.651
 2781SOL     OW 9241   5.924   6.023   1.799
 2781SOL    HW1 9242   5.971   5.935   1.803
 2781SOL    HW2 9243   5.839   6.014   1.747
 2782SOL     OW 9244   3.554   2.003   5.513
 2782SOL    HW1 9245   3.569   1.995   5.414
 2782SOL    HW2 9246   3.457   1.992   5.533
 2783SOL     OW 9247   5.434   3.415   4.410
 2783SOL    HW1 9248   5.455   3.367   4.325
 2783SOL    HW2 9249   5.516   3.421   4.466
 2784SOL     OW 9250   3.258   2.327   1.186
 2784SOL    HW1 9251   3.232   2.232   1.167
 2784SOL    HW2 9252   3.343   2.328   1.239
 2785SOL     OW 9253   5.611   1.859   0.903
 2785SOL    HW1 9254   5.512   1.876   0.903
 2785SOL    HW2 9255   5.642   1.844   0.997
 2786SOL     OW 9256   4.563   5.970   1.959
 2786SOL    HW1 9257   4.513   5.885   1.977
 2786SOL    HW2 9258   4.660   5.956   1.982
 2787SOL     OW 9259   3.279   1.858   6.703
 2787SOL    HW1 9260   3.302   1.760   6.706
 2787SOL    HW2 9261   3.362   1.912   6.714
 2788SOL     OW 9262   2.233   5.023   6.208
 2788SOL    HW1 9263   2.174   4.943   6.198
 2788SOL    HW2 9264   2.183   5.097   6.252
 2789SOL     OW 9265   1.742   2.329   3.368
 2789SOL    HW1 9266   1.658   2.370   3.332
 2789SOL    HW2 9267   1.784   2.271   3.297
 2790SOL     OW 9268   2.869   5.750   2.234
 2790SOL    HW1 9269   2.943   5.685   2.254
 2790SOL    HW2 9270   2.909   5.836   2.202
 2791SOL     OW 9271   0.862   4.075   3.646
 2791SOL    HW1 9272   0.817   4.160   3.673
 2791SOL    HW2 9273   0.811   3.997   3.682
 2792SOL     OW 9274   1.238   6.695   4.609
 2792SOL    HW1 9275   1.174   6.644   4.666
 2792SOL    HW2 9276   1.224   6.793   4.622
 2793SOL     OW 9277   4.922   3.424   3.450
 2793SOL    HW1 9278   4.894   3.485   3.376
 2793SOL    HW2 9279   4.893   3.462   3.538
 2794SOL     OW 9280   0.159   2.733   0.712
 2794SOL    HW1 9281   0.171   2.788   0.795
 2794SOL    HW2 9282   0.102   2.782   0.647
 2795SOL     OW 9283   1.859   3.087   0.851
 2795SOL    HW1 9284   1.911   3.144   0.915
 2795SOL    HW2 9285   1.770   3.130   0.834
 2796SOL     OW 9286   6.443   5.128   2.603
 2796SOL    HW1 9287   6.503   5.206   2.620
 2796SOL    HW2 9288   6.363   5.134   2.662
 2797SOL     OW 9289   5.179   4.931   4.252
 2797SOL    HW1 9290   5.093   4.881   4.263
 2797SOL    HW2 9291   5.250   4.868   4.220
 2798SOL     OW 9292   1.237   4.919   1.568
 2798SOL    HW1 9293   1.209   4.997   1.625
 2798SOL    HW2 9294   1.309   4.868   1.614
 2799SOL     OW 9295   6.627   6.832   0.653
 2799SOL    HW1 9296   6.670   6.747   0.622
 2799SOL    HW2 9297   6.568   6.867   0.582
 2800SOL     OW 9298   4.623   4.890   6.873
 2800SOL    HW1 9299   4.648   4.846   6.958
 2800SOL    HW2 9300   4.549   4.955   6.890
 2801SOL     OW 9301   5.485   5.225   4.796
 2801SOL    HW1 9302   5.458   5.236   4.892
 2801SOL    HW2 9303   5.584   5.231   4.788
 2802SOL     OW 9304   4.752   2.188   6.282
 2802SOL    HW1 9305   4.789   2.270   6.239
 2802SOL    HW2 9306   4.675   2.154   6.229
 2803SOL     OW 9307   3.113   5.890   6.470
 2803SOL    HW1 9308   3.177   5.953   6.425
 2803SOL    HW2 9309   3.163   5.826   6.527
 2804SOL     OW 9310   0.052   4.609   5.108
 2804SOL    HW1 9311   0.097   4.617   5.019
 2804SOL    HW2 9312   0.107   4.657   5.177
 2805SOL     OW 9313   5.122   2.835   2.001
 2805SOL    HW1 9314   5.039   2.781   1.989
 2805SOL    HW2 9315   5.121   2.878   2.092
 2806SOL     OW 9316   6.768   5.309   4.648
 2806SOL    HW1 9317   6.866   5.304   4.625
 2806SOL    HW2 9318   6.754   5.280   4.742
 2807SOL     OW 9319   5.142   5.303   3.433
 2807SOL    HW1 9320   5.098   5.278   3.347
 2807SOL    HW2 9321   5.119   5.235   3.503
 2808SOL     OW 9322   5.388   3.056   2.675
 2808SOL    HW1 9323   5.483   3.040   2.649
 2808SOL    HW2 9324   5.377   3.149   2.710
 2809SOL     OW 9325   5.841   2.724   1.468
 2809SOL    HW1 9326   5.766   2.782   1.435
 2809SOL    HW2 9327   5.899   2.777   1.530
 2810SOL     OW 9328   3.318   5.848   3.778
 2810SOL    HW1 9329   3.366   5.932   3.752
 2810SOL    HW2 9330   3.364   5.807   3.858
 2811SOL     OW 9331   1.276   1.242   2.978
 2811SOL    HW1 9332   1.347   1.217   2.913
 2811SOL    HW2 9333   1.242   1.333   2.957
 2812SOL     OW 9334   5.020   3.613   0.169
 2812SOL    HW1 9335   5.088   3.546   0.138
 2812SOL    HW2 9336   4.972   3.651   0.090
 2813SOL     OW 9337   6.766   0.210   6.323
 2813SOL    HW1 9338   6.765   0.290   6.263
 2813SOL    HW2 9339   6.690   0.214   6.387
 2814SOL     OW 9340   4.866   3.171   6.744
 2814SOL    HW1 9341   4.848   3.075   6.725
 2814SOL    HW2 9342   4.800   3.227   6.694
 2815SOL     OW 9343   6.365   1.144   5.437
 2815SOL    HW1 9344   6.270   1.135   5.406
 2815SOL    HW2 9345   6.369   1.126   5.535
 2816SOL     OW 9346   6.458   5.528   3.219
 2816SOL    HW1 9347   6.448   5.429   3.214
 2816SOL    HW2 9348   6.368   5.571   3.215
 2817SOL     OW 9349   2.766   0.316   0.896
 2817SOL    HW1 9350   2.667   0.307   0.884
 2817SOL    HW2 9351   2.790   0.412   0.904
 2818SOL     OW 9352   0.162   0.495   0.484
 2818SOL    HW1 9353   0.083   0.498   0.545
 2818SOL    HW2 9354   0.193   0.400   0.476
 2819SOL     OW 9355   0.686   1.039   1.557
 2819SOL    HW1 9356   0.620   1.098   1.511
 2819SOL    HW2 9357   0.691   0.951   1.509
 2820SOL     OW 9358   1.225   2.056   3.284
 2820SOL    HW1 9359   1.202   2.143   3.242
 2820SOL    HW2 9360   1.167   1.984   3.246
 2821SOL     OW 9361   4.148   3.563   0.017
 2821SOL    HW1 9362   4.225   3.511   0.053
 2821SOL    HW2 9363   4.072   3.501   7.023
 2822SOL     OW 9364   4.604   2.208   6.781
 2822SOL    HW1 9365   4.560   2.225   6.870
 2822SOL    HW2 9366   4.623   2.111   6.772
 2823SOL     OW 9367   3.421   6.241   0.256
 2823SOL    HW1 9368   3.514   6.206   0.250
 2823SOL    HW2 9369   3.416   6.331   0.212
 2824SOL     OW 9370   3.162   0.792   3.379
 2824SOL    HW1 9371   3.115   0.733   3.446
 2824SOL    HW2 9372   3.113   0.878   3.371
 2825SOL     OW 9373   6.787   0.642   6.836
 2825SOL    HW1 9374   6.727   0.662   6.913
 2825SOL    HW2 9375   6.759   0.696   6.757
 2826SOL     OW 9376   4.456   1.740   6.710
 2826SOL    HW1 9377   4.402   1.663   6.745
 2826SOL    HW2 9378   4.542   1.705   6.673
 2827SOL     OW 9379   6.580   0.706   5.850
 2827SOL    HW1 9380   6.634   0.677   5.929
 2827SOL    HW2 9381   6.483   0.685   5.868
 2828SOL     OW 9382   3.121   1.277   0.317
 2828SOL    HW1 9383   3.125   1.259   0.218
 2828SOL    HW2 9384   3.026   1.283   0.346
 2829SOL     OW 9385   3.612   3.472   5.838
 2829SOL    HW1 9386   3.620   3.549   5.775
 2829SOL    HW2 9387   3.666   3.490   5.921
 2830SOL     OW 9388   1.184   3.163   6.173
 2830SOL    HW1 9389   1.214   3.198   6.261
 2830SOL    HW2 9390   1.097   3.205   6.148
 2831SOL     OW 9391   0.672   5.494   3.532
 2831SOL    HW1 9392   0.649   5.467   3.438
 2831SOL    HW2 9393   0.597   5.547   3.571
 2832SOL     OW 9394   0.979   0.613   2.397
 2832SOL    HW1 9395   0.903   0.613   2.462
 2832SOL    HW2 9396   1.030   0.699   2.406
 2833SOL     OW 9397   4.226   2.268   2.156
 2833SOL    HW1 9398   4.144   2.228   2.198
 2833SOL    HW2 9399   4.214   2.273   2.057
 2834SOL     OW 9400   2.505   6.205   6.135
 2834SOL    HW1 9401   2.583   6.219   6.074
 2834SOL    HW2 9402   2.514   6.115   6.179
 2835SOL     OW 9403   6.972   0.124   1.761
 2835SOL    HW1 9404   0.003   0.089   1.835
 2835SOL    HW2 9405   7.008   0.213   1.731
 2836SOL     OW 9406   5.856   0.191   2.479
 2836SOL    HW1 9407   5.858   0.097   2.444
 2836SOL    HW2 9408   5.762   0.223   2.481
 2837SOL     OW 9409   5.375   3.860   3.168
 2837SOL    HW1 9410   5.374   3.919   3.087
 2837SOL    HW2 9411   5.455   3.882   3.224
 2838SOL     OW 9412   2.202   4.795   0.496
 2838SOL    HW1 9413   2.181   4.782   0.399
 2838SOL    HW2 9414   2.128   4.757   0.552
 2839SOL     OW 9415   6.417   1.440   1.837
 2839SOL    HW1 9416   6.509   1.480   1.844
 2839SOL    HW2 9417   6.406   1.369   1.907
 2840SOL     OW 9418   2.265   1.069   3.385
 2840SOL    HW1 9419   2.304   1.047   3.296
 2840SOL    HW2 9420   2.324   1.033   3.458
 2841SOL     OW 9421   0.814   0.393   5.998
 2841SOL    HW1 9422   0.838   0.332   5.922
 2841SOL    HW2 9423   0.875   0.472   5.998
 2842SOL     OW 9424   0.099   3.718   4.252
 2842SOL    HW1 9425   0.118   3.624   4.225
 2842SOL    HW2 9426   0.119   3.728   4.350
 2843SOL     OW 9427   3.079   1.268   2.670
 2843SOL    HW1 9428   2.983   1.255   2.693
 2843SOL    HW2 9429   3.117   1.184   2.632
 2844SOL     OW 9430   0.399   5.767   0.472
 2844SOL    HW1 9431   0.393   5.825   0.553
 2844SOL    HW2 9432   0.426   5.674   0.499
 2845SOL     OW 9433   6.646   3.170   1.416
 2845SOL    HW1 9434   6.566   3.229   1.427
 2845SOL    HW2 9435   6.660   3.118   1.500
 2846SOL     OW 9436   4.294   1.170   6.569
 2846SOL    HW1 9437   4.378   1.222   6.586
 2846SOL    HW2 9438   4.290   1.092   6.631
 2847SOL     OW 9439   5.001   3.797   3.913
 2847SOL    HW1 9440   5.076   3.735   3.890
 2847SOL    HW2 9441   4.933   3.796   3.840
 2848SOL     OW 9442   1.804   3.294   5.915
 2848SOL    HW1 9443   1.882   3.300   5.977
 2848SOL    HW2 9444   1.735   3.362   5.942
 2849SOL     OW 9445   3.250   6.732   0.693
 2849SOL    HW1 9446   3.203   6.796   0.632
 2849SOL    HW2 9447   3.181   6.678   0.743
 2850SOL     OW 9448   2.673   0.156   2.194
 2850SOL    HW1 9449   2.705   0.149   2.100
 2850SOL    HW2 9450   2.644   0.066   2.227
 2851SOL     OW 9451   6.867   2.052   5.753
 2851SOL    HW1 9452   6.845   1.961   5.717
 2851SOL    HW2 9453   6.919   2.042   5.838
 2852SOL     OW 9454   5.741   4.988   0.128
 2852SOL    HW1 9455   5.725   4.946   0.217
 2852SOL    HW2 9456   5.822   4.948   0.086
 2853SOL     OW 9457   1.868   2.703   6.829
 2853SOL    HW1 9458   1.872   2.645   6.910
 2853SOL    HW2 9459   1.931   2.780   6.839
 2854SOL     OW 9460   3.930   1.007   4.867
 2854SOL    HW1 9461   3.967   0.920   4.836
 2854SOL    HW2 9462   4.000   1.056   4.919
 2855SOL     OW 9463   2.635   1.148   6.626
 2855SOL    HW1 9464   2.639   1.243   6.597
 2855SOL    HW2 9465   2.716   1.127   6.681
 2856SOL     OW 9466   1.600   2.931   5.908
 2856SOL    HW1 9467   1.640   2.851   5.952
 2856SOL    HW2 9468   1.632   2.936   5.813
 2857SOL     OW 9469   3.220   1.668   2.241
 2857SOL    HW1 9470   3.247   1.575   2.265
 2857SOL    HW2 9471   3.200   1.720   2.324
 2858SOL     OW 9472   5.363   4.306   3.032
 2858SOL    HW1 9473   5.323   4.312   2.940
 2858SOL    HW2 9474   5.309   4.242   3.087
 2859SOL     OW 9475   5.097   2.159   0.112
 2859SOL    HW1 9476   5.116   2.068   0.074
 2859SOL    HW2 9477   5.093   2.154   0.212
 2860SOL     OW 9478   3.476   1.881   1.313
 2860SOL    HW1 9479   3.428   1.811   1.366
 2860SOL    HW2 9480   3.425   1.900   1.229
 2861SOL     OW 9481   3.803   3.985   6.220
 2861SOL    HW1 9482   3.743   4.020   6.149
 2861SOL    HW2 9483   3.886   4.041   6.225
 2862SOL     OW 9484   5.428   1.912   3.141
 2862SOL    HW1 9485   5.496   1.982   3.163
 2862SOL    HW2 9486   5.337   1.952   3.141
 2863SOL     OW 9487   5.007   1.131   6.974
 2863SOL    HW1 9488   4.970   1.156   6.885
 2863SOL    HW2 9489   4.950   1.061   7.017
 2864SOL     OW 9490   4.227   1.250   1.445
 2864SOL    HW1 9491   4.226   1.286   1.539
 2864SOL    HW2 9492   4.250   1.323   1.382
 2865SOL     OW 9493   5.006   4.326   6.400
 2865SOL    HW1 9494   5.086   4.270   6.378
 2865SOL    HW2 9495   4.983   4.314   6.497
 2866SOL     OW 9496   6.382   5.958   6.706
 2866SOL    HW1 9497   6.416   6.046   6.738
 2866SOL    HW2 9498   6.425   5.935   6.618
 2867SOL     OW 9499   5.599   3.798   2.595
 2867SOL    HW1 9500   5.608   3.896   2.578
 2867SOL    HW2 9501   5.581   3.782   2.692
 2868SOL     OW 9502   6.849   2.437   5.589
 2868SOL    HW1 9503   6.838   2.394   5.500
 2868SOL    HW2 9504   6.869   2.534   5.577
 2869SOL     OW 9505   6.683   0.710   3.538
 2869SOL    HW1 9506   6.748   0.636   3.555
 2869SOL    HW2 9507   6.732   0.792   3.512
 2870SOL     OW 9508   6.975   0.798   4.399
 2870SOL    HW1 9509   0.024   0.865   4.403
 2870SOL    HW2 9510   6.954   0.776   4.303
 2871SOL     OW 9511   0.535   1.968   0.236
 2871SOL    HW1 9512   0.537   1.882   0.185
 2871SOL    HW2 9513   0.586   1.956   0.322
 2872SOL     OW 9514   3.432   1.254   2.562
 2872SOL    HW1 9515   3.502   1.266   2.632
 2872SOL    HW2 9516   3.355   1.203   2.601
 2873SOL     OW 9517   6.757   5.008   2.747
 2873SOL    HW1 9518   6.666   5.028   2.783
 2873SOL    HW2 9519   6.818   5.085   2.767
 2874SOL     OW 9520   3.389   6.506   3.651
 2874SOL    HW1 9521   3.321   6.569   3.688
 2874SOL    HW2 9522   3.378   6.416   3.694
 2875SOL     OW 9523   4.745   6.563   1.036
 2875SOL    HW1 9524   4.740   6.535   1.131
 2875SOL    HW2 9525   4.655   6.557   0.994
 2876SOL     OW 9526   0.733   0.122   1.492
 2876SOL    HW1 9527   0.805   0.186   1.520
 2876SOL    HW2 9528   0.671   0.107   1.569
 2877SOL     OW 9529   3.230   2.618   5.493
 2877SOL    HW1 9530   3.165   2.560   5.444
 2877SOL    HW2 9531   3.201   2.714   5.485
 2878SOL     OW 9532   4.300   5.386   4.587
 2878SOL    HW1 9533   4.341   5.354   4.672
 2878SOL    HW2 9534   4.273   5.308   4.530
 2879SOL     OW 9535   5.231   4.737   0.632
 2879SOL    HW1 9536   5.190   4.650   0.604
 2879SOL    HW2 9537   5.318   4.720   0.679
 2880SOL     OW 9538   5.693   6.567   1.795
 2880SOL    HW1 9539   5.644   6.627   1.731
 2880SOL    HW2 9540   5.629   6.534   1.864
 2881SOL     OW 9541   5.294   6.223   6.727
 2881SOL    HW1 9542   5.209   6.262   6.764
 2881SOL    HW2 9543   5.371   6.280   6.755
 2882SOL     OW 9544   0.723   4.379   2.476
 2882SOL    HW1 9545   0.770   4.291   2.472
 2882SOL    HW2 9546   0.635   4.368   2.523
 2883SOL     OW 9547   6.162   6.775   3.649
 2883SOL    HW1 9548   6.227   6.736   3.584
 2883SOL    HW2 9549   6.170   6.727   3.737
 2884SOL     OW 9550   1.063   5.564   2.958
 2884SOL    HW1 9551   1.063   5.601   2.865
 2884SOL    HW2 9552   1.139   5.605   3.010
 2885SOL     OW 9553   0.464   3.338   2.415
 2885SOL    HW1 9554   0.466   3.332   2.514
 2885SOL    HW2 9555   0.379   3.298   2.381
 2886SOL     OW 9556   2.917   4.121   5.865
 2886SOL    HW1 9557   2.903   4.220   5.874
 2886SOL    HW2 9558   2.957   4.085   5.949
 2887SOL     OW 9559   1.315   0.098   4.377
 2887SOL    HW1 9560   1.300   0.196   4.361
 2887SOL    HW2 9561   1.400   0.084   4.426
 2888SOL     OW 9562   0.940   4.445   0.122
 2888SOL    HW1 9563   0.979   4.354   0.139
 2888SOL    HW2 9564   0.964   4.506   0.198
 2889SOL     OW 9565   2.058   6.887   1.927
 2889SOL    HW1 9566   2.105   6.975   1.931
 2889SOL    HW2 9567   2.041   6.855   2.020
 2890SOL     OW 9568   2.440   6.851   0.928
 2890SOL    HW1 9569   2.461   6.755   0.949
 2890SOL    HW2 9570   2.516   6.891   0.875
 2891SOL     OW 9571   1.594   4.092   3.211
 2891SOL    HW1 9572   1.631   4.126   3.297
 2891SOL    HW2 9573   1.506   4.047   3.228
 2892SOL     OW 9574   5.452   3.753   6.869
 2892SOL    HW1 9575   5.550   3.765   6.851
 2892SOL    HW2 9576   5.401   3.827   6.827
 2893SOL     OW 9577   7.015   6.659   4.831
 2893SOL    HW1 9578   0.089   6.653   4.817
 2893SOL    HW2 9579   6.995   6.726   4.902
 2894SOL     OW 9580   2.827   3.134   0.485
 2894SOL    HW1 9581   2.878   3.125   0.570
 2894SOL    HW2 9582   2.807   3.043   0.448
 2895SOL     OW 9583   4.550   2.802   6.179
 2895SOL    HW1 9584   4.470   2.768   6.130
 2895SOL    HW2 9585   4.633   2.765   6.137
 2896SOL     OW 9586   4.110   5.458   6.243
 2896SOL    HW1 9587   4.105   5.400   6.162
 2896SOL    HW2 9588   4.199   5.446   6.287
 2897SOL     OW 9589   3.865   4.912   3.534
 2897SOL    HW1 9590   3.766   4.898   3.533
 2897SOL    HW2 9591   3.907   4.861   3.459
 2898SOL     OW 9592   3.929   6.107   4.265
 2898SOL    HW1 9593   4.012   6.154   4.294
 2898SOL    HW2 9594   3.932   6.092   4.166
 2899SOL     OW 9595   0.915   1.882   0.804
 2899SOL    HW1 9596   0.867   1.800   0.773
 2899SOL    HW2 9597   0.857   1.962   0.791
 2900SOL     OW 9598   2.183   5.224   5.641
 2900SOL    HW1 9599   2.101   5.171   5.662
 2900SOL    HW2 9600   2.250   5.211   5.714
 2901SOL     OW 9601   2.161   6.644   3.788
 2901SOL    HW1 9602   2.173   6.624   3.885
 2901SOL    HW2 9603   2.126   6.563   3.741
 2902SOL     OW 9604   4.888   6.562   1.596
 2902SOL    HW1 9605   4.817   6.542   1.664
 2902SOL    HW2 9606   4.869   6.651   1.555
 2903SOL     OW 9607   2.986   0.763   0.393
 2903SOL    HW1 9608   2.980   0.671   0.356
 2903SOL    HW2 9609   3.009   0.827   0.320
 2904SOL     OW 9610   2.248   3.824   5.248
 2904SOL    HW1 9611   2.281   3.738   5.208
 2904SOL    HW2 9612   2.307   3.899   5.219
 2905SOL     OW 9613   1.017   2.002   3.608
 2905SOL    HW1 9614   1.111   2.016   3.578
 2905SOL    HW2 9615   0.957   2.069   3.565
 2906SOL     OW 9616   4.542   5.664   2.599
 2906SOL    HW1 9617   4.630   5.618   2.612
 2906SOL    HW2 9618   4.556   5.746   2.543
 2907SOL     OW 9619   0.034   1.351   4.377
 2907SOL    HW1 9620   7.001   1.269   4.370
 2907SOL    HW2 9621   7.006   1.431   4.349
 2908SOL     OW 9622   4.708   6.734   4.222
 2908SOL    HW1 9623   4.653   6.815   4.239
 2908SOL    HW2 9624   4.793   6.740   4.274
 2909SOL     OW 9625   0.699   6.867   3.658
 2909SOL    HW1 9626   0.700   6.828   3.566
 2909SOL    HW2 9627   0.669   6.962   3.654
 2910SOL     OW 9628   4.945   6.709   4.421
 2910SOL    HW1 9629   4.932   6.620   4.464
 2910SOL    HW2 9630   4.947   6.780   4.491
 2911SOL     OW 9631   2.028   5.520   3.472
 2911SOL    HW1 9632   1.999   5.507   3.377
 2911SOL    HW2 9633   1.963   5.578   3.519
 2912SOL     OW 9634   4.493   6.883   6.773
 2912SOL    HW1 9635   4.434   6.932   6.837
 2912SOL    HW2 9636   4.550   6.948   6.723
 2913SOL     OW 9637   2.394   4.364   3.126
 2913SOL    HW1 9638   2.375   4.277   3.173
 2913SOL    HW2 9639   2.385   4.350   3.027
 2914SOL     OW 9640   5.789   6.547   6.006
 2914SOL    HW1 9641   5.829   6.625   5.958
 2914SOL    HW2 9642   5.767   6.475   5.939
 2915SOL     OW 9643   5.800   1.667   5.065
 2915SOL    HW1 9644   5.835   1.601   5.132
 2915SOL    HW2 9645   5.742   1.734   5.112
 2916SOL     OW 9646   6.751   6.112   6.129
 2916SOL    HW1 9647   6.675   6.071   6.078
 2916SOL    HW2 9648   6.818   6.149   6.064
 2917SOL     OW 9649   4.020   6.468   2.457
 2917SOL    HW1 9650   3.941   6.478   2.397
 2917SOL    HW2 9651   4.077   6.550   2.451
 2918SOL     OW 9652   6.844   3.990   3.969
 2918SOL    HW1 9653   6.809   4.073   3.927
 2918SOL    HW2 9654   6.769   3.940   4.012
 2919SOL     OW 9655   6.795   1.017   0.968
 2919SOL    HW1 9656   6.745   1.032   1.054
 2919SOL    HW2 9657   6.889   1.049   0.978
 2920SOL     OW 9658   2.685   2.356   2.144
 2920SOL    HW1 9659   2.699   2.411   2.227
 2920SOL    HW2 9660   2.774   2.332   2.105
 2921SOL     OW 9661   1.181   0.613   3.338
 2921SOL    HW1 9662   1.133   0.631   3.424
 2921SOL    HW2 9663   1.278   0.631   3.350
 2922SOL     OW 9664   4.982   6.809   0.770
 2922SOL    HW1 9665   5.016   6.722   0.733
 2922SOL    HW2 9666   4.986   6.879   0.699
 2923SOL     OW 9667   6.800   4.834   2.061
 2923SOL    HW1 9668   6.877   4.778   2.031
 2923SOL    HW2 9669   6.759   4.879   1.981
 2924SOL     OW 9670   0.593   1.592   6.787
 2924SOL    HW1 9671   0.692   1.593   6.801
 2924SOL    HW2 9672   0.565   1.675   6.740
 2925SOL     OW 9673   4.863   1.067   3.205
 2925SOL    HW1 9674   4.887   1.067   3.108
 2925SOL    HW2 9675   4.879   0.976   3.243
 2926SOL     OW 9676   6.862   1.158   4.473
 2926SOL    HW1 9677   6.815   1.078   4.435
 2926SOL    HW2 9678   6.933   1.127   4.537
 2927SOL     OW 9679   1.422   1.955   3.141
 2927SOL    HW1 9680   1.400   1.940   3.045
 2927SOL    HW2 9681   1.339   1.984   3.190
 2928SOL     OW 9682   0.152   2.445   6.110
 2928SOL    HW1 9683   0.235   2.494   6.082
 2928SOL    HW2 9684   0.120   2.388   6.034
 2929SOL     OW 9685   0.516   1.077   6.282
 2929SOL    HW1 9686   0.559   1.027   6.357
 2929SOL    HW2 9687   0.417   1.085   6.299
 2930SOL     OW 9688   4.326   6.323   5.197
 2930SOL    HW1 9689   4.227   6.313   5.196
 2930SOL    HW2 9690   4.358   6.344   5.104
 2931SOL     OW 9691   5.488   5.133   0.823
 2931SOL    HW1 9692   5.400   5.168   0.791
 2931SOL    HW2 9693   5.540   5.207   0.864
 2932SOL     OW 9694   1.039   5.256   1.271
 2932SOL    HW1 9695   1.117   5.311   1.240
 2932SOL    HW2 9696   0.955   5.290   1.228
 2933SOL     OW 9697   6.082   4.224   3.058
 2933SOL    HW1 9698   6.179   4.243   3.045
 2933SOL    HW2 9699   6.027   4.300   3.023
 2934SOL     OW 9700   4.656   1.284   0.444
 2934SOL    HW1 9701   4.562   1.254   0.459
 2934SOL    HW2 9702   4.662   1.383   0.458
 2935SOL     OW 9703   6.420   3.333   1.344
 2935SOL    HW1 9704   6.330   3.308   1.308
 2935SOL    HW2 9705   6.416   3.425   1.383
 2936SOL     OW 9706   3.805   5.040   2.203
 2936SOL    HW1 9707   3.712   5.005   2.191
 2936SOL    HW2 9708   3.811   5.132   2.165
 2937SOL     OW 9709   4.310   4.806   0.301
 2937SOL    HW1 9710   4.314   4.904   0.280
 2937SOL    HW2 9711   4.266   4.794   0.390
 2938SOL     OW 9712   4.994   4.864   6.259
 2938SOL    HW1 9713   4.917   4.828   6.206
 2938SOL    HW2 9714   4.987   4.834   6.354
 2939SOL     OW 9715   0.546   0.338   3.962
 2939SOL    HW1 9716   0.523   0.357   4.057
 2939SOL    HW2 9717   0.642   0.310   3.956
 2940SOL     OW 9718   5.998   6.458   6.542
 2940SOL    HW1 9719   5.984   6.359   6.535
 2940SOL    HW2 9720   6.000   6.498   6.450
 2941SOL     OW 9721   2.389   2.627   4.177
 2941SOL    HW1 9722   2.382   2.718   4.137
 2941SOL    HW2 9723   2.397   2.635   4.277
 2942SOL     OW 9724   3.000   2.585   1.514
 2942SOL    HW1 9725   3.047   2.573   1.602
 2942SOL    HW2 9726   3.067   2.616   1.446
 2943SOL     OW 9727   5.563   4.474   2.923
 2943SOL    HW1 9728   5.486   4.444   2.978
 2943SOL    HW2 9729   5.579   4.572   2.939
 2944SOL     OW 9730   2.656   5.448   5.373
 2944SOL    HW1 9731   2.684   5.356   5.402
 2944SOL    HW2 9732   2.658   5.454   5.274
 2945SOL     OW 9733   3.699   3.921   3.545
 2945SOL    HW1 9734   3.655   3.984   3.609
 2945SOL    HW2 9735   3.759   3.858   3.596
 2946SOL     OW 9736   1.090   5.901   0.139
 2946SOL    HW1 9737   1.165   5.868   0.081
 2946SOL    HW2 9738   1.015   5.934   0.082
 2947SOL     OW 9739   0.558   3.317   6.608
 2947SOL    HW1 9740   0.586   3.379   6.534
 2947SOL    HW2 9741   0.617   3.333   6.688
 2948SOL     OW 9742   6.677   4.590   5.803
 2948SOL    HW1 9743   6.611   4.648   5.755
 2948SOL    HW2 9744   6.654   4.494   5.787
 2949SOL     OW 9745   2.954   5.638   0.926
 2949SOL    HW1 9746   2.856   5.650   0.909
 2949SOL    HW2 9747   2.969   5.617   1.022
 2950SOL     OW 9748   4.866   3.788   4.527
 2950SOL    HW1 9749   4.842   3.882   4.500
 2950SOL    HW2 9750   4.831   3.724   4.459
 2951SOL     OW 9751   5.974   2.100   1.128
 2951SOL    HW1 9752   6.053   2.156   1.154
 2951SOL    HW2 9753   5.995   2.051   1.043
 2952SOL     OW 9754   0.852   5.499   5.385
 2952SOL    HW1 9755   0.932   5.534   5.335
 2952SOL    HW2 9756   0.803   5.432   5.329
 2953SOL     OW 9757   5.166   3.330   3.431
 2953SOL    HW1 9758   5.069   3.356   3.432
 2953SOL    HW2 9759   5.199   3.325   3.337
 2954SOL     OW 9760   0.722   5.429   1.439
 2954SOL    HW1 9761   0.813   5.470   1.436
 2954SOL    HW2 9762   0.655   5.495   1.404
 2955SOL     OW 9763   0.896   4.268   1.484
 2955SOL    HW1 9764   0.855   4.204   1.549
 2955SOL    HW2 9765   0.843   4.353   1.483
 2956SOL     OW 9766   6.189   6.318   3.274
 2956SOL    HW1 9767   6.093   6.292   3.259
 2956SOL    HW2 9768   6.249   6.251   3.229
 2957SOL     OW 9769   6.107   3.207   1.910
 2957SOL    HW1 9770   6.093   3.127   1.851
 2957SOL    HW2 9771   6.081   3.290   1.861
 2958SOL     OW 9772   2.661   4.644   4.527
 2958SOL    HW1 9773   2.713   4.603   4.602
 2958SOL    HW2 9774   2.723   4.669   4.453
 2959SOL     OW 9775   4.844   5.097   0.493
 2959SOL    HW1 9776   4.770   5.057   0.439
 2959SOL    HW2 9777   4.845   5.057   0.584
 2960SOL     OW 9778   4.157   0.043   6.048
 2960SOL    HW1 9779   4.101   0.027   5.967
 2960SOL    HW2 9780   4.107   0.012   6.129
 2961SOL     OW 9781   4.832   2.348   4.373
 2961SOL    HW1 9782   4.911   2.375   4.427
 2961SOL    HW2 9783   4.822   2.410   4.294
 2962SOL     OW 9784   4.574   0.945   3.534
 2962SOL    HW1 9785   4.483   0.927   3.569
 2962SOL    HW2 9786   4.591   1.043   3.531
 2963SOL     OW 9787   2.046   1.021   5.792
 2963SOL    HW1 9788   2.139   0.992   5.811
 2963SOL    HW2 9789   2.005   0.960   5.724
 2964SOL     OW 9790   6.923   0.361   2.639
 2964SOL    HW1 9791   6.860   0.402   2.704
 2964SOL    HW2 9792   7.010   0.339   2.685
 2965SOL     OW 9793   6.967   0.818   4.781
 2965SOL    HW1 9794   6.980   0.730   4.735
 2965SOL    HW2 9795   6.890   0.812   4.845
 2966SOL     OW 9796   5.790   5.449   4.261
 2966SOL    HW1 9797   5.814   5.521   4.197
 2966SOL    HW2 9798   5.870   5.428   4.318
 2967SOL     OW 9799   6.163   1.753   4.687
 2967SOL    HW1 9800   6.141   1.665   4.643
 2967SOL    HW2 9801   6.126   1.753   4.780
 2968SOL     OW 9802   0.979   3.424   6.560
 2968SOL    HW1 9803   1.019   3.413   6.651
 2968SOL    HW2 9804   1.022   3.502   6.514
 2969SOL     OW 9805   5.870   0.910   4.735
 2969SOL    HW1 9806   5.770   0.915   4.741
 2969SOL    HW2 9807   5.907   0.870   4.819
 2970SOL     OW 9808   1.098   4.086   6.319
 2970SOL    HW1 9809   1.145   4.025   6.256
 2970SOL    HW2 9810   1.021   4.129   6.272
 2971SOL     OW 9811   5.873   3.600   5.940
 2971SOL    HW1 9812   5.965   3.566   5.920
 2971SOL    HW2 9813   5.874   3.649   6.027
 2972SOL     OW 9814   6.654   4.687   6.675
 2972SOL    HW1 9815   6.687   4.612   6.617
 2972SOL    HW2 9816   6.565   4.717   6.641
 2973SOL     OW 9817   5.601   1.098   4.211
 2973SOL    HW1 9818   5.650   1.079   4.296
 2973SOL    HW2 9819   5.666   1.103   4.135
 2974SOL     OW 9820   1.051   3.799   2.614
 2974SOL    HW1 9821   0.992   3.877   2.597
 2974SOL    HW2 9822   0.999   3.714   2.605
 2975SOL     OW 9823   6.981   2.108   4.899
 2975SOL    HW1 9824   6.981   2.041   4.824
 2975SOL    HW2 9825   0.051   2.130   4.923
 2976SOL     OW 9826   4.194   2.243   2.816
 2976SOL    HW1 9827   4.234   2.255   2.725
 2976SOL    HW2 9828   4.259   2.276   2.885
 2977SOL     OW 9829   1.826   6.599   4.132
 2977SOL    HW1 9830   1.749   6.555   4.085
 2977SOL    HW2 9831   1.846   6.687   4.088
 2978SOL     OW 9832   4.493   4.633   6.575
 2978SOL    HW1 9833   4.492   4.533   6.577
 2978SOL    HW2 9834   4.547   4.664   6.496
 2979SOL     OW 9835   4.896   0.124   4.453
 2979SOL    HW1 9836   4.885   0.048   4.389
 2979SOL    HW2 9837   4.959   0.192   4.413
 2980SOL     OW 9838   1.066   6.333   3.862
 2980SOL    HW1 9839   1.162   6.359   3.861
 2980SOL    HW2 9840   1.056   6.240   3.898
 2981SOL     OW 9841   1.551   1.320   6.048
 2981SOL    HW1 9842   1.533   1.417   6.066
 2981SOL    HW2 9843   1.513   1.296   5.959
 2982SOL     OW 9844   3.989   5.845   3.013
 2982SOL    HW1 9845   3.939   5.766   3.047
 2982SOL    HW2 9846   4.007   5.908   3.088
 2983SOL     OW 9847   0.750   1.339   3.938
 2983SOL    HW1 9848   0.727   1.332   4.035
 2983SOL    HW2 9849   0.723   1.429   3.903
 2984SOL     OW 9850   5.311   5.362   1.771
 2984SOL    HW1 9851   5.366   5.280   1.754
 2984SOL    HW2 9852   5.214   5.338   1.770
 2985SOL     OW 9853   1.562   2.227   5.598
 2985SOL    HW1 9854   1.534   2.184   5.685
 2985SOL    HW2 9855   1.655   2.262   5.607
 2986SOL     OW 9856   2.263   4.054   6.465
 2986SOL    HW1 9857   2.344   3.997   6.452
 2986SOL    HW2 9858   2.263   4.090   6.558
 2987SOL     OW 9859   5.711   0.960   3.717
 2987SOL    HW1 9860   5.639   1.030   3.725
 2987SOL    HW2 9861   5.669   0.870   3.706
 2988SOL     OW 9862   0.700   6.568   2.817
 2988SOL    HW1 9863   0.711   6.668   2.813
 2988SOL    HW2 9864   0.609   6.547   2.852
 2989SOL     OW 9865   6.880   6.212   0.528
 2989SOL    HW1 9866   6.826   6.138   0.568
 2989SOL    HW2 9867   6.952   6.173   0.471
 2990SOL     OW 9868   4.212   1.727   4.631
 2990SOL    HW1 9869   4.207   1.666   4.710
 2990SOL    HW2 9870   4.146   1.697   4.562
 2991SOL     OW 9871   0.049   4.025   6.321
 2991SOL    HW1 9872   6.978   4.017   6.290
 2991SOL    HW2 9873   0.110   3.996   6.248
 2992SOL     OW 9874   1.860   5.050   5.915
 2992SOL    HW1 9875   1.761   5.058   5.928
 2992SOL    HW2 9876   1.903   5.139   5.928
 2993SOL     OW 9877   0.748   5.151   1.425
 2993SOL    HW1 9878   0.787   5.122   1.512
 2993SOL    HW2 9879   0.733   5.250   1.426
 2994SOL     OW 9880   3.773   6.653   0.185
 2994SOL    HW1 9881   3.691   6.704   0.212
 2994SOL    HW2 9882   3.851   6.685   0.240
 2995SOL     OW 9883   1.953   3.489   6.901
 2995SOL    HW1 9884   1.962   3.526   6.808
 2995SOL    HW2 9885   1.865   3.442   6.909
 2996SOL     OW 9886   1.868   6.909   4.372
 2996SOL    HW1 9887   1.917   6.831   4.412
 2996SOL    HW2 9888   1.919   6.944   4.294
 2997SOL     OW 9889   5.115   0.488   2.361
 2997SOL    HW1 9890   5.161   0.551   2.298
 2997SOL    HW2 9891   5.183   0.442   2.417
 2998SOL     OW 9892   5.295   0.203   4.525
 2998SOL    HW1 9893   5.385   0.238   4.550
 2998SOL    HW2 9894   5.305   0.115   4.478
 2999SOL     OW 9895   3.470   5.004   3.971
 2999SOL    HW1 9896   3.388   5.014   4.027
 2999SOL    HW2 9897   3.542   4.962   4.027
 3000SOL     OW 9898   2.089   4.209   6.956
 3000SOL    HW1 9899   2.036   4.167   0.005
 3000SOL    HW2 9900   2.157   4.270   6.994
 3001SOL     OW 9901   5.776   5.790   6.666
 3001SOL    HW1 9902   5.869   5.756   6.655
 3001SOL    HW2 9903   5.759   5.812   6.762
 3002SOL     OW 9904   4.038   7.020   5.820
 3002SOL    HW1 9905   4.067   0.061   5.750
 3002SOL    HW2 9906   4.070   6.928   5.794
 3003SOL     OW 9907   2.062   0.063   6.820
 3003SOL    HW1 9908   1.984   0.107   6.777
 3003SOL    HW2 9909   2.074   6.995   6.782
 3004SOL     OW 9910   1.330   5.090   3.592
 3004SOL    HW1 9911   1.374   5.006   3.561
 3004SOL    HW2 9912   1.400   5.159   3.609
 3005SOL     OW 9913   2.999   2.201   0.018
 3005SOL    HW1 9914   2.973   2.292   7.009
 3005SOL    HW2 9915   3.021   2.143   6.964
 3006SOL     OW 9916   4.924   2.230   6.705
 3006SOL    HW1 9917   5.016   2.196   6.724
 3006SOL    HW2 9918   4.890   2.281   6.784
 3007SOL     OW 9919   5.606   5.219   1.401
 3007SOL    HW1 9920   5.641   5.252   1.313
 3007SOL    HW2 9921   5.584   5.122   1.394
 3008SOL     OW 9922   3.388   0.431   6.413
 3008SOL    HW1 9923   3.425   0.374   6.486
 3008SOL    HW2 9924   3.292   0.406   6.398
 3009SOL     OW 9925   0.756   0.345   3.362
 3009SOL    HW1 9926   0.796   0.274   3.304
 3009SOL    HW2 9927   0.806   0.350   3.448
 3010SOL     OW 9928   3.063   6.477   4.079
 3010SOL    HW1 9929   3.148   6.499   4.032
 3010SOL    HW2 9930   2.990   6.464   4.013
 3011SOL     OW 9931   5.509   1.553   1.074
 3011SOL    HW1 9932   5.412   1.528   1.080
 3011SOL    HW2 9933   5.566   1.474   1.097
 3012SOL     OW 9934   0.759   3.505   5.130
 3012SOL    HW1 9935   0.685   3.493   5.196
 3012SOL    HW2 9936   0.837   3.447   5.156
 3013SOL     OW 9937   5.473   5.591   4.737
 3013SOL    HW1 9938   5.427   5.523   4.795
 3013SOL    HW2 9939   5.519   5.658   4.795
 3014SOL     OW 9940   4.910   3.452   4.575
 3014SOL    HW1 9941   4.962   3.537   4.569
 3014SOL    HW2 9942   4.909   3.420   4.670
 3015SOL     OW 9943   2.586   2.247   0.325
 3015SOL    HW1 9944   2.642   2.276   0.402
 3015SOL    HW2 9945   2.501   2.207   0.360
 3016SOL     OW 9946   2.918   5.615   3.811
 3016SOL    HW1 9947   2.962   5.697   3.847
 3016SOL    HW2 9948   2.920   5.543   3.881
 3017SOL     OW 9949   0.939   5.259   1.843
 3017SOL    HW1 9950   0.966   5.172   1.801
 3017SOL    HW2 9951   1.015   5.295   1.897
 3018SOL     OW 9952   2.040   6.693   5.805
 3018SOL    HW1 9953   1.948   6.733   5.795
 3018SOL    HW2 9954   2.044   6.607   5.753
 3019SOL     OW 9955   1.806   0.107   0.191
 3019SOL    HW1 9956   1.736   0.138   0.255
 3019SOL    HW2 9957   1.892   0.092   0.240
 3020SOL     OW 9958   4.136   3.525   2.014
 3020SOL    HW1 9959   4.189   3.493   1.936
 3020SOL    HW2 9960   4.130   3.625   2.011
 3021SOL     OW 9961   3.322   0.255   7.010
 3021SOL    HW1 9962   3.290   0.332   0.041
 3021SOL    HW2 9963   3.306   0.274   6.913
 3022SOL     OW 9964   3.912   4.938   4.361
 3022SOL    HW1 9965   3.815   4.956   4.376
 3022SOL    HW2 9966   3.955   4.913   4.447
 3023SOL     OW 9967   4.937   0.521   2.662
 3023SOL    HW1 9968   5.002   0.451   2.691
 3023SOL    HW2 9969   4.859   0.477   2.616
 3024SOL     OW 9970   4.431   6.302   5.734
 3024SOL    HW1 9971   4.460   6.247   5.656
 3024SOL    HW2 9972   4.383   6.384   5.702
 3025SOL     OW 9973   3.849   1.457   0.324
 3025SOL    HW1 9974   3.765   1.497   0.360
 3025SOL    HW2 9975   3.892   1.521   0.261
 3026SOL     OW 9976   1.621   1.736   0.722
 3026SOL    HW1 9977   1.553   1.778   0.663
 3026SOL    HW2 9978   1.658   1.654   0.678
 3027SOL     OW 9979   4.180   0.583   2.470
 3027SOL    HW1 9980   4.158   0.594   2.567
 3027SOL    HW2 9981   4.264   0.633   2.449
 3028SOL     OW 9982   1.790   4.076   5.660
 3028SOL    HW1 9983   1.775   4.125   5.574
 3028SOL    HW2 9984   1.818   4.141   5.731
 3029SOL     OW 9985   0.485   3.579   4.769
 3029SOL    HW1 9986   0.398   3.531   4.779
 3029SOL    HW2 9987   0.560   3.513   4.774
 3030SOL     OW 9988   0.862   2.506   5.960
 3030SOL    HW1 9989   0.873   2.505   5.861
 3030SOL    HW2 9990   0.906   2.587   5.998
 3031SOL     OW 9991   0.801   3.162   0.860
 3031SOL    HW1 9992   0.890   3.145   0.819
 3031SOL    HW2 9993   0.777   3.258   0.849
 3032SOL     OW 9994   4.546   6.646   1.612
 3032SOL    HW1 9995   4.592   6.563   1.644
 3032SOL    HW2 9996   4.451   6.624   1.588
 3033SOL     OW 9997   0.182   2.285   1.745
 3033SOL    HW1 9998   0.240   2.212   1.780
 3033SOL    HW2 9999   0.205   2.371   1.791
 3034SOL     OW10000   1.861   5.694   3.635
 3034SOL    HW110001   1.878   5.608   3.684
 3034SOL    HW210002   1.763   5.713   3.634
 3035SOL     OW10003   7.017   3.100   6.995
 3035SOL    HW110004   6.974   3.106   0.061
 3035SOL    HW210005   0.091   3.114   7.004
 3036SOL     OW10006   1.500   2.563   6.439
 3036SOL    HW110007   1.485   2.660   6.417
 3036SOL    HW210008   1.534   2.555   6.532
 3037SOL     OW10009   1.095   6.165   4.471
 3037SOL    HW110010   1.181   6.117   4.491
 3037SOL    HW210011   1.091   6.250   4.525
 3038SOL     OW10012   5.665   5.877   6.450
 3038SOL    HW110013   5.700   5.840   6.536
 3038SOL    HW210014   5.599   5.951   6.469
 3039SOL     OW10015   0.043   4.309   1.520
 3039SOL    HW110016   0.079   4.254   1.445
 3039SOL    HW210017   7.012   4.383   1.482
 3040SOL     OW10018   4.390   3.425   6.070
 3040SOL    HW110019   4.309   3.452   6.019
 3040SOL    HW210020   4.422   3.336   6.036
 3041SOL     OW10021   2.231   2.926   4.821
 3041SOL    HW110022   2.279   2.951   4.905
 3041SOL    HW210023   2.212   3.008   4.768
 3042SOL     OW10024   5.161   6.483   2.029
 3042SOL    HW110025   5.099   6.550   2.070
 3042SOL    HW210026   5.224   6.450   2.100
 3043SOL     OW10027   0.791   5.715   1.698
 3043SOL    HW110028   0.862   5.645   1.710
 3043SOL    HW210029   0.770   5.756   1.787
 3044SOL     OW10030   3.272   4.451   5.939
 3044SOL    HW110031   3.358   4.501   5.949
 3044SOL    HW210032   3.231   4.436   6.029
 3045SOL     OW10033   4.878   1.437   3.243
 3045SOL    HW110034   4.867   1.522   3.293
 3045SOL    HW210035   4.828   1.364   3.290
 3046SOL     OW10036   2.592   1.872   6.581
 3046SOL    HW110037   2.582   1.862   6.680
 3046SOL    HW210038   2.508   1.842   6.535
 3047SOL     OW10039   4.918   0.134   2.224
 3047SOL    HW110040   4.971   0.131   2.308
 3047SOL    HW210041   4.822   0.111   2.243
 3048SOL     OW10042   3.892   2.358   1.699
 3048SOL    HW110043   3.919   2.453   1.712
 3048SOL    HW210044   3.825   2.332   1.769
 3049SOL     OW10045   0.910   6.537   1.677
 3049SOL    HW110046   0.928   6.543   1.579
 3049SOL    HW210047   0.884   6.627   1.712
 3050SOL     OW10048   3.111   0.590   2.669
 3050SOL    HW110049   3.192   0.576   2.726
 3050SOL    HW210050   3.063   0.503   2.657
 3051SOL     OW10051   1.806   4.311   6.891
 3051SOL    HW110052   1.748   4.233   6.913
 3051SOL    HW210053   1.870   4.327   6.966
 3052SOL     OW10054   5.446   6.868   2.178
 3052SOL    HW110055   5.370   6.883   2.115
 3052SOL    HW210056   5.532   6.866   2.126
 3053SOL     OW10057   0.166   1.425   6.924
 3053SOL    HW110058   0.231   1.427   7.000
 3053SOL    HW210059   0.215   1.440   6.838
 3054SOL     OW10060   0.047   2.516   1.426
 3054SOL    HW110061   0.056   2.562   1.514
 3054SOL    HW210062   0.070   2.419   1.436
 3055SOL     OW10063   5.283   6.746   4.029
 3055SOL    HW110064   5.252   6.749   4.123
 3055SOL    HW210065   5.352   6.817   4.014
 3056SOL     OW10066   6.369   1.404   5.363
 3056SOL    HW110067   6.368   1.310   5.399
 3056SOL    HW210068   6.463   1.439   5.365
 3057SOL     OW10069   4.179   5.911   3.369
 3057SOL    HW110070   4.275   5.906   3.342
 3057SOL    HW210071   4.171   5.967   3.451
 3058SOL     OW10072   6.871   5.442   0.812
 3058SOL    HW110073   6.801   5.429   0.742
 3058SOL    HW210074   6.876   5.539   0.837
 3059SOL     OW10075   2.730   2.042   4.386
 3059SOL    HW110076   2.726   2.096   4.470
 3059SOL    HW210077   2.721   2.102   4.306
 3060SOL     OW10078   0.860   5.989   0.504
 3060SOL    HW110079   0.880   5.924   0.431
 3060SOL    HW210080   0.815   5.942   0.580
 3061SOL     OW10081   5.485   0.630   5.754
 3061SOL    HW110082   5.555   0.559   5.763
 3061SOL    HW210083   5.527   0.713   5.719
 3062SOL     OW10084   1.337   6.596   6.912
 3062SOL    HW110085   1.418   6.537   6.913
 3062SOL    HW210086   1.349   6.670   6.979
 3063SOL     OW10087   2.756   5.354   1.567
 3063SOL    HW110088   2.738   5.256   1.568
 3063SOL    HW210089   2.704   5.398   1.640
 3064SOL     OW10090   5.390   3.848   3.926
 3064SOL    HW110091   5.412   3.902   4.007
 3064SOL    HW210092   5.467   3.787   3.904
 3065SOL     OW10093   2.191   0.809   6.970
 3065SOL    HW110094   2.237   0.897   6.955
 3065SOL    HW210095   2.217   0.773   0.036
 3066SOL     OW10096   4.798   5.342   0.817
 3066SOL    HW110097   4.737   5.310   0.745
 3066SOL    HW210098   4.841   5.263   0.861
 3067SOL     OW10099   3.728   2.119   4.825
 3067SOL    HW110100   3.649   2.126   4.885
 3067SOL    HW210101   3.812   2.121   4.880
 3068SOL     OW10102   5.796   6.574   1.257
 3068SOL    HW110103   5.752   6.553   1.170
 3068SOL    HW210104   5.871   6.510   1.273
 3069SOL     OW10105   0.001   6.234   2.178
 3069SOL    HW110106   0.064   6.310   2.196
 3069SOL    HW210107   6.931   6.268   2.183
 3070SOL     OW10108   0.967   1.191   2.158
 3070SOL    HW110109   0.967   1.257   2.234
 3070SOL    HW210110   0.939   1.101   2.192
 3071SOL     OW10111   6.073   5.912   3.042
 3071SOL    HW110112   6.069   5.996   2.988
 3071SOL    HW210113   5.980   5.877   3.056
 3072SOL     OW10114   1.195   6.768   0.342
 3072SOL    HW110115   1.200   6.863   0.374
 3072SOL    HW210116   1.136   6.764   0.261
 3073SOL     OW10117   0.075   3.464   4.949
 3073SOL    HW110118   0.092   3.556   4.982
 3073SOL    HW210119   0.018   3.415   5.015
 3074SOL     OW10120   5.161   3.300   0.985
 3074SOL    HW110121   5.171   3.395   0.956
 3074SOL    HW210122   5.155   3.241   0.904
 3075SOL     OW10123   2.240   5.987   1.680
 3075SOL    HW110124   2.201   6.069   1.721
 3075SOL    HW210125   2.337   6.003   1.659
 3076SOL     OW10126   0.110   0.488   4.173
 3076SOL    HW110127   0.020   0.459   4.205
 3076SOL    HW210128   0.169   0.506   4.251
 3077SOL     OW10129   4.812   5.287   2.503
 3077SOL    HW110130   4.903   5.327   2.495
 3077SOL    HW210131   4.792   5.268   2.599
 3078SOL     OW10132   1.030   3.196   1.701
 3078SOL    HW110133   1.047   3.267   1.771
 3078SOL    HW210134   1.031   3.106   1.745
 3079SOL     OW10135   2.413   1.849   4.655
 3079SOL    HW110136   2.396   1.944   4.625
 3079SOL    HW210137   2.490   1.811   4.605
 3080SOL     OW10138   5.012   3.955   3.493
 3080SOL    HW110139   5.091   3.901   3.464
 3080SOL    HW210140   4.997   4.030   3.428
 3081SOL     OW10141   0.549   2.515   5.956
 3081SOL    HW110142   0.538   2.586   5.886
 3081SOL    HW210143   0.642   2.477   5.950
 3082SOL     OW10144   3.285   6.935   3.955
 3082SOL    HW110145   3.377   6.948   3.918
 3082SOL    HW210146   3.292   6.909   4.051
 3083SOL     OW10147   4.747   6.509   3.545
 3083SOL    HW110148   4.680   6.471   3.481
 3083SOL    HW210149   4.700   6.567   3.611
 3084SOL     OW10150   5.105   4.392   4.596
 3084SOL    HW110151   5.121   4.295   4.614
 3084SOL    HW210152   5.019   4.403   4.546
 3085SOL     OW10153   0.261   4.661   1.470
 3085SOL    HW110154   0.343   4.690   1.519
 3085SOL    HW210155   0.199   4.739   1.460
 3086SOL     OW10156   3.960   2.180   2.208
 3086SOL    HW110157   3.948   2.094   2.258
 3086SOL    HW210158   3.872   2.209   2.170
 3087SOL     OW10159   1.243   4.990   3.863
 3087SOL    HW110160   1.253   5.033   3.774
 3087SOL    HW210161   1.269   5.055   3.935
 3088SOL     OW10162   2.514   4.943   6.000
 3088SOL    HW110163   2.550   4.880   5.930
 3088SOL    HW210164   2.449   4.894   6.058
 3089SOL     OW10165   1.250   3.462   0.432
 3089SOL    HW110166   1.322   3.500   0.373
 3089SOL    HW210167   1.217   3.377   0.392
 3090SOL     OW10168   1.835   2.156   1.960
 3090SOL    HW110169   1.759   2.115   1.909
 3090SOL    HW210170   1.892   2.210   1.897
 3091SOL     OW10171   1.163   7.017   0.750
 3091SOL    HW110172   1.097   0.056   0.790
 3091SOL    HW210173   1.204   6.961   0.822
 3092SOL     OW10174   5.063   6.583   0.644
 3092SOL    HW110175   4.991   6.548   0.585
 3092SOL    HW210176   5.152   6.553   0.611
 3093SOL     OW10177   5.209   6.113   6.177
 3093SOL    HW110178   5.170   6.029   6.139
 3093SOL    HW210179   5.182   6.121   6.273
 3094SOL     OW10180   2.195   6.371   4.288
 3094SOL    HW110181   2.131   6.441   4.320
 3094SOL    HW210182   2.148   6.283   4.282
 3095SOL     OW10183   1.895   5.645   4.672
 3095SOL    HW110184   1.933   5.601   4.753
 3095SOL    HW210185   1.969   5.685   4.617
 3096SOL     OW10186   1.419   6.645   4.895
 3096SOL    HW110187   1.480   6.631   4.817
 3096SOL    HW210188   1.356   6.720   4.875
 3097SOL     OW10189   0.024   2.511   0.865
 3097SOL    HW110190   0.107   2.460   0.889
 3097SOL    HW210191   0.048   2.581   0.797
 3098SOL     OW10192   2.963   3.443   0.750
 3098SOL    HW110193   2.873   3.457   0.709
 3098SOL    HW210194   2.956   3.449   0.850
 3099SOL     OW10195   0.658   6.308   3.566
 3099SOL    HW110196   0.752   6.342   3.554
 3099SOL    HW210197   0.642   6.234   3.500
 3100SOL     OW10198   6.614   0.004   4.828
 3100SOL    HW110199   6.546   0.014   4.900
 3100SOL    HW210200   6.626   6.931   4.808
 3101SOL     OW10201   4.958   6.233   5.808
 3101SOL    HW110202   4.998   6.257   5.720
 3101SOL    HW210203   4.863   6.263   5.810
 3102SOL     OW10204   0.170   4.894   2.925
 3102SOL    HW110205   0.101   4.822   2.913
 3102SOL    HW210206   0.262   4.853   2.919
 3103SOL     OW10207   3.676   0.909   1.838
 3103SOL    HW110208   3.587   0.869   1.816
 3103SOL    HW210209   3.688   0.912   1.937
 3104SOL     OW10210   5.184   6.514   5.017
 3104SOL    HW110211   5.108   6.572   5.047
 3104SOL    HW210212   5.149   6.442   4.958
 3105SOL     OW10213   6.227   4.411   1.774
 3105SOL    HW110214   6.288   4.429   1.697
 3105SOL    HW210215   6.174   4.327   1.756
 3106SOL     OW10216   5.755   1.594   2.624
 3106SOL    HW110217   5.812   1.634   2.696
 3106SOL    HW210218   5.676   1.653   2.607
 3107SOL     OW10219   4.076   0.850   4.158
 3107SOL    HW110220   4.041   0.933   4.114
 3107SOL    HW210221   4.172   0.837   4.135
 3108SOL     OW10222   1.322   0.341   4.622
 3108SOL    HW110223   1.317   0.401   4.543
 3108SOL    HW210224   1.230   0.311   4.648
 3109SOL     OW10225   5.681   6.323   1.942
 3109SOL    HW110226   5.617   6.398   1.957
 3109SOL    HW210227   5.718   6.293   2.030
 3110SOL     OW10228   1.789   1.769   3.653
 3110SOL    HW110229   1.749   1.727   3.735
 3110SOL    HW210230   1.720   1.773   3.581
 3111SOL     OW10231   6.064   5.985   3.985
 3111SOL    HW110232   6.138   5.986   4.052
 3111SOL    HW210233   5.976   5.978   4.034
 3112SOL     OW10234   5.233   2.722   6.231
 3112SOL    HW110235   5.232   2.635   6.182
 3112SOL    HW210236   5.267   2.708   6.324
 3113SOL     OW10237   1.686   6.131   3.956
 3113SOL    HW110238   1.767   6.081   3.988
 3113SOL    HW210239   1.644   6.079   3.881
 3114SOL     OW10240   4.076   1.986   6.984
 3114SOL    HW110241   4.151   1.960   6.923
 3114SOL    HW210242   4.038   2.073   6.954
 3115SOL     OW10243   4.318   3.475   6.566
 3115SOL    HW110244   4.356   3.385   6.589
 3115SOL    HW210245   4.316   3.486   6.467
 3116SOL     OW10246   0.367   3.736   6.746
 3116SOL    HW110247   0.311   3.722   6.665
 3116SOL    HW210248   0.358   3.656   6.806
 3117SOL     OW10249   4.336   3.526   5.219
 3117SOL    HW110250   4.436   3.524   5.216
 3117SOL    HW210251   4.301   3.432   5.224
 3118SOL     OW10252   0.359   4.382   0.754
 3118SOL    HW110253   0.332   4.424   0.668
 3118SOL    HW210254   0.441   4.427   0.789
 3119SOL     OW10255   2.233   3.321   5.296
 3119SOL    HW110256   2.160   3.342   5.361
 3119SOL    HW210257   2.270   3.230   5.314
 3120SOL     OW10258   2.789   6.683   3.889
 3120SOL    HW110259   2.874   6.737   3.893
 3120SOL    HW210260   2.737   6.697   3.973
 3121SOL     OW10261   0.046   1.562   2.574
 3121SOL    HW110262   0.020   1.646   2.623
 3121SOL    HW210263   0.000   1.484   2.617
 3122SOL     OW10264   3.031   6.021   5.719
 3122SOL    HW110265   3.083   5.952   5.770
 3122SOL    HW210266   2.948   5.979   5.682
 3123SOL     OW10267   3.755   1.045   3.923
 3123SOL    HW110268   3.716   1.083   4.007
 3123SOL    HW210269   3.761   0.945   3.932
 3124SOL     OW10270   4.360   6.427   4.955
 3124SOL    HW110271   4.424   6.387   4.890
 3124SOL    HW210272   4.320   6.509   4.916
 3125SOL     OW10273   6.649   2.089   5.117
 3125SOL    HW110274   6.628   2.085   5.215
 3125SOL    HW210275   6.744   2.063   5.103
 3126SOL     OW10276   4.583   4.690   6.319
 3126SOL    HW110277   4.605   4.683   6.221
 3126SOL    HW210278   4.636   4.764   6.360
 3127SOL     OW10279   0.667   2.898   3.840
 3127SOL    HW110280   0.737   2.861   3.779
 3127SOL    HW210281   0.578   2.894   3.795
 3128SOL     OW10282   1.941   0.494   6.578
 3128SOL    HW110283   1.954   0.475   6.675
 3128SOL    HW210284   1.859   0.549   6.565
 3129SOL     OW10285   0.505   4.382   6.541
 3129SOL    HW110286   0.480   4.300   6.490
 3129SOL    HW210287   0.600   4.374   6.573
 3130SOL     OW10288   1.505   4.465   1.854
 3130SOL    HW110289   1.553   4.498   1.936
 3130SOL    HW210290   1.504   4.365   1.854
 3131SOL     OW10291   6.781   2.552   1.672
 3131SOL    HW110292   6.844   2.630   1.671
 3131SOL    HW210293   6.700   2.576   1.725
 3132SOL     OW10294   4.293   5.072   5.796
 3132SOL    HW110295   4.367   5.139   5.800
 3132SOL    HW210296   4.239   5.077   5.880
 3133SOL     OW10297   3.022   2.212   3.471
 3133SOL    HW110298   3.117   2.180   3.479
 3133SOL    HW210299   2.996   2.260   3.555
 3134SOL     OW10300   4.599   4.579   1.454
 3134SOL    HW110301   4.562   4.527   1.531
 3134SOL    HW210302   4.593   4.677   1.474
 3135SOL     OW10303   4.902   0.842   5.259
 3135SOL    HW110304   4.867   0.812   5.347
 3135SOL    HW210305   5.002   0.845   5.262
 3136SOL     OW10306   5.156   0.809   0.206
 3136SOL    HW110307   5.076   0.802   0.266
 3136SOL    HW210308   5.170   0.904   0.179
 3137SOL     OW10309   6.421   0.476   3.471
 3137SOL    HW110310   6.419   0.485   3.372
 3137SOL    HW210311   6.501   0.524   3.508
 3138SOL     OW10312   6.578   2.497   4.234
 3138SOL    HW110313   6.565   2.463   4.327
 3138SOL    HW210314   6.638   2.434   4.184
 3139SOL     OW10315   4.464   0.024   0.623
 3139SOL    HW110316   4.484   6.950   0.628
 3139SOL    HW210317   4.453   0.052   0.528
 3140SOL     OW10318   5.482   6.870   6.868
 3140SOL    HW110319   5.499   6.912   6.779
 3140SOL    HW210320   5.507   6.774   6.865
 3141SOL     OW10321   0.396   5.822   6.084
 3141SOL    HW110322   0.459   5.892   6.050
 3141SOL    HW210323   0.415   5.804   6.181
 3142SOL     OW10324   4.680   6.459   1.756
 3142SOL    HW110325   4.715   6.480   1.848
 3142SOL    HW210326   4.627   6.374   1.759
 3143SOL     OW10327   6.990   2.620   0.089
 3143SOL    HW110328   0.050   2.574   0.116
 3143SOL    HW210329   6.936   2.558   0.031
 3144SOL     OW10330   3.424   3.704   1.079
 3144SOL    HW110331   3.350   3.728   1.142
 3144SOL    HW210332   3.440   3.605   1.081
 3145SOL     OW10333   1.976   4.887   2.499
 3145SOL    HW110334   2.074   4.900   2.516
 3145SOL    HW210335   1.924   4.960   2.544
 3146SOL     OW10336   1.264   0.013   3.251
 3146SOL    HW110337   1.251   6.978   3.172
 3146SOL    HW210338   1.336   0.078   3.233
 3147SOL     OW10339   3.069   5.293   6.840
 3147SOL    HW110340   3.126   5.370   6.868
 3147SOL    HW210341   3.002   5.325   6.773
 3148SOL     OW10342   5.156   5.871   4.694
 3148SOL    HW110343   5.226   5.889   4.764
 3148SOL    HW210344   5.200   5.845   4.609
 3149SOL     OW10345   3.317   0.437   5.320
 3149SOL    HW110346   3.357   0.527   5.300
 3149SOL    HW210347   3.217   0.445   5.322
 3150SOL     OW10348   6.748   5.692   4.275
 3150SOL    HW110349   6.795   5.770   4.234
 3150SOL    HW210350   6.791   5.607   4.243
 3151SOL     OW10351   4.183   1.078   6.319
 3151SOL    HW110352   4.093   1.039   6.339
 3151SOL    HW210353   4.228   1.106   6.404
 3152SOL     OW10354   1.236   5.460   0.748
 3152SOL    HW110355   1.156   5.401   0.738
 3152SOL    HW210356   1.308   5.429   0.686
 3153SOL     OW10357   6.286   4.583   2.004
 3153SOL    HW110358   6.331   4.518   2.065
 3153SOL    HW210359   6.257   4.536   1.921
 3154SOL     OW10360   6.265   1.800   0.737
 3154SOL    HW110361   6.241   1.892   0.769
 3154SOL    HW210362   6.225   1.785   0.646
 3155SOL     OW10363   6.625   5.492   1.326
 3155SOL    HW110364   6.626   5.425   1.252
 3155SOL    HW210365   6.716   5.499   1.367
 3156SOL     OW10366   2.955   3.376   3.563
 3156SOL    HW110367   2.943   3.472   3.541
 3156SOL    HW210368   2.933   3.320   3.483
 3157SOL     OW10369   2.129   2.672   4.840
 3157SOL    HW110370   2.165   2.765   4.832
 3157SOL    HW210371   2.050   2.672   4.902
 3158SOL     OW10372   4.377   0.195   2.161
 3158SOL    HW110373   4.277   0.196   2.159
 3158SOL    HW210374   4.411   0.287   2.139
 3159SOL     OW10375   5.724   1.062   0.455
 3159SOL    HW110376   5.673   0.979   0.436
 3159SOL    HW210377   5.722   1.081   0.554
 3160SOL     OW10378   6.813   6.382   5.281
 3160SOL    HW110379   6.795   6.479   5.302
 3160SOL    HW210380   6.818   6.370   5.182
 3161SOL     OW10381   1.741   1.203   3.423
 3161SOL    HW110382   1.670   1.142   3.386
 3161SOL    HW210383   1.781   1.256   3.348
 3162SOL     OW10384   1.063   6.157   0.860
 3162SOL    HW110385   1.135   6.090   0.839
 3162SOL    HW210386   1.050   6.217   0.781
 3163SOL     OW10387   4.186   2.312   6.719
 3163SOL    HW110388   4.261   2.368   6.755
 3163SOL    HW210389   4.125   2.286   6.793
 3164SOL     OW10390   4.091   4.199   1.465
 3164SOL    HW110391   4.069   4.285   1.511
 3164SOL    HW210392   4.189   4.195   1.447
 3165SOL     OW10393   1.406   5.582   1.731
 3165SOL    HW110394   1.346   5.662   1.732
 3165SOL    HW210395   1.477   5.593   1.801
 3166SOL     OW10396   4.895   1.173   6.502
 3166SOL    HW110397   4.858   1.179   6.595
 3166SOL    HW210398   4.837   1.112   6.447
 3167SOL     OW10399   7.024   4.314   1.791
 3167SOL    HW110400   0.087   4.277   1.823
 3167SOL    HW210401   7.020   4.307   1.691
 3168SOL     OW10402   5.328   2.993   0.116
 3168SOL    HW110403   5.282   2.926   0.174
 3168SOL    HW210404   5.283   2.999   0.028
 3169SOL     OW10405   1.570   3.284   5.431
 3169SOL    HW110406   1.548   3.188   5.444
 3169SOL    HW210407   1.668   3.295   5.416
 3170SOL     OW10408   4.547   0.676   1.013
 3170SOL    HW110409   4.623   0.611   1.012
 3170SOL    HW210410   4.530   0.706   1.106
 3171SOL     OW10411   0.330   6.445   1.280
 3171SOL    HW110412   0.306   6.362   1.331
 3171SOL    HW210413   0.339   6.522   1.343
 3172SOL     OW10414   0.396   5.116   5.679
 3172SOL    HW110415   0.479   5.065   5.655
 3172SOL    HW210416   0.344   5.135   5.596
 3173SOL     OW10417   3.125   2.101   1.231
 3173SOL    HW110418   3.117   2.017   1.178
 3173SOL    HW210419   3.169   2.082   1.318
 3174SOL     OW10420   2.767   2.656   6.592
 3174SOL    HW110421   2.708   2.706   6.528
 3174SOL    HW210422   2.806   2.576   6.546
 3175SOL     OW10423   0.242   6.512   0.546
 3175SOL    HW110424   0.289   6.479   0.464
 3175SOL    HW210425   0.308   6.527   0.619
 3176SOL     OW10426   2.091   5.046   4.741
 3176SOL    HW110427   2.102   5.136   4.699
 3176SOL    HW210428   2.125   4.976   4.678
 3177SOL     OW10429   4.717   4.840   5.322
 3177SOL    HW110430   4.668   4.927   5.327
 3177SOL    HW210431   4.695   4.785   5.403
 3178SOL     OW10432   6.837   2.710   1.159
 3178SOL    HW110433   6.802   2.793   1.201
 3178SOL    HW210434   6.936   2.703   1.174
 3179SOL     OW10435   2.072   2.686   2.286
 3179SOL    HW110436   2.100   2.673   2.381
 3179SOL    HW210437   2.134   2.635   2.226
 3180SOL     OW10438   4.732   0.357   6.857
 3180SOL    HW110439   4.751   0.428   6.790
 3180SOL    HW210440   4.817   0.312   6.883
 3181SOL     OW10441   1.036   1.242   3.216
 3181SOL    HW110442   0.989   1.164   3.255
 3181SOL    HW210443   0.969   1.309   3.184
 3182SOL     OW10444   1.729   1.012   5.594
 3182SOL    HW110445   1.662   0.938   5.582
 3182SOL    HW210446   1.730   1.040   5.690
 3183SOL     OW10447   5.165   3.608   1.385
 3183SOL    HW110448   5.244   3.553   1.412
 3183SOL    HW210449   5.087   3.584   1.442
 3184SOL     OW10450   2.279   2.301   2.871
 3184SOL    HW110451   2.294   2.213   2.825
 3184SOL    HW210452   2.315   2.375   2.814
 3185SOL     OW10453   6.007   0.863   6.722
 3185SOL    HW110454   5.914   0.883   6.691
 3185SOL    HW210455   6.026   0.765   6.711
 3186SOL     OW10456   3.632   1.645   2.897
 3186SOL    HW110457   3.568   1.722   2.907
 3186SOL    HW210458   3.724   1.680   2.882
 3187SOL     OW10459   4.332   4.211   0.134
 3187SOL    HW110460   4.339   4.112   0.136
 3187SOL    HW210461   4.412   4.250   0.089
 3188SOL     OW10462   3.575   6.209   4.270
 3188SOL    HW110463   3.502   6.219   4.202
 3188SOL    HW210464   3.617   6.119   4.260
 3189SOL     OW10465   2.360   0.788   2.941
 3189SOL    HW110466   2.397   0.802   2.849
 3189SOL    HW210467   2.322   0.695   2.947
 3190SOL     OW10468   0.624   6.389   1.490
 3190SOL    HW110469   0.676   6.475   1.497
 3190SOL    HW210470   0.541   6.395   1.545
 3191SOL     OW10471   3.621   6.733   0.708
 3191SOL    HW110472   3.604   6.804   0.777
 3191SOL    HW210473   3.718   6.707   0.710
 3192SOL     OW10474   0.470   2.466   1.215
 3192SOL    HW110475   0.431   2.427   1.299
 3192SOL    HW210476   0.510   2.555   1.236
 3193SOL     OW10477   4.432   1.751   5.748
 3193SOL    HW110478   4.341   1.786   5.725
 3193SOL    HW210479   4.423   1.665   5.798
 3194SOL     OW10480   0.728   2.756   5.878
 3194SOL    HW110481   0.733   2.752   5.978
 3194SOL    HW210482   0.820   2.759   5.840
 3195SOL     OW10483   2.018   2.889   2.792
 3195SOL    HW110484   2.065   2.809   2.828
 3195SOL    HW210485   1.974   2.939   2.867
 3196SOL     OW10486   6.985   0.456   4.724
 3196SOL    HW110487   6.942   0.508   4.650
 3196SOL    HW210488   6.936   0.475   4.810
 3197SOL     OW10489   1.595   5.730   3.657
 3197SOL    HW110490   1.582   5.752   3.754
 3197SOL    HW210491   1.505   5.722   3.613
 3198SOL     OW10492   6.259   2.509   6.241
 3198SOL    HW110493   6.213   2.499   6.330
 3198SOL    HW210494   6.287   2.418   6.209
 3199SOL     OW10495   4.280   2.845   1.368
 3199SOL    HW110496   4.220   2.892   1.303
 3199SOL    HW210497   4.225   2.782   1.422
 3200SOL     OW10498   0.066   1.608   1.656
 3200SOL    HW110499   0.122   1.545   1.709
 3200SOL    HW210500   7.022   1.650   1.715
 3201SOL     OW10501   4.842   4.461   4.782
 3201SOL    HW110502   4.777   4.409   4.726
 3201SOL    HW210503   4.933   4.422   4.773
 3202SOL     OW10504   1.089   4.421   2.013
 3202SOL    HW110505   1.075   4.385   1.921
 3202SOL    HW210506   1.169   4.378   2.054
 3203SOL     OW10507   5.601   1.074   1.040
 3203SOL    HW110508   5.639   1.164   1.022
 3203SOL    HW210509   5.582   1.064   1.138
 3204SOL     OW10510   4.587   5.935   1.611
 3204SOL    HW110511   4.562   5.993   1.688
 3204SOL    HW210512   4.685   5.914   1.615
 3205SOL     OW10513   0.319   4.147   6.703
 3205SOL    HW110514   0.404   4.105   6.672
 3205SOL    HW210515   0.241   4.101   6.660
 3206SOL     OW10516   6.743   6.963   5.852
 3206SOL    HW110517   6.774   6.988   5.944
 3206SOL    HW210518   6.798   6.887   5.818
 3207SOL     OW10519   0.381   1.441   6.730
 3207SOL    HW110520   0.389   1.421   6.633
 3207SOL    HW210521   0.469   1.476   6.764
 3208SOL     OW10522   4.970   6.524   6.201
 3208SOL    HW110523   5.054   6.488   6.159
 3208SOL    HW210524   4.993   6.602   6.259
 3209SOL     OW10525   3.355   5.664   3.535
 3209SOL    HW110526   3.316   5.623   3.617
 3209SOL    HW210527   3.315   5.754   3.519
 3210SOL     OW10528   0.584   3.586   1.686
 3210SOL    HW110529   0.558   3.608   1.780
 3210SOL    HW210530   0.683   3.584   1.678
 3211SOL     OW10531   2.292   4.114   0.610
 3211SOL    HW110532   2.330   4.136   0.520
 3211SOL    HW210533   2.302   4.193   0.670
 3212SOL     OW10534   4.072   1.599   6.507
 3212SOL    HW110535   4.038   1.692   6.522
 3212SOL    HW210536   4.059   1.545   6.591
 3213SOL     OW10537   5.802   4.870   3.207
 3213SOL    HW110538   5.832   4.836   3.118
 3213SOL    HW210539   5.785   4.793   3.268
 3214SOL     OW10540   4.847   6.094   0.622
 3214SOL    HW110541   4.807   6.169   0.569
 3214SOL    HW210542   4.857   6.013   0.564
 3215SOL     OW10543   6.796   3.507   0.847
 3215SOL    HW110544   6.889   3.535   0.871
 3215SOL    HW210545   6.749   3.474   0.929
 3216SOL     OW10546   4.920   5.756   1.979
 3216SOL    HW110547   5.019   5.755   1.964
 3216SOL    HW210548   4.878   5.683   1.925
 3217SOL     OW10549   0.866   5.159   2.484
 3217SOL    HW110550   0.845   5.183   2.578
 3217SOL    HW210551   0.859   5.059   2.473
 3218SOL     OW10552   4.151   6.308   3.168
 3218SOL    HW110553   4.185   6.275   3.079
 3218SOL    HW210554   4.213   6.377   3.204
 3219SOL     OW10555   0.358   0.579   3.347
 3219SOL    HW110556   0.272   0.571   3.398
 3219SOL    HW210557   0.343   0.635   3.265
 3220SOL     OW10558   6.212   5.349   6.022
 3220SOL    HW110559   6.204   5.264   6.073
 3220SOL    HW210560   6.125   5.399   6.026
 3221SOL     OW10561   3.119   6.291   2.149
 3221SOL    HW110562   3.123   6.278   2.050
 3221SOL    HW210563   3.023   6.301   2.177
 3222SOL     OW10564   4.859   1.992   3.582
 3222SOL    HW110565   4.769   2.008   3.624
 3222SOL    HW210566   4.913   1.933   3.643
 3223SOL     OW10567   1.679   5.223   6.626
 3223SOL    HW110568   1.743   5.245   6.552
 3223SOL    HW210569   1.663   5.305   6.682
 3224SOL     OW10570   4.386   5.029   6.213
 3224SOL    HW110571   4.469   5.067   6.173
 3224SOL    HW210572   4.308   5.053   6.155
 3225SOL     OW10573   4.229   2.392   5.525
 3225SOL    HW110574   4.272   2.307   5.551
 3225SOL    HW210575   4.257   2.465   5.588
 3226SOL     OW10576   1.796   1.186   4.755
 3226SOL    HW110577   1.793   1.286   4.754
 3226SOL    HW210578   1.843   1.155   4.838
 3227SOL     OW10579   3.017   2.210   6.647
 3227SOL    HW110580   2.948   2.150   6.608
 3227SOL    HW210581   3.070   2.253   6.573
 3228SOL     OW10582   5.181   3.260   4.249
 3228SOL    HW110583   5.257   3.290   4.191
 3228SOL    HW210584   5.207   3.175   4.295
 3229SOL     OW10585   3.054   1.572   5.719
 3229SOL    HW110586   2.986   1.628   5.765
 3229SOL    HW210587   3.028   1.475   5.726
 3230SOL     OW10588   0.446   2.769   4.053
 3230SOL    HW110589   0.453   2.866   4.029
 3230SOL    HW210590   0.350   2.742   4.058
 3231SOL     OW10591   3.563   5.792   2.358
 3231SOL    HW110592   3.507   5.843   2.292
 3231SOL    HW210593   3.658   5.788   2.324
 3232SOL     OW10594   4.632   5.367   4.153
 3232SOL    HW110595   4.710   5.398   4.208
 3232SOL    HW210596   4.599   5.280   4.188
 3233SOL     OW10597   2.007   3.775   1.196
 3233SOL    HW110598   2.021   3.864   1.239
 3233SOL    HW210599   2.063   3.706   1.243
 3234SOL     OW10600   6.853   2.438   0.654
 3234SOL    HW110601   6.772   2.483   0.694
 3234SOL    HW210602   6.924   2.430   0.724
 3235SOL     OW10603   5.430   5.886   2.010
 3235SOL    HW110604   5.436   5.983   2.032
 3235SOL    HW210605   5.520   5.853   1.980
 3236SOL     OW10606   1.565   3.250   1.971
 3236SOL    HW110607   1.511   3.172   2.004
 3236SOL    HW210608   1.626   3.281   2.045
 3237SOL     OW10609   5.116   0.704   3.574
 3237SOL    HW110610   5.130   0.695   3.476
 3237SOL    HW210611   5.199   0.739   3.617
 3238SOL     OW10612   0.075   5.445   6.667
 3238SOL    HW110613   0.062   5.386   6.746
 3238SOL    HW210614   0.129   5.525   6.693
 3239SOL     OW10615   6.292   1.537   0.528
 3239SOL    HW110616   6.214   1.576   0.576
 3239SOL    HW210617   6.260   1.487   0.447
 3240SOL     OW10618   1.228   6.468   5.253
 3240SOL    HW110619   1.289   6.435   5.182
 3240SOL    HW210620   1.205   6.564   5.237
 3241SOL     OW10621   5.605   1.373   4.181
 3241SOL    HW110622   5.590   1.377   4.082
 3241SOL    HW210623   5.606   1.278   4.211
 3242SOL     OW10624   3.306   4.373   0.637
 3242SOL    HW110625   3.280   4.360   0.733
 3242SOL    HW210626   3.275   4.462   0.605
 3243SOL     OW10627   5.774   5.176   0.481
 3243SOL    HW110628   5.836   5.212   0.551
 3243SOL    HW210629   5.680   5.193   0.508
 3244SOL     OW10630   4.927   5.499   6.609
 3244SOL    HW110631   4.981   5.438   6.667
 3244SOL    HW210632   4.956   5.487   6.514
 3245SOL     OW10633   4.596   2.438   5.579
 3245SOL    HW110634   4.587   2.348   5.620
 3245SOL    HW210635   4.676   2.484   5.617
 3246SOL     OW10636   6.418   0.506   3.205
 3246SOL    HW110637   6.352   0.571   3.168
 3246SOL    HW210638   6.424   0.427   3.145
 3247SOL     OW10639   6.962   5.173   2.834
 3247SOL    HW110640   0.037   5.159   2.831
 3247SOL    HW210641   6.932   5.176   2.930
 3248SOL     OW10642   5.806   3.758   2.041
 3248SOL    HW110643   5.882   3.807   1.997
 3248SOL    HW210644   5.790   3.672   1.992
 3249SOL     OW10645   4.222   3.953   5.762
 3249SOL    HW110646   4.150   4.021   5.750
 3249SOL    HW210647   4.258   3.960   5.855
 3250SOL     OW10648   5.788   0.019   3.153
 3250SOL    HW110649   5.707   6.988   3.136
 3250SOL    HW210650   5.848   6.996   3.217
 3251SOL     OW10651   3.996   1.073   2.400
 3251SOL    HW110652   4.087   1.114   2.390
 3251SOL    HW210653   4.000   0.976   2.376
 3252SOL     OW10654   3.486   1.304   1.974
 3252SOL    HW110655   3.426   1.290   2.053
 3252SOL    HW210656   3.470   1.395   1.936
 3253SOL     OW10657   4.937   3.105   2.620
 3253SOL    HW110658   4.866   3.064   2.563
 3253SOL    HW210659   4.926   3.075   2.714
 3254SOL     OW10660   3.588   4.948   4.638
 3254SOL    HW110661   3.567   5.035   4.593
 3254SOL    HW210662   3.550   4.873   4.583
 3255SOL     OW10663   4.689   5.818   0.912
 3255SOL    HW110664   4.701   5.825   1.011
 3255SOL    HW210665   4.729   5.732   0.880
 3256SOL     OW10666   5.669   0.496   5.976
 3256SOL    HW110667   5.691   0.588   6.009
 3256SOL    HW210668   5.739   0.432   6.009
 3257SOL     OW10669   0.965   2.126   1.049
 3257SOL    HW110670   1.007   2.035   1.053
 3257SOL    HW210671   0.935   2.153   1.140
 3258SOL     OW10672   4.472   6.241   1.836
 3258SOL    HW110673   4.404   6.185   1.789
 3258SOL    HW210674   4.513   6.188   1.910
 3259SOL     OW10675   4.514   6.070   4.663
 3259SOL    HW110676   4.429   6.065   4.611
 3259SOL    HW210677   4.586   6.019   4.615
 3260SOL     OW10678   1.858   2.596   1.240
 3260SOL    HW110679   1.826   2.557   1.154
 3260SOL    HW210680   1.933   2.659   1.223
 3261SOL     OW10681   4.260   6.423   0.646
 3261SOL    HW110682   4.300   6.371   0.570
 3261SOL    HW210683   4.259   6.366   0.728
 3262SOL     OW10684   3.856   1.757   2.797
 3262SOL    HW110685   3.948   1.770   2.834
 3262SOL    HW210686   3.860   1.701   2.715
 3263SOL     OW10687   4.971   0.128   3.639
 3263SOL    HW110688   5.052   0.184   3.660
 3263SOL    HW210689   4.992   0.066   3.564
 3264SOL     OW10690   0.519   4.960   6.974
 3264SOL    HW110691   0.433   4.913   6.995
 3264SOL    HW210692   0.560   4.995   0.033
 3265SOL     OW10693   4.286   2.147   6.175
 3265SOL    HW110694   4.206   2.189   6.218
 3265SOL    HW210695   4.271   2.049   6.166
 3266SOL     OW10696   0.200   2.502   0.465
 3266SOL    HW110697   0.173   2.583   0.516
 3266SOL    HW210698   0.191   2.421   0.523
 3267SOL     OW10699   3.592   2.205   1.099
 3267SOL    HW110700   3.505   2.159   1.083
 3267SOL    HW210701   3.657   2.141   1.139
 3268SOL     OW10702   1.243   3.716   6.619
 3268SOL    HW110703   1.212   3.621   6.617
 3268SOL    HW210704   1.290   3.738   6.533
 3269SOL     OW10705   4.232   5.162   1.888
 3269SOL    HW110706   4.184   5.226   1.947
 3269SOL    HW210707   4.232   5.071   1.930
 3270SOL     OW10708   1.081   5.659   4.639
 3270SOL    HW110709   1.037   5.632   4.725
 3270SOL    HW210710   1.084   5.759   4.633
 3271SOL     OW10711   5.301   2.360   2.750
 3271SOL    HW110712   5.216   2.357   2.801
 3271SOL    HW210713   5.349   2.446   2.771
 3272SOL     OW10714   3.749   5.388   0.861
 3272SOL    HW110715   3.758   5.389   0.762
 3272SOL    HW210716   3.816   5.325   0.900
 3273SOL     OW10717   0.781   6.608   1.929
 3273SOL    HW110718   0.761   6.627   2.025
 3273SOL    HW210719   0.800   6.510   1.918
 3274SOL     OW10720   3.950   2.459   0.118
 3274SOL    HW110721   3.860   2.420   0.138
 3274SOL    HW210722   3.963   2.543   0.171
 3275SOL     OW10723   1.195   0.353   6.681
 3275SOL    HW110724   1.279   0.370   6.631
 3275SOL    HW210725   1.201   0.265   6.728
 3276SOL     OW10726   3.422   5.029   6.695
 3276SOL    HW110727   3.378   5.044   6.783
 3276SOL    HW210728   3.364   5.065   6.621
 3277SOL     OW10729   5.918   0.530   6.578
 3277SOL    HW110730   5.832   0.550   6.625
 3277SOL    HW210731   5.912   0.439   6.536
 3278SOL     OW10732   7.002   0.907   5.429
 3278SOL    HW110733   6.929   0.975   5.433
 3278SOL    HW210734   6.974   0.826   5.482
 3279SOL     OW10735   0.488   0.674   1.393
 3279SOL    HW110736   0.485   0.708   1.299
 3279SOL    HW210737   0.410   0.613   1.409
 3280SOL     OW10738   2.367   5.443   6.164
 3280SOL    HW110739   2.305   5.458   6.087
 3280SOL    HW210740   2.394   5.347   6.167
 3281SOL     OW10741   1.827   5.382   0.878
 3281SOL    HW110742   1.926   5.378   0.880
 3281SOL    HW210743   1.795   5.448   0.946
 3282SOL     OW10744   2.750   5.361   4.355
 3282SOL    HW110745   2.762   5.410   4.441
 3282SOL    HW210746   2.730   5.265   4.374
 3283SOL     OW10747   2.946   1.828   1.921
 3283SOL    HW110748   2.920   1.823   2.017
 3283SOL    HW210749   2.919   1.917   1.884
 3284SOL     OW10750   6.509   6.881   6.523
 3284SOL    HW110751   6.575   6.939   6.474
 3284SOL    HW210752   6.487   6.924   6.611
 3285SOL     OW10753   0.129   2.751   3.126
 3285SOL    HW110754   0.056   2.685   3.107
 3285SOL    HW210755   0.218   2.708   3.110
 3286SOL     OW10756   4.041   3.099   3.872
 3286SOL    HW110757   3.997   3.078   3.959
 3286SOL    HW210758   4.140   3.095   3.883
 3287SOL     OW10759   1.131   5.873   0.791
 3287SOL    HW110760   1.049   5.837   0.835
 3287SOL    HW210761   1.210   5.818   0.816
 3288SOL     OW10762   0.729   5.742   0.151
 3288SOL    HW110763   0.755   5.682   0.075
 3288SOL    HW210764   0.630   5.758   0.148
 3289SOL     OW10765   1.454   6.405   5.764
 3289SOL    HW110766   1.465   6.479   5.831
 3289SOL    HW210767   1.444   6.318   5.812
 3290SOL     OW10768   0.456   6.877   1.748
 3290SOL    HW110769   0.368   6.844   1.715
 3290SOL    HW210770   0.528   6.813   1.719
 3291SOL     OW10771   1.170   6.600   6.704
 3291SOL    HW110772   1.227   6.619   6.784
 3291SOL    HW210773   1.168   6.680   6.644
 3292SOL     OW10774   0.737   1.463   0.133
 3292SOL    HW110775   0.822   1.496   0.092
 3292SOL    HW210776   0.669   1.536   0.132
 3293SOL     OW10777   6.861   2.093   3.268
 3293SOL    HW110778   6.790   2.163   3.266
 3293SOL    HW210779   6.949   2.132   3.242
 3294SOL     OW10780   0.187   0.069   6.266
 3294SOL    HW110781   0.158   0.093   6.174
 3294SOL    HW210782   0.106   0.064   6.326
 3295SOL     OW10783   2.271   2.409   0.963
 3295SOL    HW110784   2.284   2.505   0.937
 3295SOL    HW210785   2.306   2.350   0.890
 3296SOL     OW10786   2.118   6.615   1.039
 3296SOL    HW110787   2.104   6.707   1.001
 3296SOL    HW210788   2.047   6.554   1.005
 3297SOL     OW10789   3.041   1.532   4.155
 3297SOL    HW110790   3.057   1.464   4.227
 3297SOL    HW210791   3.120   1.535   4.095
 3298SOL     OW10792   6.268   3.117   3.085
 3298SOL    HW110793   6.247   3.037   3.142
 3298SOL    HW210794   6.279   3.088   2.990
 3299SOL     OW10795   2.436   6.888   3.766
 3299SOL    HW110796   2.509   6.826   3.737
 3299SOL    HW210797   2.364   6.890   3.697
 3300SOL     OW10798   0.037   0.113   6.024
 3300SOL    HW110799   0.097   0.054   5.969
 3300SOL    HW210800   0.066   0.208   6.014
 3301SOL     OW10801   1.889   3.993   3.640
 3301SOL    HW110802   1.814   4.002   3.576
 3301SOL    HW210803   1.976   3.988   3.590
 3302SOL     OW10804   1.335   5.194   4.509
 3302SOL    HW110805   1.328   5.098   4.536
 3302SOL    HW210806   1.369   5.248   4.586
 3303SOL     OW10807   3.121   2.855   1.876
 3303SOL    HW110808   3.150   2.803   1.957
 3303SOL    HW210809   3.082   2.942   1.905
 3304SOL     OW10810   1.432   4.898   3.416
 3304SOL    HW110811   1.500   4.832   3.449
 3304SOL    HW210812   1.396   4.866   3.329
 3305SOL     OW10813   2.450   1.817   2.184
 3305SOL    HW110814   2.539   1.776   2.201
 3305SOL    HW210815   2.455   1.876   2.103
 3306SOL     OW10816   2.530   4.507   3.547
 3306SOL    HW110817   2.507   4.521   3.451
 3306SOL    HW210818   2.557   4.594   3.588
 3307SOL     OW10819   0.119   6.126   6.378
 3307SOL    HW110820   0.095   6.060   6.449
 3307SOL    HW210821   0.093   6.218   6.407
 3308SOL     OW10822   4.349   5.856   6.509
 3308SOL    HW110823   4.403   5.917   6.451
 3308SOL    HW210824   4.365   5.761   6.482
 3309SOL     OW10825   0.562   5.202   2.750
 3309SOL    HW110826   0.531   5.145   2.826
 3309SOL    HW210827   0.504   5.284   2.744
 3310SOL     OW10828   6.779   3.849   2.983
 3310SOL    HW110829   6.715   3.915   3.023
 3310SOL    HW210830   6.871   3.867   3.017
 3311SOL     OW10831   2.842   5.141   0.749
 3311SOL    HW110832   2.869   5.153   0.844
 3311SOL    HW210833   2.792   5.222   0.718
 3312SOL     OW10834   2.616   4.072   6.288
 3312SOL    HW110835   2.574   4.145   6.234
 3312SOL    HW210836   2.686   4.110   6.348
 3313SOL     OW10837   1.177   5.396   3.265
 3313SOL    HW110838   1.140   5.390   3.172
 3313SOL    HW210839   1.221   5.486   3.277
 3314SOL     OW10840   1.802   2.465   4.981
 3314SOL    HW110841   1.757   2.433   5.064
 3314SOL    HW210842   1.777   2.560   4.963
 3315SOL     OW10843   6.876   2.666   4.327
 3315SOL    HW110844   6.953   2.705   4.278
 3315SOL    HW210845   6.870   2.568   4.308
 3316SOL     OW10846   3.546   1.452   5.712
 3316SOL    HW110847   3.623   1.441   5.776
 3316SOL    HW210848   3.564   1.528   5.650
 3317SOL     OW10849   4.595   2.779   1.727
 3317SOL    HW110850   4.578   2.861   1.782
 3317SOL    HW210851   4.609   2.806   1.632
 3318SOL     OW10852   2.879   6.975   6.709
 3318SOL    HW110853   2.862   0.018   6.637
 3318SOL    HW210854   2.953   7.007   6.768
 3319SOL     OW10855   7.023   6.538   3.373
 3319SOL    HW110856   6.955   6.465   3.379
 3319SOL    HW210857   0.041   6.552   3.462
 3320SOL     OW10858   5.750   1.317   5.946
 3320SOL    HW110859   5.742   1.393   5.881
 3320SOL    HW210860   5.788   1.350   6.032
 3321SOL     OW10861   2.950   3.074   1.929
 3321SOL    HW110862   2.963   3.169   1.900
 3321SOL    HW210863   2.894   3.026   1.861
 3322SOL     OW10864   4.680   2.014   1.583
 3322SOL    HW110865   4.779   2.006   1.579
 3322SOL    HW210866   4.655   2.087   1.647
 3323SOL     OW10867   1.983   3.664   0.215
 3323SOL    HW110868   2.007   3.567   0.216
 3323SOL    HW210869   1.951   3.690   0.124
 3324SOL     OW10870   0.997   3.868   0.028
 3324SOL    HW110871   0.972   3.940   6.987
 3324SOL    HW210872   0.942   3.877   0.110
 3325SOL     OW10873   2.227   3.067   0.058
 3325SOL    HW110874   2.154   3.048   7.016
 3325SOL    HW210875   2.189   3.073   0.150
 3326SOL     OW10876   5.545   1.558   1.514
 3326SOL    HW110877   5.570   1.468   1.478
 3326SOL    HW210878   5.537   1.623   1.439
 3327SOL     OW10879   2.348   6.536   0.919
 3327SOL    HW110880   2.264   6.532   0.974
 3327SOL    HW210881   2.421   6.488   0.967
 3328SOL     OW10882   4.982   1.444   2.011
 3328SOL    HW110883   5.051   1.436   2.083
 3328SOL    HW210884   4.953   1.540   2.003
 3329SOL     OW10885   4.709   0.214   5.254
 3329SOL    HW110886   4.638   0.144   5.262
 3329SOL    HW210887   4.669   0.297   5.213
 3330SOL     OW10888   5.758   6.614   2.188
 3330SOL    HW110889   5.848   6.573   2.172
 3330SOL    HW210890   5.730   6.599   2.283
 3331SOL     OW10891   1.338   3.333   2.816
 3331SOL    HW110892   1.329   3.401   2.888
 3331SOL    HW210893   1.321   3.376   2.727
 3332SOL     OW10894   5.795   3.945   0.244
 3332SOL    HW110895   5.806   3.976   0.339
 3332SOL    HW210896   5.864   3.876   0.223
 3333SOL     OW10897   3.032   3.503   6.872
 3333SOL    HW110898   3.076   3.555   6.799
 3333SOL    HW210899   2.971   3.563   6.923
 3334SOL     OW10900   2.014   3.088   1.973
 3334SOL    HW110901   1.968   3.017   1.920
 3334SOL    HW210902   2.058   3.153   1.910
 3335SOL     OW10903   4.506   5.468   5.302
 3335SOL    HW110904   4.543   5.543   5.356
 3335SOL    HW210905   4.417   5.494   5.265
 3336SOL     OW10906   2.227   0.083   4.247
 3336SOL    HW110907   2.207   0.024   4.325
 3336SOL    HW210908   2.318   0.063   4.212
 3337SOL     OW10909   3.405   3.242   2.047
 3337SOL    HW110910   3.465   3.320   2.031
 3337SOL    HW210911   3.457   3.168   2.091
 3338SOL     OW10912   0.173   2.459   1.971
 3338SOL    HW110913   0.111   2.537   1.962
 3338SOL    HW210914   0.267   2.492   1.983
 3339SOL     OW10915   2.035   7.024   6.006
 3339SOL    HW110916   2.024   0.094   5.974
 3339SOL    HW210917   1.945   6.981   6.014
 3340SOL     OW10918   4.888   0.634   4.093
 3340SOL    HW110919   4.859   0.581   4.012
 3340SOL    HW210920   4.871   0.580   4.175
 3341SOL     OW10921   2.513   4.534   3.281
 3341SOL    HW110922   2.454   4.610   3.254
 3341SOL    HW210923   2.491   4.454   3.225
 3342SOL     OW10924   6.897   0.700   2.978
 3342SOL    HW110925   6.949   0.780   2.950
 3342SOL    HW210926   6.860   0.714   3.070
 3343SOL     OW10927   4.875   5.552   6.324
 3343SOL    HW110928   4.906   5.498   6.246
 3343SOL    HW210929   4.864   5.647   6.297
 3344SOL     OW10930   6.304   2.897   3.244
 3344SOL    HW110931   6.380   2.852   3.198
 3344SOL    HW210932   6.253   2.830   3.298
 3345SOL     OW10933   0.775   3.884   6.594
 3345SOL    HW110934   0.823   3.817   6.651
 3345SOL    HW210935   0.838   3.959   6.572
 3346SOL     OW10936   1.930   0.928   0.024
 3346SOL    HW110937   2.011   0.879   7.016
 3346SOL    HW210938   1.923   0.918   0.123
 3347SOL     OW10939   1.395   2.303   5.936
 3347SOL    HW110940   1.364   2.327   6.029
 3347SOL    HW210941   1.426   2.208   5.936
 3348SOL     OW10942   4.193   3.742   5.576
 3348SOL    HW110943   4.211   3.648   5.605
 3348SOL    HW210944   4.208   3.803   5.654
 3349SOL     OW10945   2.179   4.725   3.545
 3349SOL    HW110946   2.201   4.649   3.484
 3349SOL    HW210947   2.248   4.796   3.537
 3350SOL     OW10948   0.895   3.684   5.788
 3350SOL    HW110949   0.795   3.679   5.787
 3350SOL    HW210950   0.931   3.638   5.706
 3351SOL     OW10951   5.736   0.970   1.522
 3351SOL    HW110952   5.781   0.881   1.532
 3351SOL    HW210953   5.768   1.014   1.438
 3352SOL     OW10954   5.106   2.689   0.626
 3352SOL    HW110955   5.157   2.603   0.620
 3352SOL    HW210956   5.120   2.730   0.716
 3353SOL     OW10957   1.917   0.127   0.547
 3353SOL    HW110958   1.854   0.060   0.506
 3353SOL    HW210959   1.944   0.194   0.478
 3354SOL     OW10960   3.848   2.998   5.250
 3354SOL    HW110961   3.776   2.930   5.254
 3354SOL    HW210962   3.928   2.965   5.300
 3355SOL     OW10963   2.190   1.393   5.888
 3355SOL    HW110964   2.161   1.418   5.796
 3355SOL    HW210965   2.203   1.476   5.942
 3356SOL     OW10966   0.667   6.525   6.535
 3356SOL    HW110967   0.708   6.515   6.444
 3356SOL    HW210968   0.593   6.458   6.545
 3357SOL     OW10969   3.437   3.492   1.497
 3357SOL    HW110970   3.499   3.446   1.434
 3357SOL    HW210971   3.484   3.569   1.540
 3358SOL     OW10972   5.588   1.219   3.350
 3358SOL    HW110973   5.585   1.317   3.329
 3358SOL    HW210974   5.647   1.204   3.429
 3359SOL     OW10975   0.244   4.989   3.788
 3359SOL    HW110976   0.307   4.961   3.860
 3359SOL    HW210977   0.294   5.045   3.721
 3360SOL     OW10978   1.056   2.267   6.591
 3360SOL    HW110979   1.144   2.280   6.545
 3360SOL    HW210980   1.046   2.336   6.663
 3361SOL     OW10981   0.795   0.008   4.495
 3361SOL    HW110982   0.856   0.085   4.478
 3361SOL    HW210983   0.729   0.001   4.420
 3362SOL     OW10984   4.391   1.522   3.332
 3362SOL    HW110985   4.298   1.540   3.299
 3362SOL    HW210986   4.416   1.428   3.311
 3363SOL     OW10987   6.912   3.711   1.773
 3363SOL    HW110988   6.826   3.760   1.786
 3363SOL    HW210989   6.960   3.704   1.860
 3364SOL     OW10990   1.447   4.526   2.721
 3364SOL    HW110991   1.381   4.515   2.647
 3364SOL    HW210992   1.467   4.437   2.761
 3365SOL     OW10993   1.846   2.714   4.514
 3365SOL    HW110994   1.925   2.673   4.560
 3365SOL    HW210995   1.834   2.672   4.425
 3366SOL     OW10996   6.343   3.875   3.814
 3366SOL    HW110997   6.419   3.827   3.858
 3366SOL    HW210998   6.268   3.886   3.879
 3367SOL     OW10999   3.304   3.299   3.846
 3367SOL    HW111000   3.311   3.312   3.747
 3367SOL    HW211001   3.223   3.244   3.867
 3368SOL     OW11002   0.690   5.916   6.709
 3368SOL    HW111003   0.729   5.942   6.798
 3368SOL    HW211004   0.760   5.873   6.653
 3369SOL     OW11005   4.766   2.151   1.322
 3369SOL    HW111006   4.684   2.106   1.358
 3369SOL    HW211007   4.799   2.102   1.242
 3370SOL     OW11008   5.657   6.817   2.005
 3370SOL    HW111009   5.691   6.738   2.056
 3370SOL    HW211010   5.724   6.843   1.935
 3371SOL     OW11011   2.170   3.751   1.972
 3371SOL    HW111012   2.203   3.754   1.877
 3371SOL    HW211013   2.184   3.659   2.009
 3372SOL     OW11014   6.432   2.285   0.396
 3372SOL    HW111015   6.504   2.309   0.330
 3372SOL    HW211016   6.342   2.302   0.356
 3373SOL     OW11017   0.664   1.878   2.380
 3373SOL    HW111018   0.656   1.943   2.456
 3373SOL    HW211019   0.575   1.866   2.336
 3374SOL     OW11020   1.056   0.056   4.035
 3374SOL    HW111021   1.051   0.139   4.090
 3374SOL    HW211022   1.087   7.004   4.092
 3375SOL     OW11023   6.802   4.681   0.648
 3375SOL    HW111024   6.709   4.664   0.616
 3375SOL    HW211025   6.798   4.718   0.741
 3376SOL     OW11026   2.989   3.612   4.958
 3376SOL    HW111027   3.022   3.529   5.002
 3376SOL    HW211028   2.903   3.641   5.001
 3377SOL     OW11029   6.786   4.945   4.498
 3377SOL    HW111030   6.824   5.005   4.567
 3377SOL    HW211031   6.792   4.990   4.408
 3378SOL     OW11032   0.129   0.025   0.067
 3378SOL    HW111033   0.046   0.081   0.066
 3378SOL    HW211034   0.121   6.977   7.023
 3379SOL     OW11035   0.800   2.888   4.871
 3379SOL    HW111036   0.795   2.806   4.928
 3379SOL    HW211037   0.707   2.923   4.856
 3380SOL     OW11038   4.149   5.217   5.327
 3380SOL    HW111039   4.169   5.234   5.231
 3380SOL    HW211040   4.234   5.222   5.380
 3381SOL     OW11041   0.007   3.101   1.500
 3381SOL    HW111042   6.999   3.130   1.410
 3381SOL    HW211043   0.068   3.022   1.490
 3382SOL     OW11044   0.355   3.337   1.009
 3382SOL    HW111045   0.362   3.242   1.040
 3382SOL    HW211046   0.298   3.389   1.073
 3383SOL     OW11047   3.442   5.335   0.191
 3383SOL    HW111048   3.465   5.358   0.285
 3383SOL    HW211049   3.481   5.245   0.168
 3384SOL     OW11050   2.829   4.430   0.779
 3384SOL    HW111051   2.910   4.484   0.801
 3384SOL    HW211052   2.854   4.333   0.772
 3385SOL     OW11053   6.518   3.003   3.784
 3385SOL    HW111054   6.451   2.997   3.858
 3385SOL    HW211055   6.610   3.006   3.823
 3386SOL     OW11056   6.403   4.708   0.185
 3386SOL    HW111057   6.448   4.619   0.193
 3386SOL    HW211058   6.383   4.726   0.088
 3387SOL     OW11059   4.976   0.328   3.080
 3387SOL    HW111060   4.966   0.424   3.054
 3387SOL    HW211061   5.062   0.293   3.043
 3388SOL     OW11062   4.994   4.507   1.678
 3388SOL    HW111063   4.959   4.523   1.586
 3388SOL    HW211064   5.087   4.543   1.686
 3389SOL     OW11065   6.649   5.643   6.851
 3389SOL    HW111066   6.570   5.688   6.893
 3389SOL    HW211067   6.618   5.568   6.793
 3390SOL     OW11068   4.276   6.100   6.223
 3390SOL    HW111069   4.210   6.032   6.191
 3390SOL    HW211070   4.329   6.134   6.146
 3391SOL     OW11071   5.201   2.089   3.193
 3391SOL    HW111072   5.215   2.188   3.197
 3391SOL    HW211073   5.125   2.064   3.254
 3392SOL     OW11074   3.301   6.790   4.205
 3392SOL    HW111075   3.262   6.789   4.297
 3392SOL    HW211076   3.381   6.730   4.202
 3393SOL     OW11077   5.034   6.735   0.309
 3393SOL    HW111078   5.077   6.786   0.234
 3393SOL    HW211079   5.084   6.650   0.324
 3394SOL     OW11080   3.865   5.047   0.644
 3394SOL    HW111081   3.888   4.955   0.674
 3394SOL    HW211082   3.940   5.086   0.591
 3395SOL     OW11083   4.878   1.810   3.109
 3395SOL    HW111084   4.854   1.905   3.125
 3395SOL    HW211085   4.978   1.800   3.111
 3396SOL     OW11086   5.449   1.105   3.781
 3396SOL    HW111087   5.423   1.023   3.832
 3396SOL    HW211088   5.369   1.162   3.766
 3397SOL     OW11089   2.496   5.945   6.200
 3397SOL    HW111090   2.497   5.952   6.300
 3397SOL    HW211091   2.555   5.871   6.171
 3398SOL     OW11092   0.673   0.709   5.373
 3398SOL    HW111093   0.595   0.699   5.434
 3398SOL    HW211094   0.751   0.660   5.410
 3399SOL     OW11095   6.336   5.000   3.253
 3399SOL    HW111096   6.357   4.902   3.257
 3399SOL    HW211097   6.252   5.014   3.202
 3400SOL     OW11098   6.560   3.446   6.477
 3400SOL    HW111099   6.530   3.355   6.508
 3400SOL    HW211100   6.588   3.500   6.556
 3401SOL     OW11101   6.292   3.785   6.244
 3401SOL    HW111102   6.247   3.871   6.270
 3401SOL    HW211103   6.303   3.782   6.145
 3402SOL     OW11104   6.457   5.709   0.771
 3402SOL    HW111105   6.446   5.691   0.673
 3402SOL    HW211106   6.506   5.633   0.813
 3403SOL     OW11107   4.858   5.825   6.117
 3403SOL    HW111108   4.793   5.777   6.058
 3403SOL    HW211109   4.811   5.899   6.164
 3404SOL     OW11110   5.142   3.124   6.679
 3404SOL    HW111111   5.156   3.047   6.616
 3404SOL    HW211112   5.044   3.139   6.691
 3405SOL     OW11113   5.726   5.055   6.026
 3405SOL    HW111114   5.658   4.984   6.009
 3405SOL    HW211115   5.710   5.132   5.965
 3406SOL     OW11116   2.050   3.633   2.523
 3406SOL    HW111117   2.062   3.708   2.459
 3406SOL    HW211118   1.963   3.644   2.572
 3407SOL     OW11119   2.610   4.390   0.543
 3407SOL    HW111120   2.615   4.315   0.478
 3407SOL    HW211121   2.683   4.456   0.523
 3408SOL     OW11122   4.647   2.552   4.513
 3408SOL    HW111123   4.591   2.578   4.435
 3408SOL    HW211124   4.696   2.467   4.493
 3409SOL     OW11125   3.304   6.206   0.959
 3409SOL    HW111126   3.314   6.288   0.903
 3409SOL    HW211127   3.308   6.125   0.901
 3410SOL     OW11128   5.653   6.433   2.738
 3410SOL    HW111129   5.582   6.363   2.739
 3410SOL    HW211130   5.743   6.390   2.747
 3411SOL     OW11131   0.075   2.947   0.543
 3411SOL    HW111132   7.010   2.904   0.556
 3411SOL    HW211133   0.104   2.933   0.448
 3412SOL     OW11134   4.901   3.752   1.183
 3412SOL    HW111135   4.832   3.680   1.195
 3412SOL    HW211136   4.855   3.841   1.182
 3413SOL     OW11137   6.238   2.224   6.579
 3413SOL    HW111138   6.255   2.237   6.677
 3413SOL    HW211139   6.181   2.299   6.545
 3414SOL     OW11140   3.617   2.162   5.920
 3414SOL    HW111141   3.704   2.137   5.963
 3414SOL    HW211142   3.545   2.100   5.952
 3415SOL     OW11143   1.881   2.142   4.016
 3415SOL    HW111144   1.868   2.077   3.941
 3415SOL    HW211145   1.819   2.120   4.091
 3416SOL     OW11146   5.944   0.215   6.761
 3416SOL    HW111147   6.017   0.146   6.768
 3416SOL    HW211148   5.947   0.257   6.671
 3417SOL     OW11149   0.609   6.600   2.570
 3417SOL    HW111150   0.625   6.575   2.665
 3417SOL    HW211151   0.693   6.636   2.530
 3418SOL     OW11152   3.755   5.620   3.395
 3418SOL    HW111153   3.838   5.568   3.378
 3418SOL    HW211154   3.778   5.714   3.418
 3419SOL     OW11155   4.134   5.499   5.764
 3419SOL    HW111156   4.059   5.536   5.710
 3419SOL    HW211157   4.209   5.565   5.766
 3420SOL     OW11158   5.267   3.017   4.347
 3420SOL    HW111159   5.252   2.923   4.316
 3420SOL    HW211160   5.210   3.035   4.427
 3421SOL     OW11161   5.472   1.455   3.202
 3421SOL    HW111162   5.426   1.532   3.247
 3421SOL    HW211163   5.551   1.490   3.151
 3422SOL     OW11164   2.415   0.432   0.326
 3422SOL    HW111165   2.365   0.363   0.274
 3422SOL    HW211166   2.378   0.523   0.305
 3423SOL     OW11167   0.684   3.991   5.915
 3423SOL    HW111168   0.666   3.923   5.986
 3423SOL    HW211169   0.674   4.082   5.953
 3424SOL     OW11170   3.794   0.410   1.457
 3424SOL    HW111171   3.723   0.418   1.527
 3424SOL    HW211172   3.755   0.371   1.374
 3425SOL     OW11173   4.253   4.933   2.017
 3425SOL    HW111174   4.341   4.885   2.021
 3425SOL    HW211175   4.180   4.871   2.045
 3426SOL     OW11176   5.082   2.843   0.869
 3426SOL    HW111177   5.167   2.855   0.920
 3426SOL    HW211178   5.045   2.932   0.845
 3427SOL     OW11179   0.756   2.234   2.222
 3427SOL    HW111180   0.825   2.180   2.175
 3427SOL    HW211181   0.750   2.204   2.318
 3428SOL     OW11182   4.706   4.609   6.069
 3428SOL    HW111183   4.694   4.708   6.063
 3428SOL    HW211184   4.654   4.564   5.996
 3429SOL     OW11185   0.968   1.248   1.343
 3429SOL    HW111186   1.059   1.287   1.356
 3429SOL    HW211187   0.977   1.160   1.295
 3430SOL     OW11188   2.081   5.243   6.297
 3430SOL    HW111189   1.990   5.215   6.268
 3430SOL    HW211190   2.097   5.338   6.271
 3431SOL     OW11191   1.861   6.854   2.145
 3431SOL    HW111192   1.782   6.882   2.091
 3431SOL    HW211193   1.857   6.756   2.163
 3432SOL     OW11194   2.148   4.559   6.293
 3432SOL    HW111195   2.113   4.467   6.306
 3432SOL    HW211196   2.081   4.613   6.242
 3433SOL     OW11197   1.854   0.981   6.419
 3433SOL    HW111198   1.789   1.056   6.433
 3433SOL    HW211199   1.912   0.971   6.500
 3434SOL     OW11200   2.921   2.111   1.845
 3434SOL    HW111201   2.972   2.157   1.772
 3434SOL    HW211202   2.902   2.177   1.918
 3435SOL     OW11203   2.709   1.354   0.286
 3435SOL    HW111204   2.742   1.304   0.366
 3435SOL    HW211205   2.630   1.307   0.247
 3436SOL     OW11206   4.054   5.157   6.749
 3436SOL    HW111207   4.051   5.224   6.823
 3436SOL    HW211208   4.042   5.204   6.661
 3437SOL     OW11209   1.452   0.090   5.569
 3437SOL    HW111210   1.516   0.025   5.611
 3437SOL    HW211211   1.395   0.042   5.502
 3438SOL     OW11212   0.490   4.168   1.400
 3438SOL    HW111213   0.414   4.114   1.363
 3438SOL    HW211214   0.574   4.115   1.395
 3439SOL     OW11215   2.980   6.057   3.612
 3439SOL    HW111216   3.047   6.048   3.538
 3439SOL    HW211217   2.888   6.055   3.575
 3440SOL     OW11218   4.099   3.711   3.954
 3440SOL    HW111219   4.078   3.617   3.980
 3440SOL    HW211220   4.197   3.721   3.941
 3441SOL     OW11221   0.484   6.336   6.480
 3441SOL    HW111222   0.471   6.314   6.384
 3441SOL    HW211223   0.424   6.279   6.536
 3442SOL     OW11224   3.584   3.579   0.840
 3442SOL    HW111225   3.505   3.534   0.880
 3442SOL    HW211226   3.667   3.553   0.890
 3443SOL     OW11227   3.244   5.470   2.529
 3443SOL    HW111228   3.159   5.521   2.520
 3443SOL    HW211229   3.288   5.493   2.616
 3444SOL     OW11230   5.073   4.771   1.459
 3444SOL    HW111231   5.152   4.732   1.507
 3444SOL    HW211232   5.007   4.699   1.439
 3445SOL     OW11233   0.225   5.304   4.295
 3445SOL    HW111234   0.313   5.333   4.257
 3445SOL    HW211235   0.153   5.322   4.228
 3446SOL     OW11236   5.725   0.442   1.215
 3446SOL    HW111237   5.771   0.530   1.227
 3446SOL    HW211238   5.769   0.373   1.273
 3447SOL     OW11239   5.475   1.252   0.135
 3447SOL    HW111240   5.478   1.157   0.165
 3447SOL    HW211241   5.524   1.309   0.201
 3448SOL     OW11242   2.036   6.433   5.720
 3448SOL    HW111243   2.095   6.404   5.795
 3448SOL    HW211244   1.961   6.368   5.709
 3449SOL     OW11245   5.714   5.095   5.200
 3449SOL    HW111246   5.768   5.048   5.269
 3449SOL    HW211247   5.680   5.029   5.133
 3450SOL     OW11248   1.357   0.743   6.627
 3450SOL    HW111249   1.405   0.675   6.680
 3450SOL    HW211250   1.381   0.835   6.659
 3451SOL     OW11251   1.854   5.561   0.547
 3451SOL    HW111252   1.904   5.474   0.540
 3451SOL    HW211253   1.772   5.556   0.490
 3452SOL     OW11254   5.952   0.872   5.956
 3452SOL    HW111255   5.946   0.971   5.944
 3452SOL    HW211256   5.909   0.847   6.043
 3453SOL     OW11257   5.162   6.404   6.479
 3453SOL    HW111258   5.122   6.462   6.408
 3453SOL    HW211259   5.155   6.308   6.451
 3454SOL     OW11260   1.499   3.249   3.972
 3454SOL    HW111261   1.508   3.317   3.899
 3454SOL    HW211262   1.573   3.261   4.038
 3455SOL     OW11263   2.366   1.557   4.533
 3455SOL    HW111264   2.399   1.629   4.472
 3455SOL    HW211265   2.266   1.561   4.537
 3456SOL     OW11266   4.373   4.579   1.949
 3456SOL    HW111267   4.426   4.498   1.975
 3456SOL    HW211268   4.396   4.655   2.010
 3457SOL     OW11269   4.073   5.164   4.854
 3457SOL    HW111270   4.114   5.202   4.771
 3457SOL    HW211271   4.080   5.230   4.929
 3458SOL     OW11272   4.695   2.061   2.073
 3458SOL    HW111273   4.615   2.010   2.040
 3458SOL    HW211274   4.765   1.996   2.104
 3459SOL     OW11275   5.325   1.989   3.559
 3459SOL    HW111276   5.257   1.930   3.515
 3459SOL    HW211277   5.403   2.000   3.498
 3460SOL     OW11278   3.004   1.915   5.575
 3460SOL    HW111279   2.979   2.008   5.547
 3460SOL    HW211280   3.046   1.917   5.665
 3461SOL     OW11281   5.995   4.887   6.595
 3461SOL    HW111282   5.931   4.844   6.659
 3461SOL    HW211283   5.957   4.885   6.502
 3462SOL     OW11284   1.532   3.722   5.861
 3462SOL    HW111285   1.525   3.795   5.929
 3462SOL    HW211286   1.507   3.757   5.771
 3463SOL     OW11287   0.524   3.988   1.101
 3463SOL    HW111288   0.614   3.979   1.143
 3463SOL    HW211289   0.527   3.957   1.006
 3464SOL     OW11290   0.364   4.606   6.655
 3464SOL    HW111291   0.365   4.535   6.585
 3464SOL    HW211292   0.457   4.634   6.676
 3465SOL     OW11293   2.110   1.806   1.861
 3465SOL    HW111294   2.137   1.710   1.863
 3465SOL    HW211295   2.064   1.826   1.774
 3466SOL     OW11296   6.930   5.586   5.775
 3466SOL    HW111297   6.941   5.522   5.851
 3466SOL    HW211298   6.847   5.640   5.789
 3467SOL     OW11299   1.932   1.518   6.897
 3467SOL    HW111300   1.901   1.425   6.914
 3467SOL    HW211301   1.867   1.564   6.837
 3468SOL     OW11302   3.087   5.107   2.941
 3468SOL    HW111303   3.142   5.056   3.007
 3468SOL    HW211304   3.127   5.198   2.928
 3469SOL     OW11305   6.234   2.226   4.398
 3469SOL    HW111306   6.226   2.149   4.335
 3469SOL    HW211307   6.202   2.310   4.354
 3470SOL     OW11308   0.599   5.359   1.111
 3470SOL    HW111309   0.549   5.444   1.131
 3470SOL    HW211310   0.694   5.370   1.141
 3471SOL     OW11311   4.613   5.101   5.342
 3471SOL    HW111312   4.525   5.105   5.390
 3471SOL    HW211313   4.681   5.154   5.392
 3472SOL     OW11314   2.523   1.160   3.642
 3472SOL    HW111315   2.503   1.075   3.593
 3472SOL    HW211316   2.588   1.141   3.716
 3473SOL     OW11317   5.601   1.897   5.865
 3473SOL    HW111318   5.517   1.853   5.896
 3473SOL    HW211319   5.579   1.987   5.826
 3474SOL     OW11320   2.992   4.928   1.533
 3474SOL    HW111321   2.976   5.021   1.566
 3474SOL    HW211322   2.969   4.863   1.605
 3475SOL     OW11323   1.240   6.635   3.850
 3475SOL    HW111324   1.145   6.630   3.881
 3475SOL    HW211325   1.283   6.546   3.861
 3476SOL     OW11326   3.625   0.212   4.793
 3476SOL    HW111327   3.674   0.151   4.856
 3476SOL    HW211328   3.691   0.255   4.730
 3477SOL     OW11329   3.394   5.217   1.233
 3477SOL    HW111330   3.409   5.277   1.154
 3477SOL    HW211331   3.299   5.189   1.236
 3478SOL     OW11332   2.057   6.011   5.724
 3478SOL    HW111333   1.989   6.079   5.751
 3478SOL    HW211334   2.043   5.987   5.628
 3479SOL     OW11335   0.665   0.073   2.872
 3479SOL    HW111336   0.726   0.122   2.935
 3479SOL    HW211337   0.633   0.136   2.801
 3480SOL     OW11338   6.670   1.213   4.183
 3480SOL    HW111339   6.608   1.243   4.110
 3480SOL    HW211340   6.628   1.139   4.234
 3481SOL     OW11341   4.395   6.933   6.436
 3481SOL    HW111342   4.343   6.848   6.427
 3481SOL    HW211343   4.341   7.002   6.484
 3482SOL     OW11344   5.860   1.482   1.167
 3482SOL    HW111345   5.922   1.470   1.244
 3482SOL    HW211346   5.894   1.555   1.107
 3483SOL     OW11347   2.846   0.576   0.943
 3483SOL    HW111348   2.752   0.605   0.960
 3483SOL    HW211349   2.879   0.618   0.858
 3484SOL     OW11350   3.166   3.325   2.964
 3484SOL    HW111351   3.254   3.290   2.932
 3484SOL    HW211352   3.132   3.394   2.900
 3485SOL     OW11353   1.853   1.113   5.149
 3485SOL    HW111354   1.908   1.186   5.108
 3485SOL    HW211355   1.913   1.043   5.186
 3486SOL     OW11356   3.794   1.558   2.177
 3486SOL    HW111357   3.735   1.499   2.232
 3486SOL    HW211358   3.859   1.604   2.237
 3487SOL     OW11359   5.700   1.716   6.773
 3487SOL    HW111360   5.635   1.790   6.787
 3487SOL    HW211361   5.660   1.647   6.713
 3488SOL     OW11362   6.218   3.166   4.033
 3488SOL    HW111363   6.299   3.121   3.993
 3488SOL    HW211364   6.248   3.239   4.095
 3489SOL     OW11365   3.133   6.926   0.550
 3489SOL    HW111366   3.185   7.012   0.548
 3489SOL    HW211367   3.067   6.929   0.625
 3490SOL     OW11368   4.742   4.374   0.367
 3490SOL    HW111369   4.730   4.346   0.462
 3490SOL    HW211370   4.653   4.388   0.325
 3491SOL     OW11371   0.004   2.829   5.943
 3491SOL    HW111372   6.932   2.851   5.930
 3491SOL    HW211373   0.023   2.819   6.041
 3492SOL     OW11374   0.926   5.801   0.331
 3492SOL    HW111375   0.994   5.814   0.259
 3492SOL    HW211376   0.838   5.774   0.290
 3493SOL     OW11377   6.229   4.888   0.306
 3493SOL    HW111378   6.152   4.841   0.349
 3493SOL    HW211379   6.291   4.821   0.266
 3494SOL     OW11380   4.213   6.873   0.319
 3494SOL    HW111381   4.215   6.967   0.353
 3494SOL    HW211382   4.293   6.824   0.354
 3495SOL     OW11383   4.098   4.708   2.258
 3495SOL    HW111384   4.076   4.729   2.163
 3495SOL    HW211385   4.053   4.622   2.285
 3496SOL     OW11386   1.287   3.427   1.625
 3496SOL    HW111387   1.213   3.370   1.662
 3496SOL    HW211388   1.375   3.397   1.664
 3497SOL     OW11389   4.275   0.485   3.219
 3497SOL    HW111390   4.284   0.513   3.124
 3497SOL    HW211391   4.340   0.412   3.239
 3498SOL     OW11392   3.022   1.887   1.045
 3498SOL    HW111393   3.013   1.892   0.946
 3498SOL    HW211394   2.931   1.891   1.087
 3499SOL     OW11395   6.606   3.659   4.687
 3499SOL    HW111396   6.623   3.574   4.638
 3499SOL    HW211397   6.531   3.708   4.642
 3500SOL     OW11398   6.780   4.409   6.263
 3500SOL    HW111399   6.712   4.451   6.204
 3500SOL    HW211400   6.863   4.389   6.211
 3501SOL     OW11401   0.364   4.884   4.728
 3501SOL    HW111402   0.292   4.949   4.751
 3501SOL    HW211403   0.345   4.842   4.640
 3502SOL     OW11404   0.322   2.102   1.890
 3502SOL    HW111405   0.410   2.135   1.925
 3502SOL    HW211406   0.334   2.014   1.845
 3503SOL     OW11407   4.933   5.788   5.104
 3503SOL    HW111408   4.933   5.755   5.198
 3503SOL    HW211409   5.019   5.762   5.059
 3504SOL     OW11410   2.838   3.499   0.995
 3504SOL    HW111411   2.814   3.430   1.063
 3504SOL    HW211412   2.755   3.536   0.955
 3505SOL     OW11413   5.183   5.741   4.992
 3505SOL    HW111414   5.256   5.743   5.060
 3505SOL    HW211415   5.199   5.812   4.924
 3506SOL     OW11416   4.042   5.713   4.944
 3506SOL    HW111417   4.106   5.741   4.873
 3506SOL    HW211418   4.078   5.740   5.034
 3507SOL     OW11419   1.126   0.901   6.515
 3507SOL    HW111420   1.060   0.893   6.590
 3507SOL    HW211421   1.213   0.860   6.543
 3508SOL     OW11422   4.839   2.601   6.966
 3508SOL    HW111423   4.817   2.666   6.894
 3508SOL    HW211424   4.866   2.651   0.024
 3509SOL     OW11425   6.121   6.300   0.216
 3509SOL    HW111426   6.052   6.291   0.145
 3509SOL    HW211427   6.201   6.346   0.179
 3510SOL     OW11428   1.662   2.277   2.118
 3510SOL    HW111429   1.623   2.346   2.057
 3510SOL    HW211430   1.735   2.228   2.072
 3511SOL     OW11431   1.332   3.045   0.039
 3511SOL    HW111432   1.267   3.121   0.033
 3511SOL    HW211433   1.323   3.001   0.128
 3512SOL     OW11434   1.215   4.193   0.398
 3512SOL    HW111435   1.217   4.111   0.457
 3512SOL    HW211436   1.137   4.188   0.337
 3513SOL     OW11437   6.416   4.525   0.916
 3513SOL    HW111438   6.393   4.439   0.870
 3513SOL    HW211439   6.513   4.544   0.905
 3514SOL     OW11440   0.222   6.821   1.324
 3514SOL    HW111441   0.174   6.858   1.404
 3514SOL    HW211442   0.279   6.744   1.352
 3515SOL     OW11443   3.205   5.714   2.726
 3515SOL    HW111444   3.106   5.700   2.737
 3515SOL    HW211445   3.249   5.707   2.815
 3516SOL     OW11446   3.200   0.822   0.733
 3516SOL    HW111447   3.111   0.786   0.704
 3516SOL    HW211448   3.268   0.749   0.734
 3517SOL     OW11449   0.476   1.116   0.641
 3517SOL    HW111450   0.551   1.124   0.574
 3517SOL    HW211451   0.485   1.029   0.690
 3518SOL     OW11452   5.228   3.913   6.129
 3518SOL    HW111453   5.314   3.869   6.153
 3518SOL    HW211454   5.152   3.851   6.146
 3519SOL     OW11455   0.707   6.615   6.926
 3519SOL    HW111456   0.670   6.697   6.883
 3519SOL    HW211457   0.803   6.604   6.900
 3520SOL     OW11458   4.109   4.082   0.933
 3520SOL    HW111459   4.155   4.043   1.013
 3520SOL    HW211460   4.030   4.025   0.911
 3521SOL     OW11461   5.363   3.021   1.429
 3521SOL    HW111462   5.391   3.010   1.524
 3521SOL    HW211463   5.402   3.105   1.392
 3522SOL     OW11464   3.001   5.304   2.035
 3522SOL    HW111465   2.993   5.390   1.984
 3522SOL    HW211466   3.012   5.324   2.132
 3523SOL     OW11467   3.136   4.690   5.261
 3523SOL    HW111468   3.072   4.619   5.234
 3523SOL    HW211469   3.151   4.752   5.183
 3524SOL     OW11470   2.930   0.705   0.647
 3524SOL    HW111471   2.892   0.612   0.642
 3524SOL    HW211472   2.951   0.737   0.555
 3525SOL     OW11473   0.347   3.564   2.099
 3525SOL    HW111474   0.304   3.474   2.105
 3525SOL    HW211475   0.280   3.634   2.118
 3526SOL     OW11476   1.468   0.655   3.334
 3526SOL    HW111477   1.485   0.735   3.276
 3526SOL    HW211478   1.540   0.647   3.403
 3527SOL     OW11479   4.947   2.654   6.358
 3527SOL    HW111480   5.003   2.687   6.434
 3527SOL    HW211481   4.958   2.715   6.280
 3528SOL     OW11482   1.266   5.927   3.009
 3528SOL    HW111483   1.220   5.986   2.943
 3528SOL    HW211484   1.271   5.974   3.097
 3529SOL     OW11485   4.242   6.491   5.594
 3529SOL    HW111486   4.145   6.468   5.578
 3529SOL    HW211487   4.293   6.481   5.509
 3530SOL     OW11488   2.841   5.904   2.843
 3530SOL    HW111489   2.767   5.941   2.897
 3530SOL    HW211490   2.919   5.968   2.844
 3531SOL     OW11491   5.570   3.803   0.144
 3531SOL    HW111492   5.621   3.875   0.191
 3531SOL    HW211493   5.528   3.840   0.062
 3532SOL     OW11494   2.415   0.674   0.165
 3532SOL    HW111495   2.484   0.700   0.233
 3532SOL    HW211496   2.456   0.610   0.100
 3533SOL     OW11497   0.834   2.131   3.425
 3533SOL    HW111498   0.854   2.222   3.387
 3533SOL    HW211499   0.739   2.128   3.455
 3534SOL     OW11500   6.059   1.659   5.189
 3534SOL    HW111501   5.964   1.689   5.195
 3534SOL    HW211502   6.111   1.725   5.133
 3535SOL     OW11503   6.873   5.738   6.734
 3535SOL    HW111504   6.900   5.829   6.763
 3535SOL    HW211505   6.796   5.707   6.790
 3536SOL     OW11506   1.588   3.364   3.572
 3536SOL    HW111507   1.514   3.299   3.591
 3536SOL    HW211508   1.610   3.415   3.655
 3537SOL     OW11509   2.854   4.860   0.889
 3537SOL    HW111510   2.799   4.921   0.945
 3537SOL    HW211511   2.801   4.778   0.868
 3538SOL     OW11512   2.735   0.507   3.739
 3538SOL    HW111513   2.748   0.499   3.838
 3538SOL    HW211514   2.663   0.445   3.710
 3539SOL     OW11515   5.784   3.801   5.351
 3539SOL    HW111516   5.827   3.849   5.428
 3539SOL    HW211517   5.699   3.849   5.326
 3540SOL     OW11518   1.753   2.966   6.707
 3540SOL    HW111519   1.706   2.927   6.786
 3540SOL    HW211520   1.746   3.066   6.711
 3541SOL     OW11521   2.484   3.021   0.157
 3541SOL    HW111522   2.389   3.032   0.128
 3541SOL    HW211523   2.545   3.044   0.081
 3542SOL     OW11524   5.684   2.805   0.064
 3542SOL    HW111525   5.769   2.804   0.011
 3542SOL    HW211526   5.611   2.761   0.012
 3543SOL     OW11527   1.377   3.163   3.612
 3543SOL    HW111528   1.302   3.212   3.657
 3543SOL    HW211529   1.347   3.071   3.587
 3544SOL     OW11530   3.078   4.328   6.737
 3544SOL    HW111531   3.176   4.349   6.745
 3544SOL    HW211532   3.060   4.237   6.774
 3545SOL     OW11533   3.707   5.251   0.302
 3545SOL    HW111534   3.739   5.277   0.210
 3545SOL    HW211535   3.630   5.309   0.328
 3546SOL     OW11536   6.609   4.466   3.408
 3546SOL    HW111537   6.627   4.484   3.312
 3546SOL    HW211538   6.676   4.400   3.443
 3547SOL     OW11539   6.671   3.268   4.908
 3547SOL    HW111540   6.665   3.366   4.890
 3547SOL    HW211541   6.722   3.224   4.834
 3548SOL     OW11542   4.945   1.535   6.115
 3548SOL    HW111543   4.891   1.468   6.166
 3548SOL    HW211544   4.896   1.622   6.112
 3549SOL     OW11545   1.880   5.495   6.472
 3549SOL    HW111546   1.824   5.477   6.391
 3549SOL    HW211547   1.822   5.534   6.543
 3550SOL     OW11548   5.022   2.361   5.102
 3550SOL    HW111549   4.987   2.368   5.008
 3550SOL    HW211550   4.957   2.309   5.158
 3551SOL     OW11551   3.543   1.779   5.104
 3551SOL    HW111552   3.523   1.877   5.094
 3551SOL    HW211553   3.461   1.726   5.083
 3552SOL     OW11554   6.500   5.543   1.577
 3552SOL    HW111555   6.535   5.592   1.497
 3552SOL    HW211556   6.479   5.448   1.551
 3553SOL     OW11557   3.317   6.030   6.351
 3553SOL    HW111558   3.368   6.048   6.435
 3553SOL    HW211559   3.314   6.113   6.295
 3554SOL     OW11560   3.893   3.944   0.927
 3554SOL    HW111561   3.831   3.998   0.983
 3554SOL    HW211562   3.907   3.854   0.969
 3555SOL     OW11563   1.531   2.286   4.609
 3555SOL    HW111564   1.630   2.296   4.622
 3555SOL    HW211565   1.506   2.190   4.624
 3556SOL     OW11566   3.581   1.135   4.852
 3556SOL    HW111567   3.656   1.162   4.912
 3556SOL    HW211568   3.503   1.107   4.907
 3557SOL     OW11569   0.652   0.786   2.767
 3557SOL    HW111570   0.748   0.784   2.794
 3557SOL    HW211571   0.611   0.873   2.794
 3558SOL     OW11572   2.147   6.360   0.450
 3558SOL    HW111573   2.054   6.340   0.480
 3558SOL    HW211574   2.189   6.276   0.416
 3559SOL     OW11575   2.784   6.615   4.873
 3559SOL    HW111576   2.696   6.658   4.894
 3559SOL    HW211577   2.841   6.678   4.820
 3560SOL     OW11578   1.751   4.948   4.751
 3560SOL    HW111579   1.750   4.980   4.657
 3560SOL    HW211580   1.793   4.857   4.755
 3561SOL     OW11581   6.164   4.106   5.089
 3561SOL    HW111582   6.176   4.200   5.120
 3561SOL    HW211583   6.085   4.065   5.136
 3562SOL     OW11584   2.791   1.420   4.503
 3562SOL    HW111585   2.875   1.400   4.452
 3562SOL    HW211586   2.712   1.384   4.452
 3563SOL     OW11587   6.327   2.223   6.152
 3563SOL    HW111588   6.253   2.211   6.085
 3563SOL    HW211589   6.414   2.198   6.110
 3564SOL     OW11590   0.430   4.799   2.957
 3564SOL    HW111591   0.401   4.802   3.053
 3564SOL    HW211592   0.479   4.884   2.935
 3565SOL     OW11593   3.707   4.911   2.946
 3565SOL    HW111594   3.805   4.927   2.955
 3565SOL    HW211595   3.691   4.832   2.887
 3566SOL     OW11596   6.963   0.887   5.095
 3566SOL    HW111597   6.889   0.933   5.046
 3566SOL    HW211598   6.942   0.885   5.193
 3567SOL     OW11599   0.595   3.465   6.157
 3567SOL    HW111600   0.603   3.473   6.256
 3567SOL    HW211601   0.604   3.369   6.130
 3568SOL     OW11602   6.939   4.258   5.801
 3568SOL    HW111603   6.894   4.323   5.862
 3568SOL    HW211604   6.893   4.170   5.805
 3569SOL     OW11605   2.110   1.585   5.601
 3569SOL    HW111606   2.133   1.491   5.577
 3569SOL    HW211607   2.022   1.587   5.650
 3570SOL     OW11608   5.214   0.429   5.830
 3570SOL    HW111609   5.174   0.519   5.813
 3570SOL    HW211610   5.143   0.359   5.820
 3571SOL     OW11611   0.129   5.769   0.414
 3571SOL    HW111612   0.222   5.748   0.444
 3571SOL    HW211613   0.124   5.762   0.314
 3572SOL     OW11614   5.488   3.901   4.188
 3572SOL    HW111615   5.567   3.874   4.244
 3572SOL    HW211616   5.408   3.912   4.248
 3573SOL     OW11617   0.766   3.743   3.970
 3573SOL    HW111618   0.690   3.681   3.952
 3573SOL    HW211619   0.762   3.772   4.066
 3574SOL     OW11620   0.580   4.979   0.382
 3574SOL    HW111621   0.598   4.986   0.284
 3574SOL    HW211622   0.570   5.071   0.420
 3575SOL     OW11623   5.749   5.124   3.369
 3575SOL    HW111624   5.689   5.051   3.402
 3575SOL    HW211625   5.803   5.089   3.292
 3576SOL     OW11626   1.460   1.299   5.786
 3576SOL    HW111627   1.479   1.295   5.688
 3576SOL    HW211628   1.381   1.242   5.807
 3577SOL     OW11629   1.145   2.643   5.917
 3577SOL    HW111630   1.169   2.666   6.011
 3577SOL    HW211631   1.216   2.585   5.877
 3578SOL     OW11632   3.665   3.846   6.760
 3578SOL    HW111633   3.667   3.840   6.859
 3578SOL    HW211634   3.571   3.843   6.728
 3579SOL     OW11635   0.140   4.179   4.650
 3579SOL    HW111636   0.136   4.085   4.684
 3579SOL    HW211637   0.228   4.194   4.604
 3580SOL     OW11638   6.057   1.651   1.038
 3580SOL    HW111639   6.039   1.727   1.101
 3580SOL    HW211640   6.037   1.680   0.945
 3581SOL     OW11641   6.635   0.328   3.678
 3581SOL    HW111642   6.698   0.382   3.622
 3581SOL    HW211643   6.542   0.340   3.643
 3582SOL     OW11644   0.687   2.101   6.280
 3582SOL    HW111645   0.718   2.126   6.372
 3582SOL    HW211646   0.679   2.184   6.224
 3583SOL     OW11647   0.571   4.394   6.930
 3583SOL    HW111648   0.514   4.333   6.873
 3583SOL    HW211649   0.554   4.375   0.002
 3584SOL     OW11650   6.236   6.262   6.446
 3584SOL    HW111651   6.257   6.357   6.421
 3584SOL    HW211652   6.292   6.200   6.392
 3585SOL     OW11653   3.335   5.338   5.624
 3585SOL    HW111654   3.395   5.357   5.702
 3585SOL    HW211655   3.298   5.424   5.589
 3586SOL     OW11656   6.411   2.677   5.479
 3586SOL    HW111657   6.398   2.608   5.550
 3586SOL    HW211658   6.461   2.755   5.516
 3587SOL     OW11659   2.665   5.905   0.677
 3587SOL    HW111660   2.677   5.997   0.639
 3587SOL    HW211661   2.724   5.894   0.757
 3588SOL     OW11662   0.975   2.818   5.785
 3588SOL    HW111663   1.033   2.745   5.821
 3588SOL    HW211664   0.998   2.904   5.831
 3589SOL     OW11665   3.268   0.956   4.449
 3589SOL    HW111666   3.208   0.967   4.369
 3589SOL    HW211667   3.219   0.986   4.531
 3590SOL     OW11668   0.103   4.332   6.644
 3590SOL    HW111669   0.179   4.268   6.654
 3590SOL    HW211670   0.084   4.347   6.547
 3591SOL     OW11671   5.124   3.493   6.561
 3591SOL    HW111672   5.134   3.562   6.632
 3591SOL    HW211673   5.198   3.426   6.568
 3592SOL     OW11674   5.462   3.623   3.278
 3592SOL    HW111675   5.408   3.686   3.223
 3592SOL    HW211676   5.403   3.580   3.347
 3593SOL     OW11677   2.239   6.059   4.637
 3593SOL    HW111678   2.203   6.153   4.641
 3593SOL    HW211679   2.204   6.007   4.715
 3594SOL     OW11680   3.832   1.136   2.617
 3594SOL    HW111681   3.859   1.082   2.537
 3594SOL    HW211682   3.867   1.093   2.700
 3595SOL     OW11683   2.033   6.104   6.071
 3595SOL    HW111684   2.121   6.072   6.034
 3595SOL    HW211685   2.024   6.074   6.166
 3596SOL     OW11686   6.630   1.478   2.715
 3596SOL    HW111687   6.618   1.576   2.729
 3596SOL    HW211688   6.555   1.429   2.760
 3597SOL     OW11689   2.798   6.154   5.013
 3597SOL    HW111690   2.854   6.154   4.929
 3597SOL    HW211691   2.781   6.248   5.041
 3598SOL     OW11692   1.020   0.288   5.810
 3598SOL    HW111693   1.064   0.228   5.744
 3598SOL    HW211694   1.087   0.320   5.877
 3599SOL     OW11695   0.967   2.082   5.680
 3599SOL    HW111696   1.023   2.126   5.751
 3599SOL    HW211697   1.023   2.015   5.631
 3600SOL     OW11698   0.219   3.410   0.507
 3600SOL    HW111699   0.146   3.472   0.478
 3600SOL    HW211700   0.265   3.448   0.587
 3601SOL     OW11701   6.732   4.052   0.650
 3601SOL    HW111702   6.816   4.046   0.704
 3601SOL    HW211703   6.665   3.986   0.684
 3602SOL     OW11704   2.089   1.170   1.198
 3602SOL    HW111705   2.139   1.165   1.284
 3602SOL    HW211706   2.145   1.216   1.129
 3603SOL     OW11707   3.758   6.353   3.766
 3603SOL    HW111708   3.733   6.276   3.708
 3603SOL    HW211709   3.676   6.390   3.810
 3604SOL     OW11710   6.597   3.719   3.905
 3604SOL    HW111711   6.560   3.626   3.894
 3604SOL    HW211712   6.605   3.739   4.002
 3605SOL     OW11713   5.914   4.403   5.921
 3605SOL    HW111714   5.832   4.398   5.865
 3605SOL    HW211715   5.903   4.346   6.002
 3606SOL     OW11716   6.512   4.797   5.719
 3606SOL    HW111717   6.430   4.819   5.666
 3606SOL    HW211718   6.588   4.855   5.690
 3607SOL     OW11719   5.141   6.540   1.001
 3607SOL    HW111720   5.241   6.541   0.995
 3607SOL    HW211721   5.103   6.585   0.921
 3608SOL     OW11722   6.691   1.850   2.431
 3608SOL    HW111723   6.596   1.858   2.403
 3608SOL    HW211724   6.723   1.756   2.415
 3609SOL     OW11725   0.256   0.585   4.428
 3609SOL    HW111726   0.232   0.644   4.505
 3609SOL    HW211727   0.278   0.494   4.461
 3610SOL     OW11728   1.082   0.635   5.251
 3610SOL    HW111729   1.153   0.622   5.320
 3610SOL    HW211730   1.115   0.696   5.180
 3611SOL     OW11731   3.751   4.711   5.421
 3611SOL    HW111732   3.711   4.637   5.367
 3611SOL    HW211733   3.682   4.781   5.437
 3612SOL     OW11734   6.629   0.070   5.604
 3612SOL    HW111735   6.663   0.045   5.695
 3612SOL    HW211736   6.704   0.070   5.539
 3613SOL     OW11737   5.234   5.262   1.404
 3613SOL    HW111738   5.290   5.324   1.350
 3613SOL    HW211739   5.237   5.170   1.363
 3614SOL     OW11740   3.815   3.114   3.661
 3614SOL    HW111741   3.901   3.067   3.683
 3614SOL    HW211742   3.776   3.152   3.745
 3615SOL     OW11743   5.796   6.727   6.377
 3615SOL    HW111744   5.875   6.674   6.347
 3615SOL    HW211745   5.712   6.678   6.353
 3616SOL     OW11746   6.868   1.374   6.251
 3616SOL    HW111747   6.894   1.439   6.180
 3616SOL    HW211748   6.898   1.408   6.340
 3617SOL     OW11749   5.415   1.408   6.465
 3617SOL    HW111750   5.413   1.315   6.428
 3617SOL    HW211751   5.355   1.413   6.546
 3618SOL     OW11752   1.540   1.750   5.697
 3618SOL    HW111753   1.610   1.821   5.702
 3618SOL    HW211754   1.550   1.699   5.612
 3619SOL     OW11755   6.415   2.137   3.607
 3619SOL    HW111756   6.472   2.173   3.680
 3619SOL    HW211757   6.319   2.138   3.636
 3620SOL     OW11758   6.127   6.257   5.735
 3620SOL    HW111759   6.147   6.353   5.756
 3620SOL    HW211760   6.067   6.219   5.805
 3621SOL     OW11761   2.432   2.070   5.735
 3621SOL    HW111762   2.480   2.020   5.663
 3621SOL    HW211763   2.379   2.144   5.695
 3622SOL     OW11764   2.324   2.238   3.128
 3622SOL    HW111765   2.308   2.269   3.034
 3622SOL    HW211766   2.372   2.310   3.179
 3623SOL     OW11767   5.929   5.732   3.905
 3623SOL    HW111768   5.931   5.721   4.004
 3623SOL    HW211769   6.022   5.743   3.870
 3624SOL     OW11770   2.328   6.835   2.511
 3624SOL    HW111771   2.372   6.793   2.591
 3624SOL    HW211772   2.376   6.919   2.487
 3625SOL     OW11773   6.356   3.236   6.983
 3625SOL    HW111774   6.451   3.241   7.015
 3625SOL    HW211775   6.355   3.236   6.883
 3626SOL     OW11776   1.674   3.936   5.402
 3626SOL    HW111777   1.651   3.919   5.498
 3626SOL    HW211778   1.659   3.852   5.349
 3627SOL     OW11779   3.790   3.099   3.315
 3627SOL    HW111780   3.850   3.041   3.259
 3627SOL    HW211781   3.780   3.189   3.272
 3628SOL     OW11782   1.983   0.044   1.531
 3628SOL    HW111783   2.014   0.125   1.581
 3628SOL    HW211784   2.017   6.986   1.577
 3629SOL     OW11785   6.090   2.333   4.609
 3629SOL    HW111786   6.134   2.310   4.523
 3629SOL    HW211787   6.080   2.251   4.665
 3630SOL     OW11788   5.589   2.980   3.541
 3630SOL    HW111789   5.516   3.007   3.479
 3630SOL    HW211790   5.677   2.987   3.493
 3631SOL     OW11791   1.770   0.082   3.719
 3631SOL    HW111792   1.786   0.156   3.654
 3631SOL    HW211793   1.693   0.106   3.778
 3632SOL     OW11794   4.989   0.222   0.288
 3632SOL    HW111795   5.082   0.189   0.273
 3632SOL    HW211796   4.991   0.297   0.355
 3633SOL     OW11797   2.797   1.925   6.009
 3633SOL    HW111798   2.881   1.941   5.958
 3633SOL    HW211799   2.738   2.005   6.003
 3634SOL     OW11800   0.802   5.272   5.262
 3634SOL    HW111801   0.779   5.214   5.184
 3634SOL    HW211802   0.728   5.269   5.329
 3635SOL     OW11803   2.547   6.845   5.879
 3635SOL    HW111804   2.462   6.799   5.903
 3635SOL    HW211805   2.573   6.820   5.785
 3636SOL     OW11806   0.943   6.091   6.301
 3636SOL    HW111807   0.991   6.037   6.370
 3636SOL    HW211808   0.888   6.161   6.346
 3637SOL     OW11809   6.903   1.911   1.747
 3637SOL    HW111810   6.805   1.890   1.737
 3637SOL    HW211811   6.926   1.988   1.689
 3638SOL     OW11812   0.005   4.804   4.414
 3638SOL    HW111813   0.048   4.884   4.455
 3638SOL    HW211814   6.931   4.817   4.409
 3639SOL     OW11815   4.273   4.216   0.577
 3639SOL    HW111816   4.302   4.282   0.647
 3639SOL    HW211817   4.246   4.266   0.495
 3640SOL     OW11818   3.898   0.013   6.715
 3640SOL    HW111819   3.975   0.003   6.778
 3640SOL    HW211820   3.822   6.979   6.745
 3641SOL     OW11821   4.639   2.664   4.244
 3641SOL    HW111822   4.550   2.635   4.209
 3641SOL    HW211823   4.711   2.605   4.206
 3642SOL     OW11824   4.554   0.986   0.008
 3642SOL    HW111825   4.654   0.990   0.009
 3642SOL    HW211826   4.517   1.079   0.013
 3643SOL     OW11827   2.499   5.196   5.149
 3643SOL    HW111828   2.494   5.295   5.162
 3643SOL    HW211829   2.408   5.156   5.155
 3644SOL     OW11830   6.926   1.055   1.439
 3644SOL    HW111831   6.931   1.129   1.506
 3644SOL    HW211832   6.878   0.977   1.479
 3645SOL     OW11833   5.953   1.505   3.678
 3645SOL    HW111834   6.012   1.446   3.622
 3645SOL    HW211835   5.918   1.453   3.756
 3646SOL     OW11836   6.610   4.869   6.417
 3646SOL    HW111837   6.669   4.804   6.369
 3646SOL    HW211838   6.659   4.908   6.495
 3647SOL     OW11839   2.292   3.403   0.355
 3647SOL    HW111840   2.246   3.339   0.293
 3647SOL    HW211841   2.231   3.425   0.430
 3648SOL     OW11842   3.169   5.375   2.956
 3648SOL    HW111843   3.239   5.366   3.027
 3648SOL    HW211844   3.094   5.432   2.989
 3649SOL     OW11845   4.780   3.034   1.660
 3649SOL    HW111846   4.735   3.025   1.749
 3649SOL    HW211847   4.877   3.014   1.669
 3650SOL     OW11848   0.421   5.444   0.017
 3650SOL    HW111849   0.355   5.445   0.092
 3650SOL    HW211850   0.426   5.351   7.003
 3651SOL     OW11851   0.645   5.850   2.976
 3651SOL    HW111852   0.568   5.911   2.957
 3651SOL    HW211853   0.610   5.761   3.005
 3652SOL     OW11854   5.963   6.202   3.203
 3652SOL    HW111855   5.920   6.135   3.264
 3652SOL    HW211856   5.893   6.262   3.164
 3653SOL     OW11857   6.809   0.382   3.317
 3653SOL    HW111858   6.879   0.312   3.327
 3653SOL    HW211859   6.760   0.369   3.231
 3654SOL     OW11860   2.182   6.740   0.393
 3654SOL    HW111861   2.258   6.804   0.381
 3654SOL    HW211862   2.187   6.698   0.483
 3655SOL     OW11863   1.280   0.072   3.862
 3655SOL    HW111864   1.321   7.007   3.881
 3655SOL    HW211865   1.184   0.071   3.887
 3656SOL     OW11866   1.373   3.445   2.142
 3656SOL    HW111867   1.408   3.389   2.216
 3656SOL    HW211868   1.419   3.534   2.142
 3657SOL     OW11869   5.224   5.618   5.949
 3657SOL    HW111870   5.144   5.564   5.922
 3657SOL    HW211871   5.273   5.648   5.868
 3658SOL     OW11872   1.276   5.965   3.662
 3658SOL    HW111873   1.219   6.036   3.621
 3658SOL    HW211874   1.342   6.006   3.725
 3659SOL     OW11875   2.784   3.261   5.640
 3659SOL    HW111876   2.759   3.196   5.568
 3659SOL    HW211877   2.815   3.346   5.599
 3660SOL     OW11878   4.723   0.022   2.657
 3660SOL    HW111879   4.709   0.094   2.725
 3660SOL    HW211880   4.645   6.985   2.657
 3661SOL     OW11881   4.824   1.786   6.071
 3661SOL    HW111882   4.797   1.846   6.146
 3661SOL    HW211883   4.829   1.839   5.986
 3662SOL     OW11884   4.669   0.755   3.356
 3662SOL    HW111885   4.750   0.704   3.384
 3662SOL    HW211886   4.652   0.830   3.420
 3663SOL     OW11887   2.041   1.836   0.757
 3663SOL    HW111888   2.059   1.884   0.843
 3663SOL    HW211889   1.973   1.888   0.705
 3664SOL     OW11890   4.419   2.200   1.069
 3664SOL    HW111891   4.320   2.209   1.060
 3664SOL    HW211892   4.450   2.254   1.147
 3665SOL     OW11893   0.666   5.900   5.701
 3665SOL    HW111894   0.610   5.964   5.647
 3665SOL    HW211895   0.663   5.809   5.658
 3666SOL     OW11896   1.926   3.908   2.876
 3666SOL    HW111897   1.877   3.934   2.792
 3666SOL    HW211898   2.012   3.959   2.880
 3667SOL     OW11899   6.499   0.609   0.595
 3667SOL    HW111900   6.596   0.631   0.583
 3667SOL    HW211901   6.453   0.685   0.641
 3668SOL     OW11902   1.442   0.644   2.339
 3668SOL    HW111903   1.523   0.602   2.382
 3668SOL    HW211904   1.461   0.740   2.318
 3669SOL     OW11905   5.822   0.853   4.203
 3669SOL    HW111906   5.830   0.915   4.125
 3669SOL    HW211907   5.793   0.904   4.284
 3670SOL     OW11908   2.658   4.173   0.726
 3670SOL    HW111909   2.602   4.166   0.809
 3670SOL    HW211910   2.636   4.258   0.678
 3671SOL     OW11911   6.241   0.125   4.208
 3671SOL    HW111912   6.248   0.206   4.267
 3671SOL    HW211913   6.298   0.052   4.246
 3672SOL     OW11914   5.456   1.744   1.286
 3672SOL    HW111915   5.494   1.676   1.223
 3672SOL    HW211916   5.517   1.824   1.288
 3673SOL     OW11917   3.770   0.001   5.765
 3673SOL    HW111918   3.736   0.095   5.773
 3673SOL    HW211919   3.862   7.021   5.804
 3674SOL     OW11920   0.196   0.127   4.843
 3674SOL    HW111921   0.243   0.181   4.913
 3674SOL    HW211922   0.115   0.084   4.884
 3675SOL     OW11923   1.965   3.032   4.878
 3675SOL    HW111924   2.024   2.952   4.875
 3675SOL    HW211925   1.988   3.088   4.958
 3676SOL     OW11926   4.472   4.901   4.680
 3676SOL    HW111927   4.450   4.925   4.774
 3676SOL    HW211928   4.495   4.804   4.674
 3677SOL     OW11929   1.549   6.757   3.569
 3677SOL    HW111930   1.538   6.854   3.548
 3677SOL    HW211931   1.647   6.736   3.577
 3678SOL     OW11932   0.859   3.636   3.541
 3678SOL    HW111933   0.834   3.713   3.481
 3678SOL    HW211934   0.810   3.645   3.627
 3679SOL     OW11935   1.720   0.596   3.494
 3679SOL    HW111936   1.788   0.603   3.420
 3679SOL    HW211937   1.767   0.577   3.580
 3680SOL     OW11938   5.642   2.177   3.767
 3680SOL    HW111939   5.626   2.138   3.676
 3680SOL    HW211940   5.740   2.173   3.789
 3681SOL     OW11941   0.658   0.758   4.870
 3681SOL    HW111942   0.568   0.798   4.885
 3681SOL    HW211943   0.689   0.780   4.777
 3682SOL     OW11944   5.706   2.464   6.832
 3682SOL    HW111945   5.618   2.451   6.786
 3682SOL    HW211946   5.694   2.450   6.931
 3683SOL     OW11947   6.790   6.515   3.785
 3683SOL    HW111948   6.768   6.439   3.724
 3683SOL    HW211949   6.864   6.570   3.744
 3684SOL     OW11950   1.681   3.425   6.992
 3684SOL    HW111951   1.648   3.443   0.061
 3684SOL    HW211952   1.622   3.472   6.926
 3685SOL     OW11953   6.526   6.577   6.526
 3685SOL    HW111954   6.466   6.547   6.600
 3685SOL    HW211955   6.534   6.677   6.528
 3686SOL     OW11956   6.393   5.964   3.530
 3686SOL    HW111957   6.366   5.958   3.626
 3686SOL    HW211958   6.350   5.889   3.479
 3687SOL     OW11959   3.756   6.343   5.787
 3687SOL    HW111960   3.765   6.377   5.880
 3687SOL    HW211961   3.748   6.420   5.724
 3688SOL     OW11962   0.746   3.381   6.395
 3688SOL    HW111963   0.813   3.401   6.467
 3688SOL    HW211964   0.759   3.288   6.362
 3689SOL     OW11965   1.418   0.325   6.534
 3689SOL    HW111966   1.483   0.391   6.494
 3689SOL    HW211967   1.457   0.288   6.618
 3690SOL     OW11968   4.307   0.468   6.357
 3690SOL    HW111969   4.392   0.420   6.338
 3690SOL    HW211970   4.231   0.403   6.355
 3691SOL     OW11971   2.690   2.322   0.088
 3691SOL    HW111972   2.767   2.261   0.069
 3691SOL    HW211973   2.646   2.294   0.173
 3692SOL     OW11974   0.717   5.537   4.904
 3692SOL    HW111975   0.772   5.516   4.823
 3692SOL    HW211976   0.680   5.451   4.941
 3693SOL     OW11977   2.037   2.564   2.659
 3693SOL    HW111978   2.083   2.559   2.748
 3693SOL    HW211979   2.098   2.607   2.592
 3694SOL     OW11980   1.958   5.451   3.236
 3694SOL    HW111981   2.012   5.431   3.154
 3694SOL    HW211982   1.877   5.392   3.237
 3695SOL     OW11983   6.588   2.818   2.694
 3695SOL    HW111984   6.553   2.874   2.620
 3695SOL    HW211985   6.621   2.730   2.658
 3696SOL     OW11986   3.301   6.009   5.193
 3696SOL    HW111987   3.246   6.086   5.160
 3696SOL    HW211988   3.311   6.015   5.292
 3697SOL     OW11989   0.209   5.617   3.077
 3697SOL    HW111990   0.193   5.714   3.091
 3697SOL    HW211991   0.156   5.585   2.998
 3698SOL     OW11992   2.944   6.702   5.240
 3698SOL    HW111993   2.945   6.767   5.164
 3698SOL    HW211994   2.952   6.609   5.204
 3699SOL     OW11995   6.878   3.485   3.069
 3699SOL    HW111996   6.953   3.515   3.010
 3699SOL    HW211997   6.915   3.429   3.143
 3700SOL     OW11998   0.128   0.278   4.611
 3700SOL    HW111999   0.133   0.231   4.699
 3700SOL    HW212000   0.050   0.341   4.612
 3701SOL     OW12001   0.533   0.690   3.745
 3701SOL    HW112002   0.456   0.635   3.713
 3701SOL    HW212003   0.502   0.751   3.818
 3702SOL     OW12004   5.459   6.523   2.287
 3702SOL    HW112005   5.423   6.608   2.324
 3702SOL    HW212006   5.532   6.489   2.347
 3703SOL     OW12007   4.379   2.664   6.624
 3703SOL    HW112008   4.449   2.734   6.639
 3703SOL    HW212009   4.413   2.575   6.654
 3704SOL     OW12010   3.044   0.616   1.502
 3704SOL    HW112011   3.035   0.623   1.403
 3704SOL    HW212012   2.970   0.560   1.538
 3705SOL     OW12013   5.310   5.586   3.636
 3705SOL    HW112014   5.278   5.596   3.541
 3705SOL    HW212015   5.357   5.499   3.646
 3706SOL     OW12016   0.886   3.208   5.062
 3706SOL    HW112017   0.965   3.234   5.006
 3706SOL    HW212018   0.805   3.204   5.003
 3707SOL     OW12019   6.377   3.368   5.112
 3707SOL    HW112020   6.466   3.387   5.070
 3707SOL    HW212021   6.338   3.454   5.148
 3708SOL     OW12022   6.530   0.855   6.170
 3708SOL    HW112023   6.547   0.951   6.148
 3708SOL    HW212024   6.590   0.826   6.244
 3709SOL     OW12025   3.816   0.764   0.203
 3709SOL    HW112026   3.880   0.689   0.221
 3709SOL    HW212027   3.724   0.736   0.230
 3710SOL     OW12028   6.830   6.391   0.761
 3710SOL    HW112029   6.862   6.324   0.694
 3710SOL    HW212030   6.895   6.396   0.837
 3711SOL     OW12031   0.198   6.417   2.248
 3711SOL    HW112032   0.194   6.463   2.159
 3711SOL    HW212033   0.271   6.459   2.303
 3712SOL     OW12034   6.414   6.197   6.837
 3712SOL    HW112035   6.414   6.190   6.937
 3712SOL    HW212036   6.400   6.292   6.810
 3713SOL     OW12037   1.478   6.216   4.369
 3713SOL    HW112038   1.564   6.206   4.318
 3713SOL    HW212039   1.424   6.290   4.328
 3714SOL     OW12040   4.709   5.330   5.184
 3714SOL    HW112041   4.766   5.306   5.263
 3714SOL    HW212042   4.623   5.370   5.216
 3715SOL     OW12043   6.008   3.821   3.819
 3715SOL    HW112044   5.960   3.736   3.799
 3715SOL    HW212045   6.092   3.801   3.869
 3716SOL     OW12046   5.609   6.657   5.316
 3716SOL    HW112047   5.636   6.663   5.220
 3716SOL    HW212048   5.513   6.628   5.322
 3717SOL     OW12049   5.768   5.647   6.122
 3717SOL    HW112050   5.702   5.575   6.143
 3717SOL    HW212051   5.718   5.733   6.105
 3718SOL     OW12052   2.064   0.284   6.174
 3718SOL    HW112053   2.033   0.275   6.080
 3718SOL    HW212054   2.134   0.216   6.194
 3719SOL     OW12055   5.691   4.824   1.195
 3719SOL    HW112056   5.779   4.781   1.216
 3719SOL    HW212057   5.686   4.843   1.096
 3720SOL     OW12058   6.225   2.133   5.608
 3720SOL    HW112059   6.135   2.177   5.597
 3720SOL    HW212060   6.227   2.048   5.556
 3721SOL     OW12061   5.246   4.975   1.329
 3721SOL    HW112062   5.213   5.002   1.238
 3721SOL    HW212063   5.185   4.905   1.366
 3722SOL     OW12064   6.515   6.923   2.376
 3722SOL    HW112065   6.550   6.830   2.362
 3722SOL    HW212066   6.578   6.974   2.435
 3723SOL     OW12067   6.090   6.469   1.740
 3723SOL    HW112068   6.066   6.566   1.737
 3723SOL    HW212069   6.038   6.424   1.813
 3724SOL     OW12070   1.832   5.178   6.203
 3724SOL    HW112071   1.778   5.151   6.282
 3724SOL    HW212072   1.812   5.273   6.180
 3725SOL     OW12073   5.541   5.800   0.720
 3725SOL    HW112074   5.514   5.723   0.779
 3725SOL    HW212075   5.609   5.855   0.767
 3726SOL     OW12076   6.627   5.376   0.639
 3726SOL    HW112077   6.575   5.391   0.554
 3726SOL    HW212078   6.607   5.284   0.673
 3727SOL     OW12079   0.056   2.958   6.231
 3727SOL    HW112080   0.140   2.908   6.249
 3727SOL    HW212081   0.022   2.998   6.317
 3728SOL     OW12082   1.272   3.810   0.153
 3728SOL    HW112083   1.287   3.868   0.072
 3728SOL    HW212084   1.180   3.827   0.188
 3729SOL     OW12085   1.619   2.101   3.494
 3729SOL    HW112086   1.717   2.112   3.478
 3729SOL    HW212087   1.596   2.140   3.583
 3730SOL     OW12088   2.661   5.359   6.415
 3730SOL    HW112089   2.610   5.279   6.382
 3730SOL    HW212090   2.757   5.350   6.390
 3731SOL     OW12091   4.216   0.018   0.751
 3731SOL    HW112092   4.170   0.065   0.675
 3731SOL    HW212093   4.315   0.016   0.733
 3732SOL     OW12094   1.316   2.314   6.539
 3732SOL    HW112095   1.312   2.394   6.600
 3732SOL    HW212096   1.373   2.244   6.581
 3733SOL     OW12097   1.365   3.669   1.863
 3733SOL    HW112098   1.267   3.671   1.881
 3733SOL    HW212099   1.388   3.583   1.817
 3734SOL     OW12100   4.226   1.340   1.731
 3734SOL    HW112101   4.177   1.364   1.815
 3734SOL    HW212102   4.289   1.413   1.707
 3735SOL     OW12103   2.009   1.025   3.483
 3735SOL    HW112104   2.102   1.036   3.450
 3735SOL    HW212105   1.984   1.102   3.542
 3736SOL     OW12106   6.793   2.980   1.189
 3736SOL    HW112107   6.702   3.017   1.209
 3736SOL    HW212108   6.820   3.008   1.096
 3737SOL     OW12109   5.482   0.344   2.939
 3737SOL    HW112110   5.487   0.382   2.847
 3737SOL    HW212111   5.575   0.324   2.972
 3738SOL     OW12112   0.335   5.687   2.376
 3738SOL    HW112113   0.358   5.781   2.401
 3738SOL    HW212114   0.237   5.671   2.390
 3739SOL     OW12115   2.109   5.066   1.543
 3739SOL    HW112116   2.064   5.119   1.615
 3739SOL    HW212117   2.045   5.052   1.468
 3740SOL     OW12118   4.601   0.366   0.504
 3740SOL    HW112119   4.636   0.405   0.589
 3740SOL    HW212120   4.671   0.306   0.463
 3741SOL     OW12121   4.637   3.206   1.527
 3741SOL    HW112122   4.697   3.130   1.553
 3741SOL    HW212123   4.542   3.173   1.520
 3742SOL     OW12124   2.288   2.250   6.175
 3742SOL    HW112125   2.328   2.169   6.217
 3742SOL    HW212126   2.211   2.224   6.118
 3743SOL     OW12127   5.354   4.274   0.971
 3743SOL    HW112128   5.413   4.213   1.025
 3743SOL    HW212129   5.258   4.257   0.996
 3744SOL     OW12130   0.585   5.947   2.658
 3744SOL    HW112131   0.547   6.038   2.678
 3744SOL    HW212132   0.663   5.956   2.596
 3745SOL     OW12133   3.589   4.985   2.527
 3745SOL    HW112134   3.672   4.978   2.581
 3745SOL    HW212135   3.606   4.951   2.434
 3746SOL     OW12136   5.269   2.015   2.701
 3746SOL    HW112137   5.225   1.996   2.613
 3746SOL    HW212138   5.245   1.943   2.767
 3747SOL     OW12139   3.309   6.878   5.746
 3747SOL    HW112140   3.400   6.888   5.705
 3747SOL    HW212141   3.302   6.938   5.825
 3748SOL     OW12142   5.172   0.885   1.456
 3748SOL    HW112143   5.159   0.786   1.463
 3748SOL    HW212144   5.224   0.917   1.535
 3749SOL     OW12145   1.694   6.285   4.179
 3749SOL    HW112146   1.789   6.305   4.203
 3749SOL    HW212147   1.691   6.235   4.093
 3750SOL     OW12148   1.783   4.219   0.669
 3750SOL    HW112149   1.811   4.124   0.680
 3750SOL    HW212150   1.715   4.225   0.596
 3751SOL     OW12151   6.368   3.597   2.309
 3751SOL    HW112152   6.462   3.562   2.312
 3751SOL    HW212153   6.370   3.695   2.291
 3752SOL     OW12154   4.810   0.531   5.809
 3752SOL    HW112155   4.857   0.597   5.867
 3752SOL    HW212156   4.868   0.450   5.796
 3753SOL     OW12157   6.042   0.627   5.145
 3753SOL    HW112158   6.005   0.680   5.069
 3753SOL    HW212159   5.967   0.587   5.198
 3754SOL     OW12160   2.858   0.497   2.097
 3754SOL    HW112161   2.820   0.530   2.184
 3754SOL    HW212162   2.953   0.469   2.110
 3755SOL     OW12163   3.722   5.310   4.860
 3755SOL    HW112164   3.722   5.214   4.886
 3755SOL    HW212165   3.631   5.335   4.828
 3756SOL     OW12166   2.625   5.710   6.657
 3756SOL    HW112167   2.599   5.794   6.704
 3756SOL    HW212168   2.557   5.639   6.676
 3757SOL     OW12169   6.451   5.230   1.550
 3757SOL    HW112170   6.460   5.178   1.465
 3757SOL    HW212171   6.354   5.251   1.566
 3758SOL     OW12172   1.912   1.435   4.372
 3758SOL    HW112173   1.863   1.501   4.316
 3758SOL    HW212174   1.894   1.342   4.340
 3759SOL     OW12175   4.540   0.497   5.196
 3759SOL    HW112176   4.566   0.554   5.274
 3759SOL    HW212177   4.618   0.488   5.134
 3760SOL     OW12178   0.821   1.492   3.310
 3760SOL    HW112179   0.819   1.458   3.216
 3760SOL    HW212180   0.915   1.502   3.340
 3761SOL     OW12181   6.689   0.587   4.749
 3761SOL    HW112182   6.696   0.678   4.789
 3761SOL    HW212183   6.722   0.519   4.815
 3762SOL     OW12184   1.560   4.270   1.474
 3762SOL    HW112185   1.471   4.273   1.427
 3762SOL    HW212186   1.585   4.175   1.492
 3763SOL     OW12187   6.432   4.038   0.906
 3763SOL    HW112188   6.518   4.076   0.939
 3763SOL    HW212189   6.451   3.967   0.838
 3764SOL     OW12190   1.996   6.727   2.577
 3764SOL    HW112191   2.011   6.643   2.631
 3764SOL    HW212192   1.901   6.757   2.590
 3765SOL     OW12193   6.179   1.459   0.921
 3765SOL    HW112194   6.274   1.481   0.940
 3765SOL    HW212195   6.120   1.530   0.958
 3766SOL     OW12196   2.281   2.007   4.312
 3766SOL    HW112197   2.308   2.075   4.381
 3766SOL    HW212198   2.337   2.021   4.229
 3767SOL     OW12199   3.224   4.363   6.333
 3767SOL    HW112200   3.139   4.325   6.369
 3767SOL    HW212201   3.204   4.418   6.251
 3768SOL     OW12202   0.974   0.446   4.782
 3768SOL    HW112203   0.994   0.495   4.697
 3768SOL    HW212204   0.916   0.502   4.841
 3769SOL     OW12205   6.207   5.357   5.128
 3769SOL    HW112206   6.165   5.268   5.147
 3769SOL    HW212207   6.220   5.368   5.030
 3770SOL     OW12208   0.997   1.017   6.900
 3770SOL    HW112209   0.988   0.985   6.994
 3770SOL    HW212210   1.049   1.103   6.899
 3771SOL     OW12211   5.852   4.404   6.885
 3771SOL    HW112212   5.784   4.396   6.959
 3771SOL    HW212213   5.913   4.480   6.905
 3772SOL     OW12214   0.513   0.530   0.279
 3772SOL    HW112215   0.427   0.579   0.265
 3772SOL    HW212216   0.513   0.446   0.225
 3773SOL     OW12217   6.003   3.040   5.763
 3773SOL    HW112218   6.091   3.085   5.778
 3773SOL    HW212219   5.983   3.037   5.665
 3774SOL     OW12220   5.527   5.521   1.578
 3774SOL    HW112221   5.535   5.583   1.656
 3774SOL    HW212222   5.447   5.461   1.592
 3775SOL     OW12223   4.128   5.005   3.931
 3775SOL    HW112224   4.150   5.102   3.940
 3775SOL    HW212225   4.135   4.978   3.835
 3776SOL     OW12226   3.680   2.378   6.204
 3776SOL    HW112227   3.596   2.381   6.259
 3776SOL    HW212228   3.731   2.295   6.226
 3777SOL     OW12229   2.664   5.931   3.839
 3777SOL    HW112230   2.743   5.870   3.841
 3777SOL    HW212231   2.594   5.897   3.902
 3778SOL     OW12232   2.581   5.727   3.516
 3778SOL    HW112233   2.640   5.649   3.536
 3778SOL    HW212234   2.612   5.807   3.569
 3779SOL     OW12235   0.459   5.007   1.163
 3779SOL    HW112236   0.444   4.937   1.233
 3779SOL    HW212237   0.448   5.097   1.204
 3780SOL     OW12238   0.056   3.879   4.012
 3780SOL    HW112239   6.992   3.923   3.998
 3780SOL    HW212240   0.046   3.802   4.075
 3781SOL     OW12241   0.592   0.189   4.630
 3781SOL    HW112242   0.668   0.133   4.597
 3781SOL    HW212243   0.624   0.283   4.644
 3782SOL     OW12244   3.421   6.474   2.472
 3782SOL    HW112245   3.419   6.571   2.497
 3782SOL    HW212246   3.406   6.465   2.374
 3783SOL     OW12247   6.410   5.535   4.272
 3783SOL    HW112248   6.450   5.608   4.326
 3783SOL    HW212249   6.445   5.447   4.303
 3784SOL     OW12250   5.191   2.533   2.343
 3784SOL    HW112251   5.231   2.462   2.401
 3784SOL    HW212252   5.118   2.580   2.393
 3785SOL     OW12253   1.549   2.929   4.803
 3785SOL    HW112254   1.461   2.883   4.816
 3785SOL    HW212255   1.568   2.938   4.706
 3786SOL     OW12256   2.109   3.877   3.170
 3786SOL    HW112257   2.020   3.843   3.142
 3786SOL    HW212258   2.143   3.942   3.102
 3787SOL     OW12259   5.599   0.705   2.664
 3787SOL    HW112260   5.537   0.721   2.587
 3787SOL    HW212261   5.566   0.754   2.744
 3788SOL     OW12262   5.997   4.757   5.248
 3788SOL    HW112263   5.958   4.745   5.156
 3788SOL    HW212264   6.087   4.799   5.241
 3789SOL     OW12265   0.176   3.700   3.159
 3789SOL    HW112266   0.257   3.663   3.114
 3789SOL    HW212267   0.185   3.691   3.258
 3790SOL     OW12268   1.048   4.892   6.398
 3790SOL    HW112269   1.145   4.897   6.374
 3790SOL    HW212270   1.010   4.985   6.403
 3791SOL     OW12271   5.295   1.816   6.763
 3791SOL    HW112272   5.255   1.725   6.764
 3791SOL    HW212273   5.284   1.856   6.672
 3792SOL     OW12274   1.229   1.562   4.309
 3792SOL    HW112275   1.186   1.472   4.299
 3792SOL    HW212276   1.204   1.620   4.231
 3793SOL     OW12277   5.471   6.288   1.458
 3793SOL    HW112278   5.570   6.284   1.475
 3793SOL    HW212279   5.449   6.372   1.410
 3794SOL     OW12280   2.269   2.980   1.805
 3794SOL    HW112281   2.256   3.080   1.805
 3794SOL    HW212282   2.257   2.945   1.712
 3795SOL     OW12283   4.035   4.968   1.041
 3795SOL    HW112284   3.951   4.919   1.064
 3795SOL    HW212285   4.070   5.013   1.124
 3796SOL     OW12286   3.698   1.965   1.115
 3796SOL    HW112287   3.619   1.910   1.140
 3796SOL    HW212288   3.781   1.908   1.119
 3797SOL     OW12289   0.853   3.750   3.127
 3797SOL    HW112290   0.845   3.666   3.074
 3797SOL    HW212291   0.923   3.809   3.086
 3798SOL     OW12292   3.215   6.089   2.328
 3798SOL    HW112293   3.225   6.003   2.277
 3798SOL    HW212294   3.176   6.159   2.268
 3799SOL     OW12295   0.056   3.023   3.576
 3799SOL    HW112296   6.987   3.058   3.563
 3799SOL    HW212297   0.094   2.997   3.488
 3800SOL     OW12298   5.291   2.260   3.941
 3800SOL    HW112299   5.278   2.165   3.966
 3800SOL    HW212300   5.281   2.271   3.842
 3801SOL     OW12301   5.524   6.529   2.007
 3801SOL    HW112302   5.461   6.518   2.084
 3801SOL    HW212303   5.594   6.596   2.031
 3802SOL     OW12304   6.972   1.103   2.561
 3802SOL    HW112305   6.993   1.144   2.472
 3802SOL    HW212306   6.962   1.004   2.551
 3803SOL     OW12307   4.065   3.543   3.624
 3803SOL    HW112308   3.978   3.526   3.577
 3803SOL    HW212309   4.088   3.641   3.616
 3804SOL     OW12310   4.074   1.098   3.708
 3804SOL    HW112311   4.106   1.066   3.619
 3804SOL    HW212312   3.986   1.145   3.697
 3805SOL     OW12313   1.579   2.496   1.977
 3805SOL    HW112314   1.550   2.580   2.023
 3805SOL    HW212315   1.618   2.518   1.888
 3806SOL     OW12316   3.472   3.660   5.692
 3806SOL    HW112317   3.403   3.592   5.716
 3806SOL    HW212318   3.429   3.735   5.643
 3807SOL     OW12319   2.358   5.145   3.757
 3807SOL    HW112320   2.377   5.243   3.754
 3807SOL    HW212321   2.283   5.127   3.820
 3808SOL     OW12322   4.362   0.776   6.944
 3808SOL    HW112323   4.449   0.819   6.970
 3808SOL    HW212324   4.286   0.835   6.970
 3809SOL     OW12325   5.641   2.500   1.623
 3809SOL    HW112326   5.575   2.574   1.607
 3809SOL    HW212327   5.593   2.413   1.628
 3810SOL     OW12328   6.348   2.503   3.331
 3810SOL    HW112329   6.356   2.403   3.330
 3810SOL    HW212330   6.409   2.540   3.400
 3811SOL     OW12331   0.152   6.447   4.390
 3811SOL    HW112332   0.200   6.468   4.475
 3811SOL    HW212333   0.090   6.370   4.405
 3812SOL     OW12334   3.348   4.965   5.648
 3812SOL    HW112335   3.321   4.869   5.639
 3812SOL    HW212336   3.393   4.995   5.564
 3813SOL     OW12337   5.654   3.540   0.678
 3813SOL    HW112338   5.659   3.488   0.593
 3813SOL    HW212339   5.572   3.515   0.729
 3814SOL     OW12340   6.601   0.151   4.306
 3814SOL    HW112341   6.581   0.080   4.238
 3814SOL    HW212342   6.657   0.113   4.379
 3815SOL     OW12343   3.982   2.822   1.153
 3815SOL    HW112344   3.941   2.844   1.064
 3815SOL    HW212345   4.046   2.746   1.141
 3816SOL     OW12346   1.022   5.462   5.967
 3816SOL    HW112347   0.963   5.400   5.914
 3816SOL    HW212348   1.102   5.412   6.000
 3817SOL     OW12349   4.874   3.893   2.317
 3817SOL    HW112350   4.886   3.795   2.302
 3817SOL    HW212351   4.834   3.935   2.236
 3818SOL     OW12352   0.026   0.884   1.256
 3818SOL    HW112353   0.115   0.925   1.239
 3818SOL    HW212354   6.990   0.953   1.297
 3819SOL     OW12355   5.441   4.505   2.672
 3819SOL    HW112356   5.454   4.448   2.753
 3819SOL    HW212357   5.530   4.524   2.630
 3820SOL     OW12358   6.317   6.454   3.499
 3820SOL    HW112359   6.260   6.448   3.581
 3820SOL    HW212360   6.274   6.403   3.425
 3821SOL     OW12361   1.175   0.850   2.056
 3821SOL    HW112362   1.109   0.881   2.125
 3821SOL    HW212363   1.129   0.841   1.968
 3822SOL     OW12364   2.116   6.857   6.627
 3822SOL    HW112365   2.150   6.790   6.693
 3822SOL    HW212366   2.122   6.820   6.535
 3823SOL     OW12367   3.951   3.460   6.489
 3823SOL    HW112368   3.899   3.536   6.450
 3823SOL    HW212369   4.016   3.494   6.557
 3824SOL     OW12370   1.101   2.608   0.491
 3824SOL    HW112371   1.077   2.559   0.575
 3824SOL    HW212372   1.022   2.611   0.430
 3825SOL     OW12373   0.977   4.367   0.523
 3825SOL    HW112374   1.062   4.323   0.495
 3825SOL    HW212375   0.963   4.450   0.470
 3826SOL     OW12376   7.000   3.671   1.197
 3826SOL    HW112377   6.947   3.600   1.242
 3826SOL    HW212378   6.991   3.757   1.248
 3827SOL     OW12379   1.179   1.457   1.382
 3827SOL    HW112380   1.268   1.430   1.418
 3827SOL    HW212381   1.125   1.500   1.455
 3828SOL     OW12382   3.594   3.872   3.997
 3828SOL    HW112383   3.576   3.968   3.976
 3828SOL    HW212384   3.653   3.867   4.078
 3829SOL     OW12385   0.413   4.783   2.196
 3829SOL    HW112386   0.329   4.736   2.223
 3829SOL    HW212387   0.398   4.831   2.109
 3830SOL     OW12388   0.588   1.272   5.619
 3830SOL    HW112389   0.560   1.366   5.635
 3830SOL    HW212390   0.520   1.226   5.562
 3831SOL     OW12391   4.522   2.507   2.366
 3831SOL    HW112392   4.495   2.529   2.272
 3831SOL    HW212393   4.578   2.581   2.403
 3832SOL     OW12394   0.150   0.475   2.404
 3832SOL    HW112395   0.188   0.536   2.474
 3832SOL    HW212396   0.052   0.491   2.395
 3833SOL     OW12397   0.376   5.900   6.577
 3833SOL    HW112398   0.442   5.920   6.649
 3833SOL    HW212399   0.393   5.960   6.499
 3834SOL     OW12400   3.897   4.469   1.025
 3834SOL    HW112401   3.866   4.386   0.978
 3834SOL    HW212402   3.987   4.496   0.990
 3835SOL     OW12403   3.986   6.348   5.315
 3835SOL    HW112404   3.958   6.444   5.316
 3835SOL    HW212405   3.917   6.294   5.267
 3836SOL     OW12406   6.584   5.147   5.821
 3836SOL    HW112407   6.607   5.075   5.886
 3836SOL    HW212408   6.579   5.235   5.868
 3837SOL     OW12409   4.383   4.940   5.456
 3837SOL    HW112410   4.431   4.902   5.535
 3837SOL    HW212411   4.298   4.983   5.487
 3838SOL     OW12412   0.947   2.335   3.693
 3838SOL    HW112413   0.919   2.255   3.639
 3838SOL    HW212414   1.024   2.380   3.648
 3839SOL     OW12415   5.202   1.532   2.951
 3839SOL    HW112416   5.149   1.447   2.945
 3839SOL    HW212417   5.292   1.518   2.910
 3840SOL     OW12418   3.087   1.336   6.670
 3840SOL    HW112419   3.181   1.321   6.701
 3840SOL    HW212420   3.040   1.396   6.734
 3841SOL     OW12421   1.018   3.492   4.350
 3841SOL    HW112422   1.030   3.586   4.382
 3841SOL    HW212423   1.040   3.428   4.423
 3842SOL     OW12424   2.282   2.784   3.504
 3842SOL    HW112425   2.281   2.791   3.604
 3842SOL    HW212426   2.259   2.873   3.464
 3843SOL     OW12427   5.216   3.382   2.383
 3843SOL    HW112428   5.120   3.366   2.407
 3843SOL    HW212429   5.258   3.295   2.357
 3844SOL     OW12430   1.399   3.221   5.999
 3844SOL    HW112431   1.365   3.150   5.937
 3844SOL    HW212432   1.324   3.254   6.056
 3845SOL     OW12433   3.055   5.058   6.022
 3845SOL    HW112434   2.964   5.025   6.000
 3845SOL    HW212435   3.105   5.077   5.937
 3846SOL     OW12436   1.125   4.012   3.510
 3846SOL    HW112437   1.030   4.037   3.531
 3846SOL    HW212438   1.128   3.955   3.428
 3847SOL     OW12439   5.396   3.040   4.658
 3847SOL    HW112440   5.357   3.124   4.620
 3847SOL    HW212441   5.351   2.961   4.617
 3848SOL     OW12442   4.965   3.993   2.961
 3848SOL    HW112443   4.994   3.927   3.030
 3848SOL    HW212444   4.940   3.944   2.877
 3849SOL     OW12445   1.064   1.133   6.358
 3849SOL    HW112446   1.070   1.077   6.276
 3849SOL    HW212447   1.060   1.074   6.439
 3850SOL     OW12448   2.803   3.010   1.700
 3850SOL    HW112449   2.776   3.019   1.604
 3850SOL    HW212450   2.742   2.946   1.746
 3851SOL     OW12451   0.333   4.370   3.323
 3851SOL    HW112452   0.426   4.346   3.348
 3851SOL    HW212453   0.269   4.309   3.370
 3852SOL     OW12454   3.982   6.404   3.642
 3852SOL    HW112455   3.895   6.400   3.691
 3852SOL    HW212456   3.967   6.384   3.545
 3853SOL     OW12457   0.809   3.876   3.381
 3853SOL    HW112458   0.825   3.838   3.290
 3853SOL    HW212459   0.781   3.972   3.373
 3854SOL     OW12460   1.395   2.275   3.024
 3854SOL    HW112461   1.444   2.237   3.102
 3854SOL    HW212462   1.461   2.302   2.953
 3855SOL     OW12463   4.685   6.473   6.778
 3855SOL    HW112464   4.672   6.558   6.829
 3855SOL    HW212465   4.702   6.494   6.682
 3856SOL     OW12466   0.416   0.420   5.509
 3856SOL    HW112467   0.490   0.402   5.443
 3856SOL    HW212468   0.441   0.382   5.598
 3857SOL     OW12469   0.983   6.136   6.612
 3857SOL    HW112470   0.897   6.186   6.597
 3857SOL    HW212471   1.045   6.192   6.667
 3858SOL     OW12472   3.007   1.049   6.027
 3858SOL    HW112473   2.917   1.015   6.054
 3858SOL    HW212474   3.037   1.119   6.093
 3859SOL     OW12475   6.569   0.948   1.437
 3859SOL    HW112476   6.470   0.941   1.434
 3859SOL    HW212477   6.605   0.889   1.509
 3860SOL     OW12478   1.509   1.490   3.962
 3860SOL    HW112479   1.482   1.465   3.869
 3860SOL    HW212480   1.536   1.586   3.965
 3861SOL     OW12481   4.317   5.460   4.105
 3861SOL    HW112482   4.266   5.544   4.117
 3861SOL    HW212483   4.404   5.480   4.058
 3862SOL     OW12484   0.561   0.850   4.315
 3862SOL    HW112485   0.573   0.904   4.231
 3862SOL    HW212486   0.486   0.888   4.368
 3863SOL     OW12487   6.000   2.141   6.845
 3863SOL    HW112488   5.977   2.051   6.884
 3863SOL    HW212489   5.947   2.155   6.761
 3864SOL     OW12490   1.820   0.795   5.963
 3864SOL    HW112491   1.917   0.777   5.949
 3864SOL    HW212492   1.791   0.756   6.050
 3865SOL     OW12493   3.719   0.906   1.016
 3865SOL    HW112494   3.784   0.981   1.029
 3865SOL    HW212495   3.628   0.935   1.045
 3866SOL     OW12496   4.008   0.263   0.574
 3866SOL    HW112497   4.014   0.346   0.628
 3866SOL    HW212498   3.926   0.212   0.600
 3867SOL     OW12499   0.429   5.652   3.606
 3867SOL    HW112500   0.475   5.737   3.631
 3867SOL    HW212501   0.392   5.608   3.688
 3868SOL     OW12502   3.205   0.379   0.237
 3868SOL    HW112503   3.252   0.319   0.302
 3868SOL    HW212504   3.233   0.474   0.253
 3869SOL     OW12505   6.250   3.300   4.426
 3869SOL    HW112506   6.255   3.385   4.375
 3869SOL    HW212507   6.165   3.252   4.403
 3870SOL     OW12508   6.524   6.936   0.418
 3870SOL    HW112509   6.575   7.004   0.365
 3870SOL    HW212510   6.427   6.960   0.418
 3871SOL     OW12511   4.179   1.053   3.430
 3871SOL    HW112512   4.122   1.040   3.349
 3871SOL    HW212513   4.275   1.044   3.405
 3872SOL     OW12514   3.219   2.901   3.678
 3872SOL    HW112515   3.196   2.998   3.676
 3872SOL    HW212516   3.177   2.855   3.600
 3873SOL     OW12517   6.337   4.152   1.350
 3873SOL    HW112518   6.270   4.092   1.394
 3873SOL    HW212519   6.411   4.096   1.311
 3874SOL     OW12520   4.714   5.767   0.061
 3874SOL    HW112521   4.795   5.817   0.029
 3874SOL    HW212522   4.649   5.832   0.101
 3875SOL     OW12523   2.082   3.373   2.530
 3875SOL    HW112524   2.078   3.381   2.431
 3875SOL    HW212525   2.090   3.464   2.571
 3876SOL     OW12526   3.518   5.598   1.236
 3876SOL    HW112527   3.468   5.684   1.221
 3876SOL    HW212528   3.597   5.595   1.175
 3877SOL     OW12529   6.013   2.596   1.116
 3877SOL    HW112530   5.934   2.537   1.102
 3877SOL    HW212531   6.067   2.600   1.031
 3878SOL     OW12532   3.897   6.664   4.777
 3878SOL    HW112533   3.862   6.757   4.771
 3878SOL    HW212534   3.821   6.599   4.776
 3879SOL     OW12535   6.227   5.072   1.018
 3879SOL    HW112536   6.252   4.989   0.968
 3879SOL    HW212537   6.282   5.148   0.984
 3880SOL     OW12538   5.645   4.763   4.583
 3880SOL    HW112539   5.660   4.847   4.635
 3880SOL    HW212540   5.621   4.785   4.489
 3881SOL     OW12541   1.398   3.047   2.027
 3881SOL    HW112542   1.365   3.038   2.121
 3881SOL    HW212543   1.451   2.965   2.003
 3882SOL     OW12544   1.247   1.170   5.875
 3882SOL    HW112545   1.258   1.157   5.974
 3882SOL    HW212546   1.179   1.105   5.841
 3883SOL     OW12547   4.525   1.145   2.499
 3883SOL    HW112548   4.510   1.063   2.554
 3883SOL    HW212549   4.557   1.119   2.408
 3884SOL     OW12550   1.206   5.403   2.362
 3884SOL    HW112551   1.178   5.310   2.342
 3884SOL    HW212552   1.285   5.401   2.424
 3885SOL     OW12553   5.621   5.955   2.557
 3885SOL    HW112554   5.677   5.935   2.476
 3885SOL    HW212555   5.664   5.915   2.638
 3886SOL     OW12556   6.057   5.119   5.225
 3886SOL    HW112557   6.050   5.061   5.144
 3886SOL    HW212558   5.996   5.086   5.296
 3887SOL     OW12559   0.811   0.448   6.863
 3887SOL    HW112560   0.899   0.471   6.821
 3887SOL    HW212561   0.769   0.372   6.812
 3888SOL     OW12562   6.896   0.126   4.486
 3888SOL    HW112563   6.954   0.171   4.418
 3888SOL    HW212564   6.950   0.108   4.569
 3889SOL     OW12565   0.276   4.074   0.399
 3889SOL    HW112566   0.331   4.096   0.318
 3889SOL    HW212567   0.209   4.004   0.375
 3890SOL     OW12568   5.848   5.620   3.387
 3890SOL    HW112569   5.808   5.531   3.408
 3890SOL    HW212570   5.909   5.648   3.461
 3891SOL     OW12571   5.725   4.390   4.608
 3891SOL    HW112572   5.684   4.313   4.657
 3891SOL    HW212573   5.669   4.410   4.527
 3892SOL     OW12574   6.929   2.312   1.654
 3892SOL    HW112575   7.017   2.314   1.700
 3892SOL    HW212576   6.903   2.405   1.628
 3893SOL     OW12577   4.504   4.485   0.258
 3893SOL    HW112578   4.480   4.494   0.161
 3893SOL    HW212579   4.422   4.465   0.311
 3894SOL     OW12580   4.041   1.357   0.995
 3894SOL    HW112581   4.107   1.431   1.005
 3894SOL    HW212582   3.997   1.363   0.905
 3895SOL     OW12583   2.135   0.763   5.013
 3895SOL    HW112584   2.092   0.688   4.962
 3895SOL    HW212585   2.195   0.725   5.082
 3896SOL     OW12586   6.965   0.772   5.824
 3896SOL    HW112587   6.892   0.827   5.866
 3896SOL    HW212588   7.018   0.726   5.895
 3897SOL     OW12589   3.380   5.409   2.775
 3897SOL    HW112590   3.333   5.455   2.850
 3897SOL    HW212591   3.376   5.310   2.788
 3898SOL     OW12592   2.832   3.736   5.143
 3898SOL    HW112593   2.759   3.688   5.192
 3898SOL    HW212594   2.825   3.834   5.162
 3899SOL     OW12595   5.430   0.039   4.795
 3899SOL    HW112596   5.486   0.000   4.722
 3899SOL    HW212597   5.479   0.114   4.839
 3900SOL     OW12598   5.278   3.204   3.904
 3900SOL    HW112599   5.210   3.136   3.932
 3900SOL    HW212600   5.234   3.271   3.844
 3901SOL     OW12601   2.756   0.343   5.732
 3901SOL    HW112602   2.750   0.264   5.670
 3901SOL    HW212603   2.694   0.330   5.810
 3902SOL     OW12604   5.381   3.634   1.873
 3902SOL    HW112605   5.381   3.574   1.793
 3902SOL    HW212606   5.457   3.699   1.867
 3903SOL     OW12607   3.700   6.229   6.417
 3903SOL    HW112608   3.662   6.150   6.369
 3903SOL    HW212609   3.732   6.199   6.508
 3904SOL     OW12610   2.219   1.527   5.186
 3904SOL    HW112611   2.278   1.450   5.208
 3904SOL    HW212612   2.250   1.571   5.101
 3905SOL     OW12613   0.263   0.375   6.699
 3905SOL    HW112614   0.298   0.463   6.730
 3905SOL    HW212615   0.205   0.388   6.619
 3906SOL     OW12616   4.737   4.861   6.470
 3906SOL    HW112617   4.823   4.812   6.486
 3906SOL    HW212618   4.745   4.954   6.506
 3907SOL     OW12619   5.614   0.260   5.018
 3907SOL    HW112620   5.602   0.194   5.092
 3907SOL    HW212621   5.699   0.310   5.032
 3908SOL     OW12622   1.321   2.300   0.801
 3908SOL    HW112623   1.226   2.285   0.773
 3908SOL    HW212624   1.326   2.381   0.860
 3909SOL     OW12625   0.323   5.173   5.429
 3909SOL    HW112626   0.254   5.243   5.447
 3909SOL    HW212627   0.282   5.097   5.379
 3910SOL     OW12628   3.404   3.312   1.684
 3910SOL    HW112629   3.410   3.358   1.596
 3910SOL    HW212630   3.379   3.378   1.755
 3911SOL     OW12631   4.836   0.964   0.093
 3911SOL    HW112632   4.791   0.884   0.133
 3911SOL    HW212633   4.812   1.045   0.145
 3912SOL     OW12634   4.405   0.160   5.735
 3912SOL    HW112635   4.419   0.248   5.690
 3912SOL    HW212636   4.360   0.096   5.672
 3913SOL     OW12637   1.765   6.927   6.002
 3913SOL    HW112638   1.673   6.966   5.992
 3913SOL    HW212639   1.782   6.907   6.098
 3914SOL     OW12640   3.709   1.530   0.786
 3914SOL    HW112641   3.691   1.620   0.744
 3914SOL    HW212642   3.623   1.480   0.795
 3915SOL     OW12643   3.684   5.382   2.343
 3915SOL    HW112644   3.683   5.409   2.439
 3915SOL    HW212645   3.596   5.404   2.301
 3916SOL     OW12646   1.929   6.052   4.001
 3916SOL    HW112647   1.938   5.953   3.988
 3916SOL    HW212648   1.983   6.099   3.930
 3917SOL     OW12649   0.299   5.304   0.457
 3917SOL    HW112650   0.392   5.285   0.425
 3917SOL    HW212651   0.234   5.257   0.398
 3918SOL     OW12652   4.619   6.792   2.217
 3918SOL    HW112653   4.700   6.744   2.184
 3918SOL    HW212654   4.583   6.746   2.298
 3919SOL     OW12655   2.074   5.760   6.335
 3919SOL    HW112656   2.064   5.675   6.387
 3919SOL    HW212657   2.149   5.750   6.269
 3920SOL     OW12658   2.923   2.508   0.349
 3920SOL    HW112659   2.903   2.559   0.265
 3920SOL    HW212660   2.996   2.555   0.399
 3921SOL     OW12661   0.030   3.200   1.208
 3921SOL    HW112662   0.128   3.190   1.226
 3921SOL    HW212663   0.010   3.169   1.115
 3922SOL     OW12664   5.911   4.258   2.037
 3922SOL    HW112665   5.880   4.352   2.047
 3922SOL    HW212666   5.836   4.201   2.003
 3923SOL     OW12667   0.147   2.164   6.825
 3923SOL    HW112668   0.220   2.184   6.892
 3923SOL    HW212669   0.117   2.069   6.837
 3924SOL     OW12670   0.698   5.254   3.075
 3924SOL    HW112671   0.766   5.326   3.088
 3924SOL    HW212672   0.708   5.185   3.146
 3925SOL     OW12673   3.594   5.044   0.702
 3925SOL    HW112674   3.530   5.053   0.626
 3925SOL    HW212675   3.680   5.091   0.679
 3926SOL     OW12676   6.697   5.647   3.204
 3926SOL    HW112677   6.614   5.590   3.203
 3926SOL    HW212678   6.716   5.676   3.297
 3927SOL     OW12679   6.640   3.271   3.442
 3927SOL    HW112680   6.577   3.256   3.366
 3927SOL    HW212681   6.695   3.353   3.424
 3928SOL     OW12682   2.647   6.316   5.922
 3928SOL    HW112683   2.554   6.349   5.934
 3928SOL    HW212684   2.684   6.351   5.836
 3929SOL     OW12685   0.268   1.771   5.915
 3929SOL    HW112686   0.262   1.804   6.010
 3929SOL    HW212687   0.238   1.844   5.853
 3930SOL     OW12688   2.021   1.792   3.962
 3930SOL    HW112689   2.049   1.868   3.904
 3930SOL    HW212690   2.099   1.731   3.978
 3931SOL     OW12691   1.828   1.753   2.437
 3931SOL    HW112692   1.791   1.791   2.352
 3931SOL    HW212693   1.814   1.819   2.511
 3932SOL     OW12694   1.509   4.272   2.855
 3932SOL    HW112695   1.492   4.214   2.934
 3932SOL    HW212696   1.595   4.244   2.812
 3933SOL     OW12697   1.862   6.527   0.029
 3933SOL    HW112698   1.902   6.557   0.116
 3933SOL    HW212699   1.855   6.605   6.991
 3934SOL     OW12700   0.203   0.681   1.071
 3934SOL    HW112701   0.171   0.639   0.986
 3934SOL    HW212702   0.131   0.673   1.140
 3935SOL     OW12703   2.389   0.257   0.062
 3935SOL    HW112704   2.423   0.285   6.997
 3935SOL    HW212705   2.438   0.175   0.092
 3936SOL     OW12706   6.686   5.144   5.391
 3936SOL    HW112707   6.643   5.097   5.468
 3936SOL    HW212708   6.623   5.143   5.313
 3937SOL     OW12709   6.901   0.477   2.399
 3937SOL    HW112710   6.844   0.551   2.434
 3937SOL    HW212711   6.924   0.415   2.474
 3938SOL     OW12712   0.137   1.700   3.743
 3938SOL    HW112713   0.163   1.618   3.793
 3938SOL    HW212714   0.155   1.687   3.646
 3939SOL     OW12715   2.535   1.988   1.936
 3939SOL    HW112716   2.510   2.073   1.982
 3939SOL    HW212717   2.587   2.009   1.853
 3940SOL     OW12718   4.117   5.292   2.111
 3940SOL    HW112719   4.078   5.271   2.200
 3940SOL    HW212720   4.123   5.391   2.099
 3941SOL     OW12721   4.952   1.841   6.654
 3941SOL    HW112722   4.935   1.910   6.584
 3941SOL    HW212723   4.997   1.762   6.612
 3942SOL     OW12724   0.500   0.531   6.293
 3942SOL    HW112725   0.523   0.482   6.209
 3942SOL    HW212726   0.495   0.466   6.369
 3943SOL     OW12727   1.036   3.927   3.005
 3943SOL    HW112728   1.036   4.004   3.069
 3943SOL    HW212729   1.131   3.904   2.982
 3944SOL     OW12730   5.619   3.253   5.481
 3944SOL    HW112731   5.570   3.338   5.501
 3944SOL    HW212732   5.711   3.258   5.521
 3945SOL     OW12733   0.704   2.420   1.872
 3945SOL    HW112734   0.787   2.395   1.821
 3945SOL    HW212735   0.712   2.385   1.966
 3946SOL     OW12736   5.454   6.076   6.070
 3946SOL    HW112737   5.370   6.106   6.117
 3946SOL    HW212738   5.486   5.991   6.111
 3947SOL     OW12739   6.129   5.432   0.993
 3947SOL    HW112740   6.181   5.502   1.041
 3947SOL    HW212741   6.187   5.387   0.925
 3948SOL     OW12742   1.119   5.755   1.662
 3948SOL    HW112743   1.075   5.666   1.672
 3948SOL    HW212744   1.077   5.820   1.726
 3949SOL     OW12745   6.306   0.466   2.760
 3949SOL    HW112746   6.357   0.550   2.779
 3949SOL    HW212747   6.306   0.449   2.661
 3950SOL     OW12748   2.421   4.183   1.530
 3950SOL    HW112749   2.411   4.090   1.494
 3950SOL    HW212750   2.459   4.242   1.458
 3951SOL     OW12751   6.337   0.126   1.247
 3951SOL    HW112752   6.288   0.148   1.331
 3951SOL    HW212753   6.325   0.200   1.181
 3952SOL     OW12754   6.242   3.897   2.648
 3952SOL    HW112755   6.325   3.910   2.701
 3952SOL    HW212756   6.246   3.808   2.601
 3953SOL     OW12757   4.038   4.274   0.762
 3953SOL    HW112758   4.022   4.203   0.693
 3953SOL    HW212759   4.055   4.231   0.851
 3954SOL     OW12760   5.868   5.499   5.122
 3954SOL    HW112761   5.842   5.568   5.055
 3954SOL    HW212762   5.914   5.543   5.199
 3955SOL     OW12763   3.168   5.339   5.888
 3955SOL    HW112764   3.135   5.332   5.981
 3955SOL    HW212765   3.259   5.380   5.888
 3956SOL     OW12766   0.253   0.845   2.890
 3956SOL    HW112767   0.302   0.837   2.803
 3956SOL    HW212768   0.317   0.873   2.962
 3957SOL     OW12769   4.917   6.604   3.809
 3957SOL    HW112770   4.949   6.535   3.873
 3957SOL    HW212771   4.818   6.595   3.796
 3958SOL     OW12772   5.761   0.718   6.150
 3958SOL    HW112773   5.701   0.707   6.229
 3958SOL    HW212774   5.836   0.651   6.157
 3959SOL     OW12775   3.333   5.822   1.264
 3959SOL    HW112776   3.233   5.824   1.265
 3959SOL    HW212777   3.366   5.879   1.189
 3960SOL     OW12778   4.523   1.466   6.914
 3960SOL    HW112779   4.538   1.560   6.945
 3960SOL    HW212780   4.463   1.467   6.834
 3961SOL     OW12781   5.878   2.374   2.093
 3961SOL    HW112782   5.822   2.296   2.120
 3961SOL    HW212783   5.943   2.346   2.022
 3962SOL     OW12784   2.636   5.016   0.005
 3962SOL    HW112785   2.602   4.927   6.997
 3962SOL    HW212786   2.729   5.030   6.996
 3963SOL     OW12787   4.697   4.268   4.354
 3963SOL    HW112788   4.645   4.310   4.279
 3963SOL    HW212789   4.773   4.329   4.379
 3964SOL     OW12790   4.106   4.907   3.696
 3964SOL    HW112791   4.161   4.824   3.690
 3964SOL    HW212792   4.053   4.918   3.612
 3965SOL     OW12793   4.782   3.237   6.062
 3965SOL    HW112794   4.751   3.330   6.041
 3965SOL    HW212795   4.707   3.186   6.106
 3966SOL     OW12796   5.206   6.055   0.934
 3966SOL    HW112797   5.114   6.062   0.896
 3966SOL    HW212798   5.214   5.971   0.988
 3967SOL     OW12799   1.441   3.954   1.985
 3967SOL    HW112800   1.460   3.857   2.001
 3967SOL    HW212801   1.495   4.009   2.048
 3968SOL     OW12802   4.841   0.212   0.991
 3968SOL    HW112803   4.746   0.219   1.020
 3968SOL    HW212804   4.846   0.200   0.892
 3969SOL     OW12805   1.636   3.899   2.457
 3969SOL    HW112806   1.625   3.920   2.554
 3969SOL    HW212807   1.546   3.891   2.415
 3970SOL     OW12808   5.809   5.959   4.105
 3970SOL    HW112809   5.767   5.869   4.092
 3970SOL    HW212810   5.823   5.976   4.202
 3971SOL     OW12811   2.464   4.835   1.775
 3971SOL    HW112812   2.556   4.854   1.809
 3971SOL    HW212813   2.423   4.921   1.742
 3972SOL     OW12814   1.043   5.237   0.721
 3972SOL    HW112815   1.005   5.170   0.657
 3972SOL    HW212816   1.030   5.206   0.815
 3973SOL     OW12817   0.969   4.510   5.903
 3973SOL    HW112818   1.041   4.443   5.918
 3973SOL    HW212819   1.006   4.587   5.850
 3974SOL     OW12820   1.377   0.777   4.629
 3974SOL    HW112821   1.283   0.793   4.657
 3974SOL    HW212822   1.439   0.800   4.705
 3975SOL     OW12823   5.916   0.800   5.694
 3975SOL    HW112824   5.949   0.822   5.786
 3975SOL    HW212825   5.816   0.793   5.695
 3976SOL     OW12826   1.459   6.450   1.965
 3976SOL    HW112827   1.505   6.468   1.878
 3976SOL    HW212828   1.477   6.524   2.029
 3977SOL     OW12829   3.215   4.165   5.829
 3977SOL    HW112830   3.174   4.172   5.920
 3977SOL    HW212831   3.159   4.215   5.763
 3978SOL     OW12832   5.417   6.283   4.957
 3978SOL    HW112833   5.346   6.308   4.892
 3978SOL    HW212834   5.506   6.308   4.920
 3979SOL     OW12835   3.186   5.950   0.538
 3979SOL    HW112836   3.206   5.975   0.443
 3979SOL    HW212837   3.106   5.891   0.541
 3980SOL     OW12838   0.467   5.758   0.202
 3980SOL    HW112839   0.479   5.741   0.300
 3980SOL    HW212840   0.384   5.712   0.171
 3981SOL     OW12841   1.912   1.344   0.645
 3981SOL    HW112842   1.982   1.296   0.698
 3981SOL    HW212843   1.942   1.438   0.627
 3982SOL     OW12844   1.999   0.335   4.214
 3982SOL    HW112845   2.025   0.312   4.120
 3982SOL    HW212846   1.900   0.349   4.219
 3983SOL     OW12847   5.191   5.306   4.707
 3983SOL    HW112848   5.226   5.212   4.701
 3983SOL    HW212849   5.255   5.362   4.759
 3984SOL     OW12850   7.004   0.953   2.897
 3984SOL    HW112851   0.074   0.920   2.892
 3984SOL    HW212852   6.967   0.963   2.805
 3985SOL     OW12853   3.601   4.601   6.466
 3985SOL    HW112854   3.529   4.537   6.493
 3985SOL    HW212855   3.673   4.552   6.417
 3986SOL     OW12856   6.721   1.747   3.026
 3986SOL    HW112857   6.622   1.743   3.012
 3986SOL    HW212858   6.760   1.656   3.014
 3987SOL     OW12859   2.884   5.310   3.768
 3987SOL    HW112860   2.903   5.328   3.864
 3987SOL    HW212861   2.966   5.327   3.713
 3988SOL     OW12862   4.261   3.801   6.940
 3988SOL    HW112863   4.305   3.799   6.850
 3988SOL    HW212864   4.266   3.710   6.981
 3989SOL     OW12865   6.612   2.640   6.807
 3989SOL    HW112866   6.583   2.723   6.856
 3989SOL    HW212867   6.610   2.657   6.709
 3990SOL     OW12868   5.285   2.347   3.159
 3990SOL    HW112869   5.284   2.362   3.060
 3990SOL    HW212870   5.322   2.428   3.204
 3991SOL     OW12871   6.223   0.819   2.225
 3991SOL    HW112872   6.256   0.867   2.306
 3991SOL    HW212873   6.132   0.853   2.200
 3992SOL     OW12874   4.013   2.253   6.917
 3992SOL    HW112875   3.915   2.264   6.931
 3992SOL    HW212876   4.062   2.314   6.979
 3993SOL     OW12877   1.093   1.785   2.765
 3993SOL    HW112878   1.101   1.715   2.694
 3993SOL    HW212879   1.029   1.856   2.735
 3994SOL     OW12880   0.677   0.875   6.146
 3994SOL    HW112881   0.618   0.946   6.185
 3994SOL    HW212882   0.694   0.805   6.215
 3995SOL     OW12883   1.954   3.862   5.374
 3995SOL    HW112884   2.029   3.850   5.309
 3995SOL    HW212885   1.891   3.932   5.339
 3996SOL     OW12886   1.092   1.334   4.323
 3996SOL    HW112887   1.014   1.377   4.368
 3996SOL    HW212888   1.084   1.235   4.330
 3997SOL     OW12889   5.318   1.264   3.549
 3997SOL    HW112890   5.295   1.304   3.638
 3997SOL    HW212891   5.236   1.225   3.508
 3998SOL     OW12892   4.606   1.225   3.565
 3998SOL    HW112893   4.628   1.241   3.469
 3998SOL    HW212894   4.516   1.262   3.586
 3999SOL     OW12895   5.839   3.584   3.817
 3999SOL    HW112896   5.855   3.504   3.759
 3999SOL    HW212897   5.877   3.567   3.908
 4000SOL     OW12898   2.931   5.504   3.009
 4000SOL    HW112899   2.938   5.544   3.101
 4000SOL    HW212900   2.866   5.428   3.011
 4001SOL     OW12901   2.457   2.002   4.089
 4001SOL    HW112902   2.409   2.038   4.009
 4001SOL    HW212903   2.554   1.991   4.069
 4002SOL     OW12904   2.607   3.170   0.877
 4002SOL    HW112905   2.530   3.227   0.847
 4002SOL    HW212906   2.632   3.107   0.804
 4003SOL     OW12907   3.103   6.066   4.017
 4003SOL    HW112908   3.097   6.133   3.944
 4003SOL    HW212909   3.099   5.974   3.978
 4004SOL     OW12910   5.562   2.080   4.101
 4004SOL    HW112911   5.587   2.175   4.085
 4004SOL    HW212912   5.469   2.064   4.066
 4005SOL     OW12913   4.438   6.179   0.564
 4005SOL    HW112914   4.500   6.242   0.610
 4005SOL    HW212915   4.455   6.086   0.596
 4006SOL     OW12916   3.575   5.524   3.206
 4006SOL    HW112917   3.632   5.561   3.280
 4006SOL    HW212918   3.564   5.425   3.219
 4007SOL     OW12919   0.722   2.672   1.348
 4007SOL    HW112920   0.746   2.738   1.277
 4007SOL    HW212921   0.776   2.589   1.336
 4008SOL     OW12922   3.207   1.872   3.586
 4008SOL    HW112923   3.245   1.887   3.677
 4008SOL    HW212924   3.216   1.775   3.562
 4009SOL     OW12925   5.217   3.234   1.232
 4009SOL    HW112926   5.130   3.186   1.246
 4009SOL    HW212927   5.219   3.275   1.141
 4010SOL     OW12928   2.302   2.566   1.959
 4010SOL    HW112929   2.246   2.648   1.973
 4010SOL    HW212930   2.247   2.485   1.975
 4011SOL     OW12931   0.192   0.892   2.199
 4011SOL    HW112932   0.172   0.983   2.162
 4011SOL    HW212933   0.109   0.837   2.199
 4012SOL     OW12934   3.950   5.697   1.513
 4012SOL    HW112935   3.994   5.636   1.580
 4012SOL    HW212936   4.009   5.776   1.497
 4013SOL     OW12937   2.894   6.904   6.314
 4013SOL    HW112938   2.879   6.853   6.398
 4013SOL    HW212939   2.984   6.948   6.318
 4014SOL     OW12940   4.425   5.855   3.269
 4014SOL    HW112941   4.484   5.936   3.263
 4014SOL    HW212942   4.471   5.777   3.227
 4015SOL     OW12943   4.913   5.356   6.128
 4015SOL    HW112944   4.988   5.291   6.137
 4015SOL    HW212945   4.826   5.309   6.140
 4016SOL     OW12946   2.289   5.732   6.600
 4016SOL    HW112947   2.270   5.669   6.525
 4016SOL    HW212948   2.301   5.679   6.685
 4017SOL     OW12949   0.643   5.878   1.168
 4017SOL    HW112950   0.600   5.966   1.188
 4017SOL    HW212951   0.718   5.862   1.232
 4018SOL     OW12952   5.094   5.849   3.364
 4018SOL    HW112953   5.097   5.751   3.344
 4018SOL    HW212954   5.170   5.895   3.319
 4019SOL     OW12955   5.942   3.821   2.943
 4019SOL    HW112956   6.037   3.833   2.973
 4019SOL    HW212957   5.934   3.843   2.846
 4020SOL     OW12958   5.185   1.982   5.797
 4020SOL    HW112959   5.253   2.041   5.754
 4020SOL    HW212960   5.132   2.034   5.863
 4021SOL     OW12961   3.355   4.025   6.493
 4021SOL    HW112962   3.346   4.024   6.393
 4021SOL    HW212963   3.270   4.058   6.534
 4022SOL     OW12964   3.988   0.233   6.947
 4022SOL    HW112965   3.909   0.230   7.009
 4022SOL    HW212966   4.033   0.144   6.946
 4023SOL     OW12967   6.127   1.995   4.886
 4023SOL    HW112968   6.038   2.006   4.930
 4023SOL    HW212969   6.117   2.001   4.787
 4024SOL     OW12970   3.737   6.096   3.279
 4024SOL    HW112971   3.675   6.137   3.212
 4024SOL    HW212972   3.831   6.102   3.245
 4025SOL     OW12973   0.842   6.105   4.050
 4025SOL    HW112974   0.781   6.138   3.977
 4025SOL    HW212975   0.787   6.058   4.119
 4026SOL     OW12976   6.270   6.161   4.531
 4026SOL    HW112977   6.299   6.068   4.507
 4026SOL    HW212978   6.350   6.221   4.533
 4027SOL     OW12979   4.065   3.811   2.015
 4027SOL    HW112980   4.073   3.813   2.115
 4027SOL    HW212981   3.971   3.834   1.989
 4028SOL     OW12982   1.146   2.090   3.900
 4028SOL    HW112983   1.066   2.032   3.889
 4028SOL    HW212984   1.138   2.170   3.840
 4029SOL     OW12985   1.544   4.177   6.624
 4029SOL    HW112986   1.641   4.200   6.635
 4029SOL    HW212987   1.532   4.125   6.539
 4030SOL     OW12988   1.515   2.065   5.827
 4030SOL    HW112989   1.429   2.042   5.782
 4030SOL    HW212990   1.511   2.035   5.923
 4031SOL     OW12991   4.774   5.855   2.848
 4031SOL    HW112992   4.857   5.896   2.887
 4031SOL    HW212993   4.741   5.783   2.908
 4032SOL     OW12994   5.758   0.142   2.784
 4032SOL    HW112995   5.855   0.159   2.768
 4032SOL    HW212996   5.733   0.175   2.875
 4033SOL     OW12997   3.624   2.882   3.197
 4033SOL    HW112998   3.656   2.977   3.195
 4033SOL    HW212999   3.540   2.873   3.144
 4034SOL     OW13000   5.456   1.656   5.340
 4034SOL    HW113001   5.506   1.570   5.341
 4034SOL    HW213002   5.426   1.678   5.433
 4035SOL     OW13003   6.577   4.361   1.185
 4035SOL    HW113004   6.479   4.375   1.201
 4035SOL    HW213005   6.589   4.289   1.117
 4036SOL     OW13006   5.362   6.493   2.629
 4036SOL    HW113007   5.283   6.502   2.567
 4036SOL    HW213008   5.366   6.573   2.689
 4037SOL     OW13009   1.844   2.830   0.745
 4037SOL    HW113010   1.907   2.833   0.667
 4037SOL    HW213011   1.864   2.905   0.808
 4038SOL     OW13012   4.497   4.827   2.044
 4038SOL    HW113013   4.560   4.843   1.968
 4038SOL    HW213014   4.550   4.812   2.128
 4039SOL     OW13015   4.976   5.197   1.003
 4039SOL    HW113016   4.933   5.133   1.067
 4039SOL    HW213017   5.073   5.176   0.996
 4040SOL     OW13018   2.814   6.539   0.343
 4040SOL    HW113019   2.745   6.497   0.284
 4040SOL    HW213020   2.771   6.573   0.426
 4041SOL     OW13021   1.693   5.857   2.192
 4041SOL    HW113022   1.764   5.789   2.179
 4041SOL    HW213023   1.607   5.812   2.214
 4042SOL     OW13024   5.991   4.643   2.296
 4042SOL    HW113025   6.036   4.556   2.316
 4042SOL    HW213026   6.060   4.714   2.281
 4043SOL     OW13027   5.935   2.214   3.851
 4043SOL    HW113028   5.919   2.313   3.842
 4043SOL    HW213029   5.961   2.193   3.945
 4044SOL     OW13030   6.081   0.548   4.635
 4044SOL    HW113031   6.005   0.600   4.597
 4044SOL    HW213032   6.088   0.460   4.588
 4045SOL     OW13033   2.521   4.258   6.133
 4045SOL    HW113034   2.536   4.357   6.140
 4045SOL    HW213035   2.447   4.241   6.068
 4046SOL     OW13036   0.561   2.080   3.220
 4046SOL    HW113037   0.497   2.146   3.259
 4046SOL    HW213038   0.612   2.123   3.145
 4047SOL     OW13039   2.383   3.601   0.675
 4047SOL    HW113040   2.370   3.677   0.740
 4047SOL    HW213041   2.342   3.626   0.587
 4048SOL     OW13042   5.893   0.757   1.883
 4048SOL    HW113043   5.856   0.703   1.808
 4048SOL    HW213044   5.936   0.696   1.950
 4049SOL     OW13045   6.155   6.155   6.710
 4049SOL    HW113046   6.233   6.110   6.752
 4049SOL    HW213047   6.181   6.190   6.619
 4050SOL     OW13048   1.751   6.796   0.146
 4050SOL    HW113049   1.698   6.711   0.140
 4050SOL    HW213050   1.834   6.780   0.199
 4051SOL     OW13051   2.810   3.926   0.212
 4051SOL    HW113052   2.834   3.846   0.266
 4051SOL    HW213053   2.744   3.900   0.141
 4052SOL     OW13054   1.047   7.016   1.238
 4052SOL    HW113055   1.030   0.090   1.245
 4052SOL    HW213056   1.065   6.979   1.329
 4053SOL     OW13057   3.621   4.948   3.742
 4053SOL    HW113058   3.584   4.980   3.829
 4053SOL    HW213059   3.591   5.009   3.669
 4054SOL     OW13060   2.475   3.150   0.461
 4054SOL    HW113061   2.565   3.129   0.500
 4054SOL    HW213062   2.466   3.106   0.372
 4055SOL     OW13063   2.901   3.125   5.853
 4055SOL    HW113064   2.863   3.190   5.787
 4055SOL    HW213065   2.883   3.032   5.822
 4056SOL     OW13066   4.693   3.388   6.635
 4056SOL    HW113067   4.696   3.478   6.679
 4056SOL    HW213068   4.765   3.383   6.566
 4057SOL     OW13069   4.905   3.419   0.582
 4057SOL    HW113070   4.980   3.404   0.646
 4057SOL    HW213071   4.928   3.496   0.522
 4058SOL     OW13072   1.796   1.070   4.503
 4058SOL    HW113073   1.799   1.111   4.594
 4058SOL    HW213074   1.793   0.970   4.511
 4059SOL     OW13075   2.204   2.257   3.388
 4059SOL    HW113076   2.171   2.343   3.351
 4059SOL    HW213077   2.246   2.202   3.316
 4060SOL     OW13078   3.716   5.031   4.892
 4060SOL    HW113079   3.803   5.000   4.929
 4060SOL    HW213080   3.689   4.973   4.815
 4061SOL     OW13081   3.397   4.397   1.727
 4061SOL    HW113082   3.300   4.420   1.727
 4061SOL    HW213083   3.449   4.474   1.766
 4062SOL     OW13084   4.511   1.757   3.382
 4062SOL    HW113085   4.475   1.665   3.368
 4062SOL    HW213086   4.528   1.800   3.294
 4063SOL     OW13087   4.317   6.258   5.978
 4063SOL    HW113088   4.221   6.287   5.972
 4063SOL    HW213089   4.364   6.281   5.893
 4064SOL     OW13090   2.333   6.373   2.617
 4064SOL    HW113091   2.377   6.462   2.606
 4064SOL    HW213092   2.397   6.301   2.588
 4065SOL     OW13093   0.622   0.135   0.481
 4065SOL    HW113094   0.636   0.072   0.404
 4065SOL    HW213095   0.653   0.227   0.455
 4066SOL     OW13096   5.347   4.898   2.025
 4066SOL    HW113097   5.377   4.853   1.941
 4066SOL    HW213098   5.281   4.969   2.002
 4067SOL     OW13099   5.669   1.760   2.944
 4067SOL    HW113100   5.579   1.752   2.902
 4067SOL    HW213101   5.669   1.717   3.034
 4068SOL     OW13102   4.741   0.444   5.018
 4068SOL    HW113103   4.836   0.418   5.001
 4068SOL    HW213104   4.681   0.399   4.951
 4069SOL     OW13105   4.684   3.668   0.289
 4069SOL    HW113106   4.595   3.701   0.321
 4069SOL    HW213107   4.729   3.741   0.237
 4070SOL     OW13108   1.794   3.393   2.676
 4070SOL    HW113109   1.861   3.454   2.632
 4070SOL    HW213110   1.842   3.325   2.731
 4071SOL     OW13111   1.713   0.832   5.129
 4071SOL    HW113112   1.748   0.922   5.155
 4071SOL    HW213113   1.739   0.813   5.034
 4072SOL     OW13114   1.951   6.552   4.382
 4072SOL    HW113115   1.932   6.595   4.293
 4072SOL    HW213116   1.909   6.461   4.385
 4073SOL     OW13117   2.006   5.482   6.103
 4073SOL    HW113118   1.919   5.532   6.113
 4073SOL    HW213119   2.079   5.547   6.080
 4074SOL     OW13120   0.573   3.073   2.014
 4074SOL    HW113121   0.501   3.003   2.014
 4074SOL    HW213122   0.626   3.066   1.929
 4075SOL     OW13123   4.920   1.952   2.826
 4075SOL    HW113124   5.005   1.905   2.853
 4075SOL    HW213125   4.855   1.885   2.791
 4076SOL     OW13126   2.586   4.271   5.277
 4076SOL    HW113127   2.514   4.341   5.274
 4076SOL    HW213128   2.548   4.184   5.245
 4077SOL     OW13129   2.486   6.178   0.811
 4077SOL    HW113130   2.561   6.116   0.833
 4077SOL    HW213131   2.483   6.193   0.712
 4078SOL     OW13132   6.031   5.269   2.076
 4078SOL    HW113133   5.941   5.272   2.031
 4078SOL    HW213134   6.062   5.174   2.080
 4079SOL     OW13135   1.796   0.528   3.251
 4079SOL    HW113136   1.744   0.559   3.172
 4079SOL    HW213137   1.880   0.483   3.220
 4080SOL     OW13138   3.344   3.868   0.216
 4080SOL    HW113139   3.370   3.782   0.171
 4080SOL    HW213140   3.265   3.852   0.275
 4081SOL     OW13141   2.139   0.906   4.527
 4081SOL    HW113142   2.102   0.835   4.588
 4081SOL    HW213143   2.111   0.996   4.560
 4082SOL     OW13144   1.868   1.537   6.358
 4082SOL    HW113145   1.784   1.591   6.361
 4082SOL    HW213146   1.941   1.586   6.404
 4083SOL     OW13147   5.891   4.346   3.637
 4083SOL    HW113148   5.887   4.252   3.602
 4083SOL    HW213149   5.892   4.344   3.737
 4084SOL     OW13150   4.743   2.933   3.294
 4084SOL    HW113151   4.785   2.861   3.350
 4084SOL    HW213152   4.768   3.022   3.331
 4085SOL     OW13153   2.834   5.143   1.251
 4085SOL    HW113154   2.893   5.166   1.329
 4085SOL    HW213155   2.811   5.046   1.253
 4086SOL     OW13156   0.228   5.072   0.287
 4086SOL    HW113157   0.204   4.979   0.262
 4086SOL    HW213158   0.200   5.135   0.214
 4087SOL     OW13159   2.913   0.782   2.744
 4087SOL    HW113160   2.978   0.707   2.755
 4087SOL    HW213161   2.923   0.846   2.820
 4088SOL     OW13162   6.620   0.926   5.650
 4088SOL    HW113163   6.597   0.834   5.618
 4088SOL    HW213164   6.650   0.921   5.746
 4089SOL     OW13165   0.474   5.358   4.172
 4089SOL    HW113166   0.526   5.442   4.157
 4089SOL    HW213167   0.537   5.280   4.174
 4090SOL     OW13168   1.944   6.297   5.311
 4090SOL    HW113169   2.010   6.278   5.239
 4090SOL    HW213170   1.862   6.241   5.298
 4091SOL     OW13171   1.294   5.113   0.423
 4091SOL    HW113172   1.236   5.095   0.344
 4091SOL    HW213173   1.294   5.033   0.483
 4092SOL     OW13174   4.905   3.370   4.896
 4092SOL    HW113175   4.879   3.466   4.911
 4092SOL    HW213176   4.869   3.314   4.971
 4093SOL     OW13177   6.424   5.861   1.998
 4093SOL    HW113178   6.523   5.862   1.979
 4093SOL    HW213179   6.386   5.951   1.976
 4094SOL     OW13180   0.789   4.785   0.006
 4094SOL    HW113181   0.808   4.765   0.102
 4094SOL    HW213182   0.849   4.858   6.998
 4095SOL     OW13183   0.578   3.338   0.156
 4095SOL    HW113184   0.533   3.250   0.172
 4095SOL    HW213185   0.515   3.412   0.180
 4096SOL     OW13186   2.030   0.946   6.728
 4096SOL    HW113187   2.078   0.864   6.698
 4096SOL    HW213188   2.096   1.010   6.768
 4097SOL     OW13189   6.143   4.404   5.204
 4097SOL    HW113190   6.138   4.455   5.118
 4097SOL    HW213191   6.189   4.459   5.274
 4098SOL     OW13192   1.937   3.308   1.413
 4098SOL    HW113193   2.019   3.274   1.460
 4098SOL    HW213194   1.860   3.310   1.477
 4099SOL     OW13195   3.832   4.986   6.754
 4099SOL    HW113196   3.845   4.948   6.845
 4099SOL    HW213197   3.901   5.057   6.737
 4100SOL     OW13198   1.082   0.872   3.910
 4100SOL    HW113199   1.107   0.861   4.006
 4100SOL    HW213200   0.992   0.915   3.904
 4101SOL     OW13201   6.564   1.119   6.405
 4101SOL    HW113202   6.659   1.094   6.389
 4101SOL    HW213203   6.539   1.096   6.499
 4102SOL     OW13204   1.920   0.793   0.730
 4102SOL    HW113205   1.868   0.877   0.713
 4102SOL    HW213206   1.865   0.714   0.703
 4103SOL     OW13207   0.218   6.987   2.130
 4103SOL    HW113208   0.155   7.022   2.200
 4103SOL    HW213209   0.216   0.022   2.050
 4104SOL     OW13210   0.206   5.268   3.006
 4104SOL    HW113211   0.211   5.326   2.925
 4104SOL    HW213212   0.110   5.256   3.032
 4105SOL     OW13213   4.908   1.171   1.611
 4105SOL    HW113214   4.960   1.150   1.528
 4105SOL    HW213215   4.971   1.203   1.682
 4106SOL     OW13216   6.776   2.334   4.062
 4106SOL    HW113217   6.724   2.253   4.090
 4106SOL    HW213218   6.851   2.349   4.126
 4107SOL     OW13219   0.335   6.227   6.674
 4107SOL    HW113220   0.390   6.242   6.757
 4107SOL    HW213221   0.273   6.150   6.689
 4108SOL     OW13222   1.045   5.698   4.016
 4108SOL    HW113223   0.999   5.737   4.096
 4108SOL    HW213224   1.029   5.756   3.936
 4109SOL     OW13225   5.823   5.817   3.654
 4109SOL    HW113226   5.853   5.785   3.744
 4109SOL    HW213227   5.897   5.867   3.610
 4110SOL     OW13228   4.117   3.049   6.641
 4110SOL    HW113229   4.080   3.087   6.556
 4110SOL    HW213230   4.205   3.005   6.622
 4111SOL     OW13231   5.978   5.040   6.117
 4111SOL    HW113232   5.990   5.043   6.216
 4111SOL    HW213233   5.880   5.049   6.095
 4112SOL     OW13234   4.979   6.893   4.629
 4112SOL    HW113235   4.949   6.978   4.586
 4112SOL    HW213236   4.951   6.894   4.726
 4113SOL     OW13237   4.361   5.286   4.841
 4113SOL    HW113238   4.326   5.193   4.852
 4113SOL    HW213239   4.359   5.333   4.930
 4114SOL     OW13240   6.210   1.623   3.215
 4114SOL    HW113241   6.157   1.645   3.133
 4114SOL    HW213242   6.289   1.685   3.220
 4115SOL     OW13243   2.956   4.821   3.204
 4115SOL    HW113244   2.897   4.761   3.258
 4115SOL    HW213245   3.044   4.833   3.251
 4116SOL     OW13246   5.386   2.542   3.304
 4116SOL    HW113247   5.369   2.511   3.397
 4116SOL    HW213248   5.474   2.590   3.300
 4117SOL     OW13249   1.372   1.960   2.478
 4117SOL    HW113250   1.316   1.880   2.500
 4117SOL    HW213251   1.440   1.935   2.409
 4118SOL     OW13252   6.213   6.743   6.215
 4118SOL    HW113253   6.169   6.775   6.131
 4118SOL    HW213254   6.306   6.779   6.220
 4119SOL     OW13255   3.240   0.582   3.183
 4119SOL    HW113256   3.235   0.676   3.218
 4119SOL    HW213257   3.325   0.570   3.132
 4120SOL     OW13258   4.287   1.532   6.354
 4120SOL    HW113259   4.268   1.572   6.264
 4120SOL    HW213260   4.214   1.558   6.417
 4121SOL     OW13261   6.624   6.352   2.546
 4121SOL    HW113262   6.664   6.444   2.542
 4121SOL    HW213263   6.619   6.323   2.642
 4122SOL     OW13264   0.793   6.207   4.756
 4122SOL    HW113265   0.775   6.304   4.775
 4122SOL    HW213266   0.749   6.181   4.670
 4123SOL     OW13267   4.464   5.613   4.359
 4123SOL    HW113268   4.400   5.538   4.376
 4123SOL    HW213269   4.497   5.650   4.446
 4124SOL     OW13270   6.580   6.555   1.356
 4124SOL    HW113271   6.528   6.598   1.430
 4124SOL    HW213272   6.590   6.620   1.281
 4125SOL     OW13273   4.687   2.813   2.762
 4125SOL    HW113274   4.641   2.808   2.851
 4125SOL    HW213275   4.784   2.834   2.776
 4126SOL     OW13276   1.806   2.952   2.215
 4126SOL    HW113277   1.784   2.856   2.199
 4126SOL    HW213278   1.738   2.992   2.277
 4127SOL     OW13279   4.329   2.327   4.539
 4127SOL    HW113280   4.301   2.291   4.450
 4127SOL    HW213281   4.338   2.426   4.534
 4128SOL     OW13282   0.293   3.291   2.132
 4128SOL    HW113283   0.259   3.263   2.222
 4128SOL    HW213284   0.366   3.230   2.103
 4129SOL     OW13285   3.201   2.282   0.492
 4129SOL    HW113286   3.212   2.286   0.393
 4129SOL    HW213287   3.111   2.245   0.514
 4130SOL     OW13288   6.313   2.553   0.564
 4130SOL    HW113289   6.229   2.605   0.549
 4130SOL    HW213290   6.290   2.456   0.579
 4131SOL     OW13291   6.574   0.551   2.667
 4131SOL    HW113292   6.500   0.612   2.697
 4131SOL    HW213293   6.644   0.546   2.738
 4132SOL     OW13294   6.056   4.118   3.901
 4132SOL    HW113295   6.032   4.021   3.905
 4132SOL    HW213296   6.076   4.144   3.806
 4133SOL     OW13297   5.034   6.289   1.088
 4133SOL    HW113298   5.075   6.260   1.175
 4133SOL    HW213299   5.095   6.353   1.042
 4134SOL     OW13300   2.572   3.531   0.924
 4134SOL    HW113301   2.483   3.534   0.969
 4134SOL    HW213302   2.572   3.462   0.852
 4135SOL     OW13303   0.424   2.057   2.757
 4135SOL    HW113304   0.514   2.014   2.747
 4135SOL    HW213305   0.405   2.114   2.677
 4136SOL     OW13306   0.856   3.580   1.690
 4136SOL    HW113307   0.920   3.613   1.620
 4136SOL    HW213308   0.907   3.528   1.759
 4137SOL     OW13309   1.183   2.827   6.889
 4137SOL    HW113310   1.144   2.914   6.918
 4137SOL    HW213311   1.172   2.759   6.962
 4138SOL     OW13312   4.281   5.235   1.068
 4138SOL    HW113313   4.303   5.146   1.108
 4138SOL    HW213314   4.363   5.293   1.069
 4139SOL     OW13315   1.415   2.107   3.951
 4139SOL    HW113316   1.410   2.020   4.000
 4139SOL    HW213317   1.325   2.131   3.916
 4140SOL     OW13318   2.973   2.211   3.755
 4140SOL    HW113319   3.061   2.197   3.800
 4140SOL    HW213320   2.905   2.240   3.823
 4141SOL     OW13321   4.685   0.022   6.715
 4141SOL    HW113322   4.667   7.021   6.810
 4141SOL    HW213323   4.784   0.023   6.699
 4142SOL     OW13324   6.827   4.103   1.861
 4142SOL    HW113325   6.854   4.056   1.776
 4142SOL    HW213326   6.903   4.159   1.893
 4143SOL     OW13327   5.479   3.380   1.013
 4143SOL    HW113328   5.394   3.426   0.985
 4143SOL    HW213329   5.457   3.305   1.075
 4144SOL     OW13330   5.118   1.801   0.502
 4144SOL    HW113331   5.106   1.706   0.527
 4144SOL    HW213332   5.214   1.826   0.511
 4145SOL     OW13333   1.058   6.323   0.634
 4145SOL    HW113334   1.084   6.403   0.580
 4145SOL    HW213335   0.969   6.289   0.602
 4146SOL     OW13336   6.129   7.004   4.022
 4146SOL    HW113337   6.190   7.004   3.943
 4146SOL    HW213338   6.169   0.036   4.095
 4147SOL     OW13339   5.812   4.731   6.104
 4147SOL    HW113340   5.777   4.824   6.102
 4147SOL    HW213341   5.742   4.670   6.140
 4148SOL     OW13342   2.701   0.171   5.512
 4148SOL    HW113343   2.726   0.203   5.420
 4148SOL    HW213344   2.602   0.156   5.516
 4149SOL     OW13345   0.575   3.275   1.644
 4149SOL    HW113346   0.608   3.329   1.567
 4149SOL    HW213347   0.594   3.324   1.729
 4150SOL     OW13348   6.510   2.328   5.325
 4150SOL    HW113349   6.525   2.234   5.356
 4150SOL    HW213350   6.563   2.344   5.242
 4151SOL     OW13351   1.826   0.112   5.178
 4151SOL    HW113352   1.924   0.102   5.163
 4151SOL    HW213353   1.809   0.135   5.274
 4152SOL     OW13354   3.765   5.776   1.895
 4152SOL    HW113355   3.725   5.773   1.803
 4152SOL    HW213356   3.756   5.685   1.937
 4153SOL     OW13357   6.777   5.175   1.513
 4153SOL    HW113358   6.696   5.191   1.569
 4153SOL    HW213359   6.753   5.118   1.435
 4154SOL     OW13360   0.501   5.605   3.035
 4154SOL    HW113361   0.521   5.544   3.112
 4154SOL    HW213362   0.406   5.635   3.041
 4155SOL     OW13363   6.606   2.280   1.266
 4155SOL    HW113364   6.642   2.373   1.265
 4155SOL    HW213365   6.557   2.264   1.352
 4156SOL     OW13366   6.472   5.277   4.931
 4156SOL    HW113367   6.417   5.261   4.849
 4156SOL    HW213368   6.460   5.372   4.961
 4157SOL     OW13369   6.202   6.058   2.450
 4157SOL    HW113370   6.160   6.135   2.499
 4157SOL    HW213371   6.301   6.072   2.444
 4158SOL     OW13372   1.944   2.715   1.842
 4158SOL    HW113373   1.912   2.801   1.802
 4158SOL    HW213374   1.994   2.735   1.927
 4159SOL     OW13375   2.656   2.225   3.025
 4159SOL    HW113376   2.628   2.181   3.110
 4159SOL    HW213377   2.737   2.179   2.988
 4160SOL     OW13378   5.501   0.121   0.183
 4160SOL    HW113379   5.559   0.049   0.147
 4160SOL    HW213380   5.523   0.208   0.140
 4161SOL     OW13381   1.601   2.264   1.503
 4161SOL    HW113382   1.503   2.278   1.496
 4161SOL    HW213383   1.648   2.352   1.507
 4162SOL     OW13384   6.440   5.862   1.462
 4162SOL    HW113385   6.409   5.843   1.555
 4162SOL    HW213386   6.472   5.957   1.456
 4163SOL     OW13387   5.685   1.188   2.650
 4163SOL    HW113388   5.703   1.092   2.630
 4163SOL    HW213389   5.590   1.199   2.680
 4164SOL     OW13390   0.835   6.915   5.421
 4164SOL    HW113391   0.785   6.867   5.349
 4164SOL    HW213392   0.815   7.013   5.416
 4165SOL     OW13393   4.320   6.885   5.905
 4165SOL    HW113394   4.271   6.968   5.930
 4165SOL    HW213395   4.396   6.870   5.968
 4166SOL     OW13396   6.137   1.107   1.603
 4166SOL    HW113397   6.209   1.062   1.551
 4166SOL    HW213398   6.077   1.157   1.540
 4167SOL     OW13399   2.823   4.973   5.864
 4167SOL    HW113400   2.726   4.953   5.855
 4167SOL    HW213401   2.876   4.912   5.806
 4168SOL     OW13402   0.252   4.147   0.661
 4168SOL    HW113403   0.264   4.150   0.561
 4168SOL    HW213404   0.278   4.236   0.700
 4169SOL     OW13405   6.128   3.745   5.410
 4169SOL    HW113406   6.085   3.767   5.497
 4169SOL    HW213407   6.066   3.770   5.335
 4170SOL     OW13408   4.893   3.111   5.010
 4170SOL    HW113409   4.992   3.121   4.998
 4170SOL    HW213410   4.864   3.160   5.092
 4171SOL     OW13411   1.165   5.379   0.983
 4171SOL    HW113412   1.175   5.404   0.887
 4171SOL    HW213413   1.181   5.280   0.993
 4172SOL     OW13414   2.734   2.890   0.412
 4172SOL    HW113415   2.782   2.819   0.464
 4172SOL    HW213416   2.696   2.850   0.328
 4173SOL     OW13417   4.764   2.788   5.767
 4173SOL    HW113418   4.731   2.777   5.673
 4173SOL    HW213419   4.755   2.884   5.794
 4174SOL     OW13420   4.983   1.665   2.687
 4174SOL    HW113421   4.967   1.572   2.719
 4174SOL    HW213422   4.896   1.715   2.686
 4175SOL     OW13423   1.607   4.464   4.927
 4175SOL    HW113424   1.663   4.381   4.928
 4175SOL    HW213425   1.644   4.531   4.991
 4176SOL     OW13426   4.043   6.461   1.472
 4176SOL    HW113427   4.038   6.405   1.555
 4176SOL    HW213428   4.038   6.401   1.392
 4177SOL     OW13429   5.303   4.231   4.978
 4177SOL    HW113430   5.320   4.136   4.955
 4177SOL    HW213431   5.205   4.251   4.968
 4178SOL     OW13432   4.746   0.257   2.892
 4178SOL    HW113433   4.774   0.310   2.812
 4178SOL    HW213434   4.811   0.271   2.967
 4179SOL     OW13435   5.332   3.985   3.459
 4179SOL    HW113436   5.418   4.015   3.416
 4179SOL    HW213437   5.320   3.887   3.443
 4180SOL     OW13438   4.901   2.658   0.946
 4180SOL    HW113439   4.958   2.730   0.906
 4180SOL    HW213440   4.859   2.604   0.872
 4181SOL     OW13441   5.203   1.257   6.824
 4181SOL    HW113442   5.301   1.240   6.829
 4181SOL    HW213443   5.156   1.200   6.891
 4182SOL     OW13444   0.543   5.195   3.359
 4182SOL    HW113445   0.460   5.166   3.408
 4182SOL    HW213446   0.599   5.114   3.338
 4183SOL     OW13447   2.819   1.143   0.476
 4183SOL    HW113448   2.771   1.076   0.420
 4183SOL    HW213449   2.907   1.105   0.505
 4184SOL     OW13450   3.593   0.298   2.380
 4184SOL    HW113451   3.510   0.242   2.383
 4184SOL    HW213452   3.605   0.334   2.288
 4185SOL     OW13453   0.897   4.065   2.778
 4185SOL    HW113454   0.959   4.028   2.848
 4185SOL    HW213455   0.919   4.023   2.689
 4186SOL     OW13456   2.457   5.926   6.461
 4186SOL    HW113457   2.510   5.941   6.545
 4186SOL    HW213458   2.420   5.833   6.460
 4187SOL     OW13459   2.569   3.238   6.579
 4187SOL    HW113460   2.661   3.205   6.600
 4187SOL    HW213461   2.538   3.299   6.652
 4188SOL     OW13462   5.241   1.022   5.016
 4188SOL    HW113463   5.290   1.107   4.993
 4188SOL    HW213464   5.168   1.007   4.949
 4189SOL     OW13465   3.655   5.095   4.244
 4189SOL    HW113466   3.566   5.064   4.277
 4189SOL    HW213467   3.682   5.040   4.165
 4190SOL     OW13468   0.477   6.839   0.599
 4190SOL    HW113469   0.527   6.819   0.514
 4190SOL    HW213470   0.501   6.930   0.631
 4191SOL     OW13471   5.286   3.500   5.276
 4191SOL    HW113472   5.349   3.552   5.219
 4191SOL    HW213473   5.196   3.497   5.232
 4192SOL     OW13474   1.293   1.835   2.101
 4192SOL    HW113475   1.348   1.752   2.095
 4192SOL    HW213476   1.209   1.823   2.048
 4193SOL     OW13477   5.181   0.563   0.808
 4193SOL    HW113478   5.162   0.495   0.737
 4193SOL    HW213479   5.148   0.530   0.896
 4194SOL     OW13480   5.222   0.256   4.116
 4194SOL    HW113481   5.197   0.345   4.079
 4194SOL    HW213482   5.315   0.232   4.085
 4195SOL     OW13483   4.176   5.032   1.593
 4195SOL    HW113484   4.228   5.033   1.679
 4195SOL    HW213485   4.083   5.064   1.611
 4196SOL     OW13486   6.896   2.138   2.933
 4196SOL    HW113487   6.953   2.167   3.010
 4196SOL    HW213488   6.824   2.206   2.918
 4197SOL     OW13489   4.411   5.266   5.468
 4197SOL    HW113490   4.396   5.275   5.566
 4197SOL    HW213491   4.455   5.349   5.433
 4198SOL     OW13492   6.719   1.466   1.333
 4198SOL    HW113493   6.757   1.380   1.298
 4198SOL    HW213494   6.703   1.458   1.431
 4199SOL     OW13495   1.073   2.387   5.306
 4199SOL    HW113496   1.032   2.307   5.350
 4199SOL    HW213497   1.149   2.420   5.362
 4200SOL     OW13498   2.791   0.512   6.211
 4200SOL    HW113499   2.891   0.505   6.216
 4200SOL    HW213500   2.766   0.595   6.160
 4201SOL     OW13501   6.308   0.298   3.639
 4201SOL    HW113502   6.255   0.363   3.694
 4201SOL    HW213503   6.366   0.349   3.576
 4202SOL     OW13504   2.230   5.493   6.413
 4202SOL    HW113505   2.221   5.398   6.446
 4202SOL    HW213506   2.270   5.493   6.321
 4203SOL     OW13507   5.119   4.470   0.588
 4203SOL    HW113508   5.066   4.444   0.669
 4203SOL    HW213509   5.112   4.397   0.520
 4204SOL     OW13510   3.953   3.598   4.804
 4204SOL    HW113511   4.004   3.623   4.886
 4204SOL    HW213512   3.983   3.654   4.727
 4205SOL     OW13513   4.260   6.081   4.945
 4205SOL    HW113514   4.162   6.087   4.964
 4205SOL    HW213515   4.281   6.130   4.861
 4206SOL     OW13516   6.363   1.839   5.356
 4206SOL    HW113517   6.289   1.832   5.289
 4206SOL    HW213518   6.325   1.830   5.448
 4207SOL     OW13519   2.157   2.822   2.004
 4207SOL    HW113520   2.182   2.903   1.950
 4207SOL    HW213521   2.183   2.837   2.099
 4208SOL     OW13522   0.022   3.754   5.770
 4208SOL    HW113523   6.991   3.831   5.737
 4208SOL    HW213524   0.104   3.789   5.816
 4209SOL     OW13525   0.138   6.313   3.287
 4209SOL    HW113526   0.095   6.250   3.222
 4209SOL    HW213527   0.119   6.407   3.259
 4210SOL     OW13528   3.571   2.882   2.552
 4210SOL    HW113529   3.663   2.917   2.566
 4210SOL    HW213530   3.531   2.855   2.640
 4211SOL     OW13531   3.624   0.559   5.396
 4211SOL    HW113532   3.647   0.608   5.312
 4211SOL    HW213533   3.570   0.478   5.374
 4212SOL     OW13534   6.404   2.073   3.154
 4212SOL    HW113535   6.497   2.036   3.165
 4212SOL    HW213536   6.398   2.123   3.068
 4213SOL     OW13537   2.867   0.204   2.624
 4213SOL    HW113538   2.959   0.234   2.649
 4213SOL    HW213539   2.843   0.241   2.534
 4214SOL     OW13540   0.376   5.679   5.386
 4214SOL    HW113541   0.327   5.627   5.316
 4214SOL    HW213542   0.448   5.622   5.426
 4215SOL     OW13543   5.075   6.928   5.119
 4215SOL    HW113544   5.173   6.915   5.136
 4215SOL    HW213545   5.026   6.844   5.145
 4216SOL     OW13546   1.521   1.187   2.845
 4216SOL    HW113547   1.561   1.247   2.914
 4216SOL    HW213548   1.571   1.100   2.843
 4217SOL     OW13549   1.005   0.884   2.718
 4217SOL    HW113550   1.013   0.933   2.805
 4217SOL    HW213551   1.008   0.785   2.734
 4218SOL     OW13552   3.311   0.510   1.554
 4218SOL    HW113553   3.216   0.537   1.538
 4218SOL    HW213554   3.368   0.592   1.567
 4219SOL     OW13555   4.302   5.864   4.317
 4219SOL    HW113556   4.364   5.796   4.356
 4219SOL    HW213557   4.288   5.938   4.383
 4220SOL     OW13558   6.342   3.498   2.007
 4220SOL    HW113559   6.338   3.539   2.098
 4220SOL    HW213560   6.436   3.467   1.988
 4221SOL     OW13561   5.837   4.068   5.420
 4221SOL    HW113562   5.895   4.100   5.495
 4221SOL    HW213563   5.774   4.141   5.393
 4222SOL     OW13564   6.709   0.813   2.807
 4222SOL    HW113565   6.621   0.849   2.837
 4222SOL    HW213566   6.761   0.782   2.886
 4223SOL     OW13567   3.769   3.704   0.659
 4223SOL    HW113568   3.708   3.741   0.729
 4223SOL    HW213569   3.758   3.605   0.654
 4224SOL     OW13570   5.586   5.111   4.487
 4224SOL    HW113571   5.505   5.166   4.467
 4224SOL    HW213572   5.588   5.088   4.585
 4225SOL     OW13573   1.959   2.732   5.074
 4225SOL    HW113574   2.020   2.798   5.117
 4225SOL    HW213575   1.949   2.652   5.133
 4226SOL     OW13576   1.077   6.094   2.863
 4226SOL    HW113577   1.008   6.040   2.910
 4226SOL    HW213578   1.051   6.104   2.767
 4227SOL     OW13579   3.679   5.555   2.050
 4227SOL    HW113580   3.582   5.536   2.064
 4227SOL    HW213581   3.731   5.469   2.057
 4228SOL     OW13582   0.636   6.472   5.749
 4228SOL    HW113583   0.607   6.565   5.724
 4228SOL    HW213584   0.686   6.475   5.835
 4229SOL     OW13585   4.948   5.971   5.878
 4229SOL    HW113586   4.932   5.973   5.977
 4229SOL    HW213587   4.958   6.064   5.844
 4230SOL     OW13588   1.971   6.371   3.160
 4230SOL    HW113589   1.903   6.404   3.225
 4230SOL    HW213590   1.948   6.277   3.134
 4231SOL     OW13591   5.075   6.870   5.913
 4231SOL    HW113592   4.988   6.835   5.879
 4231SOL    HW213593   5.138   6.881   5.836
 4232SOL     OW13594   1.346   4.391   3.231
 4232SOL    HW113595   1.423   4.410   3.170
 4232SOL    HW213596   1.331   4.293   3.236
 4233SOL     OW13597   6.296   0.713   5.151
 4233SOL    HW113598   6.308   0.804   5.110
 4233SOL    HW213599   6.198   0.693   5.158
 4234SOL     OW13600   1.989   5.197   5.140
 4234SOL    HW113601   2.033   5.202   5.229
 4234SOL    HW213602   1.903   5.247   5.142
 4235SOL     OW13603   6.671   4.310   5.891
 4235SOL    HW113604   6.660   4.230   5.950
 4235SOL    HW213605   6.647   4.286   5.798
 4236SOL     OW13606   6.048   3.740   2.248
 4236SOL    HW113607   5.990   3.668   2.211
 4236SOL    HW213608   6.008   3.830   2.228
 4237SOL     OW13609   6.055   5.228   3.991
 4237SOL    HW113610   6.139   5.175   3.999
 4237SOL    HW213611   6.020   5.223   3.898
 4238SOL     OW13612   1.477   6.688   3.176
 4238SOL    HW113613   1.443   6.757   3.112
 4238SOL    HW213614   1.405   6.622   3.195
 4239SOL     OW13615   4.795   1.682   3.350
 4239SOL    HW113616   4.797   1.713   3.255
 4239SOL    HW213617   4.701   1.685   3.384
 4240SOL     OW13618   2.261   5.699   0.417
 4240SOL    HW113619   2.289   5.764   0.488
 4240SOL    HW213620   2.273   5.605   0.451
 4241SOL     OW13621   5.701   1.331   1.016
 4241SOL    HW113622   5.709   1.346   0.918
 4241SOL    HW213623   5.775   1.379   1.063
 4242SOL     OW13624   3.221   2.130   3.856
 4242SOL    HW113625   3.253   2.037   3.834
 4242SOL    HW213626   3.300   2.187   3.881
 4243SOL     OW13627   5.699   2.454   3.130
 4243SOL    HW113628   5.669   2.542   3.168
 4243SOL    HW213629   5.771   2.416   3.188
 4244SOL     OW13630   4.347   4.245   1.339
 4244SOL    HW113631   4.412   4.173   1.364
 4244SOL    HW213632   4.335   4.307   1.416
 4245SOL     OW13633   6.301   1.677   6.071
 4245SOL    HW113634   6.380   1.652   6.128
 4245SOL    HW213635   6.218   1.641   6.112
 4246SOL     OW13636   6.495   3.641   2.815
 4246SOL    HW113637   6.547   3.620   2.898
 4246SOL    HW213638   6.495   3.739   2.800
 4247SOL     OW13639   2.295   5.888   3.540
 4247SOL    HW113640   2.242   5.821   3.593
 4247SOL    HW213641   2.389   5.857   3.531
 4248SOL     OW13642   3.478   1.574   4.134
 4248SOL    HW113643   3.561   1.529   4.102
 4248SOL    HW213644   3.399   1.535   4.088
 4249SOL     OW13645   6.646   2.757   5.244
 4249SOL    HW113646   6.645   2.857   5.243
 4249SOL    HW213647   6.738   2.725   5.224
 4250SOL     OW13648   6.461   4.368   2.690
 4250SOL    HW113649   6.435   4.461   2.662
 4250SOL    HW213650   6.554   4.349   2.659
 4251SOL     OW13651   6.052   4.640   1.008
 4251SOL    HW113652   5.990   4.678   1.076
 4251SOL    HW213653   6.087   4.552   1.040
 4252SOL     OW13654   5.784   6.567   5.066
 4252SOL    HW113655   5.728   6.524   4.995
 4252SOL    HW213656   5.776   6.667   5.058
 4253SOL     OW13657   3.308   6.912   1.094
 4253SOL    HW113658   3.324   6.824   1.048
 4253SOL    HW213659   3.224   6.953   1.059
 4254SOL     OW13660   0.831   2.651   2.626
 4254SOL    HW113661   0.910   2.706   2.598
 4254SOL    HW213662   0.823   2.572   2.564
 4255SOL     OW13663   5.694   3.618   3.431
 4255SOL    HW113664   5.720   3.711   3.457
 4255SOL    HW213665   5.615   3.622   3.370
 4256SOL     OW13666   1.464   0.053   0.824
 4256SOL    HW113667   1.495   0.006   0.907
 4256SOL    HW213668   1.376   0.017   0.795
 4257SOL     OW13669   3.532   0.531   4.107
 4257SOL    HW113670   3.598   0.497   4.175
 4257SOL    HW213671   3.457   0.466   4.098
 4258SOL     OW13672   5.468   5.903   1.663
 4258SOL    HW113673   5.546   5.945   1.709
 4258SOL    HW213674   5.403   5.975   1.636
 4259SOL     OW13675   2.753   1.053   6.997
 4259SOL    HW113676   2.673   1.002   6.963
 4259SOL    HW213677   2.835   0.998   6.984
 4260SOL     OW13678   4.705   0.061   6.184
 4260SOL    HW113679   4.715   0.077   6.283
 4260SOL    HW213680   4.613   0.088   6.156
 4261SOL     OW13681   1.948   0.414   1.689
 4261SOL    HW113682   1.850   0.435   1.694
 4261SOL    HW213683   1.999   0.482   1.742
 4262SOL     OW13684   0.332   4.309   5.514
 4262SOL    HW113685   0.297   4.347   5.429
 4262SOL    HW213686   0.427   4.278   5.500
 4263SOL     OW13687   2.996   6.602   3.584
 4263SOL    HW113688   2.968   6.514   3.624
 4263SOL    HW213689   2.958   6.609   3.491
 4264SOL     OW13690   0.228   2.395   2.700
 4264SOL    HW113691   0.297   2.333   2.664
 4264SOL    HW213692   0.265   2.446   2.777
 4265SOL     OW13693   5.435   1.564   0.612
 4265SOL    HW113694   5.515   1.545   0.668
 4265SOL    HW213695   5.464   1.593   0.521
 4266SOL     OW13696   2.017   5.019   0.233
 4266SOL    HW113697   2.063   5.084   0.294
 4266SOL    HW213698   1.920   5.042   0.226
 4267SOL     OW13699   1.833   3.482   4.870
 4267SOL    HW113700   1.733   3.481   4.865
 4267SOL    HW213701   1.865   3.577   4.864
 4268SOL     OW13702   1.002   6.360   6.433
 4268SOL    HW113703   1.031   6.314   6.516
 4268SOL    HW213704   0.926   6.421   6.453
 4269SOL     OW13705   2.221   1.256   1.715
 4269SOL    HW113706   2.197   1.180   1.776
 4269SOL    HW213707   2.308   1.295   1.743
 4270SOL     OW13708   3.774   3.670   3.780
 4270SOL    HW113709   3.845   3.609   3.744
 4270SOL    HW213710   3.817   3.737   3.842
 4271SOL     OW13711   0.322   1.178   6.832
 4271SOL    HW113712   0.262   1.176   6.913
 4271SOL    HW213713   0.330   1.272   6.799
 4272SOL     OW13714   0.346   3.722   5.010
 4272SOL    HW113715   0.361   3.689   4.917
 4272SOL    HW213716   0.358   3.646   5.074
 4273SOL     OW13717   4.596   5.851   5.379
 4273SOL    HW113718   4.517   5.910   5.366
 4273SOL    HW213719   4.663   5.895   5.437
 4274SOL     OW13720   1.766   0.319   2.041
 4274SOL    HW113721   1.681   0.371   2.049
 4274SOL    HW213722   1.768   0.271   1.954
 4275SOL     OW13723   6.457   1.043   4.980
 4275SOL    HW113724   6.395   0.980   4.933
 4275SOL    HW213725   6.527   0.990   5.029
 4276SOL     OW13726   1.744   4.495   3.993
 4276SOL    HW113727   1.816   4.426   3.989
 4276SOL    HW213728   1.747   4.540   4.082
 4277SOL     OW13729   6.135   4.938   4.282
 4277SOL    HW113730   6.038   4.917   4.270
 4277SOL    HW213731   6.171   4.889   4.361
 4278SOL     OW13732   0.250   0.759   4.681
 4278SOL    HW113733   0.299   0.799   4.758
 4278SOL    HW213734   0.261   0.816   4.600
 4279SOL     OW13735   3.651   0.423   5.119
 4279SOL    HW113736   3.726   0.488   5.110
 4279SOL    HW213737   3.576   0.450   5.060
 4280SOL     OW13738   5.298   0.808   5.665
 4280SOL    HW113739   5.340   0.726   5.704
 4280SOL    HW213740   5.338   0.828   5.576
 4281SOL     OW13741   1.460   5.184   3.993
 4281SOL    HW113742   1.474   5.224   4.083
 4281SOL    HW213743   1.532   5.118   3.973
 4282SOL     OW13744   3.564   3.659   6.462
 4282SOL    HW113745   3.522   3.643   6.373
 4282SOL    HW213746   3.654   3.701   6.449
 4283SOL     OW13747   2.435   0.937   3.572
 4283SOL    HW113748   2.390   0.916   3.659
 4283SOL    HW213749   2.488   0.858   3.542
 4284SOL     OW13750   4.442   5.451   1.444
 4284SOL    HW113751   4.531   5.413   1.418
 4284SOL    HW213752   4.453   5.547   1.471
 4285SOL     OW13753   0.829   0.762   5.962
 4285SOL    HW113754   0.916   0.726   5.993
 4285SOL    HW213755   0.771   0.783   6.041
 4286SOL     OW13756   4.706   5.918   6.554
 4286SOL    HW113757   4.614   5.955   6.544
 4286SOL    HW213758   4.770   5.974   6.500
 4287SOL     OW13759   5.606   1.495   6.637
 4287SOL    HW113760   5.548   1.478   6.557
 4287SOL    HW213761   5.647   1.408   6.666
 4288SOL     OW13762   1.121   6.100   3.280
 4288SOL    HW113763   1.049   6.031   3.280
 4288SOL    HW213764   1.147   6.121   3.374
 4289SOL     OW13765   6.752   3.104   0.776
 4289SOL    HW113766   6.834   3.088   0.721
 4289SOL    HW213767   6.728   3.021   0.825
 4290SOL     OW13768   2.525   7.007   2.901
 4290SOL    HW113769   2.470   0.022   2.974
 4290SOL    HW213770   2.619   6.993   2.933
 4291SOL     OW13771   3.967   3.707   1.070
 4291SOL    HW113772   4.018   3.621   1.063
 4291SOL    HW213773   3.872   3.688   1.097
 4292SOL     OW13774   6.277   4.393   6.517
 4292SOL    HW113775   6.284   4.437   6.427
 4292SOL    HW213776   6.220   4.312   6.510
 4293SOL     OW13777   0.739   3.432   0.708
 4293SOL    HW113778   0.776   3.392   0.625
 4293SOL    HW213779   0.814   3.468   0.765
 4294SOL     OW13780   3.094   2.686   0.145
 4294SOL    HW113781   2.997   2.666   0.132
 4294SOL    HW213782   3.148   2.630   0.082
 4295SOL     OW13783   4.062   6.006   4.631
 4295SOL    HW113784   3.975   5.960   4.614
 4295SOL    HW213785   4.119   5.948   4.689
 4296SOL     OW13786   3.974   0.668   0.468
 4296SOL    HW113787   4.025   0.752   0.486
 4296SOL    HW213788   3.994   0.601   0.538
 4297SOL     OW13789   5.441   1.087   6.771
 4297SOL    HW113790   5.383   1.019   6.817
 4297SOL    HW213791   5.516   1.114   6.832
 4298SOL     OW13792   3.084   5.688   0.191
 4298SOL    HW113793   3.162   5.751   0.191
 4298SOL    HW213794   3.010   5.726   0.135
 4299SOL     OW13795   1.131   2.883   0.452
 4299SOL    HW113796   1.142   2.806   0.515
 4299SOL    HW213797   1.189   2.868   0.372
 4300SOL     OW13798   3.560   0.716   0.257
 4300SOL    HW113799   3.486   0.656   0.287
 4300SOL    HW213800   3.530   0.811   0.262
 4301SOL     OW13801   3.266   1.751   0.797
 4301SOL    HW113802   3.326   1.674   0.816
 4301SOL    HW213803   3.257   1.764   0.699
 4302SOL     OW13804   1.306   6.647   5.585
 4302SOL    HW113805   1.335   6.603   5.500
 4302SOL    HW213806   1.383   6.652   5.648
 4303SOL     OW13807   6.060   4.585   4.088
 4303SOL    HW113808   5.982   4.643   4.064
 4303SOL    HW213809   6.140   4.613   4.035
 4304SOL     OW13810   3.075   4.033   3.448
 4304SOL    HW113811   3.172   4.052   3.431
 4304SOL    HW213812   3.049   3.950   3.398
 4305SOL     OW13813   6.462   0.866   4.463
 4305SOL    HW113814   6.526   0.898   4.532
 4305SOL    HW213815   6.378   0.834   4.507
 4306SOL     OW13816   6.317   3.556   6.786
 4306SOL    HW113817   6.405   3.596   6.811
 4306SOL    HW213818   6.329   3.459   6.766
 4307SOL     OW13819   4.682   3.480   6.062
 4307SOL    HW113820   4.683   3.526   6.151
 4307SOL    HW213821   4.589   3.479   6.026
 4308SOL     OW13822   5.547   5.844   6.196
 4308SOL    HW113823   5.482   5.768   6.199
 4308SOL    HW213824   5.586   5.858   6.288
 4309SOL     OW13825   1.393   1.672   0.476
 4309SOL    HW113826   1.309   1.619   0.479
 4309SOL    HW213827   1.379   1.760   0.519
 4310SOL     OW13828   1.521   2.463   3.259
 4310SOL    HW113829   1.476   2.379   3.229
 4310SOL    HW213830   1.515   2.532   3.187
 4311SOL     OW13831   1.638   6.045   3.522
 4311SOL    HW113832   1.650   5.998   3.434
 4311SOL    HW213833   1.625   5.978   3.595
 4312SOL     OW13834   1.296   4.904   0.593
 4312SOL    HW113835   1.330   4.817   0.560
 4312SOL    HW213836   1.298   4.905   0.693
 4313SOL     OW13837   5.007   1.380   1.281
 4313SOL    HW113838   5.039   1.286   1.289
 4313SOL    HW213839   4.912   1.386   1.312
 4314SOL     OW13840   5.948   1.826   4.147
 4314SOL    HW113841   5.953   1.801   4.050
 4314SOL    HW213842   5.882   1.899   4.159
 4315SOL     OW13843   2.660   6.896   2.265
 4315SOL    HW113844   2.707   6.825   2.318
 4315SOL    HW213845   2.708   6.909   2.178
 4316SOL     OW13846   4.980   6.905   1.326
 4316SOL    HW113847   5.020   6.973   1.263
 4316SOL    HW213848   5.005   6.813   1.295
 4317SOL     OW13849   4.408   1.874   4.884
 4317SOL    HW113850   4.394   1.943   4.813
 4317SOL    HW213851   4.356   1.897   4.966
 4318SOL     OW13852   1.196   3.326   3.714
 4318SOL    HW113853   1.201   3.377   3.799
 4318SOL    HW213854   1.147   3.240   3.729
 4319SOL     OW13855   2.016   2.866   0.106
 4319SOL    HW113856   1.981   2.880   0.013
 4319SOL    HW213857   1.952   2.906   0.171
 4320SOL     OW13858   0.002   5.877   2.439
 4320SOL    HW113859   6.942   5.860   2.490
 4320SOL    HW213860   7.007   5.930   2.357
 4321SOL     OW13861   6.622   6.752   4.808
 4321SOL    HW113862   6.667   6.663   4.808
 4321SOL    HW213863   6.538   6.747   4.862
 4322SOL     OW13864   5.889   1.857   6.584
 4322SOL    HW113865   5.892   1.956   6.573
 4322SOL    HW213866   5.808   1.832   6.636
 4323SOL     OW13867   5.017   4.102   1.326
 4323SOL    HW113868   5.077   4.027   1.355
 4323SOL    HW213869   4.965   4.135   1.405
 4324SOL     OW13870   5.692   3.818   6.420
 4324SOL    HW113871   5.723   3.747   6.484
 4324SOL    HW213872   5.656   3.896   6.472
 4325SOL     OW13873   2.267   0.832   1.091
 4325SOL    HW113874   2.366   0.839   1.091
 4325SOL    HW213875   2.228   0.908   1.143
 4326SOL     OW13876   5.733   3.357   4.983
 4326SOL    HW113877   5.749   3.357   5.082
 4326SOL    HW213878   5.729   3.263   4.950
 4327SOL     OW13879   6.355   5.203   2.136
 4327SOL    HW113880   6.263   5.208   2.175
 4327SOL    HW213881   6.350   5.173   2.041
 4328SOL     OW13882   3.761   3.487   6.068
 4328SOL    HW113883   3.735   3.435   6.149
 4328SOL    HW213884   3.822   3.562   6.094
 4329SOL     OW13885   4.138   1.704   6.048
 4329SOL    HW113886   4.090   1.772   5.992
 4329SOL    HW213887   4.163   1.744   6.136
 4330SOL     OW13888   2.775   0.750   4.994
 4330SOL    HW113889   2.718   0.830   4.976
 4330SOL    HW213890   2.726   0.667   4.967
 4331SOL     OW13891   4.981   3.086   0.774
 4331SOL    HW113892   4.893   3.096   0.819
 4331SOL    HW213893   4.968   3.076   0.675
 4332SOL     OW13894   5.139   4.880   2.495
 4332SOL    HW113895   5.233   4.860   2.522
 4332SOL    HW213896   5.117   4.828   2.412
 4333SOL     OW13897   4.340   0.712   5.347
 4333SOL    HW113898   4.343   0.622   5.303
 4333SOL    HW213899   4.292   0.705   5.434
 4334SOL     OW13900   1.804   1.827   2.705
 4334SOL    HW113901   1.778   1.916   2.743
 4334SOL    HW213902   1.903   1.817   2.708
 4335SOL     OW13903   3.474   3.922   2.953
 4335SOL    HW113904   3.442   4.001   2.901
 4335SOL    HW213905   3.563   3.942   2.993
 4336SOL     OW13906   1.152   6.701   6.266
 4336SOL    HW113907   1.132   6.607   6.239
 4336SOL    HW213908   1.183   6.703   6.361
 4337SOL     OW13909   0.970   4.343   0.803
 4337SOL    HW113910   0.896   4.390   0.850
 4337SOL    HW213911   1.014   4.405   0.738
 4338SOL     OW13912   4.791   5.834   4.293
 4338SOL    HW113913   4.783   5.738   4.266
 4338SOL    HW213914   4.786   5.892   4.211
 4339SOL     OW13915   6.661   3.505   5.567
 4339SOL    HW113916   6.705   3.416   5.552
 4339SOL    HW213917   6.627   3.509   5.661
 4340SOL     OW13918   6.489   4.727   1.716
 4340SOL    HW113919   6.412   4.720   1.654
 4340SOL    HW213920   6.460   4.771   1.801
 4341SOL     OW13921   0.670   5.712   2.443
 4341SOL    HW113922   0.663   5.715   2.542
 4341SOL    HW213923   0.666   5.616   2.413
 4342SOL     OW13924   6.362   3.743   4.215
 4342SOL    HW113925   6.278   3.715   4.261
 4342SOL    HW213926   6.422   3.663   4.205
 4343SOL     OW13927   2.303   6.280   6.331
 4343SOL    HW113928   2.380   6.302   6.271
 4343SOL    HW213929   2.333   6.284   6.427
 4344SOL     OW13930   1.720   5.288   3.251
 4344SOL    HW113931   1.745   5.225   3.177
 4344SOL    HW213932   1.774   5.267   3.332
 4345SOL     OW13933   2.139   2.909   5.157
 4345SOL    HW113934   2.212   2.966   5.121
 4345SOL    HW213935   2.176   2.843   5.222
 4346SOL     OW13936   1.814   3.295   2.140
 4346SOL    HW113937   1.859   3.331   2.059
 4346SOL    HW213938   1.820   3.363   2.214
 4347SOL     OW13939   5.953   7.021   2.935
 4347SOL    HW113940   5.899   6.990   2.857
 4347SOL    HW213941   5.891   0.023   3.010
 4348SOL     OW13942   6.808   4.306   2.959
 4348SOL    HW113943   6.869   4.242   3.006
 4348SOL    HW213944   6.765   4.366   3.026
 4349SOL     OW13945   6.776   2.431   2.434
 4349SOL    HW113946   6.875   2.415   2.426
 4349SOL    HW213947   6.730   2.397   2.352
 4350SOL     OW13948   5.313   1.984   3.978
 4350SOL    HW113949   5.268   1.915   4.035
 4350SOL    HW213950   5.307   1.957   3.882
 4351SOL     OW13951   1.790   6.695   1.288
 4351SOL    HW113952   1.819   6.788   1.266
 4351SOL    HW213953   1.868   6.633   1.281
 4352SOL     OW13954   0.546   2.953   2.744
 4352SOL    HW113955   0.508   2.969   2.654
 4352SOL    HW213956   0.538   2.856   2.767
 4353SOL     OW13957   3.347   3.644   0.061
 4353SOL    HW113958   3.444   3.625   0.072
 4353SOL    HW213959   3.298   3.558   0.043
 4354SOL     OW13960   2.350   6.802   6.247
 4354SOL    HW113961   2.418   6.730   6.238
 4354SOL    HW213962   2.304   6.816   6.160
 4355SOL     OW13963   3.407   0.258   2.685
 4355SOL    HW113964   3.431   0.354   2.672
 4355SOL    HW213965   3.444   0.227   2.773
 4356SOL     OW13966   5.084   4.295   1.122
 4356SOL    HW113967   5.053   4.263   1.032
 4356SOL    HW213968   5.068   4.223   1.190
 4357SOL     OW13969   5.881   0.454   0.165
 4357SOL    HW113970   5.820   0.475   0.088
 4357SOL    HW213971   5.958   0.400   0.132
 4358SOL     OW13972   0.166   6.042   6.962
 4358SOL    HW113973   0.151   6.103   0.015
 4358SOL    HW213974   0.112   6.072   6.884
 4359SOL     OW13975   2.063   1.998   5.976
 4359SOL    HW113976   2.098   1.904   5.975
 4359SOL    HW213977   2.137   2.061   5.954
 4360SOL     OW13978   1.213   2.481   4.019
 4360SOL    HW113979   1.194   2.540   4.098
 4360SOL    HW213980   1.256   2.535   3.947
 4361SOL     OW13981   2.577   3.173   1.306
 4361SOL    HW113982   2.529   3.090   1.278
 4361SOL    HW213983   2.645   3.197   1.237
 4362SOL     OW13984   6.247   4.582   2.972
 4362SOL    HW113985   6.229   4.585   3.070
 4362SOL    HW213986   6.330   4.635   2.952
 4363SOL     OW13987   5.032   2.852   0.048
 4363SOL    HW113988   5.015   2.788   0.123
 4363SOL    HW213989   4.947   2.896   0.021
 4364SOL     OW13990   3.428   3.422   5.418
 4364SOL    HW113991   3.412   3.448   5.323
 4364SOL    HW213992   3.396   3.329   5.434
 4365SOL     OW13993   2.235   2.265   2.092
 4365SOL    HW113994   2.179   2.245   2.012
 4365SOL    HW213995   2.177   2.278   2.172
 4366SOL     OW13996   5.817   6.098   0.367
 4366SOL    HW113997   5.746   6.168   0.374
 4366SOL    HW213998   5.888   6.128   0.304
 4367SOL     OW13999   1.849   4.726   4.780
 4367SOL    HW114000   1.832   4.694   4.873
 4367SOL    HW214001   1.930   4.681   4.743
 4368SOL     OW14002   4.201   4.556   0.928
 4368SOL    HW114003   4.229   4.502   0.849
 4368SOL    HW214004   4.228   4.510   1.012
 4369SOL     OW14005   3.551   5.580   3.973
 4369SOL    HW114006   3.568   5.583   3.874
 4369SOL    HW214007   3.630   5.541   4.019
 4370SOL     OW14008   4.824   5.189   2.970
 4370SOL    HW114009   4.906   5.133   2.959
 4370SOL    HW214010   4.777   5.195   2.882
 4371SOL     OW14011   0.477   1.228   1.436
 4371SOL    HW114012   0.565   1.274   1.451
 4371SOL    HW214013   0.449   1.243   1.341
 4372SOL     OW14014   4.144   1.176   2.925
 4372SOL    HW114015   4.096   1.091   2.946
 4372SOL    HW214016   4.159   1.228   3.010
 4373SOL     OW14017   0.335   2.206   7.013
 4373SOL    HW114018   0.284   2.214   0.074
 4373SOL    HW214019   0.423   2.253   7.022
 4374SOL     OW14020   1.159   2.165   2.197
 4374SOL    HW114021   1.204   2.083   2.233
 4374SOL    HW214022   1.224   2.216   2.140
 4375SOL     OW14023   3.714   0.770   3.203
 4375SOL    HW114024   3.654   0.690   3.192
 4375SOL    HW214025   3.755   0.793   3.115
 4376SOL     OW14026   6.490   6.802   2.718
 4376SOL    HW114027   6.554   6.834   2.648
 4376SOL    HW214028   6.422   6.873   2.735
 4377SOL     OW14029   5.422   4.388   0.328
 4377SOL    HW114030   5.422   4.293   0.358
 4377SOL    HW214031   5.439   4.448   0.406
 4378SOL     OW14032   2.078   1.296   2.806
 4378SOL    HW114033   1.991   1.329   2.843
 4378SOL    HW214034   2.141   1.372   2.797
 4379SOL     OW14035   1.895   1.126   2.661
 4379SOL    HW114036   1.960   1.191   2.701
 4379SOL    HW214037   1.829   1.176   2.604
 4380SOL     OW14038   1.785   7.006   2.821
 4380SOL    HW114039   1.818   0.069   2.785
 4380SOL    HW214040   1.798   6.934   2.753
 4381SOL     OW14041   0.322   6.272   5.336
 4381SOL    HW114042   0.362   6.362   5.317
 4381SOL    HW214043   0.375   6.202   5.287
 4382SOL     OW14044   1.103   3.438   5.191
 4382SOL    HW114045   1.069   3.345   5.207
 4382SOL    HW214046   1.198   3.444   5.221
 4383SOL     OW14047   0.686   3.065   6.941
 4383SOL    HW114048   0.730   3.066   6.851
 4383SOL    HW214049   0.588   3.083   6.930
 4384SOL     OW14050   6.034   0.400   4.894
 4384SOL    HW114051   6.057   0.471   4.829
 4384SOL    HW214052   6.114   0.343   4.912
 4385SOL     OW14053   4.869   2.847   5.157
 4385SOL    HW114054   4.784   2.794   5.151
 4385SOL    HW214055   4.856   2.936   5.113
 4386SOL     OW14056   2.179   3.407   5.887
 4386SOL    HW114057   2.111   3.472   5.852
 4386SOL    HW214058   2.264   3.455   5.908
 4387SOL     OW14059   6.545   2.890   1.477
 4387SOL    HW114060   6.642   2.871   1.490
 4387SOL    HW214061   6.533   2.944   1.393
 4388SOL     OW14062   4.289   2.141   5.653
 4388SOL    HW114063   4.277   2.180   5.745
 4388SOL    HW214064   4.341   2.056   5.660
 4389SOL     OW14065   6.631   3.504   1.084
 4389SOL    HW114066   6.541   3.526   1.121
 4389SOL    HW214067   6.660   3.414   1.116
 4390SOL     OW14068   3.918   6.947   1.498
 4390SOL    HW114069   3.982   6.872   1.517
 4390SOL    HW214070   3.857   6.959   1.576
 4391SOL     OW14071   2.236   5.551   0.023
 4391SOL    HW114072   2.246   5.531   6.950
 4391SOL    HW214073   2.139   5.550   0.047
 4392SOL     OW14074   1.099   2.511   5.054
 4392SOL    HW114075   1.109   2.467   5.143
 4392SOL    HW214076   1.182   2.495   4.999
 4393SOL     OW14077   6.270   0.828   1.660
 4393SOL    HW114078   6.192   0.770   1.685
 4393SOL    HW214079   6.354   0.786   1.693
 4394SOL     OW14080   6.689   5.630   2.450
 4394SOL    HW114081   6.745   5.650   2.531
 4394SOL    HW214082   6.714   5.541   2.414
 4395SOL     OW14083   1.750   0.678   1.823
 4395SOL    HW114084   1.809   0.641   1.894
 4395SOL    HW214085   1.806   0.716   1.749
 4396SOL     OW14086   1.790   1.413   3.896
 4396SOL    HW114087   1.745   1.384   3.812
 4396SOL    HW214088   1.749   1.366   3.974
 4397SOL     OW14089   1.628   2.566   4.062
 4397SOL    HW114090   1.554   2.504   4.090
 4397SOL    HW214091   1.691   2.517   4.002
 4398SOL     OW14092   1.561   3.464   5.981
 4398SOL    HW114093   1.540   3.554   5.941
 4398SOL    HW214094   1.485   3.401   5.964
 4399SOL     OW14095   3.525   5.958   2.567
 4399SOL    HW114096   3.563   6.040   2.524
 4399SOL    HW214097   3.521   5.884   2.501
 4400SOL     OW14098   2.391   6.883   4.652
 4400SOL    HW114099   2.416   6.938   4.732
 4400SOL    HW214100   2.420   6.789   4.666
 4401SOL     OW14101   3.101   6.865   5.556
 4401SOL    HW114102   3.072   6.957   5.528
 4401SOL    HW214103   3.170   6.872   5.627
 4402SOL     OW14104   1.517   0.008   2.899
 4402SOL    HW114105   1.609   7.005   2.870
 4402SOL    HW214106   1.513   0.108   2.908
 4403SOL     OW14107   1.023   6.798   0.109
 4403SOL    HW114108   0.985   6.891   0.119
 4403SOL    HW214109   1.021   6.772   0.013
 4404SOL     OW14110   1.333   6.183   5.920
 4404SOL    HW114111   1.330   6.119   5.997
 4404SOL    HW214112   1.410   6.161   5.860
 4405SOL     OW14113   1.941   4.716   1.768
 4405SOL    HW114114   1.870   4.710   1.697
 4405SOL    HW214115   1.988   4.628   1.774
 4406SOL     OW14116   0.672   2.806   0.580
 4406SOL    HW114117   0.582   2.851   0.578
 4406SOL    HW214118   0.723   2.838   0.660
 4407SOL     OW14119   6.862   5.474   1.501
 4407SOL    HW114120   6.826   5.389   1.538
 4407SOL    HW214121   6.955   5.459   1.466
 4408SOL     OW14122   2.215   0.230   0.260
 4408SOL    HW114123   2.278   0.223   0.182
 4408SOL    HW214124   2.153   0.152   0.259
 4409SOL     OW14125   4.522   1.405   1.680
 4409SOL    HW114126   4.546   1.461   1.601
 4409SOL    HW214127   4.564   1.315   1.671
 4410SOL     OW14128   0.659   5.067   0.130
 4410SOL    HW114129   0.749   5.046   0.092
 4410SOL    HW214130   0.666   5.146   0.190
 4411SOL     OW14131   3.800   4.184   4.975
 4411SOL    HW114132   3.844   4.264   4.932
 4411SOL    HW214133   3.859   4.104   4.963
 4412SOL     OW14134   4.936   6.311   4.184
 4412SOL    HW114135   5.013   6.374   4.200
 4412SOL    HW214136   4.956   6.255   4.103
 4413SOL     OW14137   5.491   5.412   3.758
 4413SOL    HW114138   5.559   5.484   3.771
 4413SOL    HW214139   5.504   5.341   3.827
 4414SOL     OW14140   3.076   5.902   1.263
 4414SOL    HW114141   2.984   5.870   1.282
 4414SOL    HW214142   3.084   5.926   1.166
 4415SOL     OW14143   4.688   3.369   6.985
 4415SOL    HW114144   4.599   3.340   6.951
 4415SOL    HW214145   4.680   3.393   0.058
 4416SOL     OW14146   4.126   1.985   4.076
 4416SOL    HW114147   4.176   2.035   4.147
 4416SOL    HW214148   4.160   1.891   4.073
 4417SOL     OW14149   5.717   3.932   4.018
 4417SOL    HW114150   5.642   3.904   4.077
 4417SOL    HW214151   5.762   4.012   4.057
 4418SOL     OW14152   6.404   1.962   2.826
 4418SOL    HW114153   6.473   2.034   2.821
 4418SOL    HW214154   6.320   1.993   2.780
 4419SOL     OW14155   6.470   0.377   5.387
 4419SOL    HW114156   6.520   0.376   5.473
 4419SOL    HW214157   6.380   0.419   5.400
 4420SOL     OW14158   4.035   1.763   1.876
 4420SOL    HW114159   4.039   1.803   1.967
 4420SOL    HW214160   3.941   1.765   1.842
 4421SOL     OW14161   2.015   1.754   4.947
 4421SOL    HW114162   2.043   1.825   5.011
 4421SOL    HW214163   2.086   1.684   4.941
 4422SOL     OW14164   1.076   4.737   6.758
 4422SOL    HW114165   1.001   4.671   6.754
 4422SOL    HW214166   1.140   4.711   6.830
 4423SOL     OW14167   0.226   4.080   5.614
 4423SOL    HW114168   0.133   4.052   5.588
 4423SOL    HW214169   0.248   4.167   5.568
 4424SOL     OW14170   5.569   0.253   4.300
 4424SOL    HW114171   5.505   0.329   4.285
 4424SOL    HW214172   5.557   0.219   4.394
 4425SOL     OW14173   3.244   4.800   0.334
 4425SOL    HW114174   3.187   4.720   0.314
 4425SOL    HW214175   3.203   4.881   0.290
 4426SOL     OW14176   0.305   1.230   4.074
 4426SOL    HW114177   0.312   1.329   4.074
 4426SOL    HW214178   0.310   1.196   3.980
 4427SOL     OW14179   5.554   6.963   2.785
 4427SOL    HW114180   5.595   6.873   2.795
 4427SOL    HW214181   5.626   0.008   2.787
 4428SOL     OW14182   4.474   1.006   3.932
 4428SOL    HW114183   4.470   0.942   4.009
 4428SOL    HW214184   4.563   1.050   3.930
 4429SOL     OW14185   3.202   6.875   2.463
 4429SOL    HW114186   3.220   6.904   2.556
 4429SOL    HW214187   3.118   6.919   2.430
 4430SOL     OW14188   5.313   4.951   5.022
 4430SOL    HW114189   5.225   4.918   4.987
 4430SOL    HW214190   5.314   4.945   5.121
 4431SOL     OW14191   2.965   0.708   3.121
 4431SOL    HW114192   2.975   0.802   3.087
 4431SOL    HW214193   3.033   0.691   3.192
 4432SOL     OW14194   2.698   3.595   6.098
 4432SOL    HW114195   2.793   3.600   6.067
 4432SOL    HW214196   2.663   3.503   6.084
 4433SOL     OW14197   6.577   2.394   4.485
 4433SOL    HW114198   6.514   2.439   4.549
 4433SOL    HW214199   6.592   2.300   4.514
 4434SOL     OW14200   5.690   1.507   3.074
 4434SOL    HW114201   5.754   1.501   3.150
 4434SOL    HW214202   5.726   1.455   2.996
 4435SOL     OW14203   4.269   3.609   0.919
 4435SOL    HW114204   4.227   3.545   0.983
 4435SOL    HW214205   4.351   3.648   0.959
 4436SOL     OW14206   4.619   1.166   1.625
 4436SOL    HW114207   4.561   1.132   1.699
 4436SOL    HW214208   4.702   1.111   1.620
 4437SOL     OW14209   1.006   2.974   2.826
 4437SOL    HW114210   1.090   3.014   2.788
 4437SOL    HW214211   0.930   2.989   2.763
 4438SOL     OW14212   4.652   6.828   6.370
 4438SOL    HW114213   4.659   6.865   6.277
 4438SOL    HW214214   4.571   6.866   6.414
 4439SOL     OW14215   6.879   4.609   1.782
 4439SOL    HW114216   6.905   4.632   1.689
 4439SOL    HW214217   6.821   4.527   1.782
 4440SOL     OW14218   3.181   4.786   0.646
 4440SOL    HW114219   3.268   4.763   0.603
 4440SOL    HW214220   3.160   4.718   0.717
 4441SOL     OW14221   0.085   1.494   1.412
 4441SOL    HW114222   0.031   1.412   1.391
 4441SOL    HW214223   0.051   1.535   1.496
 4442SOL     OW14224   1.346   5.071   4.962
 4442SOL    HW114225   1.278   5.010   5.002
 4442SOL    HW214226   1.420   5.017   4.922
 4443SOL     OW14227   2.000   3.582   5.773
 4443SOL    HW114228   1.977   3.676   5.748
 4443SOL    HW214229   1.915   3.530   5.789
 4444SOL     OW14230   4.041   3.962   6.887
 4444SOL    HW114231   4.006   3.988   6.977
 4444SOL    HW214232   4.114   3.895   6.897
 4445SOL     OW14233   1.363   6.186   0.542
 4445SOL    HW114234   1.374   6.101   0.593
 4445SOL    HW214235   1.268   6.216   0.547
 4446SOL     OW14236   5.476   2.070   0.726
 4446SOL    HW114237   5.400   2.133   0.746
 4446SOL    HW214238   5.554   2.092   0.784
 4447SOL     OW14239   6.588   4.151   5.033
 4447SOL    HW114240   6.563   4.106   4.947
 4447SOL    HW214241   6.652   4.094   5.083
 4448SOL     OW14242   2.422   5.618   1.104
 4448SOL    HW114243   2.434   5.541   1.167
 4448SOL    HW214244   2.406   5.702   1.157
 4449SOL     OW14245   5.307   1.207   6.324
 4449SOL    HW114246   5.344   1.173   6.238
 4449SOL    HW214247   5.249   1.136   6.365
 4450SOL     OW14248   3.093   1.865   6.498
 4450SOL    HW114249   3.169   1.862   6.562
 4450SOL    HW214250   3.007   1.867   6.548
 4451SOL     OW14251   4.672   5.300   4.531
 4451SOL    HW114252   4.629   5.384   4.563
 4451SOL    HW214253   4.671   5.232   4.604
 4452SOL     OW14254   5.745   5.507   3.940
 4452SOL    HW114255   5.834   5.524   3.982
 4452SOL    HW214256   5.740   5.552   3.851
 4453SOL     OW14257   1.545   2.836   1.952
 4453SOL    HW114258   1.579   2.766   2.016
 4453SOL    HW214259   1.612   2.850   1.880
 4454SOL     OW14260   1.580   1.681   6.921
 4454SOL    HW114261   1.488   1.695   6.886
 4454SOL    HW214262   1.576   1.624   7.003
 4455SOL     OW14263   5.783   5.866   5.577
 4455SOL    HW114264   5.870   5.832   5.611
 4455SOL    HW214265   5.772   5.962   5.601
 4456SOL     OW14266   2.649   6.261   2.812
 4456SOL    HW114267   2.561   6.305   2.799
 4456SOL    HW214268   2.714   6.294   2.744
 4457SOL     OW14269   3.492   1.473   3.371
 4457SOL    HW114270   3.536   1.484   3.282
 4457SOL    HW214271   3.470   1.377   3.385
 4458SOL     OW14272   2.204   3.278   1.230
 4458SOL    HW114273   2.214   3.228   1.316
 4458SOL    HW214274   2.259   3.235   1.159
 4459SOL     OW14275   4.066   2.161   4.450
 4459SOL    HW114276   4.002   2.211   4.508
 4459SOL    HW214277   4.022   2.077   4.417
 4460SOL     OW14278   0.968   2.702   0.187
 4460SOL    HW114279   0.937   2.705   0.282
 4460SOL    HW214280   0.912   2.763   0.131
 4461SOL     OW14281   1.568   0.836   1.358
 4461SOL    HW114282   1.502   0.878   1.296
 4461SOL    HW214283   1.523   0.813   1.444
 4462SOL     OW14284   5.969   4.998   1.797
 4462SOL    HW114285   5.877   5.024   1.770
 4462SOL    HW214286   5.990   4.907   1.761
 4463SOL     OW14287   4.642   1.095   1.020
 4463SOL    HW114288   4.582   1.173   1.038
 4463SOL    HW214289   4.590   1.023   0.975
 4464SOL     OW14290   0.380   5.905   0.732
 4464SOL    HW114291   0.437   5.875   0.809
 4464SOL    HW214292   0.284   5.885   0.752
 4465SOL     OW14293   3.511   5.469   0.436
 4465SOL    HW114294   3.594   5.487   0.489
 4465SOL    HW214295   3.433   5.512   0.482
 4466SOL     OW14296   1.318   1.902   2.898
 4466SOL    HW114297   1.384   1.869   2.831
 4466SOL    HW214298   1.226   1.874   2.870
 4467SOL     OW14299   2.444   5.019   3.292
 4467SOL    HW114300   2.415   5.104   3.248
 4467SOL    HW214301   2.538   4.997   3.264
 4468SOL     OW14302   2.273   4.324   0.805
 4468SOL    HW114303   2.266   4.360   0.898
 4468SOL    HW214304   2.185   4.329   0.760
 4469SOL     OW14305   2.900   0.887   1.016
 4469SOL    HW114306   2.854   0.819   1.073
 4469SOL    HW214307   2.999   0.877   1.024
 4470SOL     OW14308   0.846   2.123   2.447
 4470SOL    HW114309   0.890   2.036   2.426
 4470SOL    HW214310   0.851   2.140   2.545
 4471SOL     OW14311   0.905   3.010   6.744
 4471SOL    HW114312   0.957   3.033   6.827
 4471SOL    HW214313   0.938   3.065   6.668
 4472SOL     OW14314   0.389   2.356   1.433
 4472SOL    HW114315   0.313   2.294   1.414
 4472SOL    HW214316   0.430   2.332   1.521
 4473SOL     OW14317   5.532   2.972   4.308
 4473SOL    HW114318   5.440   2.976   4.347
 4473SOL    HW214319   5.539   2.891   4.250
 4474SOL     OW14320   3.244   6.688   1.639
 4474SOL    HW114321   3.320   6.691   1.702
 4474SOL    HW214322   3.165   6.644   1.683
 4475SOL     OW14323   1.080   3.735   1.891
 4475SOL    HW114324   1.028   3.697   1.815
 4475SOL    HW214325   1.104   3.830   1.870
 4476SOL     OW14326   6.376   0.915   3.777
 4476SOL    HW114327   6.453   0.971   3.807
 4476SOL    HW214328   6.410   0.838   3.722
 4477SOL     OW14329   1.756   0.522   5.106
 4477SOL    HW114330   1.666   0.479   5.103
 4477SOL    HW214331   1.748   0.613   5.147
 4478SOL     OW14332   2.483   6.585   2.567
 4478SOL    HW114333   2.468   6.568   2.469
 4478SOL    HW214334   2.581   6.577   2.586
 4479SOL     OW14335   0.536   2.080   1.528
 4479SOL    HW114336   0.503   2.138   1.602
 4479SOL    HW214337   0.617   2.029   1.558
 4480SOL     OW14338   0.311   4.065   4.940
 4480SOL    HW114339   0.400   4.020   4.939
 4480SOL    HW214340   0.253   4.027   4.868
 4481SOL     OW14341   2.280   5.048   5.206
 4481SOL    HW114342   2.219   5.019   5.131
 4481SOL    HW214343   2.232   5.115   5.263
 4482SOL     OW14344   2.430   2.716   5.530
 4482SOL    HW114345   2.460   2.735   5.437
 4482SOL    HW214346   2.354   2.776   5.554
 4483SOL     OW14347   6.966   2.915   2.204
 4483SOL    HW114348   6.997   2.938   2.112
 4483SOL    HW214349   6.881   2.964   2.223
 4484SOL     OW14350   2.866   2.459   6.419
 4484SOL    HW114351   2.858   2.524   6.343
 4484SOL    HW214352   2.786   2.399   6.419
 4485SOL     OW14353   5.800   2.359   5.061
 4485SOL    HW114354   5.710   2.334   5.098
 4485SOL    HW214355   5.790   2.388   4.966
 4486SOL     OW14356   6.284   5.202   4.716
 4486SOL    HW114357   6.266   5.294   4.751
 4486SOL    HW214358   6.197   5.155   4.699
 4487SOL     OW14359   2.589   2.695   6.828
 4487SOL    HW114360   2.563   2.607   6.867
 4487SOL    HW214361   2.629   2.681   6.737
 4488SOL     OW14362   1.099   3.290   4.904
 4488SOL    HW114363   1.112   3.376   4.953
 4488SOL    HW214364   1.169   3.281   4.834
 4489SOL     OW14365   4.704   5.507   4.963
 4489SOL    HW114366   4.608   5.504   4.936
 4489SOL    HW214367   4.716   5.459   5.050
 4490SOL     OW14368   5.656   1.725   1.709
 4490SOL    HW114369   5.607   1.668   1.643
 4490SOL    HW214370   5.592   1.790   1.751
 4491SOL     OW14371   0.246   3.635   3.756
 4491SOL    HW114372   0.253   3.659   3.853
 4491SOL    HW214373   0.190   3.704   3.709
 4492SOL     OW14374   5.859   3.262   1.499
 4492SOL    HW114375   5.872   3.176   1.549
 4492SOL    HW214376   5.869   3.339   1.562
 4493SOL     OW14377   4.803   6.465   5.054
 4493SOL    HW114378   4.750   6.548   5.067
 4493SOL    HW214379   4.770   6.394   5.116
 4494SOL     OW14380   0.414   0.782   6.034
 4494SOL    HW114381   0.510   0.803   6.052
 4494SOL    HW214382   0.365   0.866   6.014
 4495SOL     OW14383   4.942   0.180   4.030
 4495SOL    HW114384   5.041   0.188   4.040
 4495SOL    HW214385   4.914   0.086   4.048
 4496SOL     OW14386   5.554   6.261   0.747
 4496SOL    HW114387   5.500   6.181   0.772
 4496SOL    HW214388   5.641   6.259   0.795
 4497SOL     OW14389   4.504   2.094   6.515
 4497SOL    HW114390   4.474   2.182   6.478
 4497SOL    HW214391   4.593   2.105   6.559
 4498SOL     OW14392   6.797   4.922   6.598
 4498SOL    HW114393   6.892   4.936   6.569
 4498SOL    HW214394   6.786   4.829   6.632
 4499SOL     OW14395   6.348   3.161   3.507
 4499SOL    HW114396   6.382   3.176   3.414
 4499SOL    HW214397   6.398   3.086   3.549
 4500SOL     OW14398   3.680   4.292   6.528
 4500SOL    HW114399   3.761   4.349   6.510
 4500SOL    HW214400   3.707   4.212   6.581
 4501SOL     OW14401   6.594   3.551   3.046
 4501SOL    HW114402   6.690   3.529   3.063
 4501SOL    HW214403   6.536   3.490   3.100
 4502SOL     OW14404   1.056   3.595   0.029
 4502SOL    HW114405   1.031   3.692   0.023
 4502SOL    HW214406   1.033   3.561   0.120
 4503SOL     OW14407   3.681   6.526   2.098
 4503SOL    HW114408   3.770   6.529   2.144
 4503SOL    HW214409   3.693   6.550   2.002
 4504SOL     OW14410   6.861   1.569   4.381
 4504SOL    HW114411   6.792   1.536   4.445
 4504SOL    HW214412   6.820   1.582   4.291
 4505SOL     OW14413   6.376   4.860   1.942
 4505SOL    HW114414   6.420   4.905   2.020
 4505SOL    HW214415   6.324   4.781   1.974
 4506SOL     OW14416   4.919   2.605   3.752
 4506SOL    HW114417   4.951   2.655   3.832
 4506SOL    HW214418   4.989   2.606   3.681
 4507SOL     OW14419   6.787   3.242   4.088
 4507SOL    HW114420   6.844   3.309   4.136
 4507SOL    HW214421   6.824   3.227   3.996
 4508SOL     OW14422   1.204   5.107   0.144
 4508SOL    HW114423   1.111   5.105   0.106
 4508SOL    HW214424   1.263   5.162   0.086
 4509SOL     OW14425   4.955   2.021   3.318
 4509SOL    HW114426   4.927   1.997   3.411
 4509SOL    HW214427   4.879   2.068   3.272
 4510SOL     OW14428   4.348   1.398   4.399
 4510SOL    HW114429   4.419   1.351   4.346
 4510SOL    HW214430   4.388   1.478   4.444
 4511SOL     OW14431   5.910   3.390   0.107
 4511SOL    HW114432   6.000   3.393   0.063
 4511SOL    HW214433   5.854   3.466   0.073
 4512SOL     OW14434   3.390   1.185   5.854
 4512SOL    HW114435   3.364   1.279   5.830
 4512SOL    HW214436   3.487   1.182   5.877
 4513SOL     OW14437   0.855   5.725   6.619
 4513SOL    HW114438   0.941   5.675   6.623
 4513SOL    HW214439   0.779   5.661   6.622
 4514SOL     OW14440   3.386   2.369   6.494
 4514SOL    HW114441   3.301   2.353   6.444
 4514SOL    HW214442   3.409   2.466   6.490
 4515SOL     OW14443   5.832   1.880   5.355
 4515SOL    HW114444   5.805   1.874   5.451
 4515SOL    HW214445   5.751   1.898   5.299
 4516SOL     OW14446   2.560   0.172   6.860
 4516SOL    HW114447   2.544   0.189   6.763
 4516SOL    HW214448   2.563   0.074   6.877
 4517SOL     OW14449   4.697   6.722   6.890
 4517SOL    HW114450   4.643   6.768   6.820
 4517SOL    HW214451   4.778   6.776   6.912
 4518SOL     OW14452   0.639   6.668   1.710
 4518SOL    HW114453   0.691   6.658   1.795
 4518SOL    HW214454   0.693   6.719   1.643
 4519SOL     OW14455   5.391   6.838   0.774
 4519SOL    HW114456   5.343   6.878   0.696
 4519SOL    HW214457   5.490   6.844   0.758
 4520SOL     OW14458   4.395   5.793   6.028
 4520SOL    HW114459   4.296   5.781   6.017
 4520SOL    HW214460   4.440   5.785   5.939
 4521SOL     OW14461   5.227   2.181   5.006
 4521SOL    HW114462   5.175   2.256   5.048
 4521SOL    HW214463   5.179   2.094   5.022
 4522SOL     OW14464   5.889   4.430   3.238
 4522SOL    HW114465   5.985   4.455   3.246
 4522SOL    HW214466   5.859   4.443   3.143
 4523SOL     OW14467   1.026   4.188   0.212
 4523SOL    HW114468   0.936   4.145   0.214
 4523SOL    HW214469   1.089   4.129   0.162
 4524SOL     OW14470   6.082   3.540   2.714
 4524SOL    HW114471   6.102   3.609   2.644
 4524SOL    HW214472   6.130   3.563   2.798
 4525SOL     OW14473   4.024   1.891   5.909
 4525SOL    HW114474   4.008   1.989   5.896
 4525SOL    HW214475   3.941   1.840   5.889
 4526SOL     OW14476   6.422   0.496   6.998
 4526SOL    HW114477   6.360   0.506   0.051
 4526SOL    HW214478   6.486   0.422   7.016
 4527SOL     OW14479   6.263   6.625   2.686
 4527SOL    HW114480   6.224   6.580   2.767
 4527SOL    HW214481   6.347   6.673   2.712
 4528SOL     OW14482   4.274   0.930   6.697
 4528SOL    HW114483   4.333   0.887   6.766
 4528SOL    HW214484   4.277   0.876   6.613
 4529SOL     OW14485   2.291   1.153   5.614
 4529SOL    HW114486   2.358   1.162   5.540
 4529SOL    HW214487   2.327   1.093   5.684
 4530SOL     OW14488   2.421   5.536   2.915
 4530SOL    HW114489   2.466   5.555   3.002
 4530SOL    HW214490   2.436   5.440   2.890
 4531SOL     OW14491   0.802   3.110   6.324
 4531SOL    HW114492   0.818   3.133   6.228
 4531SOL    HW214493   0.880   3.058   6.359
 4532SOL     OW14494   6.015   1.064   2.425
 4532SOL    HW114495   5.975   1.091   2.338
 4532SOL    HW214496   6.112   1.084   2.426
 4533SOL     OW14497   1.997   0.841   2.822
 4533SOL    HW114498   1.957   0.761   2.778
 4533SOL    HW214499   2.024   0.907   2.751
 4534SOL     OW14500   5.034   2.822   5.363
 4534SOL    HW114501   5.006   2.760   5.437
 4534SOL    HW214502   4.982   2.800   5.280
 4535SOL     OW14503   3.717   1.449   1.849
 4535SOL    HW114504   3.752   1.485   1.935
 4535SOL    HW214505   3.623   1.480   1.836
 4536SOL     OW14506   3.451   1.973   4.727
 4536SOL    HW114507   3.491   2.005   4.813
 4536SOL    HW214508   3.389   2.043   4.691
 4537SOL     OW14509   4.203   3.263   1.394
 4537SOL    HW114510   4.136   3.236   1.324
 4537SOL    HW214511   4.155   3.293   1.476
 4538SOL     OW14512   2.740   0.574   2.346
 4538SOL    HW114513   2.660   0.590   2.405
 4538SOL    HW214514   2.804   0.649   2.356
 4539SOL     OW14515   2.716   5.538   4.983
 4539SOL    HW114516   2.805   5.548   4.937
 4539SOL    HW214517   2.660   5.619   4.965
 4540SOL     OW14518   2.272   1.120   0.316
 4540SOL    HW114519   2.207   1.170   0.258
 4540SOL    HW214520   2.267   1.155   0.409
 4541SOL     OW14521   5.449   1.451   6.959
 4541SOL    HW114522   5.456   1.377   0.001
 4541SOL    HW214523   5.536   1.500   6.953
 4542SOL     OW14524   7.020   2.655   1.923
 4542SOL    HW114525   6.956   2.627   1.994
 4542SOL    HW214526   7.008   2.752   1.904
 4543SOL     OW14527   4.888   1.971   1.139
 4543SOL    HW114528   4.825   1.903   1.177
 4543SOL    HW214529   4.980   1.932   1.131
 4544SOL     OW14530   3.905   4.936   7.016
 4544SOL    HW114531   3.891   4.942   0.091
 4544SOL    HW214532   4.000   4.911   6.998
 4545SOL     OW14533   7.005   3.765   5.318
 4545SOL    HW114534   6.907   3.744   5.306
 4545SOL    HW214535   7.017   3.822   5.398
 4546SOL     OW14536   2.969   6.721   4.187
 4546SOL    HW114537   2.982   6.628   4.154
 4546SOL    HW214538   2.962   6.783   4.110
 4547SOL     OW14539   6.589   1.472   0.453
 4547SOL    HW114540   6.585   1.548   0.517
 4547SOL    HW214541   6.626   1.391   0.499
 4548SOL     OW14542   2.683   2.267   3.757
 4548SOL    HW114543   2.611   2.198   3.750
 4548SOL    HW214544   2.652   2.352   3.715
 4549SOL     OW14545   5.229   3.721   2.327
 4549SOL    HW114546   5.160   3.667   2.375
 4549SOL    HW214547   5.202   3.733   2.232
 4550SOL     OW14548   1.164   4.335   2.805
 4550SOL    HW114549   1.212   4.259   2.762
 4550SOL    HW214550   1.164   4.414   2.743
 4551SOL     OW14551   1.073   3.997   5.060
 4551SOL    HW114552   1.040   3.906   5.036
 4551SOL    HW214553   1.050   4.016   5.156
 4552SOL     OW14554   5.541   2.254   1.100
 4552SOL    HW114555   5.478   2.283   1.171
 4552SOL    HW214556   5.623   2.215   1.141
 4553SOL     OW14557   5.323   4.229   6.642
 4553SOL    HW114558   5.323   4.271   6.733
 4553SOL    HW214559   5.315   4.130   6.651
 4554SOL     OW14560   6.586   0.136   1.688
 4554SOL    HW114561   6.658   0.117   1.755
 4554SOL    HW214562   6.498   0.103   1.723
 4555SOL     OW14563   1.280   0.867   5.649
 4555SOL    HW114564   1.359   0.887   5.591
 4555SOL    HW214565   1.196   0.896   5.602
 4556SOL     OW14566   6.406   3.365   4.745
 4556SOL    HW114567   6.431   3.307   4.822
 4556SOL    HW214568   6.446   3.328   4.661
 4557SOL     OW14569   5.076   5.028   3.995
 4557SOL    HW114570   5.109   5.036   4.089
 4557SOL    HW214571   5.091   4.935   3.962
 4558SOL     OW14572   6.576   4.015   4.764
 4558SOL    HW114573   6.507   3.954   4.804
 4558SOL    HW214574   6.656   3.961   4.736
 4559SOL     OW14575   7.021   3.262   2.863
 4559SOL    HW114576   0.022   3.197   2.790
 4559SOL    HW214577   6.928   3.295   2.847
 4560SOL     OW14578   5.600   4.135   1.657
 4560SOL    HW114579   5.566   4.088   1.576
 4560SOL    HW214580   5.601   4.234   1.641
 4561SOL     OW14581   3.667   2.064   3.196
 4561SOL    HW114582   3.624   2.124   3.128
 4561SOL    HW214583   3.717   1.991   3.150
 4562SOL     OW14584   1.165   0.009   0.434
 4562SOL    HW114585   1.222   0.027   0.514
 4562SOL    HW214586   1.126   0.096   0.402
 4563SOL     OW14587   0.368   3.451   0.752
 4563SOL    HW114588   0.459   3.439   0.714
 4563SOL    HW214589   0.370   3.430   0.850
 4564SOL     OW14590   6.488   6.213   2.080
 4564SOL    HW114591   6.404   6.244   2.124
 4564SOL    HW214592   6.492   6.249   1.987
 4565SOL     OW14593   1.439   1.106   3.986
 4565SOL    HW114594   1.456   1.024   3.931
 4565SOL    HW214595   1.526   1.145   4.016
 4566SOL     OW14596   6.734   3.828   1.237
 4566SOL    HW114597   6.644   3.868   1.253
 4566SOL    HW214598   6.802   3.877   1.292
 4567SOL     OW14599   6.974   1.416   6.500
 4567SOL    HW114600   6.938   1.487   6.560
 4567SOL    HW214601   6.975   1.328   6.549
 4568SOL     OW14602   1.939   3.550   5.337
 4568SOL    HW114603   1.921   3.612   5.413
 4568SOL    HW214604   2.028   3.573   5.296
 4569SOL     OW14605   3.013   0.228   3.453
 4569SOL    HW114606   3.077   0.268   3.520
 4569SOL    HW214607   3.008   0.287   3.373
 4570SOL     OW14608   6.309   6.303   2.295
 4570SOL    HW114609   6.266   6.381   2.340
 4570SOL    HW214610   6.373   6.260   2.359
 4571SOL     OW14611   4.463   2.802   6.938
 4571SOL    HW114612   4.508   2.827   7.024
 4571SOL    HW214613   4.439   2.705   6.940
 4572SOL     OW14614   2.147   0.708   6.565
 4572SOL    HW114615   2.106   0.617   6.572
 4572SOL    HW214616   2.222   0.716   6.632
 4573SOL     OW14617   7.007   6.860   0.311
 4573SOL    HW114618   0.022   6.933   0.367
 4573SOL    HW214619   7.004   6.775   0.363
 4574SOL     OW14620   5.485   4.637   0.446
 4574SOL    HW114621   5.491   4.714   0.509
 4574SOL    HW214622   5.399   4.643   0.395
 4575SOL     OW14623   5.638   0.437   5.430
 4575SOL    HW114624   5.543   0.465   5.421
 4575SOL    HW214625   5.657   0.408   5.524
 4576SOL     OW14626   2.766   5.153   5.445
 4576SOL    HW114627   2.854   5.164   5.491
 4576SOL    HW214628   2.774   5.087   5.371
 4577SOL     OW14629   1.368   2.873   3.748
 4577SOL    HW114630   1.272   2.889   3.769
 4577SOL    HW214631   1.424   2.900   3.826
 4578SOL     OW14632   0.783   1.521   4.357
 4578SOL    HW114633   0.837   1.604   4.347
 4578SOL    HW214634   0.722   1.511   4.279
 4579SOL     OW14635   4.704   0.822   2.084
 4579SOL    HW114636   4.785   0.869   2.048
 4579SOL    HW214637   4.688   0.738   2.032
 4580SOL     OW14638   5.350   3.747   0.730
 4580SOL    HW114639   5.268   3.804   0.743
 4580SOL    HW214640   5.431   3.806   0.731
 4581SOL     OW14641   2.469   6.147   2.197
 4581SOL    HW114642   2.504   6.064   2.239
 4581SOL    HW214643   2.369   6.149   2.203
 4582SOL     OW14644   4.866   0.631   3.535
 4582SOL    HW114645   4.961   0.650   3.560
 4582SOL    HW214646   4.846   0.535   3.553
 4583SOL     OW14647   2.929   1.109   6.727
 4583SOL    HW114648   3.004   1.044   6.741
 4583SOL    HW214649   2.967   1.201   6.711
 4584SOL     OW14650   1.707   5.350   5.236
 4584SOL    HW114651   1.642   5.415   5.277
 4584SOL    HW214652   1.735   5.384   5.146
 4585SOL     OW14653   2.376   4.763   3.199
 4585SOL    HW114654   2.278   4.775   3.220
 4585SOL    HW214655   2.425   4.847   3.225
 4586SOL     OW14656   4.384   3.689   0.287
 4586SOL    HW114657   4.297   3.706   0.332
 4586SOL    HW214658   4.409   3.593   0.298
 4587SOL     OW14659   3.304   3.837   3.750
 4587SOL    HW114660   3.333   3.792   3.666
 4587SOL    HW214661   3.219   3.887   3.734
 4588SOL     OW14662   3.248   2.935   6.028
 4588SOL    HW114663   3.248   2.888   5.940
 4588SOL    HW214664   3.199   3.021   6.019
 4589SOL     OW14665   5.268   0.268   1.727
 4589SOL    HW114666   5.353   0.315   1.705
 4589SOL    HW214667   5.270   0.238   1.823
 4590SOL     OW14668   4.120   5.056   1.292
 4590SOL    HW114669   4.146   5.049   1.389
 4590SOL    HW214670   4.132   5.150   1.261
 4591SOL     OW14671   2.085   0.071   5.293
 4591SOL    HW114672   2.040   0.066   5.382
 4591SOL    HW214673   2.124   0.162   5.279
 4592SOL     OW14674   3.631   0.546   2.821
 4592SOL    HW114675   3.657   0.462   2.870
 4592SOL    HW214676   3.673   0.545   2.730
 4593SOL     OW14677   6.381   6.494   1.883
 4593SOL    HW114678   6.394   6.568   1.818
 4593SOL    HW214679   6.312   6.430   1.849
 4594SOL     OW14680   3.566   0.570   3.127
 4594SOL    HW114681   3.581   0.487   3.072
 4594SOL    HW214682   3.567   0.546   3.224
 4595SOL     OW14683   4.833   3.097   5.818
 4595SOL    HW114684   4.871   3.152   5.743
 4595SOL    HW214685   4.811   3.158   5.894
 4596SOL     OW14686   6.818   0.161   2.464
 4596SOL    HW114687   6.840   0.242   2.517
 4596SOL    HW214688   6.746   0.109   2.510
 4597SOL     OW14689   2.641   5.636   6.379
 4597SOL    HW114690   2.611   5.540   6.373
 4597SOL    HW214691   2.644   5.664   6.475
 4598SOL     OW14692   1.603   5.536   1.475
 4598SOL    HW114693   1.658   5.574   1.549
 4598SOL    HW214694   1.529   5.480   1.513
 4599SOL     OW14695   1.549   4.560   1.286
 4599SOL    HW114696   1.456   4.526   1.277
 4599SOL    HW214697   1.574   4.565   1.382
 4600SOL     OW14698   0.123   6.478   5.249
 4600SOL    HW114699   0.142   6.380   5.243
 4600SOL    HW214700   0.091   6.500   5.341
 4601SOL     OW14701   0.905   1.703   5.506
 4601SOL    HW114702   0.880   1.634   5.573
 4601SOL    HW214703   0.898   1.665   5.414
 4602SOL     OW14704   2.434   6.601   0.332
 4602SOL    HW114705   2.335   6.592   0.337
 4602SOL    HW214706   2.472   6.528   0.276
 4603SOL     OW14707   3.538   5.752   0.613
 4603SOL    HW114708   3.550   5.806   0.530
 4603SOL    HW214709   3.454   5.699   0.606
 4604SOL     OW14710   4.983   0.330   6.637
 4604SOL    HW114711   5.063   0.302   6.583
 4604SOL    HW214712   4.910   0.359   6.575
 4605SOL     OW14713   2.204   7.022   1.271
 4605SOL    HW114714   2.142   0.029   1.343
 4605SOL    HW214715   2.153   7.012   1.186
 4606SOL     OW14716   0.401   6.871   2.662
 4606SOL    HW114717   0.482   6.909   2.616
 4606SOL    HW214718   0.393   6.911   2.753
 4607SOL     OW14719   1.857   3.142   3.187
 4607SOL    HW114720   1.859   3.066   3.122
 4607SOL    HW214721   1.950   3.163   3.217
 4608SOL     OW14722   6.913   4.037   3.668
 4608SOL    HW114723   7.007   4.032   3.700
 4608SOL    HW214724   6.887   4.133   3.656
 4609SOL     OW14725   4.924   4.937   0.004
 4609SOL    HW114726   4.852   4.892   0.057
 4609SOL    HW214727   4.922   5.035   0.023
 4610SOL     OW14728   4.597   1.721   7.022
 4610SOL    HW114729   4.549   1.740   0.084
 4610SOL    HW214730   4.689   1.760   0.001
 4611SOL     OW14731   0.392   0.115   6.006
 4611SOL    HW114732   0.481   0.160   6.013
 4611SOL    HW214733   0.365   0.080   6.096
 4612SOL     OW14734   2.616   6.973   0.766
 4612SOL    HW114735   2.694   6.977   0.828
 4612SOL    HW214736   2.595   0.041   0.732
 4613SOL     OW14737   1.790   5.782   2.955
 4613SOL    HW114738   1.803   5.726   3.037
 4613SOL    HW214739   1.693   5.803   2.943
 4614SOL     OW14740   6.054   2.892   3.693
 4614SOL    HW114741   6.058   2.956   3.769
 4614SOL    HW214742   6.015   2.938   3.613
 4615SOL     OW14743   1.294   1.488   0.843
 4615SOL    HW114744   1.277   1.511   0.939
 4615SOL    HW214745   1.207   1.486   0.794
 4616SOL     OW14746   5.727   1.549   4.376
 4616SOL    HW114747   5.677   1.502   4.303
 4616SOL    HW214748   5.825   1.544   4.357
 4617SOL     OW14749   1.724   2.283   2.588
 4617SOL    HW114750   1.706   2.230   2.505
 4617SOL    HW214751   1.688   2.376   2.577
 4618SOL     OW14752   2.171   3.526   5.523
 4618SOL    HW114753   2.212   3.615   5.507
 4618SOL    HW214754   2.134   3.523   5.616
 4619SOL     OW14755   2.887   6.441   3.865
 4619SOL    HW114756   2.834   6.525   3.878
 4619SOL    HW214757   2.826   6.362   3.873
 4620SOL     OW14758   0.815   4.529   1.321
 4620SOL    HW114759   0.908   4.562   1.336
 4620SOL    HW214760   0.751   4.605   1.326
 4621SOL     OW14761   5.185   1.126   2.341
 4621SOL    HW114762   5.225   1.143   2.251
 4621SOL    HW214763   5.086   1.140   2.338
 4622SOL     OW14764   3.929   5.219   0.976
 4622SOL    HW114765   4.001   5.286   0.959
 4622SOL    HW214766   3.963   5.127   0.958
 4623SOL     OW14767   4.479   5.442   1.027
 4623SOL    HW114768   4.473   5.536   1.062
 4623SOL    HW214769   4.435   5.437   0.937
 4624SOL     OW14770   3.619   0.307   3.013
 4624SOL    HW114771   3.712   0.283   3.042
 4624SOL    HW214772   3.561   0.226   3.018
 4625SOL     OW14773   2.090   5.513   1.781
 4625SOL    HW114774   2.110   5.609   1.762
 4625SOL    HW214775   2.068   5.466   1.695
 4626SOL     OW14776   4.629   4.439   1.733
 4626SOL    HW114777   4.579   4.397   1.809
 4626SOL    HW214778   4.675   4.368   1.680
 4627SOL     OW14779   1.212   5.235   5.492
 4627SOL    HW114780   1.264   5.292   5.428
 4627SOL    HW214781   1.206   5.282   5.580
 4628SOL     OW14782   4.459   4.577   4.769
 4628SOL    HW114783   4.412   4.579   4.857
 4628SOL    HW214784   4.555   4.600   4.782
 4629SOL     OW14785   2.207   4.726   5.272
 4629SOL    HW114786   2.166   4.650   5.324
 4629SOL    HW214787   2.145   4.804   5.272
 4630SOL     OW14788   2.243   5.228   2.173
 4630SOL    HW114789   2.221   5.242   2.270
 4630SOL    HW214790   2.234   5.314   2.124
 4631SOL     OW14791   0.673   6.627   3.799
 4631SOL    HW114792   0.645   6.706   3.745
 4631SOL    HW214793   0.592   6.578   3.831
 4632SOL     OW14794   2.431   4.427   2.865
 4632SOL    HW114795   2.480   4.496   2.918
 4632SOL    HW214796   2.469   4.423   2.773
 4633SOL     OW14797   5.671   1.227   4.802
 4633SOL    HW114798   5.724   1.283   4.739
 4633SOL    HW214799   5.665   1.134   4.767
 4634SOL     OW14800   2.709   3.958   5.277
 4634SOL    HW114801   2.716   3.947   5.376
 4634SOL    HW214802   2.613   3.961   5.250
 4635SOL     OW14803   4.331   4.343   1.607
 4635SOL    HW114804   4.340   4.280   1.685
 4635SOL    HW214805   4.306   4.434   1.640
 4636SOL     OW14806   2.116   4.328   0.482
 4636SOL    HW114807   2.159   4.400   0.537
 4636SOL    HW214808   2.185   4.261   0.456
 4637SOL     OW14809   0.863   6.844   1.104
 4637SOL    HW114810   0.855   6.746   1.120
 4637SOL    HW214811   0.943   6.879   1.153
 4638SOL     OW14812   3.611   5.644   6.775
 4638SOL    HW114813   3.539   5.707   6.747
 4638SOL    HW214814   3.697   5.669   6.730
 4639SOL     OW14815   2.707   2.844   6.069
 4639SOL    HW114816   2.616   2.822   6.105
 4639SOL    HW214817   2.753   2.906   6.132
 4640SOL     OW14818   6.045   3.387   4.231
 4640SOL    HW114819   5.997   3.308   4.269
 4640SOL    HW214820   6.079   3.445   4.306
 4641SOL     OW14821   2.405   0.346   4.127
 4641SOL    HW114822   2.412   0.434   4.080
 4641SOL    HW214823   2.458   0.277   4.079
 4642SOL     OW14824   1.812   6.593   2.872
 4642SOL    HW114825   1.901   6.611   2.916
 4642SOL    HW214826   1.828   6.546   2.785
 4643SOL     OW14827   6.649   2.219   6.950
 4643SOL    HW114828   6.720   2.202   7.019
 4643SOL    HW214829   6.565   2.245   6.996
 4644SOL     OW14830   6.917   0.225   5.762
 4644SOL    HW114831   6.936   0.180   5.675
 4644SOL    HW214832   6.881   0.158   5.827
 4645SOL     OW14833   2.275   1.440   3.981
 4645SOL    HW114834   2.240   1.452   4.074
 4645SOL    HW214835   2.201   1.449   3.916
 4646SOL     OW14836   2.437   5.400   3.800
 4646SOL    HW114837   2.416   5.424   3.895
 4646SOL    HW214838   2.501   5.468   3.762
 4647SOL     OW14839   1.878   0.364   2.971
 4647SOL    HW114840   1.789   0.396   3.004
 4647SOL    HW214841   1.865   0.299   2.897
 4648SOL     OW14842   2.896   1.105   4.100
 4648SOL    HW114843   2.915   1.090   4.197
 4648SOL    HW214844   2.968   1.064   4.045
 4649SOL     OW14845   6.209   0.657   0.487
 4649SOL    HW114846   6.231   0.624   0.579
 4649SOL    HW214847   6.292   0.686   0.440
 4650SOL     OW14848   4.582   5.252   2.230
 4650SOL    HW114849   4.570   5.270   2.132
 4650SOL    HW214850   4.523   5.176   2.257
 4651SOL     OW14851   6.138   3.408   7.013
 4651SOL    HW114852   6.165   3.493   6.967
 4651SOL    HW214853   6.216   3.347   7.020
 4652SOL     OW14854   6.284   6.522   5.065
 4652SOL    HW114855   6.310   6.445   5.124
 4652SOL    HW214856   6.196   6.559   5.095
 4653SOL     OW14857   5.029   5.797   0.888
 4653SOL    HW114858   4.963   5.735   0.846
 4653SOL    HW214859   4.999   5.892   0.874
 4654SOL     OW14860   0.527   6.046   5.973
 4654SOL    HW114861   0.624   6.024   5.980
 4654SOL    HW214862   0.510   6.096   5.888
 4655SOL     OW14863   5.216   4.177   1.544
 4655SOL    HW114864   5.143   4.212   1.485
 4655SOL    HW214865   5.279   4.122   1.490
 4656SOL     OW14866   1.108   1.011   1.743
 4656SOL    HW114867   1.057   1.006   1.657
 4656SOL    HW214868   1.143   0.920   1.766
 4657SOL     OW14869   4.544   5.594   1.877
 4657SOL    HW114870   4.530   5.502   1.912
 4657SOL    HW214871   4.486   5.658   1.926
 4658SOL     OW14872   3.197   1.746   4.774
 4658SOL    HW114873   3.289   1.740   4.736
 4658SOL    HW214874   3.168   1.842   4.775
 4659SOL     OW14875   2.786   4.416   6.994
 4659SOL    HW114876   2.815   4.325   7.023
 4659SOL    HW214877   2.746   4.464   0.047
 4660SOL     OW14878   1.299   6.359   4.199
 4660SOL    HW114879   1.323   6.403   4.113
 4660SOL    HW214880   1.243   6.278   4.180
 4661SOL     OW14881   2.601   4.824   5.784
 4661SOL    HW114882   2.569   4.880   5.708
 4661SOL    HW214883   2.668   4.758   5.751
 4662SOL     OW14884   3.200   0.237   5.702
 4662SOL    HW114885   3.129   0.169   5.690
 4662SOL    HW214886   3.167   0.311   5.761
 4663SOL     OW14887   0.498   0.584   0.871
 4663SOL    HW114888   0.469   0.562   0.778
 4663SOL    HW214889   0.576   0.526   0.896
 4664SOL     OW14890   0.513   0.823   0.365
 4664SOL    HW114891   0.481   0.732   0.393
 4664SOL    HW214892   0.519   0.882   0.445
 4665SOL     OW14893   2.545   0.043   6.016
 4665SOL    HW114894   2.625   0.060   6.073
 4665SOL    HW214895   2.553   6.978   5.973
 4666SOL     OW14896   2.367   2.103   6.748
 4666SOL    HW114897   2.407   2.011   6.749
 4666SOL    HW214898   2.334   2.126   6.840
 4667SOL     OW14899   6.283   3.793   1.866
 4667SOL    HW114900   6.312   3.799   1.770
 4667SOL    HW214901   6.336   3.722   1.912
 4668SOL     OW14902   5.188   1.583   4.404
 4668SOL    HW114903   5.277   1.541   4.421
 4668SOL    HW214904   5.147   1.611   4.490
 4669SOL     OW14905   5.224   7.022   6.552
 4669SOL    HW114906   5.178   0.065   6.608
 4669SOL    HW214907   5.189   0.002   6.458
 4670SOL     OW14908   0.913   2.748   6.612
 4670SOL    HW114909   0.925   2.830   6.667
 4670SOL    HW214910   0.818   2.745   6.579
 4671SOL     OW14911   0.889   3.629   6.779
 4671SOL    HW114912   0.953   3.677   6.838
 4671SOL    HW214913   0.939   3.581   6.707
 4672SOL     OW14914   4.004   4.833   6.071
 4672SOL    HW114915   3.936   4.892   6.029
 4672SOL    HW214916   3.959   4.752   6.108
 4673SOL     OW14917   4.794   6.836   0.969
 4673SOL    HW114918   4.866   6.845   0.900
 4673SOL    HW214919   4.781   6.739   0.990
 4674SOL     OW14920   5.615   1.716   0.459
 4674SOL    HW114921   5.622   1.767   0.373
 4674SOL    HW214922   5.679   1.754   0.525
 4675SOL     OW14923   3.520   0.419   0.109
 4675SOL    HW114924   3.472   0.334   0.089
 4675SOL    HW214925   3.574   0.408   0.192
 4676SOL     OW14926   0.287   6.658   4.820
 4676SOL    HW114927   0.345   6.635   4.899
 4676SOL    HW214928   0.326   6.737   4.772
 4677SOL     OW14929   3.039   0.588   0.109
 4677SOL    HW114930   3.025   0.519   0.181
 4677SOL    HW214931   3.132   0.580   0.074
 4678SOL     OW14932   2.266   4.709   2.417
 4678SOL    HW114933   2.243   4.753   2.330
 4678SOL    HW214934   2.363   4.682   2.415
 4679SOL     OW14935   3.804   1.178   0.107
 4679SOL    HW114936   3.807   1.278   0.109
 4679SOL    HW214937   3.756   1.148   0.025
 4680SOL     OW14938   2.030   0.327   2.049
 4680SOL    HW114939   2.072   0.304   2.137
 4680SOL    HW214940   1.931   0.311   2.054
 4681SOL     OW14941   6.275   5.646   5.571
 4681SOL    HW114942   6.353   5.700   5.538
 4681SOL    HW214943   6.299   5.602   5.658
 4682SOL     OW14944   5.035   4.680   6.887
 4682SOL    HW114945   5.024   4.751   6.957
 4682SOL    HW214946   4.957   4.681   6.825
 4683SOL     OW14947   5.259   4.279   2.793
 4683SOL    HW114948   5.276   4.229   2.708
 4683SOL    HW214949   5.166   4.316   2.793
 4684SOL     OW14950   6.737   1.901   4.204
 4684SOL    HW114951   6.678   1.899   4.124
 4684SOL    HW214952   6.684   1.876   4.285
 4685SOL     OW14953   0.633   6.199   4.470
 4685SOL    HW114954   0.711   6.143   4.441
 4685SOL    HW214955   0.570   6.211   4.394
 4686SOL     OW14956   5.111   5.861   0.335
 4686SOL    HW114957   5.024   5.842   0.380
 4686SOL    HW214958   5.164   5.776   0.329
 4687SOL     OW14959   6.540   5.118   5.162
 4687SOL    HW114960   6.556   5.185   5.091
 4687SOL    HW214961   6.441   5.104   5.174
 4688SOL     OW14962   0.066   3.137   6.033
 4688SOL    HW114963   0.048   3.053   6.083
 4688SOL    HW214964   0.031   3.215   6.085
 4689SOL     OW14965   5.498   0.635   6.926
 4689SOL    HW114966   5.464   0.618   6.833
 4689SOL    HW214967   5.582   0.688   6.922
 4690SOL     OW14968   1.338   1.739   0.181
 4690SOL    HW114969   1.360   1.718   0.276
 4690SOL    HW214970   1.321   1.837   0.172
 4691SOL     OW14971   3.053   4.219   1.722
 4691SOL    HW114972   3.117   4.160   1.673
 4691SOL    HW214973   3.100   4.304   1.748
 4692SOL     OW14974   6.938   5.289   2.579
 4692SOL    HW114975   6.916   5.252   2.670
 4692SOL    HW214976   6.852   5.306   2.530
 4693SOL     OW14977   0.928   0.253   4.461
 4693SOL    HW114978   0.981   0.257   4.376
 4693SOL    HW214979   0.887   0.342   4.479
 4694SOL     OW14980   2.776   0.709   0.091
 4694SOL    HW114981   2.869   0.671   0.099
 4694SOL    HW214982   2.713   0.636   0.066
 4695SOL     OW14983   2.851   3.352   1.240
 4695SOL    HW114984   2.798   3.402   1.307
 4695SOL    HW214985   2.940   3.326   1.280
 4696SOL     OW14986   0.697   4.384   5.754
 4696SOL    HW114987   0.782   4.410   5.800
 4696SOL    HW214988   0.646   4.321   5.812
 4697SOL     OW14989   1.339   3.319   0.849
 4697SOL    HW114990   1.279   3.246   0.883
 4697SOL    HW214991   1.299   3.359   0.767
 4698SOL     OW14992   4.375   5.408   3.191
 4698SOL    HW114993   4.440   5.483   3.201
 4698SOL    HW214994   4.290   5.443   3.150
 4699SOL     OW14995   1.155   6.628   2.221
 4699SOL    HW114996   1.195   6.695   2.283
 4699SOL    HW214997   1.108   6.675   2.146
 4700SOL     OW14998   5.998   1.736   1.939
 4700SOL    HW114999   6.068   1.678   1.897
 4700SOL    HW215000   5.926   1.678   1.978
 4701SOL     OW15001   1.241   2.359   0.450
 4701SOL    HW115002   1.187   2.297   0.394
 4701SOL    HW215003   1.208   2.453   0.437
 4702SOL     OW15004   5.969   5.265   6.645
 4702SOL    HW115005   6.054   5.290   6.691
 4702SOL    HW215006   5.925   5.347   6.609
 4703SOL     OW15007   1.261   2.527   2.257
 4703SOL    HW115008   1.176   2.486   2.289
 4703SOL    HW215009   1.292   2.479   2.174
 4704SOL     OW15010   6.884   6.583   6.882
 4704SOL    HW115011   6.861   6.591   6.979
 4704SOL    HW215012   6.983   6.573   6.872
 4705SOL     OW15013   3.826   3.534   2.940
 4705SOL    HW115014   3.869   3.522   3.029
 4705SOL    HW215015   3.765   3.457   2.922
 4706SOL     OW15016   3.670   6.202   6.695
 4706SOL    HW115017   3.624   6.137   6.756
 4706SOL    HW215018   3.681   6.289   6.742
 4707SOL     OW15019   2.178   6.213   0.739
 4707SOL    HW115020   2.228   6.291   0.702
 4707SOL    HW215021   2.127   6.168   0.666
 4708SOL     OW15022   1.552   2.323   6.915
 4708SOL    HW115023   1.600   2.322   7.003
 4708SOL    HW215024   1.584   2.246   6.859
 4709SOL     OW15025   3.547   5.128   5.166
 4709SOL    HW115026   3.588   5.067   5.098
 4709SOL    HW215027   3.489   5.195   5.120
 4710SOL     OW15028   3.770   1.188   5.630
 4710SOL    HW115029   3.792   1.208   5.726
 4710SOL    HW215030   3.671   1.179   5.620
 4711SOL     OW15031   4.924   0.415   2.200
 4711SOL    HW115032   4.995   0.438   2.266
 4711SOL    HW215033   4.905   0.317   2.205
 4712SOL     OW15034   2.785   4.573   0.484
 4712SOL    HW115035   2.872   4.530   0.506
 4712SOL    HW215036   2.768   4.649   0.546
 4713SOL     OW15037   2.627   3.801   0.920
 4713SOL    HW115038   2.614   3.703   0.938
 4713SOL    HW215039   2.697   3.812   0.849
 4714SOL     OW15040   1.953   1.649   0.104
 4714SOL    HW115041   1.907   1.737   0.111
 4714SOL    HW215042   1.924   1.602   0.020
 4715SOL     OW15043   6.789   3.969   1.631
 4715SOL    HW115044   6.842   3.910   1.570
 4715SOL    HW215045   6.788   4.062   1.595
 4716SOL     OW15046   3.868   5.748   6.736
 4716SOL    HW115047   3.908   5.766   6.647
 4716SOL    HW215048   3.905   5.663   6.773
 4717SOL     OW15049   0.702   6.193   3.149
 4717SOL    HW115050   0.727   6.112   3.202
 4717SOL    HW215051   0.781   6.225   3.096
 4718SOL     OW15052   5.445   2.029   6.340
 4718SOL    HW115053   5.421   2.040   6.243
 4718SOL    HW215054   5.544   2.018   6.348
 4719SOL     OW15055   4.902   3.013   2.880
 4719SOL    HW115056   4.975   2.997   2.947
 4719SOL    HW215057   4.814   2.987   2.921
 4720SOL     OW15058   2.417   5.885   5.803
 4720SOL    HW115059   2.472   5.804   5.822
 4720SOL    HW215060   2.476   5.957   5.767
 4721SOL     OW15061   6.454   2.211   1.503
 4721SOL    HW115062   6.540   2.214   1.555
 4721SOL    HW215063   6.379   2.190   1.564
 4722SOL     OW15064   1.428   6.265   0.117
 4722SOL    HW115065   1.525   6.288   0.119
 4722SOL    HW215066   1.416   6.169   0.144
 4723SOL     OW15067   1.772   5.226   5.527
 4723SOL    HW115068   1.679   5.216   5.563
 4723SOL    HW215069   1.768   5.230   5.427
 4724SOL     OW15070   4.531   5.659   3.095
 4724SOL    HW115071   4.506   5.721   3.020
 4724SOL    HW215072   4.612   5.607   3.069
 4725SOL     OW15073   5.648   6.409   2.439
 4725SOL    HW115074   5.734   6.437   2.483
 4725SOL    HW215075   5.575   6.405   2.507
 4726SOL     OW15076   1.538   3.313   6.310
 4726SOL    HW115077   1.566   3.237   6.251
 4726SOL    HW215078   1.606   3.386   6.305
 4727SOL     OW15079   6.820   6.278   6.931
 4727SOL    HW115080   6.905   6.320   6.900
 4727SOL    HW215081   6.768   6.247   6.852
 4728SOL     OW15082   4.745   1.830   1.311
 4728SOL    HW115083   4.648   1.815   1.333
 4728SOL    HW215084   4.786   1.890   1.380
 4729SOL     OW15085   2.932   1.400   2.361
 4729SOL    HW115086   3.017   1.350   2.377
 4729SOL    HW215087   2.854   1.340   2.379
 4730SOL     OW15088   2.232   5.479   5.282
 4730SOL    HW115089   2.195   5.540   5.212
 4730SOL    HW215090   2.305   5.527   5.332
 4731SOL     OW15091   4.474   0.555   6.574
 4731SOL    HW115092   4.467   0.503   6.489
 4731SOL    HW215093   4.569   0.578   6.591
 4732SOL     OW15094   0.058   3.561   6.327
 4732SOL    HW115095   0.025   3.467   6.328
 4732SOL    HW215096   0.018   3.611   6.250
 4733SOL     OW15097   0.962   4.128   3.221
 4733SOL    HW115098   0.863   4.133   3.234
 4733SOL    HW215099   0.999   4.221   3.214
 4734SOL     OW15100   4.911   3.697   6.945
 4734SOL    HW115101   4.902   3.598   6.934
 4734SOL    HW215102   4.866   3.743   6.867
 4735SOL     OW15103   0.885   5.505   4.202
 4735SOL    HW115104   0.837   5.452   4.132
 4735SOL    HW215105   0.978   5.470   4.213
 4736SOL     OW15106   0.611   1.619   6.405
 4736SOL    HW115107   0.602   1.551   6.333
 4736SOL    HW215108   0.536   1.684   6.400
 4737SOL     OW15109   1.168   5.175   2.228
 4737SOL    HW115110   1.218   5.213   2.150
 4737SOL    HW215111   1.120   5.091   2.200
 4738SOL     OW15112   6.908   5.817   3.100
 4738SOL    HW115113   6.848   5.753   3.149
 4738SOL    HW215114   6.862   5.847   3.016
 4739SOL     OW15115   4.545   6.478   3.076
 4739SOL    HW115116   4.482   6.510   3.147
 4739SOL    HW215117   4.536   6.535   2.995
 4740SOL     OW15118   0.244   1.140   1.597
 4740SOL    HW115119   0.178   1.083   1.548
 4740SOL    HW215120   0.326   1.151   1.542
 4741SOL     OW15121   3.291   2.329   1.682
 4741SOL    HW115122   3.386   2.359   1.687
 4741SOL    HW215123   3.279   2.246   1.737
 4742SOL     OW15124   1.788   6.759   5.776
 4742SOL    HW115125   1.755   6.670   5.805
 4742SOL    HW215126   1.794   6.820   5.855
 4743SOL     OW15127   2.043   3.381   3.002
 4743SOL    HW115128   1.979   3.337   2.938
 4743SOL    HW215129   2.039   3.480   2.989
 4744SOL     OW15130   2.011   4.956   1.264
 4744SOL    HW115131   2.051   4.867   1.287
 4744SOL    HW215132   1.912   4.949   1.262
 4745SOL     OW15133   3.249   3.790   6.867
 4745SOL    HW115134   3.268   3.729   6.944
 4745SOL    HW215135   3.321   3.780   6.799
 4746SOL     OW15136   4.494   6.360   3.788
 4746SOL    HW115137   4.525   6.272   3.753
 4746SOL    HW215138   4.394   6.364   3.787
 4747SOL     OW15139   0.960   3.812   0.803
 4747SOL    HW115140   0.915   3.757   0.874
 4747SOL    HW215141   0.942   3.771   0.714
 4748SOL     OW15142   1.599   6.650   1.492
 4748SOL    HW115143   1.661   6.659   1.415
 4748SOL    HW215144   1.504   6.657   1.459
 4749SOL     OW15145   1.691   0.091   6.426
 4749SOL    HW115146   1.742   0.044   6.355
 4749SOL    HW215147   1.597   0.107   6.395
 4750SOL     OW15148   6.229   3.380   5.594
 4750SOL    HW115149   6.270   3.461   5.551
 4750SOL    HW215150   6.265   3.297   5.550
 4751SOL     OW15151   4.814   2.472   3.022
 4751SOL    HW115152   4.854   2.454   2.933
 4751SOL    HW215153   4.728   2.522   3.011
 4752SOL     OW15154   4.729   0.469   0.278
 4752SOL    HW115155   4.806   0.459   0.341
 4752SOL    HW215156   4.645   0.437   0.323
 4753SOL     OW15157   0.955   6.676   3.847
 4753SOL    HW115158   0.865   6.673   3.802
 4753SOL    HW215159   0.944   6.708   3.941
 4754SOL     OW15160   5.048   3.802   5.028
 4754SOL    HW115161   4.992   3.725   4.998
 4754SOL    HW215162   5.051   3.804   5.128
 4755SOL     OW15163   2.537   0.555   0.665
 4755SOL    HW115164   2.478   0.610   0.724
 4755SOL    HW215165   2.624   0.538   0.712
 4756SOL     OW15166   6.465   3.978   5.830
 4756SOL    HW115167   6.489   4.044   5.902
 4756SOL    HW215168   6.378   4.004   5.789
 4757SOL     OW15169   1.656   2.785   1.508
 4757SOL    HW115170   1.738   2.829   1.471
 4757SOL    HW215171   1.598   2.854   1.551
 4758SOL     OW15172   1.203   6.979   3.507
 4758SOL    HW115173   1.205   6.998   3.409
 4758SOL    HW215174   1.215   6.881   3.522
 4759SOL     OW15175   0.800   5.622   6.890
 4759SOL    HW115176   0.732   5.569   6.840
 4759SOL    HW215177   0.797   5.718   6.861
 4760SOL     OW15178   1.885   1.280   0.978
 4760SOL    HW115179   1.863   1.257   1.072
 4760SOL    HW215180   1.850   1.371   0.957
 4761SOL     OW15181   1.501   0.882   0.635
 4761SOL    HW115182   1.540   0.974   0.645
 4761SOL    HW215183   1.401   0.889   0.633
 4762SOL     OW15184   1.586   5.782   1.912
 4762SOL    HW115185   1.499   5.786   1.963
 4762SOL    HW215186   1.597   5.867   1.861
 4763SOL     OW15187   4.433   0.483   2.678
 4763SOL    HW115188   4.498   0.556   2.699
 4763SOL    HW215189   4.433   0.464   2.580
 4764SOL     OW15190   4.621   3.399   5.318
 4764SOL    HW115191   4.671   3.457   5.252
 4764SOL    HW215192   4.663   3.408   5.408
 4765SOL     OW15193   3.835   0.875   5.825
 4765SOL    HW115194   3.829   0.806   5.896
 4765SOL    HW215195   3.792   0.840   5.741
 4766SOL     OW15196   6.068   6.367   3.989
 4766SOL    HW115197   6.161   6.382   4.022
 4766SOL    HW215198   6.033   6.282   4.028
 4767SOL     OW15199   2.555   5.013   5.584
 4767SOL    HW115200   2.613   5.089   5.555
 4767SOL    HW215201   2.512   4.971   5.504
 4768SOL     OW15202   3.933   3.222   6.050
 4768SOL    HW115203   3.906   3.130   6.075
 4768SOL    HW215204   3.854   3.283   6.055
 4769SOL     OW15205   3.233   6.073   0.306
 4769SOL    HW115206   3.141   6.108   0.289
 4769SOL    HW215207   3.300   6.146   0.291
 4770SOL     OW15208   6.542   1.886   4.927
 4770SOL    HW115209   6.602   1.805   4.932
 4770SOL    HW215210   6.577   1.956   4.989
 4771SOL     OW15211   2.498   6.578   6.200
 4771SOL    HW115212   2.465   6.551   6.110
 4771SOL    HW215213   2.578   6.524   6.224
 4772SOL     OW15214   3.350   4.806   1.513
 4772SOL    HW115215   3.403   4.834   1.432
 4772SOL    HW215216   3.256   4.839   1.504
 4773SOL     OW15217   1.208   6.352   4.656
 4773SOL    HW115218   1.214   6.451   4.640
 4773SOL    HW215219   1.178   6.335   4.750
 4774SOL     OW15220   1.144   4.311   1.504
 4774SOL    HW115221   1.169   4.405   1.484
 4774SOL    HW215222   1.045   4.301   1.500
 4775SOL     OW15223   5.086   0.279   4.353
 4775SOL    HW115224   5.162   0.270   4.416
 4775SOL    HW215225   5.118   0.264   4.259
 4776SOL     OW15226   0.897   0.975   4.782
 4776SOL    HW115227   0.835   0.917   4.729
 4776SOL    HW215228   0.855   1.065   4.795
 4777SOL     OW15229   1.596   5.435   0.714
 4777SOL    HW115230   1.667   5.500   0.685
 4777SOL    HW215231   1.640   5.349   0.743
 4778SOL     OW15232   0.077   2.964   4.798
 4778SOL    HW115233   0.040   2.917   4.878
 4778SOL    HW215234   0.059   2.910   4.716
 4779SOL     OW15235   5.694   6.421   4.132
 4779SOL    HW115236   5.649   6.407   4.044
 4779SOL    HW215237   5.737   6.512   4.133
 4780SOL     OW15238   5.856   2.418   6.486
 4780SOL    HW115239   5.815   2.418   6.394
 4780SOL    HW215240   5.794   2.464   6.549
 4781SOL     OW15241   2.628   5.145   2.108
 4781SOL    HW115242   2.675   5.192   2.183
 4781SOL    HW215243   2.695   5.114   2.041
 4782SOL     OW15244   6.717   5.618   6.137
 4782SOL    HW115245   6.746   5.534   6.183
 4782SOL    HW215246   6.788   5.688   6.148
 4783SOL     OW15247   5.734   3.603   0.036
 4783SOL    HW115248   5.711   3.688   7.012
 4783SOL    HW215249   5.651   3.561   0.073
 4784SOL     OW15250   6.011   2.272   6.121
 4784SOL    HW115251   5.958   2.356   6.127
 4784SOL    HW215252   5.949   2.193   6.115
 4785SOL     OW15253   0.401   6.962   2.913
 4785SOL    HW115254   0.497   6.990   2.905
 4785SOL    HW215255   0.387   6.919   3.002
 4786SOL     OW15256   2.484   7.018   0.147
 4786SOL    HW115257   2.566   6.968   0.120
 4786SOL    HW215258   2.404   6.976   0.106
 4787SOL     OW15259   4.041   1.895   3.385
 4787SOL    HW115260   3.992   1.815   3.352
 4787SOL    HW215261   4.072   1.879   3.479
 4788SOL     OW15262   6.212   6.164   0.437
 4788SOL    HW115263   6.149   6.158   0.514
 4788SOL    HW215264   6.166   6.207   0.359
 4789SOL     OW15265   4.875   1.586   1.684
 4789SOL    HW115266   4.865   1.593   1.783
 4789SOL    HW215267   4.957   1.531   1.663
 4790SOL     OW15268   5.392   1.955   5.519
 4790SOL    HW115269   5.413   1.863   5.551
 4790SOL    HW215270   5.466   2.018   5.545
 4791SOL     OW15271   6.874   3.123   1.719
 4791SOL    HW115272   6.844   3.215   1.745
 4791SOL    HW215273   6.924   3.128   1.632
 4792SOL     OW15274   2.386   4.454   4.539
 4792SOL    HW115275   2.356   4.408   4.623
 4792SOL    HW215276   2.477   4.491   4.552
 4793SOL     OW15277   1.680   3.702   5.245
 4793SOL    HW115278   1.751   3.637   5.217
 4793SOL    HW215279   1.605   3.652   5.290
 4794SOL     OW15280   4.280   6.761   4.189
 4794SOL    HW115281   4.292   6.718   4.278
 4794SOL    HW215282   4.325   6.707   4.118
 4795SOL     OW15283   6.661   1.628   4.593
 4795SOL    HW115284   6.650   1.532   4.620
 4795SOL    HW215285   6.584   1.682   4.629
 4796SOL     OW15286   3.582   0.169   6.393
 4796SOL    HW115287   3.573   0.246   6.457
 4796SOL    HW215288   3.664   0.116   6.416
 4797SOL     OW15289   0.749   5.782   4.518
 4797SOL    HW115290   0.788   5.774   4.610
 4797SOL    HW215291   0.785   5.865   4.474
 4798SOL     OW15292   5.685   5.301   5.892
 4798SOL    HW115293   5.699   5.388   5.844
 4798SOL    HW215294   5.652   5.232   5.828
 4799SOL     OW15295   4.311   1.449   0.286
 4799SOL    HW115296   4.227   1.397   0.300
 4799SOL    HW215297   4.296   1.544   0.313
 4800SOL     OW15298   1.323   4.160   6.813
 4800SOL    HW115299   1.251   4.092   6.797
 4800SOL    HW215300   1.396   4.147   6.746
 4801SOL     OW15301   3.892   2.943   6.795
 4801SOL    HW115302   3.976   2.992   6.773
 4801SOL    HW215303   3.858   2.898   6.712
 4802SOL     OW15304   6.623   6.561   2.048
 4802SOL    HW115305   6.699   6.534   1.989
 4802SOL    HW215306   6.537   6.542   2.002
 4803SOL     OW15307   6.527   4.830   1.164
 4803SOL    HW115308   6.454   4.816   1.098
 4803SOL    HW215309   6.557   4.741   1.200
 4804SOL     OW15310   5.663   0.191   1.068
 4804SOL    HW115311   5.644   0.248   1.148
 4804SOL    HW215312   5.676   0.250   0.988
 4805SOL     OW15313   6.673   0.692   2.461
 4805SOL    HW115314   6.676   0.791   2.474
 4805SOL    HW215315   6.629   0.650   2.540
 4806SOL     OW15316   1.058   3.350   2.787
 4806SOL    HW115317   1.117   3.310   2.858
 4806SOL    HW215318   0.963   3.326   2.806
 4807SOL     OW15319   1.403   3.548   6.927
 4807SOL    HW115320   1.394   3.523   6.831
 4807SOL    HW215321   1.434   3.643   6.934
 4808SOL     OW15322   4.408   5.518   0.584
 4808SOL    HW115323   4.349   5.474   0.516
 4808SOL    HW215324   4.483   5.456   0.608
 4809SOL     OW15325   3.834   4.181   1.694
 4809SOL    HW115326   3.884   4.267   1.693
 4809SOL    HW215327   3.751   4.189   1.640
 4810SOL     OW15328   1.563   4.688   3.529
 4810SOL    HW115329   1.609   4.670   3.616
 4810SOL    HW215330   1.630   4.693   3.456
 4811SOL     OW15331   3.984   3.904   3.808
 4811SOL    HW115332   4.013   3.833   3.873
 4811SOL    HW215333   4.002   3.873   3.715
 4812SOL     OW15334   0.450   6.859   2.246
 4812SOL    HW115335   0.383   6.920   2.202
 4812SOL    HW215336   0.402   6.795   2.306
 4813SOL     OW15337   6.083   1.907   6.128
 4813SOL    HW115338   6.112   1.938   6.219
 4813SOL    HW215339   6.163   1.874   6.077
 4814SOL     OW15340   6.887   3.411   1.982
 4814SOL    HW115341   6.943   3.344   1.934
 4814SOL    HW215342   6.946   3.481   2.022
 4815SOL     OW15343   5.215   4.549   2.887
 4815SOL    HW115344   5.140   4.483   2.885
 4815SOL    HW215345   5.290   4.515   2.831
 4816SOL     OW15346   2.393   5.869   1.265
 4816SOL    HW115347   2.321   5.841   1.329
 4816SOL    HW215348   2.481   5.869   1.313
 4817SOL     OW15349   3.178   1.254   1.857
 4817SOL    HW115350   3.115   1.176   1.857
 4817SOL    HW215351   3.245   1.242   1.784
 4818SOL     OW15352   1.209   1.441   3.864
 4818SOL    HW115353   1.291   1.426   3.808
 4818SOL    HW215354   1.210   1.380   3.943
 4819SOL     OW15355   3.202   1.786   1.774
 4819SOL    HW115356   3.246   1.791   1.864
 4819SOL    HW215357   3.106   1.813   1.783
 4820SOL     OW15358   6.371   2.347   0.902
 4820SOL    HW115359   6.449   2.393   0.860
 4820SOL    HW215360   6.404   2.273   0.961
 4821SOL     OW15361   6.419   6.544   1.587
 4821SOL    HW115362   6.351   6.582   1.524
 4821SOL    HW215363   6.397   6.448   1.605
 4822SOL     OW15364   1.898   2.870   4.193
 4822SOL    HW115365   1.971   2.829   4.248
 4822SOL    HW215366   1.859   2.801   4.133
 4823SOL     OW15367   6.891   0.912   3.665
 4823SOL    HW115368   6.881   0.851   3.743
 4823SOL    HW215369   6.927   1.000   3.696
 4824SOL     OW15370   6.031   1.710   3.871
 4824SOL    HW115371   5.983   1.654   3.802
 4824SOL    HW215372   6.024   1.806   3.846
 4825SOL     OW15373   2.393   2.691   4.453
 4825SOL    HW115374   2.369   2.774   4.504
 4825SOL    HW215375   2.426   2.621   4.516
 4826SOL     OW15376   0.779   0.355   0.348
 4826SOL    HW115377   0.721   0.338   0.269
 4826SOL    HW215378   0.871   0.319   0.330
 4827SOL     OW15379   6.164   0.570   1.786
 4827SOL    HW115380   6.099   0.583   1.861
 4827SOL    HW215381   6.255   0.552   1.823
 4828SOL     OW15382   5.613   3.596   1.123
 4828SOL    HW115383   5.559   3.529   1.072
 4828SOL    HW215384   5.710   3.583   1.100
 4829SOL     OW15385   4.021   6.389   6.627
 4829SOL    HW115386   3.935   6.439   6.627
 4829SOL    HW215387   4.070   6.407   6.542
 4830SOL     OW15388   5.364   5.886   3.661
 4830SOL    HW115389   5.345   5.788   3.663
 4830SOL    HW215390   5.463   5.901   3.669
 4831SOL     OW15391   6.499   5.397   5.960
 4831SOL    HW115392   6.538   5.434   6.043
 4831SOL    HW215393   6.403   5.373   5.976
 4832SOL     OW15394   2.806   2.627   5.894
 4832SOL    HW115395   2.833   2.671   5.979
 4832SOL    HW215396   2.812   2.528   5.903
 4833SOL     OW15397   5.138   1.739   3.109
 4833SOL    HW115398   5.162   1.654   3.062
 4833SOL    HW215399   5.193   1.748   3.192
 4834SOL     OW15400   3.614   0.326   0.335
 4834SOL    HW115401   3.598   0.398   0.402
 4834SOL    HW215402   3.615   0.237   0.380
 4835SOL     OW15403   1.485   0.537   6.798
 4835SOL    HW115404   1.507   0.444   6.828
 4835SOL    HW215405   1.491   0.599   6.877
 4836SOL     OW15406   4.662   2.581   3.867
 4836SOL    HW115407   4.684   2.596   3.964
 4836SOL    HW215408   4.733   2.623   3.810
 4837SOL     OW15409   3.847   3.162   1.480
 4837SOL    HW115410   3.812   3.191   1.569
 4837SOL    HW215411   3.779   3.105   1.434
 4838SOL     OW15412   2.353   5.073   1.689
 4838SOL    HW115413   2.263   5.062   1.647
 4838SOL    HW215414   2.342   5.087   1.788
 4839SOL     OW15415   1.921   3.834   5.672
 4839SOL    HW115416   1.928   3.797   5.580
 4839SOL    HW215417   1.889   3.929   5.668
 4840SOL     OW15418   0.046   6.769   6.034
 4840SOL    HW115419   0.093   6.816   5.959
 4840SOL    HW215420   7.006   6.832   6.077
 4841SOL     OW15421   2.918   6.005   1.685
 4841SOL    HW115422   2.837   6.057   1.659
 4841SOL    HW215423   2.993   6.027   1.623
 4842SOL     OW15424   3.224   4.774   1.776
 4842SOL    HW115425   3.193   4.821   1.859
 4842SOL    HW215426   3.160   4.700   1.754
 4843SOL     OW15427   5.986   3.945   0.689
 4843SOL    HW115428   5.994   3.869   0.754
 4843SOL    HW215429   6.062   3.942   0.624
 4844SOL     OW15430   6.689   3.862   6.014
 4844SOL    HW115431   6.676   3.857   6.113
 4844SOL    HW215432   6.613   3.815   5.968
 4845SOL     OW15433   6.773   5.867   4.526
 4845SOL    HW115434   6.819   5.819   4.601
 4845SOL    HW215435   6.722   5.801   4.471
 4846SOL     OW15436   6.638   3.501   2.333
 4846SOL    HW115437   6.639   3.529   2.237
 4846SOL    HW215438   6.714   3.546   2.381
 4847SOL     OW15439   3.262   1.731   5.664
 4847SOL    HW115440   3.252   1.739   5.564
 4847SOL    HW215441   3.185   1.679   5.701
 4848SOL     OW15442   1.808   0.874   3.600
 4848SOL    HW115443   1.884   0.913   3.549
 4848SOL    HW215444   1.763   0.804   3.545
 4849SOL     OW15445   0.893   6.979   6.778
 4849SOL    HW115446   0.824   6.992   6.706
 4849SOL    HW215447   0.884   0.027   6.846
 4850SOL     OW15448   4.583   1.306   2.177
 4850SOL    HW115449   4.514   1.348   2.118
 4850SOL    HW215450   4.604   1.368   2.253
 4851SOL     OW15451   3.323   5.867   4.641
 4851SOL    HW115452   3.359   5.958   4.622
 4851SOL    HW215453   3.223   5.871   4.645
 4852SOL     OW15454   0.634   0.144   6.925
 4852SOL    HW115455   0.537   0.119   6.929
 4852SOL    HW215456   0.652   0.200   6.845
 4853SOL     OW15457   3.094   1.020   2.161
 4853SOL    HW115458   3.005   1.045   2.199
 4853SOL    HW215459   3.083   0.942   2.099
 4854SOL     OW15460   5.137   6.268   2.442
 4854SOL    HW115461   5.125   6.367   2.449
 4854SOL    HW215462   5.189   6.235   2.521
 4855SOL     OW15463   6.094   2.536   2.405
 4855SOL    HW115464   6.134   2.557   2.316
 4855SOL    HW215465   6.000   2.571   2.408
 4856SOL     OW15466   1.762   4.194   2.746
 4856SOL    HW115467   1.851   4.237   2.758
 4856SOL    HW215468   1.766   4.128   2.670
 4857SOL     OW15469   1.871   2.145   5.495
 4857SOL    HW115470   1.913   2.064   5.538
 4857SOL    HW215471   1.900   2.227   5.545
 4858SOL     OW15472   2.061   0.813   4.274
 4858SOL    HW115473   2.087   0.907   4.253
 4858SOL    HW215474   2.085   0.793   4.369
 4859SOL     OW15475   1.148   0.629   4.280
 4859SOL    HW115476   1.050   0.639   4.268
 4859SOL    HW215477   1.196   0.698   4.226
 4860SOL     OW15478   3.513   5.011   1.864
 4860SOL    HW115479   3.532   4.935   1.926
 4860SOL    HW215480   3.487   5.091   1.916
 4861SOL     OW15481   5.189   5.268   0.234
 4861SOL    HW115482   5.210   5.174   0.210
 4861SOL    HW215483   5.271   5.324   0.227
 4862SOL     OW15484   2.983   4.834   4.856
 4862SOL    HW115485   2.944   4.763   4.914
 4862SOL    HW215486   2.968   4.811   4.760
 4863SOL     OW15487   5.932   4.243   1.442
 4863SOL    HW115488   5.889   4.199   1.364
 4863SOL    HW215489   5.861   4.277   1.504
 4864SOL     OW15490   3.823   1.185   3.672
 4864SOL    HW115491   3.761   1.251   3.629
 4864SOL    HW215492   3.781   1.151   3.757
 4865SOL     OW15493   1.945   0.728   5.644
 4865SOL    HW115494   1.865   0.692   5.691
 4865SOL    HW215495   2.028   0.703   5.695
 4866SOL     OW15496   6.980   3.185   0.942
 4866SOL    HW115497   0.029   3.230   0.892
 4866SOL    HW215498   6.893   3.202   0.896
 4867SOL     OW15499   3.987   5.474   3.315
 4867SOL    HW115500   4.004   5.375   3.305
 4867SOL    HW215501   4.072   5.519   3.342
 4868SOL     OW15502   6.497   4.974   2.857
 4868SOL    HW115503   6.438   5.050   2.883
 4868SOL    HW215504   6.459   4.927   2.778
 4869SOL     OW15505   1.786   1.665   1.571
 4869SOL    HW115506   1.792   1.662   1.471
 4869SOL    HW215507   1.702   1.712   1.598
 4870SOL     OW15508   0.956   6.371   1.885
 4870SOL    HW115509   0.943   6.430   1.805
 4870SOL    HW215510   1.050   6.379   1.917
 4871SOL     OW15511   0.671   1.058   3.495
 4871SOL    HW115512   0.648   1.076   3.399
 4871SOL    HW215513   0.651   0.962   3.517
 4872SOL     OW15514   6.238   0.102   3.244
 4872SOL    HW115515   6.189   0.188   3.231
 4872SOL    HW215516   6.228   0.072   3.339
 4873SOL     OW15517   0.027   5.248   4.102
 4873SOL    HW115518   0.022   5.275   4.005
 4873SOL    HW215519   0.054   5.152   4.109
 4874SOL     OW15520   5.392   4.012   2.266
 4874SOL    HW115521   5.341   3.946   2.322
 4874SOL    HW215522   5.470   3.966   2.223
 4875SOL     OW15523   6.339   1.359   0.299
 4875SOL    HW115524   6.413   1.393   0.357
 4875SOL    HW215525   6.376   1.300   0.228
 4876SOL     OW15526   6.897   1.854   3.395
 4876SOL    HW115527   6.875   1.942   3.352
 4876SOL    HW215528   6.847   1.845   3.481
 4877SOL     OW15529   0.481   1.734   5.439
 4877SOL    HW115530   0.554   1.689   5.388
 4877SOL    HW215531   0.416   1.775   5.376
 4878SOL     OW15532   6.495   1.151   1.668
 4878SOL    HW115533   6.587   1.119   1.694
 4878SOL    HW215534   6.428   1.117   1.734
 4879SOL     OW15535   4.384   1.945   2.087
 4879SOL    HW115536   4.288   1.935   2.113
 4879SOL    HW215537   4.390   2.007   2.008
 4880SOL     OW15538   5.605   3.255   6.963
 4880SOL    HW115539   5.616   3.182   0.007
 4880SOL    HW215540   5.547   3.327   7.001
 4881SOL     OW15541   1.679   1.259   7.016
 4881SOL    HW115542   1.775   1.255   6.988
 4881SOL    HW215543   1.642   1.167   7.024
 4882SOL     OW15544   4.596   0.950   5.063
 4882SOL    HW115545   4.611   0.977   5.159
 4882SOL    HW215546   4.650   0.868   5.043
 4883SOL     OW15547   4.639   4.313   1.343
 4883SOL    HW115548   4.687   4.258   1.412
 4883SOL    HW215549   4.615   4.402   1.383
 4884SOL     OW15550   3.203   5.545   1.475
 4884SOL    HW115551   3.300   5.518   1.471
 4884SOL    HW215552   3.196   5.637   1.514
 4885SOL     OW15553   2.241   5.384   1.061
 4885SOL    HW115554   2.293   5.467   1.084
 4885SOL    HW215555   2.263   5.312   1.126
 4886SOL     OW15556   2.253   6.398   1.665
 4886SOL    HW115557   2.182   6.335   1.698
 4886SOL    HW215558   2.220   6.444   1.582
 4887SOL     OW15559   6.920   6.545   1.506
 4887SOL    HW115560   6.854   6.471   1.517
 4887SOL    HW215561   6.922   6.575   1.411
 4888SOL     OW15562   2.741   0.152   4.130
 4888SOL    HW115563   2.738   0.059   4.167
 4888SOL    HW215564   2.815   0.203   4.174
 4889SOL     OW15565   0.110   1.773   5.078
 4889SOL    HW115566   0.015   1.740   5.072
 4889SOL    HW215567   0.139   1.807   4.988
 4890SOL     OW15568   0.308   1.259   5.609
 4890SOL    HW115569   0.234   1.241   5.545
 4890SOL    HW215570   0.354   1.344   5.583
 4891SOL     OW15571   2.266   4.935   7.010
 4891SOL    HW115572   2.177   4.977   7.024
 4891SOL    HW215573   2.256   4.851   6.957
 4892SOL     OW15574   4.167   5.563   2.132
 4892SOL    HW115575   4.163   5.641   2.069
 4892SOL    HW215576   4.255   5.563   2.179
 4893SOL     OW15577   5.798   2.916   2.149
 4893SOL    HW115578   5.887   2.897   2.190
 4893SOL    HW215579   5.772   2.840   2.089
 4894SOL     OW15580   3.603   0.798   2.924
 4894SOL    HW115581   3.603   0.852   2.840
 4894SOL    HW215582   3.619   0.702   2.902
 4895SOL     OW15583   0.616   4.829   4.259
 4895SOL    HW115584   0.556   4.904   4.287
 4895SOL    HW215585   0.677   4.860   4.186
 4896SOL     OW15586   2.211   4.205   2.323
 4896SOL    HW115587   2.244   4.271   2.256
 4896SOL    HW215588   2.237   4.112   2.295
 4897SOL     OW15589   1.428   5.010   5.376
 4897SOL    HW115590   1.341   4.970   5.347
 4897SOL    HW215591   1.483   5.032   5.295
 4898SOL     OW15592   4.154   1.127   5.004
 4898SOL    HW115593   4.130   1.203   5.065
 4898SOL    HW215594   4.176   1.046   5.059
 4899SOL     OW15595   6.003   5.070   2.833
 4899SOL    HW115596   5.950   5.045   2.751
 4899SOL    HW215597   5.955   5.143   2.882
 4900SOL     OW15598   3.511   6.093   5.007
 4900SOL    HW115599   3.444   6.071   5.078
 4900SOL    HW215600   3.465   6.105   4.920
 4901SOL     OW15601   2.041   1.643   5.343
 4901SOL    HW115602   2.106   1.584   5.295
 4901SOL    HW215603   2.052   1.629   5.442
 4902SOL     OW15604   1.521   1.505   4.693
 4902SOL    HW115605   1.484   1.412   4.688
 4902SOL    HW215606   1.620   1.501   4.690
 4903SOL     OW15607   4.036   5.326   6.964
 4903SOL    HW115608   4.079   5.344   0.028
 4903SOL    HW215609   3.937   5.339   6.972
 4904SOL     OW15610   1.672   7.012   5.679
 4904SOL    HW115611   1.765   7.014   5.642
 4904SOL    HW215612   1.663   6.934   5.741
 4905SOL     OW15613   3.500   0.734   3.475
 4905SOL    HW115614   3.578   0.779   3.520
 4905SOL    HW215615   3.422   0.733   3.537
 4906SOL     OW15616   5.093   1.884   6.293
 4906SOL    HW115617   5.001   1.852   6.316
 4906SOL    HW215618   5.088   1.977   6.259
 4907SOL     OW15619   4.945   6.968   1.746
 4907SOL    HW115620   4.996   6.887   1.776
 4907SOL    HW215621   4.878   6.941   1.676
 4908SOL     OW15622   5.582   6.566   6.872
 4908SOL    HW115623   5.565   6.489   6.934
 4908SOL    HW215624   5.672   6.555   6.830
 4909SOL     OW15625   0.026   5.664   3.404
 4909SOL    HW115626   0.108   5.609   3.386
 4909SOL    HW215627   0.052   5.760   3.408
 4910SOL     OW15628   5.500   0.925   4.503
 4910SOL    HW115629   5.435   1.000   4.496
 4910SOL    HW215630   5.556   0.920   4.420
 4911SOL     OW15631   1.802   3.705   3.230
 4911SOL    HW115632   1.713   3.659   3.232
 4911SOL    HW215633   1.830   3.726   3.324
 4912SOL     OW15634   5.773   1.764   6.076
 4912SOL    HW115635   5.749   1.757   6.173
 4912SOL    HW215636   5.723   1.841   6.035
 4913SOL     OW15637   3.978   3.202   5.104
 4913SOL    HW115638   3.900   3.255   5.135
 4913SOL    HW215639   3.960   3.104   5.115
 4914SOL     OW15640   4.698   6.705   5.089
 4914SOL    HW115641   4.636   6.720   5.012
 4914SOL    HW215642   4.648   6.721   5.175
 4915SOL     OW15643   2.273   6.185   5.696
 4915SOL    HW115644   2.273   6.247   5.775
 4915SOL    HW215645   2.185   6.139   5.690
 4916SOL     OW15646   0.535   1.037   4.044
 4916SOL    HW115647   0.490   1.076   3.964
 4916SOL    HW215648   0.580   1.110   4.095
 4917SOL     OW15649   2.592   5.712   1.421
 4917SOL    HW115650   2.551   5.623   1.398
 4917SOL    HW215651   2.635   5.707   1.510
 4918SOL     OW15652   5.443   6.123   2.094
 4918SOL    HW115653   5.529   6.165   2.066
 4918SOL    HW215654   5.388   6.189   2.144
 4919SOL     OW15655   2.834   3.133   1.051
 4919SOL    HW115656   2.854   3.216   1.103
 4919SOL    HW215657   2.766   3.154   0.981
 4920SOL     OW15658   5.587   0.253   4.570
 4920SOL    HW115659   5.655   0.218   4.634
 4920SOL    HW215660   5.563   0.348   4.594
 4921SOL     OW15661   1.279   5.863   6.963
 4921SOL    HW115662   1.232   5.857   6.874
 4921SOL    HW215663   1.351   5.794   6.967
 4922SOL     OW15664   3.074   2.173   4.164
 4922SOL    HW115665   3.002   2.209   4.104
 4922SOL    HW215666   3.091   2.077   4.142
 4923SOL     OW15667   3.552   1.049   2.340
 4923SOL    HW115668   3.548   1.131   2.397
 4923SOL    HW215669   3.461   1.007   2.334
 4924SOL     OW15670   3.405   1.493   4.386
 4924SOL    HW115671   3.398   1.569   4.450
 4924SOL    HW215672   3.434   1.527   4.296
 4925SOL     OW15673   5.558   1.033   2.073
 4925SOL    HW115674   5.639   1.032   2.016
 4925SOL    HW215675   5.584   1.029   2.169
 4926SOL     OW15676   5.985   1.786   1.494
 4926SOL    HW115677   5.987   1.697   1.538
 4926SOL    HW215678   5.924   1.847   1.545
 4927SOL     OW15679   2.963   3.641   4.694
 4927SOL    HW115680   2.975   3.655   4.792
 4927SOL    HW215681   2.932   3.547   4.677
 4928SOL     OW15682   1.479   1.182   0.439
 4928SOL    HW115683   1.438   1.257   0.490
 4928SOL    HW215684   1.419   1.155   0.364
 4929SOL     OW15685   6.365   0.259   4.425
 4929SOL    HW115686   6.377   0.336   4.488
 4929SOL    HW215687   6.454   0.219   4.403
 4930SOL     OW15688   5.858   0.458   2.939
 4930SOL    HW115689   5.943   0.409   2.918
 4930SOL    HW215690   5.797   0.398   2.991
 4931SOL     OW15691   6.214   6.655   1.410
 4931SOL    HW115692   6.244   6.720   1.340
 4931SOL    HW215693   6.149   6.590   1.369
 4932SOL     OW15694   3.966   3.024   3.097
 4932SOL    HW115695   4.064   3.007   3.093
 4932SOL    HW215696   3.927   3.016   3.005
 4933SOL     OW15697   2.557   7.016   2.576
 4933SOL    HW115698   2.647   6.985   2.544
 4933SOL    HW215699   2.542   6.982   2.669
 4934SOL     OW15700   3.456   6.084   3.152
 4934SOL    HW115701   3.448   6.089   3.053
 4934SOL    HW215702   3.472   5.989   3.180
 4935SOL     OW15703   1.697   1.928   6.284
 4935SOL    HW115704   1.782   1.971   6.252
 4935SOL    HW215705   1.694   1.932   6.384
 4936SOL     OW15706   3.556   5.193   1.454
 4936SOL    HW115707   3.646   5.226   1.428
 4936SOL    HW215708   3.492   5.205   1.378
 4937SOL     OW15709   6.193   3.210   5.892
 4937SOL    HW115710   6.164   3.275   5.962
 4937SOL    HW215711   6.235   3.259   5.816
 4938SOL     OW15712   1.798   5.694   5.515
 4938SOL    HW115713   1.708   5.650   5.519
 4938SOL    HW215714   1.792   5.786   5.553
 4939SOL     OW15715   5.462   2.033   5.046
 4939SOL    HW115716   5.363   2.046   5.038
 4939SOL    HW215717   5.507   2.122   5.054
 4940SOL     OW15718   0.822   1.130   4.368
 4940SOL    HW115719   0.841   1.070   4.445
 4940SOL    HW215720   0.837   1.225   4.396
 4941SOL     OW15721   4.322   2.187   5.901
 4941SOL    HW115722   4.388   2.112   5.903
 4941SOL    HW215723   4.280   2.197   5.992
 4942SOL     OW15724   5.176   3.211   5.617
 4942SOL    HW115725   5.129   3.285   5.664
 4942SOL    HW215726   5.111   3.160   5.562
 4943SOL     OW15727   4.048   3.476   0.428
 4943SOL    HW115728   4.109   3.398   0.417
 4943SOL    HW215729   4.093   3.558   0.391
 4944SOL     OW15730   2.260   4.275   2.684
 4944SOL    HW115731   2.218   4.194   2.643
 4944SOL    HW215732   2.274   4.258   2.782
 4945SOL     OW15733   0.806   0.907   3.837
 4945SOL    HW115734   0.800   1.006   3.852
 4945SOL    HW215735   0.762   0.883   3.750
 4946SOL     OW15736   0.368   3.093   1.161
 4946SOL    HW115737   0.422   3.131   1.235
 4946SOL    HW215738   0.337   3.001   1.186
 4947SOL     OW15739   1.479   0.752   1.008
 4947SOL    HW115740   1.446   0.810   0.933
 4947SOL    HW215741   1.478   0.803   1.093
 4948SOL     OW15742   2.443   0.524   2.754
 4948SOL    HW115743   2.525   0.471   2.732
 4948SOL    HW215744   2.420   0.512   2.851
 4949SOL     OW15745   4.546   0.024   5.254
 4949SOL    HW115746   4.452   7.015   5.259
 4949SOL    HW215747   4.607   6.985   5.303
 4950SOL     OW15748   3.165   5.562   3.712
 4950SOL    HW115749   3.088   5.616   3.744
 4950SOL    HW215750   3.132   5.490   3.650
 4951SOL     OW15751   5.602   1.501   4.944
 4951SOL    HW115752   5.662   1.575   4.976
 4951SOL    HW215753   5.635   1.414   4.979
 4952SOL     OW15754   0.399   0.871   4.884
 4952SOL    HW115755   0.423   0.964   4.856
 4952SOL    HW215756   0.345   0.874   4.968
 4953SOL     OW15757   2.012   6.569   1.693
 4953SOL    HW115758   1.932   6.515   1.667
 4953SOL    HW215759   2.092   6.510   1.697
 4954SOL     OW15760   4.753   4.472   6.538
 4954SOL    HW115761   4.660   4.445   6.514
 4954SOL    HW215762   4.818   4.419   6.484
 4955SOL     OW15763   1.589   6.745   6.267
 4955SOL    HW115764   1.583   6.771   6.363
 4955SOL    HW215765   1.500   6.761   6.223
 4956SOL     OW15766   2.942   6.878   5.039
 4956SOL    HW115767   2.913   6.973   5.038
 4956SOL    HW215768   3.038   6.872   5.012
 4957SOL     OW15769   0.240   0.969   3.386
 4957SOL    HW115770   0.267   0.973   3.482
 4957SOL    HW215771   0.220   1.061   3.353
 4958SOL     OW15772   6.726   6.236   5.823
 4958SOL    HW115773   6.672   6.320   5.823
 4958SOL    HW215774   6.699   6.179   5.746
 4959SOL     OW15775   6.588   1.375   6.322
 4959SOL    HW115776   6.572   1.284   6.359
 4959SOL    HW215777   6.686   1.389   6.310
 4960SOL     OW15778   3.414   6.071   3.647
 4960SOL    HW115779   3.479   6.086   3.573
 4960SOL    HW215780   3.394   6.158   3.692
 4961SOL     OW15781   5.178   1.595   5.454
 4961SOL    HW115782   5.093   1.563   5.412
 4961SOL    HW215783   5.157   1.665   5.522
 4962SOL     OW15784   6.144   3.203   1.350
 4962SOL    HW115785   6.052   3.206   1.388
 4962SOL    HW215786   6.165   3.110   1.320
 4963SOL     OW15787   5.896   5.887   0.505
 4963SOL    HW115788   5.842   5.956   0.457
 4963SOL    HW215789   5.972   5.931   0.554
 4964SOL     OW15790   3.478   6.362   3.180
 4964SOL    HW115791   3.458   6.398   3.088
 4964SOL    HW215792   3.467   6.263   3.179
 4965SOL     OW15793   0.061   0.177   3.951
 4965SOL    HW115794   0.140   0.191   4.010
 4965SOL    HW215795   0.077   0.099   3.891
 4966SOL     OW15796   2.319   6.637   5.339
 4966SOL    HW115797   2.390   6.707   5.339
 4966SOL    HW215798   2.280   6.629   5.431
 4967SOL     OW15799   4.117   3.276   6.360
 4967SOL    HW115800   4.043   3.327   6.403
 4967SOL    HW215801   4.177   3.339   6.311
 4968SOL     OW15802   5.478   2.904   3.213
 4968SOL    HW115803   5.492   2.997   3.246
 4968SOL    HW215804   5.380   2.885   3.209
 4969SOL     OW15805   2.012   1.133   2.125
 4969SOL    HW115806   1.972   1.219   2.095
 4969SOL    HW215807   2.104   1.150   2.160
 4970SOL     OW15808   1.523   2.524   4.773
 4970SOL    HW115809   1.535   2.463   4.695
 4970SOL    HW215810   1.610   2.568   4.795
 4971SOL     OW15811   6.495   6.268   3.237
 4971SOL    HW115812   6.485   6.181   3.287
 4971SOL    HW215813   6.580   6.266   3.184
 4972SOL     OW15814   2.029   3.283   0.442
 4972SOL    HW115815   1.998   3.304   0.535
 4972SOL    HW215816   2.009   3.361   0.382
 4973SOL     OW15817   6.828   6.987   1.585
 4973SOL    HW115818   6.797   6.898   1.618
 4973SOL    HW215819   6.856   0.019   1.663
 4974SOL     OW15820   6.284   4.271   0.883
 4974SOL    HW115821   6.256   4.269   0.787
 4974SOL    HW215822   6.336   4.189   0.906
 4975SOL     OW15823   5.996   5.927   0.006
 4975SOL    HW115824   6.003   5.829   0.024
 4975SOL    HW215825   5.919   5.944   6.968
 4976SOL     OW15826   3.373   0.525   4.664
 4976SOL    HW115827   3.430   0.504   4.585
 4976SOL    HW215828   3.357   0.623   4.669
 4977SOL     OW15829   4.781   4.127   0.896
 4977SOL    HW115830   4.741   4.162   0.981
 4977SOL    HW215831   4.755   4.031   0.884
 4978SOL     OW15832   6.887   3.264   5.677
 4978SOL    HW115833   6.936   3.340   5.721
 4978SOL    HW215834   6.940   3.179   5.690
 4979SOL     OW15835   7.003   1.317   5.252
 4979SOL    HW115836   6.971   1.330   5.158
 4979SOL    HW215837   6.947   1.372   5.313
 4980SOL     OW15838   4.539   0.044   3.407
 4980SOL    HW115839   4.544   7.023   3.318
 4980SOL    HW215840   4.614   0.011   3.464
 4981SOL     OW15841   4.970   5.731   5.741
 4981SOL    HW115842   4.971   5.808   5.805
 4981SOL    HW215843   5.064   5.709   5.714
 4982SOL     OW15844   2.437   1.535   0.118
 4982SOL    HW115845   2.382   1.512   0.199
 4982SOL    HW215846   2.526   1.490   0.124
 4983SOL     OW15847   5.052   3.082   4.525
 4983SOL    HW115848   5.033   3.029   4.607
 4983SOL    HW215849   5.095   3.169   4.551
 4984SOL     OW15850   5.558   3.604   4.131
 4984SOL    HW115851   5.472   3.653   4.149
 4984SOL    HW215852   5.603   3.583   4.217
 4985SOL     OW15853   6.673   5.990   3.532
 4985SOL    HW115854   6.586   5.944   3.517
 4985SOL    HW215855   6.721   6.001   3.445
 4986SOL     OW15856   6.634   4.575   3.139
 4986SOL    HW115857   6.581   4.600   3.058
 4986SOL    HW215858   6.717   4.630   3.143
 4987SOL     OW15859   0.630   2.170   1.286
 4987SOL    HW115860   0.571   2.160   1.205
 4987SOL    HW215861   0.586   2.126   1.364
 4988SOL     OW15862   6.615   1.501   3.373
 4988SOL    HW115863   6.685   1.477   3.307
 4988SOL    HW215864   6.556   1.573   3.336
 4989SOL     OW15865   6.101   0.813   1.273
 4989SOL    HW115866   6.143   0.745   1.332
 4989SOL    HW215867   6.108   0.784   1.177
 4990SOL     OW15868   1.191   1.402   6.369
 4990SOL    HW115869   1.140   1.436   6.290
 4990SOL    HW215870   1.160   1.310   6.392
 4991SOL     OW15871   0.569   4.306   3.449
 4991SOL    HW115872   0.603   4.380   3.506
 4991SOL    HW215873   0.499   4.255   3.499
 4992SOL     OW15874   5.122   0.486   4.014
 4992SOL    HW115875   5.190   0.543   3.967
 4992SOL    HW215876   5.056   0.546   4.060
 4993SOL     OW15877   2.645   4.680   3.922
 4993SOL    HW115878   2.741   4.702   3.934
 4993SOL    HW215879   2.620   4.688   3.825
 4994SOL     OW15880   1.069   0.331   2.336
 4994SOL    HW115881   1.169   0.343   2.338
 4994SOL    HW215882   1.025   0.419   2.353
 4995SOL     OW15883   6.752   2.893   5.913
 4995SOL    HW115884   6.717   2.973   5.865
 4995SOL    HW215885   6.704   2.882   6.000
 4996SOL     OW15886   1.473   0.389   2.609
 4996SOL    HW115887   1.522   0.395   2.522
 4996SOL    HW215888   1.411   0.466   2.619
 4997SOL     OW15889   6.259   2.258   2.811
 4997SOL    HW115890   6.328   2.329   2.830
 4997SOL    HW215891   6.193   2.256   2.886
 4998SOL     OW15892   2.132   3.804   4.954
 4998SOL    HW115893   2.185   3.888   4.958
 4998SOL    HW215894   2.172   3.736   5.015
 4999SOL     OW15895   5.222   5.790   1.079
 4999SOL    HW115896   5.180   5.825   1.162
 4999SOL    HW215897   5.152   5.782   1.007
 5000SOL     OW15898   1.295   0.388   4.330
 5000SOL    HW115899   1.246   0.475   4.333
 5000SOL    HW215900   1.392   0.404   4.310
 5001SOL     OW15901   1.847   4.278   5.831
 5001SOL    HW115902   1.782   4.342   5.870
 5001SOL    HW215903   1.940   4.302   5.860
 5002SOL     OW15904   1.272   2.984   3.162
 5002SOL    HW115905   1.213   3.038   3.222
 5002SOL    HW215906   1.365   3.021   3.164
 5003SOL     OW15907   0.843   6.459   3.336
 5003SOL    HW115908   0.887   6.411   3.261
 5003SOL    HW215909   0.912   6.489   3.402
 5004SOL     OW15910   2.459   5.442   5.700
 5004SOL    HW115911   2.515   5.513   5.743
 5004SOL    HW215912   2.487   5.353   5.736
 5005SOL     OW15913   3.336   2.145   0.690
 5005SOL    HW115914   3.394   2.073   0.653
 5005SOL    HW215915   3.303   2.204   0.616
 5006SOL     OW15916   5.155   6.861   6.171
 5006SOL    HW115917   5.215   6.940   6.159
 5006SOL    HW215918   5.117   6.834   6.082
 5007SOL     OW15919   2.378   0.388   6.362
 5007SOL    HW115920   2.393   0.483   6.390
 5007SOL    HW215921   2.289   0.357   6.395
 5008SOL     OW15922   6.852   6.794   4.037
 5008SOL    HW115923   6.873   6.859   4.111
 5008SOL    HW215924   6.785   6.727   4.070
 5009SOL     OW15925   2.084   6.848   1.664
 5009SOL    HW115926   2.040   6.760   1.644
 5009SOL    HW215927   2.077   6.867   1.762
 5010SOL     OW15928   3.416   3.382   3.614
 5010SOL    HW115929   3.344   3.401   3.546
 5010SOL    HW215930   3.456   3.468   3.645
 5011SOL     OW15931   2.051   3.584   2.193
 5011SOL    HW115932   2.091   3.666   2.235
 5011SOL    HW215933   2.108   3.556   2.115
 5012SOL     OW15934   5.478   2.762   6.924
 5012SOL    HW115935   5.401   2.712   6.963
 5012SOL    HW215936   5.446   2.852   6.893
 5013SOL     OW15937   5.223   1.044   0.063
 5013SOL    HW115938   5.146   1.092   0.019
 5013SOL    HW215939   5.249   1.092   0.147
 5014SOL     OW15940   5.624   5.369   0.923
 5014SOL    HW115941   5.577   5.457   0.923
 5014SOL    HW215942   5.722   5.384   0.915
 5015SOL     OW15943   4.348   1.832   3.923
 5015SOL    HW115944   4.379   1.767   3.992
 5015SOL    HW215945   4.377   1.802   3.833
 5016SOL     OW15946   2.286   1.668   2.004
 5016SOL    HW115947   2.262   1.765   2.012
 5016SOL    HW215948   2.370   1.650   2.056
 5017SOL     OW15949   1.993   2.416   0.844
 5017SOL    HW115950   2.037   2.402   0.755
 5017SOL    HW215951   2.058   2.457   0.908
 5018SOL     OW15952   0.651   4.732   1.376
 5018SOL    HW115953   0.560   4.746   1.338
 5018SOL    HW215954   0.699   4.820   1.382
 5019SOL     OW15955   2.704   4.575   0.200
 5019SOL    HW115956   2.757   4.584   0.284
 5019SOL    HW215957   2.666   4.664   0.174
 5020SOL     OW15958   5.226   6.420   5.270
 5020SOL    HW115959   5.256   6.498   5.325
 5020SOL    HW215960   5.219   6.448   5.174
 5021SOL     OW15961   1.305   3.222   5.532
 5021SOL    HW115962   1.377   3.244   5.466
 5021SOL    HW215963   1.312   3.125   5.556
 5022SOL     OW15964   1.613   0.527   1.103
 5022SOL    HW115965   1.712   0.531   1.118
 5022SOL    HW215966   1.583   0.611   1.058
 5023SOL     OW15967   6.574   3.461   0.671
 5023SOL    HW115968   6.565   3.362   0.677
 5023SOL    HW215969   6.652   3.491   0.727
 5024SOL     OW15970   6.722   4.352   2.709
 5024SOL    HW115971   6.764   4.306   2.788
 5024SOL    HW215972   6.699   4.446   2.734
 5025SOL     OW15973   4.411   2.121   1.898
 5025SOL    HW115974   4.478   2.165   1.838
 5025SOL    HW215975   4.323   2.168   1.889
 5026SOL     OW15976   5.908   5.921   6.364
 5026SOL    HW115977   5.930   6.005   6.314
 5026SOL    HW215978   5.815   5.926   6.399
 5027SOL     OW15979   0.728   6.841   2.843
 5027SOL    HW115980   0.770   6.799   2.923
 5027SOL    HW215981   0.709   6.937   2.861
 5028SOL     OW15982   0.454   6.720   1.991
 5028SOL    HW115983   0.429   6.719   1.894
 5028SOL    HW215984   0.382   6.766   2.043
 5029SOL     OW15985   6.940   3.297   3.318
 5029SOL    HW115986   6.973   3.238   3.244
 5029SOL    HW215987   6.914   3.241   3.397
 5030SOL     OW15988   6.574   0.726   6.999
 5030SOL    HW115989   6.511   0.648   6.994
 5030SOL    HW215990   6.525   0.810   6.979
 5031SOL     OW15991   5.760   1.395   4.608
 5031SOL    HW115992   5.803   1.310   4.576
 5031SOL    HW215993   5.713   1.439   4.532
 5032SOL     OW15994   1.438   4.157   0.957
 5032SOL    HW115995   1.364   4.165   1.023
 5032SOL    HW215996   1.442   4.063   0.923
 5033SOL     OW15997   2.081   4.690   6.618
 5033SOL    HW115998   2.040   4.601   6.598
 5033SOL    HW215999   2.175   4.692   6.583
 5034SOL     OW16000   0.143   3.677   2.274
 5034SOL    HW116001   0.069   3.720   2.325
 5034SOL    HW216002   0.197   3.619   2.335
 5035SOL     OW16003   5.976   4.783   1.221
 5035SOL    HW116004   6.018   4.775   1.312
 5035SOL    HW216005   5.968   4.879   1.196
 5036SOL     OW16006   0.394   5.651   6.637
 5036SOL    HW116007   0.389   5.750   6.625
 5036SOL    HW216008   0.320   5.621   6.696
 5037SOL     OW16009   4.636   2.593   2.630
 5037SOL    HW116010   4.567   2.535   2.675
 5037SOL    HW216011   4.654   2.673   2.687
 5038SOL     OW16012   1.478   5.297   5.920
 5038SOL    HW116013   1.498   5.228   5.850
 5038SOL    HW216014   1.546   5.370   5.915
 5039SOL     OW16015   2.200   3.558   5.096
 5039SOL    HW116016   2.239   3.498   5.166
 5039SOL    HW216017   2.156   3.503   5.026
 5040SOL     OW16018   2.681   3.903   6.610
 5040SOL    HW116019   2.608   3.897   6.542
 5040SOL    HW216020   2.656   3.849   6.690
 5041SOL     OW16021   0.775   3.791   1.160
 5041SOL    HW116022   0.784   3.854   1.237
 5041SOL    HW216023   0.693   3.735   1.172
 5042SOL     OW16024   0.260   2.788   0.100
 5042SOL    HW116025   0.224   2.750   0.015
 5042SOL    HW216026   0.354   2.754   0.114
 5043SOL     OW16027   3.374   0.816   5.500
 5043SOL    HW116028   3.429   0.735   5.520
 5043SOL    HW216029   3.285   0.808   5.545
 5044SOL     OW16030   6.353   6.727   3.449
 5044SOL    HW116031   6.333   6.742   3.352
 5044SOL    HW216032   6.348   6.629   3.468
 5045SOL     OW16033   4.931   3.678   0.407
 5045SOL    HW116034   4.832   3.671   0.403
 5045SOL    HW216035   4.970   3.653   0.319
 5046SOL     OW16036   3.798   2.979   4.577
 5046SOL    HW116037   3.860   3.058   4.578
 5046SOL    HW216038   3.765   2.962   4.670
 5047SOL     OW16039   6.388   2.207   2.581
 5047SOL    HW116040   6.307   2.197   2.639
 5047SOL    HW216041   6.469   2.177   2.631
 5048SOL     OW16042   6.289   2.495   1.195
 5048SOL    HW116043   6.211   2.525   1.141
 5048SOL    HW216044   6.292   2.546   1.281
 5049SOL     OW16045   6.447   0.816   3.148
 5049SOL    HW116046   6.423   0.889   3.212
 5049SOL    HW216047   6.393   0.734   3.168
 5050SOL     OW16048   0.376   1.808   2.316
 5050SOL    HW116049   0.357   1.727   2.372
 5050SOL    HW216050   0.345   1.792   2.223
 5051SOL     OW16051   3.839   2.966   0.235
 5051SOL    HW116052   3.845   3.065   0.222
 5051SOL    HW216053   3.775   2.927   0.169
 5052SOL     OW16054   2.521   4.999   6.544
 5052SOL    HW116055   2.487   5.072   6.484
 5052SOL    HW216056   2.512   5.028   6.639
 5053SOL     OW16057   1.933   3.650   2.962
 5053SOL    HW116058   1.875   3.668   3.041
 5053SOL    HW216059   1.951   3.735   2.913
 5054SOL     OW16060   3.644   5.658   4.879
 5054SOL    HW116061   3.549   5.683   4.901
 5054SOL    HW216062   3.697   5.654   4.964
 5055SOL     OW16063   6.666   1.344   4.521
 5055SOL    HW116064   6.588   1.325   4.461
 5055SOL    HW216065   6.741   1.282   4.498
 5056SOL     OW16066   6.585   3.952   6.312
 5056SOL    HW116067   6.530   3.870   6.303
 5056SOL    HW216068   6.597   3.974   6.409
 5057SOL     OW16069   1.517   5.285   3.615
 5057SOL    HW116070   1.510   5.319   3.521
 5057SOL    HW216071   1.600   5.231   3.625
 5058SOL     OW16072   3.419   3.803   6.639
 5058SOL    HW116073   3.377   3.883   6.597
 5058SOL    HW216074   3.481   3.759   6.574
 5059SOL     OW16075   5.130   3.278   4.789
 5059SOL    HW116076   5.038   3.301   4.821
 5059SOL    HW216077   5.168   3.204   4.845
 5060SOL     OW16078   6.903   2.651   5.215
 5060SOL    HW116079   6.975   2.602   5.265
 5060SOL    HW216080   6.934   2.670   5.122
 5061SOL     OW16081   3.008   3.462   3.804
 5061SOL    HW116082   2.973   3.431   3.716
 5061SOL    HW216083   3.022   3.383   3.864
 5062SOL     OW16084   5.756   1.644   2.100
 5062SOL    HW116085   5.733   1.575   2.032
 5062SOL    HW216086   5.728   1.612   2.190
 5063SOL     OW16087   1.049   6.203   1.663
 5063SOL    HW116088   0.970   6.183   1.605
 5063SOL    HW216089   1.052   6.301   1.683
 5064SOL     OW16090   4.835   5.627   0.784
 5064SOL    HW116091   4.800   5.549   0.836
 5064SOL    HW216092   4.895   5.594   0.711
 5065SOL     OW16093   1.455   0.271   2.865
 5065SOL    HW116094   1.416   0.338   2.929
 5065SOL    HW216095   1.452   0.308   2.773
 5066SOL     OW16096   2.539   4.371   1.364
 5066SOL    HW116097   2.623   4.378   1.417
 5066SOL    HW216098   2.559   4.387   1.267
 5067SOL     OW16099   4.448   1.996   2.394
 5067SOL    HW116100   4.435   1.978   2.297
 5067SOL    HW216101   4.457   2.095   2.409
 5068SOL     OW16102   2.851   5.883   0.072
 5068SOL    HW116103   2.761   5.840   0.063
 5068SOL    HW216104   2.844   5.962   0.133
 5069SOL     OW16105   2.412   3.006   5.657
 5069SOL    HW116106   2.366   3.091   5.682
 5069SOL    HW216107   2.484   2.986   5.723
 5070SOL     OW16108   5.846   4.063   4.360
 5070SOL    HW116109   5.852   4.135   4.291
 5070SOL    HW216110   5.930   4.010   4.360
 5071SOL     OW16111   4.075   2.242   3.445
 5071SOL    HW116112   4.113   2.206   3.530
 5071SOL    HW216113   3.975   2.237   3.448
 5072SOL     OW16114   2.185   1.541   1.707
 5072SOL    HW116115   2.156   1.448   1.729
 5072SOL    HW216116   2.260   1.539   1.640
 5073SOL     OW16117   1.735   5.577   1.704
 5073SOL    HW116118   1.712   5.598   1.799
 5073SOL    HW216119   1.767   5.482   1.698
 5074SOL     OW16120   3.693   1.832   1.706
 5074SOL    HW116121   3.713   1.812   1.802
 5074SOL    HW216122   3.654   1.925   1.699
 5075SOL     OW16123   0.821   2.411   0.153
 5075SOL    HW116124   0.879   2.333   0.129
 5075SOL    HW216125   0.876   2.495   0.154
 5076SOL     OW16126   5.346   0.036   6.996
 5076SOL    HW116127   5.406   6.986   6.967
 5076SOL    HW216128   5.387   0.083   0.051
 5077SOL     OW16129   1.012   3.744   6.054
 5077SOL    HW116130   0.943   3.702   6.114
 5077SOL    HW216131   0.977   3.748   5.961
 5078SOL     OW16132   0.218   0.940   4.442
 5078SOL    HW116133   0.285   1.004   4.481
 5078SOL    HW216134   0.186   0.974   4.354
 5079SOL     OW16135   2.207   2.695   5.881
 5079SOL    HW116136   2.176   2.722   5.972
 5079SOL    HW216137   2.304   2.669   5.885
 5080SOL     OW16138   5.975   5.643   5.320
 5080SOL    HW116139   5.954   5.582   5.398
 5080SOL    HW216140   5.903   5.712   5.313
 5081SOL     OW16141   2.954   4.905   5.419
 5081SOL    HW116142   3.012   4.918   5.339
 5081SOL    HW216143   2.903   4.819   5.409
 5082SOL     OW16144   4.555   6.744   0.127
 5082SOL    HW116145   4.578   6.714   0.034
 5082SOL    HW216146   4.493   6.679   0.169
 5083SOL     OW16147   3.534   0.181   0.792
 5083SOL    HW116148   3.536   0.082   0.809
 5083SOL    HW216149   3.613   0.224   0.836
 5084SOL     OW16150   0.482   5.062   4.339
 5084SOL    HW116151   0.534   5.145   4.316
 5084SOL    HW216152   0.410   5.085   4.404
 5085SOL     OW16153   1.489   3.607   5.450
 5085SOL    HW116154   1.497   3.531   5.514
 5085SOL    HW216155   1.402   3.602   5.402
 5086SOL     OW16156   0.138   4.311   2.506
 5086SOL    HW116157   0.061   4.372   2.488
 5086SOL    HW216158   0.220   4.346   2.461
 5087SOL     OW16159   6.828   5.652   2.691
 5087SOL    HW116160   6.804   5.725   2.756
 5087SOL    HW216161   6.926   5.635   2.694
 5088SOL     OW16162   4.539   6.834   3.773
 5088SOL    HW116163   4.554   6.895   3.695
 5088SOL    HW216164   4.573   6.876   3.857
 5089SOL     OW16165   5.579   4.402   4.347
 5089SOL    HW116166   5.493   4.452   4.353
 5089SOL    HW216167   5.564   4.317   4.296
 5090SOL     OW16168   2.585   1.087   2.671
 5090SOL    HW116169   2.573   0.988   2.677
 5090SOL    HW216170   2.496   1.132   2.685
 5091SOL     OW16171   5.853   0.595   0.987
 5091SOL    HW116172   5.799   0.569   0.907
 5091SOL    HW216173   5.820   0.683   1.022
 5092SOL     OW16174   3.337   3.047   3.327
 5092SOL    HW116175   3.417   3.026   3.383
 5092SOL    HW216176   3.253   3.027   3.379
 5093SOL     OW16177   2.950   1.889   1.526
 5093SOL    HW116178   3.034   1.860   1.479
 5093SOL    HW216179   2.916   1.814   1.582
 5094SOL     OW16180   1.690   5.531   6.660
 5094SOL    HW116181   1.682   5.629   6.643
 5094SOL    HW216182   1.604   5.485   6.635
 5095SOL     OW16183   0.646   1.930   2.657
 5095SOL    HW116184   0.740   1.941   2.689
 5095SOL    HW216185   0.609   1.843   2.690
 5096SOL     OW16186   5.000   4.756   6.503
 5096SOL    HW116187   5.053   4.671   6.506
 5096SOL    HW216188   5.038   4.821   6.568
 5097SOL     OW16189   6.939   0.264   0.124
 5097SOL    HW116190   6.868   0.268   0.194
 5097SOL    HW216191   7.008   0.334   0.141
 5098SOL     OW16192   3.358   2.106   0.966
 5098SOL    HW116193   3.353   2.006   0.973
 5098SOL    HW216194   3.360   2.132   0.870
 5099SOL     OW16195   0.061   6.094   1.951
 5099SOL    HW116196   0.038   6.000   1.976
 5099SOL    HW216197   0.043   6.155   2.028
 5100SOL     OW16198   3.099   5.327   3.593
 5100SOL    HW116199   3.132   5.233   3.605
 5100SOL    HW216200   3.138   5.366   3.509
 5101SOL     OW16201   4.888   6.905   4.900
 5101SOL    HW116202   4.795   6.941   4.892
 5101SOL    HW216203   4.926   6.933   4.989
 5102SOL     OW16204   5.220   6.266   4.390
 5102SOL    HW116205   5.143   6.222   4.435
 5102SOL    HW216206   5.291   6.286   4.457
 5103SOL     OW16207   0.815   1.349   4.570
 5103SOL    HW116208   0.812   1.430   4.511
 5103SOL    HW216209   0.883   1.364   4.642
 5104SOL     OW16210   2.668   6.133   1.543
 5104SOL    HW116211   2.714   6.210   1.586
 5104SOL    HW216212   2.576   6.161   1.515
 5105SOL     OW16213   2.860   2.646   6.236
 5105SOL    HW116214   2.901   2.715   6.296
 5105SOL    HW216215   2.798   2.691   6.172
 5106SOL     OW16216   3.791   1.500   1.144
 5106SOL    HW116217   3.868   1.452   1.102
 5106SOL    HW216218   3.757   1.448   1.222
 5107SOL     OW16219   5.067   2.311   1.051
 5107SOL    HW116220   5.006   2.386   1.075
 5107SOL    HW216221   5.023   2.252   0.982
 5108SOL     OW16222   3.947   3.807   5.076
 5108SOL    HW116223   3.966   3.887   5.133
 5108SOL    HW216224   4.016   3.737   5.093
 5109SOL     OW16225   1.393   2.637   0.569
 5109SOL    HW116226   1.429   2.705   0.505
 5109SOL    HW216227   1.392   2.547   0.526
 5110SOL     OW16228   0.395   0.760   6.393
 5110SOL    HW116229   0.477   0.804   6.431
 5110SOL    HW216230   0.421   0.673   6.352
 5111SOL     OW16231   0.974   6.769   4.180
 5111SOL    HW116232   0.928   6.714   4.251
 5111SOL    HW216233   1.069   6.784   4.206
 5112SOL     OW16234   1.033   0.463   2.723
 5112SOL    HW116235   0.995   0.434   2.635
 5112SOL    HW216236   0.958   0.496   2.782
 5113SOL     OW16237   1.641   5.745   1.288
 5113SOL    HW116238   1.619   5.676   1.357
 5113SOL    HW216239   1.573   5.818   1.293
 5114SOL     OW16240   3.707   6.569   6.632
 5114SOL    HW116241   3.714   6.515   6.716
 5114SOL    HW216242   3.646   6.523   6.567
 5115SOL     OW16243   1.705   4.471   2.316
 5115SOL    HW116244   1.756   4.385   2.317
 5115SOL    HW216245   1.741   4.532   2.387
 5116SOL     OW16246   1.940   6.654   0.276
 5116SOL    HW116247   1.892   6.616   0.355
 5116SOL    HW216248   2.020   6.705   0.307
 5117SOL     OW16249   0.694   3.907   3.770
 5117SOL    HW116250   0.620   3.972   3.790
 5117SOL    HW216251   0.722   3.862   3.855
 5118SOL     OW16252   5.710   0.923   0.097
 5118SOL    HW116253   5.678   0.866   0.021
 5118SOL    HW216254   5.810   0.924   0.098
 5119SOL     OW16255   4.551   1.512   1.433
 5119SOL    HW116256   4.629   1.450   1.419
 5119SOL    HW216257   4.585   1.606   1.443
 5120SOL     OW16258   4.948   6.413   5.348
 5120SOL    HW116259   4.958   6.315   5.333
 5120SOL    HW216260   4.983   6.463   5.269
 5121SOL     OW16261   3.109   3.216   6.877
 5121SOL    HW116262   3.066   3.303   6.900
 5121SOL    HW216263   3.131   3.215   6.779
 5122SOL     OW16264   3.185   5.891   2.976
 5122SOL    HW116265   3.266   5.836   2.959
 5122SOL    HW216266   3.172   5.955   2.900
 5123SOL     OW16267   5.938   2.163   4.115
 5123SOL    HW116268   5.885   2.135   4.195
 5123SOL    HW216269   6.035   2.148   4.133
 5124SOL     OW16270   2.509   6.145   4.246
 5124SOL    HW116271   2.436   6.122   4.311
 5124SOL    HW216272   2.477   6.217   4.185
 5125SOL     OW16273   0.160   1.938   3.425
 5125SOL    HW116274   0.078   1.893   3.461
 5125SOL    HW216275   0.242   1.893   3.463
 5126SOL     OW16276   0.479   6.186   6.920
 5126SOL    HW116277   0.568   6.176   6.964
 5126SOL    HW216278   0.408   6.142   6.976
 5127SOL     OW16279   0.402   5.208   6.920
 5127SOL    HW116280   0.459   5.126   6.933
 5127SOL    HW216281   0.314   5.182   6.882
 5128SOL     OW16282   6.806   6.634   0.605
 5128SOL    HW116283   6.880   6.701   0.616
 5128SOL    HW216284   6.818   6.560   0.671
 5129SOL     OW16285   4.932   6.579   2.748
 5129SOL    HW116286   4.974   6.492   2.773
 5129SOL    HW216287   4.981   6.654   2.792
 5130SOL     OW16288   0.060   5.532   2.886
 5130SOL    HW116289   0.076   5.452   2.828
 5130SOL    HW216290   0.006   5.504   2.966
 5131SOL     OW16291   2.054   3.801   4.374
 5131SOL    HW116292   2.047   3.775   4.470
 5131SOL    HW216293   2.034   3.899   4.365
 5132SOL     OW16294   4.489   3.086   5.968
 5132SOL    HW116295   4.569   3.070   6.026
 5132SOL    HW216296   4.415   3.024   5.995
 5133SOL     OW16297   2.807   5.178   0.286
 5133SOL    HW116298   2.831   5.087   0.251
 5133SOL    HW216299   2.849   5.191   0.376
 5134SOL     OW16300   6.585   2.635   1.842
 5134SOL    HW116301   6.578   2.595   1.934
 5134SOL    HW216302   6.499   2.621   1.793
 5135SOL     OW16303   6.500   2.261   4.954
 5135SOL    HW116304   6.565   2.207   5.006
 5135SOL    HW216305   6.409   2.220   4.962
 5136SOL     OW16306   4.678   0.004   5.918
 5136SOL    HW116307   4.603   0.069   5.932
 5136SOL    HW216308   4.721   7.008   6.006
 5137SOL     OW16309   5.523   3.478   6.693
 5137SOL    HW116310   5.494   3.550   6.755
 5137SOL    HW216311   5.459   3.401   6.698
 5138SOL     OW16312   3.072   2.621   5.785
 5138SOL    HW116313   2.981   2.661   5.785
 5138SOL    HW216314   3.141   2.694   5.788
 5139SOL     OW16315   1.285   6.720   3.572
 5139SOL    HW116316   1.264   6.697   3.667
 5139SOL    HW216317   1.383   6.737   3.562
 5140SOL     OW16318   3.507   1.409   0.264
 5140SOL    HW116319   3.511   1.463   0.348
 5140SOL    HW216320   3.468   1.464   0.191
 5141SOL     OW16321   7.001   4.013   0.780
 5141SOL    HW116322   7.020   3.985   0.874
 5141SOL    HW216323   0.025   4.097   0.759
 5142SOL     OW16324   6.128   1.116   4.030
 5142SOL    HW116325   6.079   1.066   3.959
 5142SOL    HW216326   6.162   1.051   4.099
 5143SOL     OW16327   0.745   4.494   4.012
 5143SOL    HW116328   0.799   4.576   3.991
 5143SOL    HW216329   0.692   4.468   3.932
 5144SOL     OW16330   0.649   5.549   6.637
 5144SOL    HW116331   0.562   5.598   6.643
 5144SOL    HW216332   0.644   5.465   6.691
 5145SOL     OW16333   1.587   4.533   6.246
 5145SOL    HW116334   1.684   4.510   6.235
 5145SOL    HW216335   1.575   4.587   6.329
 5146SOL     OW16336   3.929   3.297   5.405
 5146SOL    HW116337   3.879   3.215   5.432
 5146SOL    HW216338   3.916   3.313   5.307
 5147SOL     OW16339   6.643   4.716   2.446
 5147SOL    HW116340   6.650   4.815   2.447
 5147SOL    HW216341   6.646   4.683   2.352
 5148SOL     OW16342   0.860   6.573   1.128
 5148SOL    HW116343   0.905   6.520   1.057
 5148SOL    HW216344   0.772   6.531   1.150
 5149SOL     OW16345   6.086   5.838   4.281
 5149SOL    HW116346   6.164   5.861   4.223
 5149SOL    HW216347   6.053   5.921   4.327
 5150SOL     OW16348   2.045   5.166   2.831
 5150SOL    HW116349   2.110   5.093   2.850
 5150SOL    HW216350   2.091   5.255   2.838
 5151SOL     OW16351   5.394   1.874   0.562
 5151SOL    HW116352   5.461   1.814   0.519
 5151SOL    HW216353   5.441   1.940   0.621
 5152SOL     OW16354   2.063   4.370   6.706
 5152SOL    HW116355   2.138   4.434   6.721
 5152SOL    HW216356   2.070   4.295   6.772
 5153SOL     OW16357   2.427   0.740   6.663
 5153SOL    HW116358   2.408   0.838   6.656
 5153SOL    HW216359   2.418   0.698   6.572
 5154SOL     OW16360   1.725   2.819   6.470
 5154SOL    HW116361   1.631   2.827   6.437
 5154SOL    HW216362   1.737   2.878   6.550
 5155SOL     OW16363   3.556   6.753   2.203
 5155SOL    HW116364   3.587   6.670   2.157
 5155SOL    HW216365   3.610   6.767   2.286
 5156SOL     OW16366   0.007   3.472   5.762
 5156SOL    HW116367   0.097   3.432   5.778
 5156SOL    HW216368   0.017   3.571   5.747
 5157SOL     OW16369   4.355   2.391   3.522
 5157SOL    HW116370   4.425   2.344   3.576
 5157SOL    HW216371   4.295   2.323   3.480
 5158SOL     OW16372   3.085   1.130   1.266
 5158SOL    HW116373   3.147   1.165   1.197
 5158SOL    HW216374   3.137   1.087   1.340
 5159SOL     OW16375   0.148   3.048   4.315
 5159SOL    HW116376   0.138   3.021   4.219
 5159SOL    HW216377   0.203   2.979   4.363
 5160SOL     OW16378   0.442   4.437   3.061
 5160SOL    HW116379   0.387   4.506   3.013
 5160SOL    HW216380   0.403   4.420   3.151
 5161SOL     OW16381   1.744   3.661   4.260
 5161SOL    HW116382   1.807   3.734   4.287
 5161SOL    HW216383   1.754   3.643   4.162
 5162SOL     OW16384   1.173   4.767   4.008
 5162SOL    HW116385   1.197   4.845   3.950
 5162SOL    HW216386   1.137   4.800   4.095
 5163SOL     OW16387   3.807   5.106   1.198
 5163SOL    HW116388   3.735   5.050   1.156
 5163SOL    HW216389   3.847   5.167   1.130
 5164SOL     OW16390   5.240   2.646   0.028
 5164SOL    HW116391   5.177   2.717   7.021
 5164SOL    HW216392   5.190   2.560   0.041
 5165SOL     OW16393   6.297   3.597   5.241
 5165SOL    HW116394   6.287   3.637   5.149
 5165SOL    HW216395   6.241   3.648   5.306
 5166SOL     OW16396   1.083   5.976   2.111
 5166SOL    HW116397   1.068   5.927   2.197
 5166SOL    HW216398   1.112   6.069   2.131
 5167SOL     OW16399   5.899   6.943   5.788
 5167SOL    HW116400   5.912   6.860   5.732
 5167SOL    HW216401   5.967   7.011   5.762
 5168SOL     OW16402   5.219   2.847   3.309
 5168SOL    HW116403   5.207   2.769   3.370
 5168SOL    HW216404   5.132   2.894   3.298
 5169SOL     OW16405   3.715   2.159   5.655
 5169SOL    HW116406   3.694   2.133   5.749
 5169SOL    HW216407   3.656   2.107   5.593
 5170SOL     OW16408   6.983   3.588   6.066
 5170SOL    HW116409   6.946   3.674   6.032
 5170SOL    HW216410   6.996   3.524   5.990
 5171SOL     OW16411   2.134   5.069   3.930
 5171SOL    HW116412   2.106   4.982   3.889
 5171SOL    HW216413   2.057   5.108   3.981
 5172SOL     OW16414   6.664   2.980   2.175
 5172SOL    HW116415   6.610   2.915   2.229
 5172SOL    HW216416   6.658   2.954   2.078
 5173SOL     OW16417   6.016   4.696   5.919
 5173SOL    HW116418   5.980   4.609   5.883
 5173SOL    HW216419   5.959   4.726   5.996
 5174SOL     OW16420   2.072   4.843   3.816
 5174SOL    HW116421   2.016   4.882   3.743
 5174SOL    HW216422   2.145   4.788   3.776
 5175SOL     OW16423   2.510   4.310   6.839
 5175SOL    HW116424   2.442   4.310   6.912
 5175SOL    HW216425   2.600   4.287   6.876
 5176SOL     OW16426   4.375   3.457   0.455
 5176SOL    HW116427   4.425   3.517   0.518
 5176SOL    HW216428   4.433   3.378   0.432
 5177SOL     OW16429   4.488   0.182   5.986
 5177SOL    HW116430   4.528   0.274   5.985
 5177SOL    HW216431   4.435   0.167   5.903
 5178SOL     OW16432   1.830   3.211   1.210
 5178SOL    HW116433   1.885   3.223   1.128
 5178SOL    HW216434   1.876   3.253   1.288
 5179SOL     OW16435   4.026   5.881   5.239
 5179SOL    HW116436   4.039   5.917   5.332
 5179SOL    HW216437   4.034   5.956   5.173
 5180SOL     OW16438   2.933   2.847   6.709
 5180SOL    HW116439   2.893   2.760   6.681
 5180SOL    HW216440   3.033   2.840   6.712
 5181SOL     OW16441   5.189   1.980   2.037
 5181SOL    HW116442   5.194   2.071   2.080
 5181SOL    HW216443   5.213   1.988   1.941
 5182SOL     OW16444   4.494   5.091   1.469
 5182SOL    HW116445   4.564   5.161   1.450
 5182SOL    HW216446   4.408   5.136   1.492
 5183SOL     OW16447   3.792   0.594   2.595
 5183SOL    HW116448   3.871   0.653   2.612
 5183SOL    HW216449   3.721   0.646   2.548
 5184SOL     OW16450   0.705   2.298   4.053
 5184SOL    HW116451   0.678   2.326   4.145
 5184SOL    HW216452   0.799   2.329   4.035
 5185SOL     OW16453   4.983   7.016   3.406
 5185SOL    HW116454   4.977   6.923   3.368
 5185SOL    HW216455   4.912   0.049   3.365
 5186SOL     OW16456   5.261   3.552   0.918
 5186SOL    HW116457   5.233   3.618   0.988
 5186SOL    HW216458   5.282   3.601   0.833
 5187SOL     OW16459   6.446   0.689   3.692
 5187SOL    HW116460   6.441   0.599   3.736
 5187SOL    HW216461   6.540   0.708   3.666
 5188SOL     OW16462   0.916   5.092   0.516
 5188SOL    HW116463   0.953   5.166   0.460
 5188SOL    HW216464   0.958   5.005   0.490
 5189SOL     OW16465   5.060   4.795   1.126
 5189SOL    HW116466   5.063   4.807   1.027
 5189SOL    HW216467   5.051   4.698   1.148
 5190SOL     OW16468   0.692   2.416   4.325
 5190SOL    HW116469   0.757   2.461   4.264
 5190SOL    HW216470   0.682   2.470   4.409
 5191SOL     OW16471   4.425   0.465   2.099
 5191SOL    HW116472   4.509   0.497   2.056
 5191SOL    HW216473   4.368   0.543   2.124
 5192SOL     OW16474   3.638   5.583   2.535
 5192SOL    HW116475   3.595   5.620   2.453
 5192SOL    HW216476   3.721   5.634   2.555
 5193SOL     OW16477   4.951   5.221   3.904
 5193SOL    HW116478   4.853   5.203   3.899
 5193SOL    HW216479   4.998   5.139   3.938
 5194SOL     OW16480   4.370   0.508   6.816
 5194SOL    HW116481   4.360   0.597   6.860
 5194SOL    HW216482   4.399   0.520   6.721
 5195SOL     OW16483   6.944   5.886   4.236
 5195SOL    HW116484   6.984   5.968   4.278
 5195SOL    HW216485   7.012   5.812   4.237
 5196SOL     OW16486   1.268   3.783   1.064
 5196SOL    HW116487   1.315   3.696   1.083
 5196SOL    HW216488   1.319   3.833   0.994
 5197SOL     OW16489   1.954   5.948   4.416
 5197SOL    HW116490   2.007   5.875   4.459
 5197SOL    HW216491   1.884   5.980   4.480
 5198SOL     OW16492   3.960   0.286   3.946
 5198SOL    HW116493   4.044   0.338   3.930
 5198SOL    HW216494   3.969   0.196   3.904
 5199SOL     OW16495   1.830   5.936   0.303
 5199SOL    HW116496   1.876   5.924   0.215
 5199SOL    HW216497   1.884   5.893   0.375
 5200SOL     OW16498   1.067   1.909   5.027
 5200SOL    HW116499   1.030   1.817   5.015
 5200SOL    HW216500   1.122   1.912   5.111
 5201SOL     OW16501   5.405   5.704   4.209
 5201SOL    HW116502   5.390   5.725   4.306
 5201SOL    HW216503   5.365   5.615   4.188
 5202SOL     OW16504   6.087   3.593   6.243
 5202SOL    HW116505   6.112   3.517   6.303
 5202SOL    HW216506   6.162   3.659   6.240
 5203SOL     OW16507   1.895   0.495   6.994
 5203SOL    HW116508   1.987   0.509   6.956
 5203SOL    HW216509   1.840   0.577   6.979
 5204SOL     OW16510   3.435   6.507   0.132
 5204SOL    HW116511   3.403   6.546   0.219
 5204SOL    HW216512   3.493   6.573   0.085
 5205SOL     OW16513   6.834   5.651   0.519
 5205SOL    HW116514   6.924   5.639   0.561
 5205SOL    HW216515   6.818   5.576   0.454
 5206SOL     OW16516   0.858   5.014   6.070
 5206SOL    HW116517   0.864   4.938   6.005
 5206SOL    HW216518   0.950   5.046   6.092
 5207SOL     OW16519   0.731   0.795   3.586
 5207SOL    HW116520   0.674   0.736   3.643
 5207SOL    HW216521   0.782   0.740   3.521
 5208SOL     OW16522   4.398   2.740   0.442
 5208SOL    HW116523   4.463   2.765   0.513
 5208SOL    HW216524   4.395   2.813   0.373
 5209SOL     OW16525   5.690   0.659   1.644
 5209SOL    HW116526   5.711   0.646   1.547
 5209SOL    HW216527   5.599   0.698   1.653
 5210SOL     OW16528   5.097   3.966   1.023
 5210SOL    HW116529   5.138   3.975   0.932
 5210SOL    HW216530   5.001   3.940   1.013
 5211SOL     OW16531   5.238   1.739   4.790
 5211SOL    HW116532   5.208   1.653   4.832
 5211SOL    HW216533   5.336   1.733   4.769
 5212SOL     OW16534   1.287   2.743   1.035
 5212SOL    HW116535   1.343   2.663   1.014
 5212SOL    HW216536   1.196   2.731   0.997
 5213SOL     OW16537   4.340   3.581   1.309
 5213SOL    HW116538   4.345   3.679   1.329
 5213SOL    HW216539   4.283   3.536   1.378
 5214SOL     OW16540   5.432   3.446   5.511
 5214SOL    HW116541   5.381   3.360   5.511
 5214SOL    HW216542   5.412   3.496   5.427
 5215SOL     OW16543   0.233   4.504   4.416
 5215SOL    HW116544   0.213   4.499   4.318
 5215SOL    HW216545   0.180   4.435   4.465
 5216SOL     OW16546   4.832   5.679   1.300
 5216SOL    HW116547   4.895   5.630   1.241
 5216SOL    HW216548   4.781   5.613   1.356
 5217SOL     OW16549   3.925   5.555   4.723
 5217SOL    HW116550   3.971   5.591   4.803
 5217SOL    HW216551   3.851   5.493   4.751
 5218SOL     OW16552   0.278   0.917   1.376
 5218SOL    HW116553   0.220   0.856   1.430
 5218SOL    HW216554   0.372   0.913   1.410
 5219SOL     OW16555   3.725   1.822   4.137
 5219SOL    HW116556   3.719   1.784   4.229
 5219SOL    HW216557   3.801   1.888   4.133
 5220SOL     OW16558   1.642   5.017   2.774
 5220SOL    HW116559   1.617   4.920   2.782
 5220SOL    HW216560   1.618   5.065   2.858
 5221SOL     OW16561   0.051   0.315   2.198
 5221SOL    HW116562   0.085   0.375   2.271
 5221SOL    HW216563   0.002   0.238   2.239
 5222SOL     OW16564   3.793   5.743   2.230
 5222SOL    HW116565   3.865   5.685   2.266
 5222SOL    HW216566   3.769   5.714   2.137
 5223SOL     OW16567   0.390   2.629   0.836
 5223SOL    HW116568   0.316   2.688   0.803
 5223SOL    HW216569   0.353   2.539   0.858
 5224SOL     OW16570   6.974   1.819   4.345
 5224SOL    HW116571   6.951   1.726   4.374
 5224SOL    HW216572   6.890   1.871   4.327
 5225SOL     OW16573   6.705   0.522   3.933
 5225SOL    HW116574   6.704   0.611   3.980
 5225SOL    HW216575   6.795   0.508   3.891
 5226SOL     OW16576   0.302   6.080   3.316
 5226SOL    HW116577   0.315   6.044   3.223
 5226SOL    HW216578   0.291   6.179   3.312
 5227SOL     OW16579   6.796   4.030   5.796
 5227SOL    HW116580   6.712   4.015   5.743
 5227SOL    HW216581   6.787   3.986   5.885
 5228SOL     OW16582   0.443   2.176   0.383
 5228SOL    HW116583   0.475   2.106   0.320
 5228SOL    HW216584   0.429   2.136   0.474
 5229SOL     OW16585   3.167   6.394   6.994
 5229SOL    HW116586   3.168   6.295   7.000
 5229SOL    HW216587   3.119   6.432   0.049
 5230SOL     OW16588   6.565   0.087   2.846
 5230SOL    HW116589   6.657   0.067   2.881
 5230SOL    HW216590   6.508   0.005   2.854
 5231SOL     OW16591   4.397   2.455   3.806
 5231SOL    HW116592   4.364   2.454   3.712
 5231SOL    HW216593   4.490   2.491   3.808
 5232SOL     OW16594   1.076   4.106   5.882
 5232SOL    HW116595   1.143   4.036   5.856
 5232SOL    HW216596   1.005   4.065   5.939
 5233SOL     OW16597   3.629   0.587   1.808
 5233SOL    HW116598   3.570   0.665   1.788
 5233SOL    HW216599   3.609   0.512   1.745
 5234SOL     OW16600   2.820   3.085   6.600
 5234SOL    HW116601   2.865   3.005   6.638
 5234SOL    HW216602   2.850   3.167   6.649
 5235SOL     OW16603   1.762   2.537   0.969
 5235SOL    HW116604   1.851   2.524   0.924
 5235SOL    HW216605   1.716   2.616   0.929
 5236SOL     OW16606   3.546   5.176   2.099
 5236SOL    HW116607   3.521   5.104   2.165
 5236SOL    HW216608   3.503   5.262   2.126
 5237SOL     OW16609   2.284   1.146   4.344
 5237SOL    HW116610   2.221   1.176   4.416
 5237SOL    HW216611   2.368   1.201   4.348
 5238SOL     OW16612   0.966   5.547   1.345
 5238SOL    HW116613   1.055   5.555   1.300
 5238SOL    HW216614   0.979   5.540   1.444
 5239SOL     OW16615   3.544   2.976   0.093
 5239SOL    HW116616   3.611   3.036   0.049
 5239SOL    HW216617   3.500   3.025   0.169
 5240SOL     OW16618   2.945   2.246   5.240
 5240SOL    HW116619   2.899   2.311   5.180
 5240SOL    HW216620   3.038   2.231   5.207
 5241SOL     OW16621   0.701   5.601   2.798
 5241SOL    HW116622   0.661   5.596   2.889
 5241SOL    HW216623   0.768   5.675   2.794
 5242SOL     OW16624   5.120   7.015   2.069
 5242SOL    HW116625   5.194   0.054   2.091
 5242SOL    HW216626   5.032   0.034   2.088
 5243SOL     OW16627   2.396   6.195   1.528
 5243SOL    HW116628   2.416   6.204   1.430
 5243SOL    HW216629   2.357   6.281   1.562
 5244SOL     OW16630   4.828   4.087   0.188
 5244SOL    HW116631   4.761   4.161   0.181
 5244SOL    HW216632   4.844   4.065   0.285
 5245SOL     OW16633   3.726   4.718   0.743
 5245SOL    HW116634   3.811   4.701   0.693
 5245SOL    HW216635   3.718   4.816   0.762
 5246SOL     OW16636   6.498   2.785   2.295
 5246SOL    HW116637   6.454   2.696   2.302
 5246SOL    HW216638   6.431   2.853   2.266
 5247SOL     OW16639   3.462   0.688   6.365
 5247SOL    HW116640   3.452   0.589   6.374
 5247SOL    HW216641   3.386   0.724   6.312
 5248SOL     OW16642   0.188   1.985   3.142
 5248SOL    HW116643   0.202   2.000   3.239
 5248SOL    HW216644   0.112   1.921   3.129
 5249SOL     OW16645   1.384   6.254   6.731
 5249SOL    HW116646   1.303   6.247   6.790
 5249SOL    HW216647   1.394   6.171   6.677
 5250SOL     OW16648   0.617   5.550   0.840
 5250SOL    HW116649   0.568   5.466   0.865
 5250SOL    HW216650   0.715   5.530   0.834
 5251SOL     OW16651   1.453   4.481   0.863
 5251SOL    HW116652   1.424   4.400   0.914
 5251SOL    HW216653   1.505   4.454   0.783
 5252SOL     OW16654   2.262   6.693   1.258
 5252SOL    HW116655   2.195   6.662   1.191
 5252SOL    HW216656   2.352   6.698   1.215
 5253SOL     OW16657   6.778   3.862   4.665
 5253SOL    HW116658   6.727   3.776   4.666
 5253SOL    HW216659   6.869   3.847   4.703
 5254SOL     OW16660   5.934   0.263   3.635
 5254SOL    HW116661   6.002   0.320   3.682
 5254SOL    HW216662   5.863   0.236   3.700
 5255SOL     OW16663   5.233   2.552   4.705
 5255SOL    HW116664   5.243   2.572   4.802
 5255SOL    HW216665   5.259   2.456   4.688
 5256SOL     OW16666   4.974   1.911   4.219
 5256SOL    HW116667   5.007   1.989   4.166
 5256SOL    HW216668   4.951   1.941   4.312
 5257SOL     OW16669   4.329   0.159   1.275
 5257SOL    HW116670   4.337   0.147   1.374
 5257SOL    HW216671   4.420   0.152   1.233
 5258SOL     OW16672   5.525   2.481   2.468
 5258SOL    HW116673   5.501   2.570   2.506
 5258SOL    HW216674   5.506   2.481   2.369
 5259SOL     OW16675   4.990   5.992   2.930
 5259SOL    HW116676   4.987   6.021   3.025
 5259SOL    HW216677   4.969   6.069   2.870
 5260SOL     OW16678   4.428   4.906   0.688
 5260SOL    HW116679   4.459   4.815   0.662
 5260SOL    HW216680   4.340   4.899   0.735
 5261SOL     OW16681   6.822   4.115   6.324
 5261SOL    HW116682   6.745   4.087   6.267
 5261SOL    HW216683   6.824   4.215   6.330
 5262SOL     OW16684   3.452   1.210   3.411
 5262SOL    HW116685   3.360   1.183   3.384
 5262SOL    HW216686   3.475   1.167   3.499
 5263SOL     OW16687   1.613   1.404   2.982
 5263SOL    HW116688   1.544   1.470   2.954
 5263SOL    HW216689   1.614   1.397   3.082
 5264SOL     OW16690   6.364   3.047   1.635
 5264SOL    HW116691   6.432   2.991   1.587
 5264SOL    HW216692   6.409   3.098   1.708
 5265SOL     OW16693   6.225   2.960   4.488
 5265SOL    HW116694   6.323   2.979   4.494
 5265SOL    HW216695   6.175   3.046   4.489
 5266SOL     OW16696   2.637   6.006   6.924
 5266SOL    HW116697   2.710   6.073   6.931
 5266SOL    HW216698   2.564   6.029   6.989
 5267SOL     OW16699   5.111   2.400   4.400
 5267SOL    HW116700   5.075   2.481   4.446
 5267SOL    HW216701   5.203   2.418   4.367
 5268SOL     OW16702   4.947   0.729   0.367
 5268SOL    HW116703   4.981   0.743   0.460
 5268SOL    HW216704   4.852   0.759   0.362
 5269SOL     OW16705   0.553   6.990   2.464
 5269SOL    HW116706   0.643   6.960   2.496
 5269SOL    HW216707   0.535   6.951   2.374
 5270SOL     OW16708   5.961   1.463   1.801
 5270SOL    HW116709   5.868   1.449   1.833
 5270SOL    HW216710   5.961   1.477   1.702
 5271SOL     OW16711   5.656   4.640   5.103
 5271SOL    HW116712   5.699   4.566   5.052
 5271SOL    HW216713   5.683   4.635   5.199
 5272SOL     OW16714   3.139   5.412   1.258
 5272SOL    HW116715   3.165   5.476   1.331
 5272SOL    HW216716   3.146   5.318   1.292
 5273SOL     OW16717   0.545   3.435   2.955
 5273SOL    HW116718   0.491   3.359   2.920
 5273SOL    HW216719   0.641   3.423   2.928
 5274SOL     OW16720   5.332   6.961   3.000
 5274SOL    HW116721   5.261   0.007   2.999
 5274SOL    HW216722   5.383   6.963   2.914
 5275SOL     OW16723   3.902   0.780   0.848
 5275SOL    HW116724   3.840   0.827   0.911
 5275SOL    HW216725   3.963   0.720   0.899
 5276SOL     OW16726   2.267   0.324   1.266
 5276SOL    HW116727   2.188   0.356   1.319
 5276SOL    HW216728   2.237   0.294   1.176
 5277SOL     OW16729   2.813   1.230   2.719
 5277SOL    HW116730   2.827   1.253   2.815
 5277SOL    HW216731   2.746   1.157   2.711
 5278SOL     OW16732   4.951   5.601   4.180
 5278SOL    HW116733   5.011   5.655   4.239
 5278SOL    HW216734   4.916   5.522   4.230
 5279SOL     OW16735   2.764   5.661   0.519
 5279SOL    HW116736   2.735   5.740   0.572
 5279SOL    HW216737   2.724   5.666   0.427
 5280SOL     OW16738   3.376   6.492   5.243
 5280SOL    HW116739   3.321   6.549   5.182
 5280SOL    HW216740   3.379   6.533   5.334
 5281SOL     OW16741   6.403   1.921   2.345
 5281SOL    HW116742   6.417   2.015   2.314
 5281SOL    HW216743   6.306   1.898   2.340
 5282SOL     OW16744   3.951   1.540   3.601
 5282SOL    HW116745   3.867   1.491   3.579
 5282SOL    HW216746   4.027   1.474   3.608
 5283SOL     OW16747   4.860   6.668   2.215
 5283SOL    HW116748   4.881   6.642   2.309
 5283SOL    HW216749   4.944   6.683   2.164
 5284SOL     OW16750   5.387   4.347   3.330
 5284SOL    HW116751   5.469   4.316   3.283
 5284SOL    HW216752   5.324   4.387   3.264
 5285SOL     OW16753   3.000   4.960   4.189
 5285SOL    HW116754   2.995   5.011   4.275
 5285SOL    HW216755   2.925   4.989   4.130
 5286SOL     OW16756   2.428   4.667   1.207
 5286SOL    HW116757   2.415   4.765   1.223
 5286SOL    HW216758   2.348   4.617   1.238
 5287SOL     OW16759   2.668   1.318   0.707
 5287SOL    HW116760   2.739   1.388   0.711
 5287SOL    HW216761   2.709   1.230   0.681
 5288SOL     OW16762   3.570   0.402   1.588
 5288SOL    HW116763   3.574   0.308   1.552
 5288SOL    HW216764   3.476   0.435   1.586
 5289SOL     OW16765   1.502   4.847   0.016
 5289SOL    HW116766   1.595   4.814   0.002
 5289SOL    HW216767   1.450   4.838   6.955
 5290SOL     OW16768   2.467   5.182   6.180
 5290SOL    HW116769   2.519   5.158   6.098
 5290SOL    HW216770   2.388   5.121   6.190
 5291SOL     OW16771   2.777   5.706   5.475
 5291SOL    HW116772   2.734   5.616   5.467
 5291SOL    HW216773   2.868   5.704   5.432
 5292SOL     OW16774   6.097   2.670   0.393
 5292SOL    HW116775   6.130   2.755   0.350
 5292SOL    HW216776   6.002   2.655   0.366
 5293SOL     OW16777   0.624   0.884   4.616
 5293SOL    HW116778   0.565   0.963   4.603
 5293SOL    HW216779   0.623   0.828   4.533
 5294SOL     OW16780   4.993   3.793   6.218
 5294SOL    HW116781   5.055   3.760   6.290
 5294SOL    HW216782   4.955   3.882   6.245
 5295SOL     OW16783   5.388   0.869   2.847
 5295SOL    HW116784   5.415   0.911   2.934
 5295SOL    HW216785   5.341   0.937   2.790
 5296SOL     OW16786   1.516   5.442   6.982
 5296SOL    HW116787   1.488   5.437   0.053
 5296SOL    HW216788   1.568   5.526   6.967
 5297SOL     OW16789   1.545   2.848   1.219
 5297SOL    HW116790   1.470   2.853   1.286
 5297SOL    HW216791   1.616   2.787   1.254
 5298SOL     OW16792   6.431   5.805   2.291
 5298SOL    HW116793   6.387   5.734   2.348
 5298SOL    HW216794   6.406   5.791   2.196
 5299SOL     OW16795   2.556   0.761   1.446
 5299SOL    HW116796   2.497   0.822   1.499
 5299SOL    HW216797   2.650   0.794   1.450
 5300SOL     OW16798   0.617   5.469   3.257
 5300SOL    HW116799   0.596   5.375   3.285
 5300SOL    HW216800   0.690   5.468   3.189
 5301SOL     OW16801   3.845   1.412   7.002
 5301SOL    HW116802   3.884   1.344   6.940
 5301SOL    HW216803   3.918   1.473   0.009
 5302SOL     OW16804   6.186   4.223   2.070
 5302SOL    HW116805   6.086   4.230   2.068
 5302SOL    HW216806   6.224   4.312   2.096
 5303SOL     OW16807   6.345   5.991   4.110
 5303SOL    HW116808   6.380   6.072   4.157
 5303SOL    HW216809   6.399   5.974   4.028
 5304SOL     OW16810   5.109   2.146   6.203
 5304SOL    HW116811   5.200   2.149   6.164
 5304SOL    HW216812   5.085   2.237   6.238
 5305SOL     OW16813   1.477   0.856   4.398
 5305SOL    HW116814   1.453   0.809   4.483
 5305SOL    HW216815   1.500   0.952   4.418
 5306SOL     OW16816   2.574   6.201   5.407
 5306SOL    HW116817   2.500   6.269   5.407
 5306SOL    HW216818   2.574   6.152   5.319
 5307SOL     OW16819   4.144   6.154   6.471
 5307SOL    HW116820   4.194   6.128   6.389
 5307SOL    HW216821   4.105   6.073   6.514
 5308SOL     OW16822   0.095   0.504   3.908
 5308SOL    HW116823   0.022   0.438   3.888
 5308SOL    HW216824   0.124   0.493   4.004
 5309SOL     OW16825   4.140   3.525   2.950
 5309SOL    HW116826   4.161   3.582   3.030
 5309SOL    HW216827   4.079   3.450   2.978
 5310SOL     OW16828   4.845   2.655   1.757
 5310SOL    HW116829   4.918   2.690   1.698
 5310SOL    HW216830   4.757   2.693   1.728
 5311SOL     OW16831   1.136   5.919   6.723
 5311SOL    HW116832   1.105   5.829   6.695
 5311SOL    HW216833   1.074   5.989   6.686
 5312SOL     OW16834   0.670   4.990   2.133
 5312SOL    HW116835   0.661   4.938   2.217
 5312SOL    HW216836   0.722   5.074   2.151
 5313SOL     OW16837   0.607   5.341   6.795
 5313SOL    HW116838   0.667   5.277   6.747
 5313SOL    HW216839   0.550   5.290   6.860
 5314SOL     OW16840   4.247   5.324   0.443
 5314SOL    HW116841   4.286   5.234   0.464
 5314SOL    HW216842   4.247   5.338   0.344
 5315SOL     OW16843   4.752   4.218   2.043
 5315SOL    HW116844   4.657   4.244   2.029
 5315SOL    HW216845   4.807   4.243   1.963
 5316SOL     OW16846   0.363   5.584   4.641
 5316SOL    HW116847   0.335   5.617   4.732
 5316SOL    HW216848   0.291   5.524   4.604
 5317SOL     OW16849   5.774   1.200   3.576
 5317SOL    HW116850   5.763   1.117   3.630
 5317SOL    HW216851   5.870   1.228   3.576
 5318SOL     OW16852   6.909   2.258   4.552
 5318SOL    HW116853   6.978   2.185   4.549
 5318SOL    HW216854   6.820   2.217   4.570
 5319SOL     OW16855   5.507   6.970   6.628
 5319SOL    HW116856   5.412   6.982   6.601
 5319SOL    HW216857   5.555   0.034   6.623
 5320SOL     OW16858   6.042   4.562   6.982
 5320SOL    HW116859   6.133   4.586   6.950
 5320SOL    HW216860   6.047   4.526   0.051
 5321SOL     OW16861   1.695   5.105   4.111
 5321SOL    HW116862   1.649   5.099   4.199
 5321SOL    HW216863   1.694   5.016   4.066
 5322SOL     OW16864   3.781   6.407   6.852
 5322SOL    HW116865   3.787   6.331   6.918
 5322SOL    HW216866   3.805   6.492   6.898
 5323SOL     OW16867   4.007   2.338   1.173
 5323SOL    HW116868   4.064   2.265   1.212
 5323SOL    HW216869   3.974   2.311   1.083
 5324SOL     OW16870   3.889   2.039   1.957
 5324SOL    HW116871   3.825   1.962   1.963
 5324SOL    HW216872   3.844   2.121   1.991
 5325SOL     OW16873   4.669   6.652   2.835
 5325SOL    HW116874   4.680   6.709   2.917
 5325SOL    HW216875   4.757   6.641   2.790
 5326SOL     OW16876   6.898   5.678   1.838
 5326SOL    HW116877   6.800   5.663   1.832
 5326SOL    HW216878   6.940   5.604   1.890
 5327SOL     OW16879   0.322   6.394   4.696
 5327SOL    HW116880   0.256   6.342   4.751
 5327SOL    HW216881   0.318   6.491   4.721
 5328SOL     OW16882   3.459   3.085   5.940
 5328SOL    HW116883   3.548   3.056   5.976
 5328SOL    HW216884   3.386   3.039   5.990
 5329SOL     OW16885   0.310   4.520   0.510
 5329SOL    HW116886   0.267   4.470   0.436
 5329SOL    HW216887   0.336   4.611   0.478
 5330SOL     OW16888   3.926   3.787   0.200
 5330SOL    HW116889   3.978   3.719   0.148
 5330SOL    HW216890   3.867   3.839   0.137
 5331SOL     OW16891   4.309   2.351   0.603
 5331SOL    HW116892   4.254   2.428   0.570
 5331SOL    HW216893   4.370   2.382   0.676
 5332SOL     OW16894   6.255   5.085   0.543
 5332SOL    HW116895   6.271   5.042   0.454
 5332SOL    HW216896   6.221   5.178   0.530
 5333SOL     OW16897   2.199   0.879   3.719
 5333SOL    HW116898   2.129   0.943   3.690
 5333SOL    HW216899   2.177   0.788   3.685
 5334SOL     OW16900   4.394   4.837   4.013
 5334SOL    HW116901   4.392   4.816   4.111
 5334SOL    HW216902   4.335   4.773   3.964
 5335SOL     OW16903   6.353   4.289   2.430
 5335SOL    HW116904   6.375   4.292   2.528
 5335SOL    HW216905   6.267   4.239   2.418
 5336SOL     OW16906   1.773   1.678   3.971
 5336SOL    HW116907   1.770   1.579   3.956
 5336SOL    HW216908   1.868   1.707   3.982
 5337SOL     OW16909   6.101   4.784   1.448
 5337SOL    HW116910   6.060   4.862   1.496
 5337SOL    HW216911   6.200   4.794   1.447
 5338SOL     OW16912   5.990   2.823   6.915
 5338SOL    HW116913   6.073   2.876   6.931
 5338SOL    HW216914   6.006   2.727   6.941
 5339SOL     OW16915   5.973   2.044   1.929
 5339SOL    HW116916   5.977   1.944   1.919
 5339SOL    HW216917   5.882   2.076   1.902
 5340SOL     OW16918   5.188   3.180   2.037
 5340SOL    HW116919   5.243   3.242   2.093
 5340SOL    HW216920   5.151   3.107   2.094
 5341SOL     OW16921   4.816   4.529   3.328
 5341SOL    HW116922   4.732   4.565   3.287
 5341SOL    HW216923   4.856   4.600   3.387
 5342SOL     OW16924   5.347   6.636   5.666
 5342SOL    HW116925   5.321   6.606   5.757
 5342SOL    HW216926   5.427   6.584   5.635
 5343SOL     OW16927   3.683   3.512   4.962
 5343SOL    HW116928   3.779   3.511   4.934
 5343SOL    HW216929   3.626   3.546   4.887
 5344SOL     OW16930   0.640   1.075   0.420
 5344SOL    HW116931   0.613   1.103   0.328
 5344SOL    HW216932   0.739   1.084   0.430
 5345SOL     OW16933   4.756   1.313   6.971
 5345SOL    HW116934   4.671   1.367   6.976
 5345SOL    HW216935   4.831   1.367   7.010
 5346SOL     OW16936   2.554   5.119   3.923
 5346SOL    HW116937   2.539   5.212   3.957
 5346SOL    HW216938   2.480   5.094   3.861
 5347SOL     OW16939   0.016   2.476   3.353
 5347SOL    HW116940   0.005   2.530   3.269
 5347SOL    HW216941   0.105   2.495   3.393
 5348SOL     OW16942   6.268   1.226   5.079
 5348SOL    HW116943   6.346   1.200   5.021
 5348SOL    HW216944   6.291   1.310   5.130
 5349SOL     OW16945   0.230   2.940   1.856
 5349SOL    HW116946   0.303   2.950   1.788
 5349SOL    HW216947   0.264   2.888   1.934
 5350SOL     OW16948   1.448   0.406   5.614
 5350SOL    HW116949   1.438   0.306   5.614
 5350SOL    HW216950   1.360   0.448   5.634
 5351SOL     OW16951   0.088   5.707   1.633
 5351SOL    HW116952   0.007   5.681   1.686
 5351SOL    HW216953   0.156   5.634   1.639
 5352SOL     OW16954   2.034   4.314   3.015
 5352SOL    HW116955   1.960   4.260   3.055
 5352SOL    HW216956   1.997   4.371   2.941
 5353SOL     OW16957   3.834   5.497   3.990
 5353SOL    HW116958   3.872   5.438   4.061
 5353SOL    HW216959   3.838   5.451   3.902
 5354SOL     OW16960   3.469   4.626   0.590
 5354SOL    HW116961   3.475   4.606   0.492
 5354SOL    HW216962   3.552   4.673   0.619
 5355SOL     OW16963   5.309   5.415   5.237
 5355SOL    HW116964   5.362   5.339   5.198
 5355SOL    HW216965   5.371   5.479   5.281
 5356SOL     OW16966   6.615   3.599   1.566
 5356SOL    HW116967   6.563   3.673   1.522
 5356SOL    HW216968   6.676   3.558   1.499
 5357SOL     OW16969   4.217   4.575   1.736
 5357SOL    HW116970   4.265   4.570   1.823
 5357SOL    HW216971   4.243   4.660   1.689
 5358SOL     OW16972   4.445   1.699   0.226
 5358SOL    HW116973   4.404   1.736   0.309
 5358SOL    HW216974   4.427   1.600   0.221
 5359SOL     OW16975   2.201   2.240   0.271
 5359SOL    HW116976   2.219   2.331   0.233
 5359SOL    HW216977   2.267   2.175   0.235
 5360SOL     OW16978   5.479   4.908   3.755
 5360SOL    HW116979   5.412   4.932   3.685
 5360SOL    HW216980   5.466   4.967   3.835
 5361SOL     OW16981   3.060   6.121   2.793
 5361SOL    HW116982   3.124   6.112   2.717
 5361SOL    HW216983   3.081   6.203   2.846
 5362SOL     OW16984   5.332   6.913   2.641
 5362SOL    HW116985   5.292   6.849   2.707
 5362SOL    HW216986   5.417   6.950   2.678
 5363SOL     OW16987   5.445   6.600   4.983
 5363SOL    HW116988   5.510   6.524   4.986
 5363SOL    HW216989   5.352   6.565   4.990
 5364SOL     OW16990   5.415   0.773   2.486
 5364SOL    HW116991   5.424   0.871   2.503
 5364SOL    HW216992   5.398   0.757   2.388
 5365SOL     OW16993   3.214   3.304   3.273
 5365SOL    HW116994   3.238   3.208   3.286
 5365SOL    HW216995   3.192   3.320   3.177
 5366SOL     OW16996   6.943   0.399   1.508
 5366SOL    HW116997   6.990   0.420   1.423
 5366SOL    HW216998   6.869   0.334   1.489
 5367SOL     OW16999   5.668   0.019   0.393
 5367SOL    HW117000   5.602   0.073   0.341
 5367SOL    HW217001   5.664   6.948   0.364
 5368SOL     OW17002   6.665   5.641   2.141
 5368SOL    HW117003   6.610   5.674   2.218
 5368SOL    HW217004   6.747   5.696   2.132
 5369SOL     OW17005   2.753   5.069   1.643
 5369SOL    HW117006   2.766   4.989   1.585
 5369SOL    HW217007   2.765   5.043   1.739
 5370SOL     OW17008   4.058   3.760   1.660
 5370SOL    HW117009   4.056   3.823   1.583
 5370SOL    HW217010   4.078   3.811   1.744
 5371SOL     OW17011   6.735   5.227   4.883
 5371SOL    HW117012   6.737   5.131   4.857
 5371SOL    HW217013   6.641   5.257   4.894
 5372SOL     OW17014   2.146   6.821   3.046
 5372SOL    HW117015   2.169   6.836   2.950
 5372SOL    HW217016   2.054   6.857   3.064
 5373SOL     OW17017   4.234   6.717   6.214
 5373SOL    HW117018   4.181   6.678   6.139
 5373SOL    HW217019   4.330   6.727   6.186
 5374SOL     OW17020   2.456   4.703   1.540
 5374SOL    HW117021   2.486   4.740   1.628
 5374SOL    HW217022   2.404   4.619   1.555
 5375SOL     OW17023   0.815   6.742   5.625
 5375SOL    HW117024   0.829   6.825   5.570
 5375SOL    HW217025   0.720   6.713   5.618
 5376SOL     OW17026   1.355   2.323   1.547
 5376SOL    HW117027   1.264   2.310   1.508
 5376SOL    HW217028   1.346   2.340   1.646
 5377SOL     OW17029   2.048   0.790   3.082
 5377SOL    HW117030   2.146   0.805   3.094
 5377SOL    HW217031   2.019   0.821   2.992
 5378SOL     OW17032   5.411   0.430   0.989
 5378SOL    HW117033   5.437   0.519   1.026
 5378SOL    HW217034   5.476   0.361   1.021
 5379SOL     OW17035   1.685   2.670   5.472
 5379SOL    HW117036   1.739   2.755   5.476
 5379SOL    HW217037   1.664   2.649   5.376
 5380SOL     OW17038   3.573   0.322   1.226
 5380SOL    HW117039   3.550   0.224   1.228
 5380SOL    HW217040   3.491   0.376   1.245
 5381SOL     OW17041   5.699   6.690   2.790
 5381SOL    HW117042   5.671   6.594   2.797
 5381SOL    HW217043   5.726   6.710   2.696
 5382SOL     OW17044   4.408   1.760   2.547
 5382SOL    HW117045   4.434   1.840   2.495
 5382SOL    HW217046   4.353   1.788   2.626
 5383SOL     OW17047   1.051   3.037   4.089
 5383SOL    HW117048   0.990   3.108   4.123
 5383SOL    HW217049   1.144   3.054   4.121
 5384SOL     OW17050   4.477   5.751   5.149
 5384SOL    HW117051   4.550   5.767   5.215
 5384SOL    HW217052   4.391   5.788   5.186
 5385SOL     OW17053   6.652   2.826   6.153
 5385SOL    HW117054   6.735   2.776   6.176
 5385SOL    HW217055   6.572   2.769   6.175
 5386SOL     OW17056   5.756   3.061   3.955
 5386SOL    HW117057   5.697   2.996   3.907
 5386SOL    HW217058   5.700   3.121   4.013
 5387SOL     OW17059   2.834   0.055   3.180
 5387SOL    HW117060   2.848   7.018   3.102
 5387SOL    HW217061   2.922   0.072   3.225
 5388SOL     OW17062   1.024   6.539   2.924
 5388SOL    HW117063   0.959   6.614   2.937
 5388SOL    HW217064   1.046   6.498   3.013
 5389SOL     OW17065   4.542   2.173   4.622
 5389SOL    HW117066   4.499   2.083   4.618
 5389SOL    HW217067   4.473   2.244   4.607
 5390SOL     OW17068   6.052   3.464   3.952
 5390SOL    HW117069   6.147   3.486   3.935
 5390SOL    HW217070   6.042   3.429   4.045
 5391SOL     OW17071   2.311   2.436   0.073
 5391SOL    HW117072   2.388   2.459   0.012
 5391SOL    HW217073   2.296   2.511   0.138
 5392SOL     OW17074   4.733   2.471   3.309
 5392SOL    HW117075   4.650   2.481   3.254
 5392SOL    HW217076   4.805   2.431   3.254
 5393SOL     OW17077   4.280   0.117   4.950
 5393SOL    HW117078   4.361   0.059   4.954
 5393SOL    HW217079   4.297   0.202   5.001
 5394SOL     OW17080   1.246   6.927   1.026
 5394SOL    HW117081   1.193   6.979   1.094
 5394SOL    HW217082   1.274   6.840   1.065
 5395SOL     OW17083   5.007   1.425   0.925
 5395SOL    HW117084   4.944   1.410   0.848
 5395SOL    HW217085   5.005   1.521   0.951
 5396SOL     OW17086   5.606   5.504   2.627
 5396SOL    HW117087   5.584   5.410   2.654
 5396SOL    HW217088   5.704   5.521   2.642
 5397SOL     OW17089   6.131   1.807   2.511
 5397SOL    HW117090   6.169   1.890   2.552
 5397SOL    HW217091   6.178   1.727   2.548
 5398SOL     OW17092   4.796   2.250   4.044
 5398SOL    HW117093   4.757   2.165   4.077
 5398SOL    HW217094   4.799   2.248   3.944
 5399SOL     OW17095   1.625   6.950   5.173
 5399SOL    HW117096   1.600   6.943   5.076
 5399SOL    HW217097   1.702   7.013   5.183
 5400SOL     OW17098   3.677   3.033   0.713
 5400SOL    HW117099   3.666   3.126   0.679
 5400SOL    HW217100   3.589   2.986   0.712
 5401SOL     OW17101   5.179   4.925   3.140
 5401SOL    HW117102   5.199   4.831   3.112
 5401SOL    HW217103   5.124   4.970   3.069
 5402SOL     OW17104   2.795   6.830   0.479
 5402SOL    HW117105   2.862   6.800   0.411
 5402SOL    HW217106   2.746   6.910   0.445
 5403SOL     OW17107   5.591   3.064   0.119
 5403SOL    HW117108   5.637   2.976   0.107
 5403SOL    HW217109   5.494   3.048   0.139
 5404SOL     OW17110   0.986   1.048   1.166
 5404SOL    HW117111   1.019   0.954   1.162
 5404SOL    HW217112   0.959   1.078   1.074
 5405SOL     OW17113   5.445   5.689   0.164
 5405SOL    HW117114   5.461   5.731   0.253
 5405SOL    HW217115   5.468   5.592   0.168
 5406SOL     OW17116   2.545   0.879   4.746
 5406SOL    HW117117   2.494   0.853   4.664
 5406SOL    HW217118   2.557   0.800   4.805
 5407SOL     OW17119   2.697   0.635   1.225
 5407SOL    HW117120   2.637   0.645   1.305
 5407SOL    HW217121   2.642   0.631   1.142
 5408SOL     OW17122   3.018   1.939   4.005
 5408SOL    HW117123   2.920   1.920   4.015
 5408SOL    HW217124   3.033   1.998   3.926
 5409SOL     OW17125   6.374   2.640   1.459
 5409SOL    HW117126   6.396   2.573   1.531
 5409SOL    HW217127   6.431   2.722   1.471
 5410SOL     OW17128   0.088   2.630   1.182
 5410SOL    HW117129   0.136   2.562   1.128
 5410SOL    HW217130   0.058   2.589   1.268
 5411SOL     OW17131   5.290   5.036   0.142
 5411SOL    HW117132   5.385   5.050   0.114
 5411SOL    HW217133   5.276   4.940   0.168
 5412SOL     OW17134   1.472   1.356   6.338
 5412SOL    HW117135   1.380   1.362   6.376
 5412SOL    HW217136   1.467   1.344   6.239
 5413SOL     OW17137   6.019   0.197   5.387
 5413SOL    HW117138   6.115   0.176   5.369
 5413SOL    HW217139   6.013   0.275   5.449
 5414SOL     OW17140   0.112   4.730   5.396
 5414SOL    HW117141   0.013   4.733   5.401
 5414SOL    HW217142   0.149   4.703   5.485
 5415SOL     OW17143   2.992   6.258   0.545
 5415SOL    HW117144   3.008   6.355   0.529
 5415SOL    HW217145   3.079   6.212   0.565
 5416SOL     OW17146   2.738   5.121   5.062
 5416SOL    HW117147   2.647   5.145   5.094
 5416SOL    HW217148   2.762   5.029   5.095
 5417SOL     OW17149   5.022   6.259   3.585
 5417SOL    HW117150   4.970   6.337   3.550
 5417SOL    HW217151   5.088   6.291   3.652
 5418SOL     OW17152   6.098   4.340   4.222
 5418SOL    HW117153   6.118   4.364   4.317
 5418SOL    HW217154   6.079   4.424   4.170
 5419SOL     OW17155   4.104   6.694   6.768
 5419SOL    HW117156   4.091   6.791   6.751
 5419SOL    HW217157   4.071   6.641   6.690
 5420SOL     OW17158   1.391   1.640   1.774
 5420SOL    HW117159   1.405   1.608   1.680
 5420SOL    HW217160   1.294   1.635   1.797
 5421SOL     OW17161   3.443   5.393   2.225
 5421SOL    HW117162   3.396   5.443   2.152
 5421SOL    HW217163   3.375   5.346   2.282
 5422SOL     OW17164   2.144   6.221   3.882
 5422SOL    HW117165   2.170   6.193   3.789
 5422SOL    HW217166   2.216   6.279   3.920
 5423SOL     OW17167   6.901   5.777   2.133
 5423SOL    HW117168   6.895   5.863   2.184
 5423SOL    HW217169   6.979   5.782   2.070
 5424SOL     OW17170   4.859   4.040   5.008
 5424SOL    HW117171   4.791   4.004   5.072
 5424SOL    HW217172   4.902   3.963   4.960
 5425SOL     OW17173   0.566   3.289   5.253
 5425SOL    HW117174   0.508   3.298   5.334
 5425SOL    HW217175   0.662   3.278   5.281
 5426SOL     OW17176   5.080   5.290   2.035
 5426SOL    HW117177   5.149   5.331   2.095
 5426SOL    HW217178   5.009   5.246   2.091
 5427SOL     OW17179   4.722   2.714   6.719
 5427SOL    HW117180   4.690   2.738   6.627
 5427SOL    HW217181   4.682   2.627   6.747
 5428SOL     OW17182   6.153   5.523   2.993
 5428SOL    HW117183   6.163   5.536   2.895
 5428SOL    HW217184   6.072   5.468   3.011
 5429SOL     OW17185   3.340   0.839   3.984
 5429SOL    HW117186   3.437   0.815   3.984
 5429SOL    HW217187   3.293   0.790   4.058
 5430SOL     OW17188   2.323   3.931   6.029
 5430SOL    HW117189   2.289   3.994   6.099
 5430SOL    HW217190   2.419   3.951   6.009
 5431SOL     OW17191   3.401   4.918   6.323
 5431SOL    HW117192   3.458   4.950   6.400
 5431SOL    HW217193   3.405   4.985   6.249
 5432SOL     OW17194   5.420   5.826   1.400
 5432SOL    HW117195   5.332   5.869   1.381
 5432SOL    HW217196   5.438   5.829   1.499
 5433SOL     OW17197   1.338   0.556   0.876
 5433SOL    HW117198   1.386   0.616   0.940
 5433SOL    HW217199   1.404   0.515   0.812
 5434SOL     OW17200   5.125   1.231   4.805
 5434SOL    HW117201   5.095   1.138   4.784
 5434SOL    HW217202   5.069   1.268   4.880
 5435SOL     OW17203   6.526   3.836   0.746
 5435SOL    HW117204   6.464   3.758   0.733
 5435SOL    HW217205   6.615   3.803   0.778
 5436SOL     OW17206   1.275   5.752   2.528
 5436SOL    HW117207   1.271   5.849   2.551
 5436SOL    HW217208   1.275   5.698   2.612
 5437SOL     OW17209   3.054   5.064   6.289
 5437SOL    HW117210   3.018   4.985   6.339
 5437SOL    HW217211   3.056   5.043   6.191
 5438SOL     OW17212   4.826   3.964   2.069
 5438SOL    HW117213   4.779   4.051   2.055
 5438SOL    HW217214   4.778   3.892   2.019
 5439SOL     OW17215   0.720   4.300   0.603
 5439SOL    HW117216   0.818   4.312   0.587
 5439SOL    HW217217   0.706   4.252   0.689
 5440SOL     OW17218   5.826   6.613   3.528
 5440SOL    HW117219   5.828   6.514   3.533
 5440SOL    HW217220   5.754   6.642   3.465
 5441SOL     OW17221   4.829   2.872   4.164
 5441SOL    HW117222   4.761   2.804   4.190
 5441SOL    HW217223   4.810   2.959   4.209
 5442SOL     OW17224   5.492   0.226   4.031
 5442SOL    HW117225   5.524   0.216   4.125
 5442SOL    HW217226   5.537   0.304   3.988
 5443SOL     OW17227   4.979   6.605   4.726
 5443SOL    HW117228   5.076   6.608   4.747
 5443SOL    HW217229   4.939   6.696   4.742
 5444SOL     OW17230   0.356   1.517   4.075
 5444SOL    HW117231   0.295   1.596   4.079
 5444SOL    HW217232   0.449   1.546   4.098
 5445SOL     OW17233   4.969   4.955   5.439
 5445SOL    HW117234   4.873   4.927   5.433
 5445SOL    HW217235   4.995   4.999   5.353
 5446SOL     OW17236   0.269   4.655   4.932
 5446SOL    HW117237   0.309   4.591   4.867
 5446SOL    HW217238   0.259   4.744   4.889
 5447SOL     OW17239   1.581   2.020   1.369
 5447SOL    HW117240   1.602   2.044   1.274
 5447SOL    HW217241   1.562   2.103   1.421
 5448SOL     OW17242   4.563   6.133   3.610
 5448SOL    HW117243   4.498   6.057   3.602
 5448SOL    HW217244   4.645   6.101   3.658
 5449SOL     OW17245   3.527   1.775   2.351
 5449SOL    HW117246   3.537   1.679   2.324
 5449SOL    HW217247   3.491   1.780   2.444
 5450SOL     OW17248   3.823   6.285   1.561
 5450SOL    HW117249   3.823   6.219   1.486
 5450SOL    HW217250   3.751   6.262   1.626
 5451SOL     OW17251   1.222   0.330   3.323
 5451SOL    HW117252   1.313   0.290   3.315
 5451SOL    HW217253   1.229   0.427   3.347
 5452SOL     OW17254   1.753   5.099   1.273
 5452SOL    HW117255   1.689   5.172   1.248
 5452SOL    HW217256   1.799   5.123   1.359
 5453SOL     OW17257   5.438   4.016   2.937
 5453SOL    HW117258   5.426   4.112   2.913
 5453SOL    HW217259   5.535   3.997   2.950
 5454SOL     OW17260   5.878   5.763   2.728
 5454SOL    HW117261   5.974   5.782   2.707
 5454SOL    HW217262   5.855   5.801   2.818
 5455SOL     OW17263   0.339   1.580   2.468
 5455SOL    HW117264   0.394   1.499   2.445
 5455SOL    HW217265   0.246   1.551   2.489
 5456SOL     OW17266   4.971   0.753   6.711
 5456SOL    HW117267   4.982   0.726   6.807
 5456SOL    HW217268   5.019   0.839   6.695
 5457SOL     OW17269   6.373   2.060   0.542
 5457SOL    HW117270   6.360   2.130   0.472
 5457SOL    HW217271   6.383   1.971   0.499
 5458SOL     OW17272   6.308   4.767   0.996
 5458SOL    HW117273   6.214   4.750   1.025
 5458SOL    HW217274   6.353   4.680   0.974
 5459SOL     OW17275   1.618   4.632   5.397
 5459SOL    HW117276   1.562   4.700   5.349
 5459SOL    HW217277   1.703   4.618   5.348
 5460SOL     OW17278   1.949   1.640   1.122
 5460SOL    HW117279   1.986   1.698   1.194
 5460SOL    HW217280   2.022   1.585   1.082
 5461SOL     OW17281   0.515   1.665   5.824
 5461SOL    HW117282   0.586   1.728   5.793
 5461SOL    HW217283   0.435   1.717   5.855
 5462SOL     OW17284   5.593   6.253   6.752
 5462SOL    HW117285   5.638   6.275   6.839
 5462SOL    HW217286   5.635   6.308   6.680
 5463SOL     OW17287   7.023   2.386   6.768
 5463SOL    HW117288   0.057   2.312   6.801
 5463SOL    HW217289   6.935   2.383   6.814
 5464SOL     OW17290   6.239   5.993   5.439
 5464SOL    HW117291   6.257   6.011   5.342
 5464SOL    HW217292   6.143   5.968   5.450
 5465SOL     OW17293   6.456   6.821   3.156
 5465SOL    HW117294   6.508   6.852   3.236
 5465SOL    HW217295   6.394   6.893   3.126
 5466SOL     OW17296   5.975   2.247   5.311
 5466SOL    HW117297   5.910   2.172   5.306
 5466SOL    HW217298   6.063   2.217   5.273
 5467SOL     OW17299   5.888   3.911   3.550
 5467SOL    HW117300   5.982   3.929   3.579
 5467SOL    HW217301   5.827   3.919   3.628
 5468SOL     OW17302   7.005   1.778   3.145
 5468SOL    HW117303   6.924   1.777   3.087
 5468SOL    HW217304   6.979   1.799   3.239
 5469SOL     OW17305   2.156   0.677   6.071
 5469SOL    HW117306   2.127   0.618   6.147
 5469SOL    HW217307   2.117   0.769   6.084
 5470SOL     OW17308   4.034   5.452   4.493
 5470SOL    HW117309   4.130   5.434   4.517
 5470SOL    HW217310   3.992   5.507   4.565
 5471SOL     OW17311   5.189   0.162   2.922
 5471SOL    HW117312   5.238   0.195   3.003
 5471SOL    HW217313   5.219   0.213   2.842
 5472SOL     OW17314   2.992   2.171   6.262
 5472SOL    HW117315   2.986   2.074   6.241
 5472SOL    HW217316   2.912   2.219   6.226
 5473SOL     OW17317   1.816   4.726   0.413
 5473SOL    HW117318   1.770   4.815   0.408
 5473SOL    HW217319   1.905   4.732   0.369
 5474SOL     OW17320   1.185   5.293   3.515
 5474SOL    HW117321   1.233   5.207   3.532
 5474SOL    HW217322   1.205   5.324   3.422
 5475SOL     OW17323   1.670   1.943   0.352
 5475SOL    HW117324   1.693   1.878   0.280
 5475SOL    HW217325   1.632   2.026   0.312
 5476SOL     OW17326   2.124   5.231   5.369
 5476SOL    HW117327   2.113   5.233   5.469
 5476SOL    HW217328   2.180   5.309   5.341
 5477SOL     OW17329   1.586   4.461   3.075
 5477SOL    HW117330   1.633   4.473   2.988
 5477SOL    HW217331   1.652   4.432   3.145
 5478SOL     OW17332   5.258   5.680   6.402
 5478SOL    HW117333   5.220   5.740   6.332
 5478SOL    HW217334   5.326   5.619   6.361
 5479SOL     OW17335   4.366   1.382   3.978
 5479SOL    HW117336   4.296   1.387   3.907
 5479SOL    HW217337   4.340   1.313   4.046
 5480SOL     OW17338   6.300   4.897   4.956
 5480SOL    HW117339   6.210   4.940   4.950
 5480SOL    HW217340   6.327   4.889   5.052
 5481SOL     OW17341   4.243   0.559   5.962
 5481SOL    HW117342   4.336   0.577   5.933
 5481SOL    HW217343   4.179   0.608   5.903
 5482SOL     OW17344   3.805   3.619   2.074
 5482SOL    HW117345   3.813   3.692   2.007
 5482SOL    HW217346   3.832   3.532   2.032
 5483SOL     OW17347   6.539   3.009   5.574
 5483SOL    HW117348   6.600   3.083   5.598
 5483SOL    HW217349   6.456   3.046   5.532
 5484SOL     OW17350   6.573   6.698   3.859
 5484SOL    HW117351   6.559   6.761   3.782
 5484SOL    HW217352   6.642   6.630   3.834
 5485SOL     OW17353   2.854   0.159   4.502
 5485SOL    HW117354   2.758   0.132   4.510
 5485SOL    HW217355   2.867   0.213   4.418
 5486SOL     OW17356   1.647   0.188   4.102
 5486SOL    HW117357   1.635   0.200   4.003
 5486SOL    HW217358   1.615   0.269   4.150
 5487SOL     OW17359   6.076   3.705   6.750
 5487SOL    HW117360   6.153   3.651   6.786
 5487SOL    HW217361   6.102   3.747   6.663
 5488SOL     OW17362   4.650   1.577   0.399
 5488SOL    HW117363   4.688   1.639   0.468
 5488SOL    HW217364   4.610   1.630   0.324
 5489SOL     OW17365   1.319   4.300   2.095
 5489SOL    HW117366   1.277   4.217   2.131
 5489SOL    HW217367   1.397   4.276   2.038
 5490SOL     OW17368   3.284   6.793   0.168
 5490SOL    HW117369   3.372   6.765   0.205
 5490SOL    HW217370   3.280   6.893   0.164
 5491SOL     OW17371   1.416   4.476   6.594
 5491SOL    HW117372   1.447   4.389   6.557
 5491SOL    HW217373   1.336   4.507   6.543
 5492SOL     OW17374   0.891   0.834   5.705
 5492SOL    HW117375   0.933   0.923   5.721
 5492SOL    HW217376   0.865   0.793   5.793
 5493SOL     OW17377   3.632   2.814   5.191
 5493SOL    HW117378   3.552   2.844   5.139
 5493SOL    HW217379   3.603   2.768   5.275
 5494SOL     OW17380   6.564   2.917   0.419
 5494SOL    HW117381   6.580   2.824   0.453
 5494SOL    HW217382   6.504   2.966   0.481
 5495SOL     OW17383   3.286   3.244   0.690
 5495SOL    HW117384   3.252   3.285   0.605
 5495SOL    HW217385   3.228   3.167   0.715
 5496SOL     OW17386   3.346   6.147   1.586
 5496SOL    HW117387   3.414   6.178   1.520
 5496SOL    HW217388   3.392   6.121   1.671
 5497SOL     OW17389   0.380   2.213   3.383
 5497SOL    HW117390   0.281   2.221   3.397
 5497SOL    HW217391   0.422   2.171   3.464
 5498SOL     OW17392   4.803   0.738   0.770
 5498SOL    HW117393   4.720   0.790   0.789
 5498SOL    HW217394   4.864   0.741   0.849
 5499SOL     OW17395   0.755   1.456   3.599
 5499SOL    HW117396   0.787   1.448   3.505
 5499SOL    HW217397   0.832   1.441   3.661
 5500SOL     OW17398   1.889   5.873   6.807
 5500SOL    HW117399   1.961   5.882   6.738
 5500SOL    HW217400   1.803   5.909   6.771
 5501SOL     OW17401   3.556   0.134   1.512
 5501SOL    HW117402   3.508   0.054   1.548
 5501SOL    HW217403   3.541   0.141   1.414
 5502SOL     OW17404   5.679   4.343   6.140
 5502SOL    HW117405   5.685   4.341   6.240
 5502SOL    HW217406   5.671   4.250   6.105
 5503SOL     OW17407   0.746   4.884   2.762
 5503SOL    HW117408   0.662   4.901   2.711
 5503SOL    HW217409   0.767   4.786   2.760
 5504SOL     OW17410   2.707   1.022   5.155
 5504SOL    HW117411   2.708   1.017   5.255
 5504SOL    HW217412   2.801   1.020   5.120
 5505SOL     OW17413   2.367   5.662   4.764
 5505SOL    HW117414   2.363   5.746   4.819
 5505SOL    HW217415   2.393   5.585   4.823
 5506SOL     OW17416   6.584   0.014   5.258
 5506SOL    HW117417   6.666   6.990   5.288
 5506SOL    HW217418   6.603   0.112   5.255
 5507SOL     OW17419   2.907   6.627   3.286
 5507SOL    HW117420   2.812   6.657   3.275
 5507SOL    HW217421   2.928   6.557   3.217
 5508SOL     OW17422   2.558   0.719   0.426
 5508SOL    HW117423   2.534   0.661   0.504
 5508SOL    HW217424   2.627   0.785   0.454
 5509SOL     OW17425   0.093   6.312   0.682
 5509SOL    HW117426   0.129   6.405   0.671
 5509SOL    HW217427   0.132   6.253   0.612
 5510SOL     OW17428   5.304   6.588   0.255
 5510SOL    HW117429   5.262   6.602   0.165
 5510SOL    HW217430   5.336   6.675   0.291
 5511SOL     OW17431   2.175   0.679   3.500
 5511SOL    HW117432   2.099   0.692   3.436
 5511SOL    HW217433   2.208   0.585   3.494
 5512SOL     OW17434   6.095   2.226   0.568
 5512SOL    HW117435   6.146   2.196   0.648
 5512SOL    HW217436   6.153   2.219   0.487
 5513SOL     OW17437   4.821   4.139   5.503
 5513SOL    HW117438   4.753   4.100   5.566
 5513SOL    HW217439   4.821   4.087   5.418
 5514SOL     OW17440   5.035   5.424   2.653
 5514SOL    HW117441   5.043   5.411   2.752
 5514SOL    HW217442   5.106   5.370   2.607
 5515SOL     OW17443   6.769   3.794   0.941
 5515SOL    HW117444   6.786   3.713   0.885
 5515SOL    HW217445   6.789   3.774   1.036
 5516SOL     OW17446   1.397   3.192   0.505
 5516SOL    HW117447   1.426   3.185   0.410
 5516SOL    HW217448   1.458   3.138   0.563
 5517SOL     OW17449   2.713   2.368   2.511
 5517SOL    HW117450   2.682   2.330   2.598
 5517SOL    HW217451   2.794   2.317   2.480
 5518SOL     OW17452   6.901   5.854   5.879
 5518SOL    HW117453   6.815   5.851   5.930
 5518SOL    HW217454   6.975   5.820   5.938
 5519SOL     OW17455   4.972   3.394   3.002
 5519SOL    HW117456   5.005   3.351   2.919
 5519SOL    HW217457   4.970   3.326   3.076
 5520SOL     OW17458   0.746   4.598   2.744
 5520SOL    HW117459   0.793   4.522   2.788
 5520SOL    HW217460   0.648   4.580   2.743
 5521SOL     OW17461   4.289   5.896   2.502
 5521SOL    HW117462   4.366   5.887   2.437
 5521SOL    HW217463   4.262   5.806   2.533
 5522SOL     OW17464   1.690   3.872   1.072
 5522SOL    HW117465   1.649   3.781   1.076
 5522SOL    HW217466   1.775   3.872   1.124
 5523SOL     OW17467   3.332   6.653   2.788
 5523SOL    HW117468   3.362   6.710   2.711
 5523SOL    HW217469   3.249   6.692   2.828
 5524SOL     OW17470   6.827   5.954   5.095
 5524SOL    HW117471   6.876   6.008   5.164
 5524SOL    HW217472   6.777   5.881   5.141
 5525SOL     OW17473   6.695   4.360   0.376
 5525SOL    HW117474   6.783   4.358   0.423
 5525SOL    HW217475   6.698   4.297   0.298
 5526SOL     OW17476   6.137   3.712   5.029
 5526SOL    HW117477   6.052   3.762   5.013
 5526SOL    HW217478   6.119   3.614   5.036
 5527SOL     OW17479   0.794   3.447   3.356
 5527SOL    HW117480   0.827   3.512   3.424
 5527SOL    HW217481   0.863   3.436   3.284
 5528SOL     OW17482   1.123   2.249   5.839
 5528SOL    HW117483   1.078   2.274   5.924
 5528SOL    HW217484   1.220   2.270   5.844
 5529SOL     OW17485   2.402   0.319   4.458
 5529SOL    HW117486   2.460   0.238   4.459
 5529SOL    HW217487   2.335   0.313   4.533
 5530SOL     OW17488   0.171   2.210   2.086
 5530SOL    HW117489   0.231   2.178   2.012
 5530SOL    HW217490   0.151   2.307   2.072
 5531SOL     OW17491   4.078   3.452   4.019
 5531SOL    HW117492   4.030   3.411   3.941
 5531SOL    HW217493   4.059   3.397   4.101
 5532SOL     OW17494   1.558   1.388   1.261
 5532SOL    HW117495   1.658   1.395   1.255
 5532SOL    HW217496   1.528   1.299   1.227
 5533SOL     OW17497   2.737   0.845   2.556
 5533SOL    HW117498   2.808   0.855   2.626
 5533SOL    HW217499   2.648   0.831   2.600
 5534SOL     OW17500   1.155   3.576   6.398
 5534SOL    HW117501   1.224   3.542   6.333
 5534SOL    HW217502   1.130   3.670   6.372
 5535SOL     OW17503   0.265   3.364   3.463
 5535SOL    HW117504   0.231   3.301   3.394
 5535SOL    HW217505   0.203   3.365   3.542
 5536SOL     OW17506   2.953   0.736   3.962
 5536SOL    HW117507   3.036   0.721   4.015
 5536SOL    HW217508   2.873   0.725   4.021
 5537SOL     OW17509   3.493   1.007   4.225
 5537SOL    HW117510   3.522   0.924   4.177
 5537SOL    HW217511   3.412   0.987   4.279
 5538SOL     OW17512   3.401   0.151   5.060
 5538SOL    HW117513   3.468   0.161   5.134
 5538SOL    HW217514   3.444   0.174   4.973
 5539SOL     OW17515   0.601   2.003   0.763
 5539SOL    HW117516   0.594   1.926   0.827
 5539SOL    HW217517   0.512   2.021   0.723
 5540SOL     OW17518   4.992   3.581   2.385
 5540SOL    HW117519   4.959   3.611   2.296
 5540SOL    HW217520   4.954   3.491   2.406
 5541SOL     OW17521   5.657   2.650   6.056
 5541SOL    HW117522   5.659   2.681   5.961
 5541SOL    HW217523   5.715   2.709   6.111
 5542SOL     OW17524   6.005   6.130   5.943
 5542SOL    HW117525   5.992   6.144   6.042
 5542SOL    HW217526   6.045   6.040   5.927
 5543SOL     OW17527   1.792   5.064   6.442
 5543SOL    HW117528   1.813   4.966   6.439
 5543SOL    HW217529   1.780   5.092   6.537
 5544SOL     OW17530   5.016   5.382   5.609
 5544SOL    HW117531   5.067   5.322   5.548
 5544SOL    HW217532   5.077   5.453   5.644
 5545SOL     OW17533   4.721   0.906   2.852
 5545SOL    HW117534   4.782   0.840   2.809
 5545SOL    HW217535   4.762   0.997   2.846
 5546SOL     OW17536   1.123   6.162   4.207
 5546SOL    HW117537   1.100   6.134   4.301
 5546SOL    HW217538   1.062   6.116   4.143
 5547SOL     OW17539   4.219   0.604   5.046
 5547SOL    HW117540   4.259   0.672   5.108
 5547SOL    HW217541   4.291   0.543   5.013
 5548SOL     OW17542   6.394   3.550   5.510
 5548SOL    HW117543   6.378   3.577   5.415
 5548SOL    HW217544   6.492   3.533   5.523
 5549SOL     OW17545   3.740   4.415   1.260
 5549SOL    HW117546   3.740   4.315   1.260
 5549SOL    HW217547   3.772   4.448   1.171
 5550SOL     OW17548   2.332   4.340   2.115
 5550SOL    HW117549   2.376   4.425   2.141
 5550SOL    HW217550   2.361   4.315   2.022
 5551SOL     OW17551   1.451   6.350   2.743
 5551SOL    HW117552   1.356   6.357   2.771
 5551SOL    HW217553   1.508   6.332   2.823
 5552SOL     OW17554   6.488   1.135   6.689
 5552SOL    HW117555   6.452   1.219   6.650
 5552SOL    HW217556   6.415   1.067   6.695
 5553SOL     OW17557   4.716   6.325   6.422
 5553SOL    HW117558   4.778   6.391   6.381
 5553SOL    HW217559   4.649   6.295   6.354
 5554SOL     OW17560   4.822   2.339   0.100
 5554SOL    HW117561   4.810   2.424   0.049
 5554SOL    HW217562   4.919   2.313   0.100
 5555SOL     OW17563   0.961   3.658   2.118
 5555SOL    HW117564   1.017   3.588   2.161
 5555SOL    HW217565   0.995   3.675   2.025
 5556SOL     OW17566   6.197   1.348   3.303
 5556SOL    HW117567   6.191   1.436   3.256
 5556SOL    HW217568   6.247   1.283   3.246
 5557SOL     OW17569   4.065   5.904   2.358
 5557SOL    HW117570   4.123   5.938   2.433
 5557SOL    HW217571   3.969   5.928   2.377
 5558SOL     OW17572   2.821   3.675   6.465
 5558SOL    HW117573   2.774   3.624   6.393
 5558SOL    HW217574   2.761   3.748   6.499
 5559SOL     OW17575   2.036   0.410   1.369
 5559SOL    HW117576   2.060   0.466   1.449
 5559SOL    HW217577   1.936   0.400   1.365
 5560SOL     OW17578   0.268   5.517   1.601
 5560SOL    HW117579   0.330   5.557   1.534
 5560SOL    HW217580   0.322   5.474   1.674
 5561SOL     OW17581   2.040   1.061   4.165
 5561SOL    HW117582   2.131   1.096   4.190
 5561SOL    HW217583   2.024   1.076   4.068
 5562SOL     OW17584   3.879   2.623   6.363
 5562SOL    HW117585   3.804   2.573   6.320
 5562SOL    HW217586   3.943   2.656   6.293
 5563SOL     OW17587   3.036   4.840   2.346
 5563SOL    HW117588   3.028   4.746   2.380
 5563SOL    HW217589   3.001   4.904   2.414
 5564SOL     OW17590   4.645   0.039   0.848
 5564SOL    HW117591   4.697   6.981   0.872
 5564SOL    HW217592   4.561   0.012   0.801
 5565SOL     OW17593   4.195   2.428   5.931
 5565SOL    HW117594   4.225   2.336   5.905
 5565SOL    HW217595   4.254   2.496   5.889
 5566SOL     OW17596   1.379   4.429   6.849
 5566SOL    HW117597   1.365   4.331   6.863
 5566SOL    HW217598   1.375   4.450   6.751
 5567SOL     OW17599   0.025   3.598   0.914
 5567SOL    HW117600   0.101   3.656   0.884
 5567SOL    HW217601   0.020   3.598   1.014
 5568SOL     OW17602   5.103   1.114   3.436
 5568SOL    HW117603   5.079   1.036   3.378
 5568SOL    HW217604   5.027   1.135   3.497
 5569SOL     OW17605   1.892   1.374   2.312
 5569SOL    HW117606   1.972   1.322   2.340
 5569SOL    HW217607   1.815   1.352   2.372
 5570SOL     OW17608   6.923   3.914   4.301
 5570SOL    HW117609   6.969   3.996   4.337
 5570SOL    HW217610   6.991   3.846   4.276
 5571SOL     OW17611   6.175   6.258   1.559
 5571SOL    HW117612   6.266   6.226   1.586
 5571SOL    HW217613   6.149   6.336   1.615
 5572SOL     OW17614   1.421   3.638   4.611
 5572SOL    HW117615   1.460   3.675   4.527
 5572SOL    HW217616   1.396   3.542   4.597
 5573SOL     OW17617   1.756   5.837   4.782
 5573SOL    HW117618   1.660   5.812   4.776
 5573SOL    HW217619   1.813   5.762   4.748
 5574SOL     OW17620   0.197   1.914   2.524
 5574SOL    HW117621   0.107   1.890   2.487
 5574SOL    HW217622   0.268   1.889   2.459
 5575SOL     OW17623   0.115   1.456   0.954
 5575SOL    HW117624   0.145   1.458   1.049
 5575SOL    HW217625   0.168   1.522   0.901
 5576SOL     OW17626   0.729   4.791   1.737
 5576SOL    HW117627   0.787   4.849   1.680
 5576SOL    HW217628   0.667   4.847   1.792
 5577SOL     OW17629   2.744   3.064   6.269
 5577SOL    HW117630   2.787   3.039   6.355
 5577SOL    HW217631   2.759   3.162   6.252
 5578SOL     OW17632   3.297   3.541   1.820
 5578SOL    HW117633   3.360   3.592   1.879
 5578SOL    HW217634   3.297   3.582   1.728
 5579SOL     OW17635   0.490   3.633   0.534
 5579SOL    HW117636   0.575   3.682   0.519
 5579SOL    HW217637   0.424   3.694   0.579
 5580SOL     OW17638   4.995   2.458   5.355
 5580SOL    HW117639   5.032   2.459   5.262
 5580SOL    HW217640   5.070   2.466   5.421
 5581SOL     OW17641   1.652   0.369   1.687
 5581SOL    HW117642   1.656   0.270   1.702
 5581SOL    HW217643   1.598   0.411   1.760
 5582SOL     OW17644   2.974   3.567   6.009
 5582SOL    HW117645   3.030   3.650   6.013
 5582SOL    HW217646   2.994   3.517   5.925
 5583SOL     OW17647   5.214   0.619   2.761
 5583SOL    HW117648   5.141   0.605   2.694
 5583SOL    HW217649   5.268   0.699   2.735
 5584SOL     OW17650   6.824   5.038   4.241
 5584SOL    HW117651   6.764   4.971   4.197
 5584SOL    HW217652   6.909   5.046   4.190
 5585SOL     OW17653   5.584   5.534   2.930
 5585SOL    HW117654   5.503   5.475   2.928
 5585SOL    HW217655   5.576   5.605   2.860
 5586SOL     OW17656   0.358   2.673   6.102
 5586SOL    HW117657   0.314   2.687   6.014
 5586SOL    HW217658   0.433   2.608   6.092
 5587SOL     OW17659   4.307   6.475   1.002
 5587SOL    HW117660   4.316   6.385   1.046
 5587SOL    HW217661   4.243   6.531   1.054
 5588SOL     OW17662   2.820   5.054   2.974
 5588SOL    HW117663   2.919   5.061   2.965
 5588SOL    HW217664   2.779   5.144   2.959
 5589SOL     OW17665   6.633   3.126   5.856
 5589SOL    HW117666   6.575   3.165   5.927
 5589SOL    HW217667   6.658   3.198   5.791
 5590SOL     OW17668   0.296   6.037   3.763
 5590SOL    HW117669   0.203   6.070   3.752
 5590SOL    HW217670   0.360   6.114   3.754
 5591SOL     OW17671   5.754   1.326   1.523
 5591SOL    HW117672   5.721   1.277   1.604
 5591SOL    HW217673   5.707   1.291   1.442
 5592SOL     OW17674   1.183   5.619   2.202
 5592SOL    HW117675   1.117   5.686   2.237
 5592SOL    HW217676   1.190   5.543   2.267
 5593SOL     OW17677   1.113   3.156   0.469
 5593SOL    HW117678   1.211   3.169   0.485
 5593SOL    HW217679   1.090   3.060   0.481
 5594SOL     OW17680   4.499   1.338   6.582
 5594SOL    HW117681   4.530   1.387   6.500
 5594SOL    HW217682   4.576   1.330   6.646
 5595SOL     OW17683   0.019   1.034   4.614
 5595SOL    HW117684   0.108   1.015   4.572
 5595SOL    HW217685   7.021   0.961   4.678
 5596SOL     OW17686   4.453   0.930   2.633
 5596SOL    HW117687   4.498   0.860   2.688
 5596SOL    HW217688   4.359   0.943   2.665
 5597SOL     OW17689   5.078   2.942   4.767
 5597SOL    HW117690   5.010   2.888   4.818
 5597SOL    HW217691   5.125   3.004   4.830
 5598SOL     OW17692   5.467   4.235   4.146
 5598SOL    HW117693   5.406   4.194   4.078
 5598SOL    HW217694   5.541   4.284   4.099
 5599SOL     OW17695   1.155   2.068   2.638
 5599SOL    HW117696   1.186   2.037   2.548
 5599SOL    HW217697   1.227   2.052   2.706
 5600SOL     OW17698   1.425   1.487   1.520
 5600SOL    HW117699   1.441   1.583   1.496
 5600SOL    HW217700   1.480   1.428   1.461
 5601SOL     OW17701   2.005   0.554   6.275
 5601SOL    HW117702   2.027   0.463   6.241
 5601SOL    HW217703   2.002   0.552   6.375
 5602SOL     OW17704   0.143   1.837   1.502
 5602SOL    HW117705   0.065   1.895   1.478
 5602SOL    HW217706   0.112   1.763   1.562
 5603SOL     OW17707   5.757   2.983   0.432
 5603SOL    HW117708   5.813   3.063   0.409
 5603SOL    HW217709   5.807   2.925   0.496
 5604SOL     OW17710   6.175   2.596   4.730
 5604SOL    HW117711   6.160   2.595   4.829
 5604SOL    HW217712   6.131   2.516   4.688
 5605SOL     OW17713   0.135   1.498   5.099
 5605SOL    HW117714   0.162   1.592   5.117
 5605SOL    HW217715   0.100   1.456   5.183
 5606SOL     OW17716   4.740   6.740   0.592
 5606SOL    HW117717   4.776   6.647   0.586
 5606SOL    HW217718   4.813   6.806   0.570
 5607SOL     OW17719   5.124   1.013   2.748
 5607SOL    HW117720   5.089   1.071   2.822
 5607SOL    HW217721   5.125   1.065   2.663
 5608SOL     OW17722   5.844   0.274   3.900
 5608SOL    HW117723   5.927   0.301   3.949
 5608SOL    HW217724   5.830   0.176   3.909
 5609SOL     OW17725   3.107   5.911   0.989
 5609SOL    HW117726   3.059   5.860   0.918
 5609SOL    HW217727   3.206   5.897   0.978
 5610SOL     OW17728   3.875   5.994   0.251
 5610SOL    HW117729   3.923   5.946   0.323
 5610SOL    HW217730   3.900   5.956   0.162
 5611SOL     OW17731   1.532   5.892   2.950
 5611SOL    HW117732   1.441   5.900   2.992
 5611SOL    HW217733   1.539   5.957   2.874
 5612SOL     OW17734   3.954   2.216   5.938
 5612SOL    HW117735   3.953   2.276   5.858
 5612SOL    HW217736   3.977   2.270   6.019
 5613SOL     OW17737   6.213   4.257   3.377
 5613SOL    HW117738   6.151   4.189   3.417
 5613SOL    HW217739   6.247   4.224   3.289
 5614SOL     OW17740   4.705   2.080   4.275
 5614SOL    HW117741   4.622   2.126   4.243
 5614SOL    HW217742   4.753   2.139   4.340
 5615SOL     OW17743   0.126   1.778   4.001
 5615SOL    HW117744   0.049   1.841   4.009
 5615SOL    HW217745   0.120   1.728   3.914
 5616SOL     OW17746   2.714   1.890   4.623
 5616SOL    HW117747   2.760   1.806   4.653
 5616SOL    HW217748   2.732   1.906   4.526
 5617SOL     OW17749   2.422   6.498   5.947
 5617SOL    HW117750   2.360   6.421   5.937
 5617SOL    HW217751   2.468   6.516   5.860
 5618SOL     OW17752   0.082   4.653   3.530
 5618SOL    HW117753   0.025   4.593   3.475
 5618SOL    HW217754   0.171   4.663   3.487
 5619SOL     OW17755   3.311   3.659   4.964
 5619SOL    HW117756   3.357   3.638   4.877
 5619SOL    HW217757   3.212   3.646   4.953
 5620SOL     OW17758   4.001   3.575   0.806
 5620SOL    HW117759   3.976   3.652   0.747
 5620SOL    HW217760   4.100   3.578   0.823
 5621SOL     OW17761   2.175   2.633   0.223
 5621SOL    HW117762   2.136   2.720   0.194
 5621SOL    HW217763   2.156   2.618   0.320
 5622SOL     OW17764   4.530   0.358   6.278
 5622SOL    HW117765   4.567   0.295   6.346
 5622SOL    HW217766   4.590   0.359   6.198
 5623SOL     OW17767   3.058   5.461   5.449
 5623SOL    HW117768   3.121   5.467   5.372
 5623SOL    HW217769   3.008   5.375   5.444
 5624SOL     OW17770   1.346   4.148   3.581
 5624SOL    HW117771   1.315   4.236   3.616
 5624SOL    HW217772   1.268   4.086   3.574
 5625SOL     OW17773   5.749   1.080   5.526
 5625SOL    HW117774   5.799   1.161   5.555
 5625SOL    HW217775   5.812   1.016   5.482
 5626SOL     OW17776   2.418   5.776   4.440
 5626SOL    HW117777   2.381   5.866   4.420
 5626SOL    HW217778   2.478   5.781   4.520
 5627SOL     OW17779   0.681   5.611   6.223
 5627SOL    HW117780   0.612   5.662   6.276
 5627SOL    HW217781   0.694   5.656   6.135
 5628SOL     OW17782   1.045   2.218   0.802
 5628SOL    HW117783   0.964   2.229   0.745
 5628SOL    HW217784   1.017   2.188   0.894
 5629SOL     OW17785   3.536   3.701   2.306
 5629SOL    HW117786   3.519   3.764   2.382
 5629SOL    HW217787   3.482   3.729   2.227
 5630SOL     OW17788   1.382   3.553   0.192
 5630SOL    HW117789   1.388   3.521   0.098
 5630SOL    HW217790   1.331   3.640   0.194
 5631SOL     OW17791   4.440   1.869   1.172
 5631SOL    HW117792   4.492   1.823   1.099
 5631SOL    HW217793   4.386   1.943   1.132
 5632SOL     OW17794   3.287   2.489   6.170
 5632SOL    HW117795   3.247   2.445   6.251
 5632SOL    HW217796   3.322   2.579   6.195
 5633SOL     OW17797   6.184   4.096   4.159
 5633SOL    HW117798   6.144   4.186   4.176
 5633SOL    HW217799   6.183   4.077   4.061
 5634SOL     OW17800   2.190   4.600   4.443
 5634SOL    HW117801   2.185   4.691   4.485
 5634SOL    HW217802   2.276   4.557   4.469
 5635SOL     OW17803   1.879   4.538   5.259
 5635SOL    HW117804   1.924   4.479   5.192
 5635SOL    HW217805   1.939   4.552   5.337
 5636SOL     OW17806   4.472   6.375   4.203
 5636SOL    HW117807   4.548   6.310   4.205
 5636SOL    HW217808   4.494   6.449   4.140
 5637SOL     OW17809   5.624   0.213   3.435
 5637SOL    HW117810   5.661   0.135   3.384
 5637SOL    HW217811   5.615   0.292   3.375
 5638SOL     OW17812   6.357   3.590   1.182
 5638SOL    HW117813   6.307   3.652   1.121
 5638SOL    HW217814   6.356   3.627   1.275
 5639SOL     OW17815   0.547   1.098   2.311
 5639SOL    HW117816   0.626   1.068   2.256
 5639SOL    HW217817   0.500   1.019   2.348
 5640SOL     OW17818   3.394   0.175   3.734
 5640SOL    HW117819   3.470   0.147   3.794
 5640SOL    HW217820   3.337   0.095   3.714
 5641SOL     OW17821   0.820   4.687   5.484
 5641SOL    HW117822   0.756   4.650   5.416
 5641SOL    HW217823   0.850   4.613   5.544
 5642SOL     OW17824   1.650   6.762   5.374
 5642SOL    HW117825   1.621   6.828   5.305
 5642SOL    HW217826   1.661   6.672   5.331
 5643SOL     OW17827   4.360   0.849   5.688
 5643SOL    HW117828   4.406   0.935   5.709
 5643SOL    HW217829   4.347   0.797   5.772
 5644SOL     OW17830   3.354   0.236   5.491
 5644SOL    HW117831   3.326   0.303   5.423
 5644SOL    HW217832   3.300   0.248   5.575
 5645SOL     OW17833   6.585   4.712   3.776
 5645SOL    HW117834   6.499   4.760   3.761
 5645SOL    HW217835   6.640   4.717   3.692
 5646SOL     OW17836   1.867   5.288   3.525
 5646SOL    HW117837   1.950   5.338   3.499
 5646SOL    HW217838   1.853   5.298   3.624
 5647SOL     OW17839   4.200   5.787   1.689
 5647SOL    HW117840   4.142   5.706   1.702
 5647SOL    HW217841   4.290   5.758   1.654
 5648SOL     OW17842   2.049   6.132   2.313
 5648SOL    HW117843   2.021   6.119   2.218
 5648SOL    HW217844   2.111   6.210   2.318
 5649SOL     OW17845   0.741   6.607   4.315
 5649SOL    HW117846   0.718   6.545   4.390
 5649SOL    HW217847   0.793   6.557   4.246
 5650SOL     OW17848   0.444   5.250   1.393
 5650SOL    HW117849   0.418   5.266   1.488
 5650SOL    HW217850   0.515   5.315   1.366
 5651SOL     OW17851   1.670   1.084   1.414
 5651SOL    HW117852   1.641   0.988   1.412
 5651SOL    HW217853   1.715   1.107   1.328
 5652SOL     OW17854   5.946   6.698   1.850
 5652SOL    HW117855   5.957   6.781   1.795
 5652SOL    HW217856   5.862   6.650   1.824
 5653SOL     OW17857   6.010   6.575   6.316
 5653SOL    HW117858   5.990   6.505   6.248
 5653SOL    HW217859   6.073   6.643   6.277
 5654SOL     OW17860   0.931   6.540   4.562
 5654SOL    HW117861   0.981   6.553   4.477
 5654SOL    HW217862   0.836   6.516   4.542
 5655SOL     OW17863   0.370   3.026   4.028
 5655SOL    HW117864   0.398   3.103   4.084
 5655SOL    HW217865   0.335   3.060   3.940
 5656SOL     OW17866   6.946   4.126   6.752
 5656SOL    HW117867   7.007   4.049   6.732
 5656SOL    HW217868   6.979   4.207   6.703
 5657SOL     OW17869   5.967   3.399   6.625
 5657SOL    HW117870   5.937   3.390   6.719
 5657SOL    HW217871   6.029   3.324   6.602
 5658SOL     OW17872   2.944   2.846   6.407
 5658SOL    HW117873   2.988   2.920   6.356
 5658SOL    HW217874   2.941   2.870   6.504
 5659SOL     OW17875   3.369   3.321   5.787
 5659SOL    HW117876   3.452   3.371   5.810
 5659SOL    HW217877   3.374   3.229   5.827
 5660SOL     OW17878   4.407   6.977   6.162
 5660SOL    HW117879   4.396   6.978   6.261
 5660SOL    HW217880   4.334   0.008   6.120
 5661SOL     OW17881   2.168   5.929   4.858
 5661SOL    HW117882   2.079   5.946   4.899
 5661SOL    HW217883   2.240   5.947   4.925
 5662SOL     OW17884   3.076   6.826   3.266
 5662SOL    HW117885   2.998   6.766   3.281
 5662SOL    HW217886   3.159   6.785   3.305
 5663SOL     OW17887   2.470   2.576   0.575
 5663SOL    HW117888   2.455   2.575   0.673
 5663SOL    HW217889   2.555   2.527   0.553
 5664SOL     OW17890   6.656   3.422   4.532
 5664SOL    HW117891   6.596   3.343   4.517
 5664SOL    HW217892   6.696   3.450   4.445
 5665SOL     OW17893   1.459   0.838   0.372
 5665SOL    HW117894   1.484   0.855   0.467
 5665SOL    HW217895   1.479   0.743   0.349
 5666SOL     OW17896   6.777   6.982   3.557
 5666SOL    HW117897   6.688   0.001   3.574
 5666SOL    HW217898   6.840   0.025   3.519
 5667SOL     OW17899   1.313   4.721   4.862
 5667SOL    HW117900   1.405   4.741   4.895
 5667SOL    HW217901   1.252   4.708   4.941
 5668SOL     OW17902   5.553   3.303   2.928
 5668SOL    HW117903   5.632   3.241   2.929
 5668SOL    HW217904   5.562   3.370   3.001
 5669SOL     OW17905   6.266   3.827   1.030
 5669SOL    HW117906   6.359   3.862   1.017
 5669SOL    HW217907   6.222   3.814   0.942
 5670SOL     OW17908   1.424   3.649   4.032
 5670SOL    HW117909   1.493   3.720   4.021
 5670SOL    HW217910   1.434   3.604   4.120
 5671SOL     OW17911   5.929   6.382   5.411
 5671SOL    HW117912   5.921   6.360   5.314
 5671SOL    HW217913   6.024   6.405   5.432
 5672SOL     OW17914   4.754   4.107   6.180
 5672SOL    HW117915   4.816   4.065   6.247
 5672SOL    HW217916   4.786   4.200   6.160
 5673SOL     OW17917   1.707   6.635   1.005
 5673SOL    HW117918   1.750   6.636   1.096
 5673SOL    HW217919   1.683   6.729   0.980
 5674SOL     OW17920   1.414   4.706   5.210
 5674SOL    HW117921   1.384   4.629   5.153
 5674SOL    HW217922   1.337   4.769   5.224
 5675SOL     OW17923   4.610   2.814   6.477
 5675SOL    HW117924   4.682   2.880   6.458
 5675SOL    HW217925   4.567   2.786   6.392
 5676SOL     OW17926   2.382   1.986   2.870
 5676SOL    HW117927   2.339   1.985   2.960
 5676SOL    HW217928   2.341   1.915   2.813
 5677SOL     OW17929   1.199   0.928   0.622
 5677SOL    HW117930   1.160   1.014   0.654
 5677SOL    HW217931   1.140   0.852   0.650
 5678SOL     OW17932   3.779   0.043   2.825
 5678SOL    HW117933   3.798   0.057   2.728
 5678SOL    HW217934   3.690   7.022   2.836
 5679SOL     OW17935   5.953   1.029   3.836
 5679SOL    HW117936   5.875   0.988   3.791
 5679SOL    HW217937   6.026   1.045   3.769
 5680SOL     OW17938   1.478   5.045   6.566
 5680SOL    HW117939   1.508   4.954   6.592
 5680SOL    HW217940   1.555   5.108   6.569
 5681SOL     OW17941   0.322   3.872   1.669
 5681SOL    HW117942   0.325   3.775   1.646
 5681SOL    HW217943   0.358   3.886   1.761
 5682SOL     OW17944   1.847   5.317   4.419
 5682SOL    HW117945   1.790   5.295   4.340
 5682SOL    HW217946   1.792   5.365   4.487
 5683SOL     OW17947   3.879   1.576   6.102
 5683SOL    HW117948   3.936   1.624   6.035
 5683SOL    HW217949   3.936   1.520   6.161
 5684SOL     OW17950   2.480   3.883   6.416
 5684SOL    HW117951   2.472   3.796   6.366
 5684SOL    HW217952   2.533   3.947   6.362
 5685SOL     OW17953   2.711   1.218   3.438
 5685SOL    HW117954   2.646   1.206   3.513
 5685SOL    HW217955   2.787   1.275   3.469
 5686SOL     OW17956   3.058   1.549   5.444
 5686SOL    HW117957   3.069   1.531   5.542
 5686SOL    HW217958   3.126   1.617   5.415
 5687SOL     OW17959   0.696   5.382   6.056
 5687SOL    HW117960   0.781   5.384   6.108
 5687SOL    HW217961   0.633   5.452   6.092
 5688SOL     OW17962   1.600   2.322   2.868
 5688SOL    HW117963   1.688   2.309   2.822
 5688SOL    HW217964   1.549   2.394   2.822
 5689SOL     OW17965   2.681   1.256   2.122
 5689SOL    HW117966   2.747   1.232   2.192
 5689SOL    HW217967   2.723   1.319   2.056
 5690SOL     OW17968   1.672   6.116   0.085
 5690SOL    HW117969   1.594   6.069   0.127
 5690SOL    HW217970   1.753   6.102   0.142
 5691SOL     OW17971   3.851   0.593   1.957
 5691SOL    HW117972   3.880   0.686   1.978
 5691SOL    HW217973   3.783   0.594   1.884
 5692SOL     OW17974   5.877   4.419   0.714
 5692SOL    HW117975   5.832   4.386   0.631
 5692SOL    HW217976   5.854   4.358   0.791
 5693SOL     OW17977   4.386   1.373   1.999
 5693SOL    HW117978   4.292   1.391   1.969
 5693SOL    HW217979   4.441   1.345   1.920
 5694SOL     OW17980   1.378   0.660   2.879
 5694SOL    HW117981   1.368   0.649   2.780
 5694SOL    HW217982   1.400   0.755   2.900
 5695SOL     OW17983   1.598   1.828   3.476
 5695SOL    HW117984   1.559   1.919   3.463
 5695SOL    HW217985   1.644   1.798   3.393
 5696SOL     OW17986   0.639   6.861   4.076
 5696SOL    HW117987   0.701   6.900   4.007
 5696SOL    HW217988   0.606   6.772   4.044
 5697SOL     OW17989   6.093   2.293   1.950
 5697SOL    HW117990   6.190   2.292   1.928
 5697SOL    HW217991   6.056   2.201   1.942
 5698SOL     OW17992   0.861   4.349   3.732
 5698SOL    HW117993   0.909   4.322   3.815
 5698SOL    HW217994   0.909   4.427   3.690
 5699SOL     OW17995   1.072   2.331   2.691
 5699SOL    HW117996   1.122   2.245   2.696
 5699SOL    HW217997   1.095   2.388   2.770
 5700SOL     OW17998   6.404   6.733   4.118
 5700SOL    HW117999   6.374   6.722   4.212
 5700SOL    HW218000   6.324   6.742   4.058
 5701SOL     OW18001   0.571   0.171   1.253
 5701SOL    HW118002   0.638   0.140   1.320
 5701SOL    HW218003   0.523   0.092   1.214
 5702SOL     OW18004   2.333   5.413   4.563
 5702SOL    HW118005   2.419   5.362   4.564
 5702SOL    HW218006   2.339   5.490   4.626
 5703SOL     OW18007   6.499   4.491   0.543
 5703SOL    HW118008   6.563   4.476   0.468
 5703SOL    HW218009   6.517   4.426   0.617
 5704SOL     OW18010   5.201   4.099   3.151
 5704SOL    HW118011   5.263   4.077   3.226
 5704SOL    HW218012   5.147   4.019   3.127
 5705SOL     OW18013   4.918   6.200   0.021
 5705SOL    HW118014   4.829   6.215   7.003
 5705SOL    HW218015   4.958   6.116   7.010
 5706SOL     OW18016   5.562   2.676   2.249
 5706SOL    HW118017   5.550   2.652   2.152
 5706SOL    HW218018   5.496   2.747   2.274
 5707SOL     OW18019   6.014   7.004   1.221
 5707SOL    HW118020   5.976   6.923   1.265
 5707SOL    HW218021   6.113   6.991   1.208
 5708SOL     OW18022   5.101   5.779   2.530
 5708SOL    HW118023   5.108   5.828   2.443
 5708SOL    HW218024   5.193   5.757   2.563
 5709SOL     OW18025   1.003   1.351   2.382
 5709SOL    HW118026   1.072   1.295   2.429
 5709SOL    HW218027   1.049   1.428   2.337
 5710SOL     OW18028   3.497   2.444   0.389
 5710SOL    HW118029   3.500   2.344   0.385
 5710SOL    HW218030   3.425   2.472   0.452
 5711SOL     OW18031   5.097   1.276   1.795
 5711SOL    HW118032   5.146   1.340   1.735
 5711SOL    HW218033   5.056   1.328   1.871
 5712SOL     OW18034   6.289   6.986   0.026
 5712SOL    HW118035   6.338   0.038   0.069
 5712SOL    HW218036   6.201   6.973   0.071
 5713SOL     OW18037   2.623   3.954   1.662
 5713SOL    HW118038   2.552   4.000   1.715
 5713SOL    HW218039   2.692   4.020   1.633
 5714SOL     OW18040   6.547   6.312   1.213
 5714SOL    HW118041   6.646   6.310   1.199
 5714SOL    HW218042   6.525   6.381   1.281
 5715SOL     OW18043   0.230   0.177   2.619
 5715SOL    HW118044   0.243   0.078   2.624
 5715SOL    HW218045   0.220   0.205   2.523
 5716SOL     OW18046   1.668   5.522   5.826
 5716SOL    HW118047   1.674   5.618   5.851
 5716SOL    HW218048   1.760   5.487   5.805
 5717SOL     OW18049   1.723   5.161   0.466
 5717SOL    HW118050   1.680   5.129   0.551
 5717SOL    HW218051   1.807   5.211   0.488
 5718SOL     OW18052   1.203   3.784   0.749
 5718SOL    HW118053   1.109   3.802   0.777
 5718SOL    HW218054   1.266   3.820   0.818
 5719SOL     OW18055   2.589   3.409   0.231
 5719SOL    HW118056   2.502   3.374   0.265
 5719SOL    HW218057   2.575   3.451   0.141
 5720SOL     OW18058   1.594   6.434   4.621
 5720SOL    HW118059   1.559   6.525   4.643
 5720SOL    HW218060   1.576   6.413   4.525
 5721SOL     OW18061   5.802   4.180   0.864
 5721SOL    HW118062   5.705   4.162   0.849
 5721SOL    HW218063   5.856   4.103   0.829
 5722SOL     OW18064   6.719   2.416   5.155
 5722SOL    HW118065   6.762   2.378   5.073
 5722SOL    HW218066   6.769   2.498   5.184
 5723SOL     OW18067   3.837   3.305   0.213
 5723SOL    HW118068   3.863   3.384   0.269
 5723SOL    HW218069   3.920   3.263   0.176
 5724SOL     OW18070   5.920   2.922   4.200
 5724SOL    HW118071   5.864   2.959   4.126
 5724SOL    HW218072   5.862   2.900   4.279
 5725SOL     OW18073   5.932   5.299   3.746
 5725SOL    HW118074   5.900   5.393   3.762
 5725SOL    HW218075   5.855   5.241   3.721
 5726SOL     OW18076   0.157   5.700   4.247
 5726SOL    HW118077   0.225   5.751   4.299
 5726SOL    HW218078   0.100   5.646   4.309
 5727SOL     OW18079   5.886   2.739   4.622
 5727SOL    HW118080   5.822   2.794   4.569
 5727SOL    HW218081   5.877   2.642   4.597
 5728SOL     OW18082   5.090   6.372   5.602
 5728SOL    HW118083   5.102   6.373   5.503
 5728SOL    HW218084   5.010   6.428   5.627
 5729SOL     OW18085   1.381   0.822   7.002
 5729SOL    HW118086   1.438   0.746   0.009
 5729SOL    HW218087   1.290   0.814   0.018
 5730SOL     OW18088   5.408   4.909   6.242
 5730SOL    HW118089   5.395   5.008   6.241
 5730SOL    HW218090   5.445   4.881   6.331
 5731SOL     OW18091   0.023   0.283   3.231
 5731SOL    HW118092   6.999   0.286   3.144
 5731SOL    HW218093   0.050   0.375   3.257
 5732SOL     OW18094   0.759   5.895   3.751
 5732SOL    HW118095   0.699   5.879   3.829
 5732SOL    HW218096   0.815   5.814   3.735
 5733SOL     OW18097   3.210   6.699   5.119
 5733SOL    HW118098   3.212   6.798   5.101
 5733SOL    HW218099   3.256   6.651   5.044
 5734SOL     OW18100   1.293   0.643   5.424
 5734SOL    HW118101   1.276   0.616   5.518
 5734SOL    HW218102   1.390   0.635   5.404
 5735SOL     OW18103   3.836   1.766   1.043
 5735SOL    HW118104   3.801   1.675   1.019
 5735SOL    HW218105   3.925   1.756   1.089
 5736SOL     OW18106   6.234   4.042   0.339
 5736SOL    HW118107   6.179   3.964   0.371
 5736SOL    HW218108   6.279   4.085   0.417
 5737SOL     OW18109   5.678   6.622   0.620
 5737SOL    HW118110   5.640   6.554   0.556
 5737SOL    HW218111   5.762   6.587   0.660
 5738SOL     OW18112   1.876   2.653   5.991
 5738SOL    HW118113   1.957   2.678   6.043
 5738SOL    HW218114   1.896   2.575   5.932
 5739SOL     OW18115   1.591   1.048   6.042
 5739SOL    HW118116   1.556   1.003   6.124
 5739SOL    HW218117   1.594   1.147   6.057
 5740SOL     OW18118   4.501   4.609   0.563
 5740SOL    HW118119   4.584   4.563   0.532
 5740SOL    HW218120   4.485   4.587   0.659
 5741SOL     OW18121   0.532   5.390   4.575
 5741SOL    HW118122   0.579   5.430   4.496
 5741SOL    HW218123   0.479   5.460   4.621
 5742SOL     OW18124   5.513   6.207   3.025
 5742SOL    HW118125   5.467   6.287   2.987
 5742SOL    HW218126   5.450   6.159   3.087
 5743SOL     OW18127   2.174   6.302   5.112
 5743SOL    HW118128   2.151   6.232   5.044
 5743SOL    HW218129   2.170   6.393   5.070
 5744SOL     OW18130   5.037   0.172   1.643
 5744SOL    HW118131   5.134   0.195   1.648
 5744SOL    HW218132   5.012   0.116   1.721
 5745SOL     OW18133   3.874   1.206   4.647
 5745SOL    HW118134   3.832   1.199   4.738
 5745SOL    HW218135   3.879   1.116   4.606
 5746SOL     OW18136   4.683   0.479   0.741
 5746SOL    HW118137   4.638   0.460   0.829
 5746SOL    HW218138   4.735   0.564   0.749
 5747SOL     OW18139   0.202   5.099   2.739
 5747SOL    HW118140   0.188   5.017   2.794
 5747SOL    HW218141   0.231   5.073   2.647
 5748SOL     OW18142   1.659   4.941   1.071
 5748SOL    HW118143   1.617   5.014   1.016
 5748SOL    HW218144   1.704   4.981   1.151
 5749SOL     OW18145   2.984   0.750   4.796
 5749SOL    HW118146   2.912   0.715   4.855
 5749SOL    HW218147   3.068   0.762   4.849
 5750SOL     OW18148   6.008   4.986   4.978
 5750SOL    HW118149   5.999   5.010   4.882
 5750SOL    HW218150   5.979   4.891   4.992
 5751SOL     OW18151   2.652   2.349   4.485
 5751SOL    HW118152   2.594   2.405   4.544
 5751SOL    HW218153   2.737   2.327   4.533
 5752SOL     OW18154   6.323   1.099   6.263
 5752SOL    HW118155   6.411   1.106   6.310
 5752SOL    HW218156   6.281   1.190   6.256
 5753SOL     OW18157   3.106   3.802   6.044
 5753SOL    HW118158   3.030   3.845   6.092
 5753SOL    HW218159   3.122   3.849   5.957
 5754SOL     OW18160   5.521   5.801   1.120
 5754SOL    HW118161   5.434   5.809   1.071
 5754SOL    HW218162   5.508   5.828   1.215
 5755SOL     OW18163   3.006   3.328   5.470
 5755SOL    HW118164   3.103   3.352   5.461
 5755SOL    HW218165   2.964   3.323   5.380
 5756SOL     OW18166   6.594   5.370   3.825
 5756SOL    HW118167   6.567   5.316   3.746
 5756SOL    HW218168   6.624   5.310   3.899
 5757SOL     OW18169   6.165   6.277   2.644
 5757SOL    HW118170   6.228   6.253   2.718
 5757SOL    HW218171   6.197   6.359   2.598
 5758SOL     OW18172   3.048   1.664   3.845
 5758SOL    HW118173   3.052   1.744   3.905
 5758SOL    HW218174   3.003   1.690   3.759
 5759SOL     OW18175   4.739   1.840   6.362
 5759SOL    HW118176   4.643   1.822   6.380
 5759SOL    HW218177   4.764   1.929   6.401
 5760SOL     OW18178   1.590   6.114   1.864
 5760SOL    HW118179   1.630   6.194   1.909
 5760SOL    HW218180   1.497   6.101   1.898
 5761SOL     OW18181   5.635   0.855   5.730
 5761SOL    HW118182   5.616   0.874   5.826
 5761SOL    HW218183   5.650   0.941   5.681
 5762SOL     OW18184   4.800   6.882   0.228
 5762SOL    HW118185   4.721   6.835   0.188
 5762SOL    HW218186   4.856   6.815   0.277
 5763SOL     OW18187   0.311   6.984   0.260
 5763SOL    HW118188   0.243   7.004   0.188
 5763SOL    HW218189   0.403   6.991   0.221
 5764SOL     OW18190   5.661   4.723   6.428
 5764SOL    HW118191   5.637   4.676   6.343
 5764SOL    HW218192   5.601   4.693   6.502
 5765SOL     OW18193   6.460   4.357   6.720
 5765SOL    HW118194   6.554   4.368   6.687
 5765SOL    HW218195   6.396   4.376   6.645
 5766SOL     OW18196   2.689   1.327   1.429
 5766SOL    HW118197   2.782   1.356   1.406
 5766SOL    HW218198   2.625   1.362   1.361
 5767SOL     OW18199   2.424   6.861   0.405
 5767SOL    HW118200   2.500   6.926   0.409
 5767SOL    HW218201   2.458   6.771   0.376
 5768SOL     OW18202   0.132   6.937   2.839
 5768SOL    HW118203   0.094   6.848   2.866
 5768SOL    HW218204   0.223   6.947   2.880
 5769SOL     OW18205   2.686   0.058   3.654
 5769SOL    HW118206   2.629   7.005   3.626
 5769SOL    HW218207   2.731   0.098   3.574
 5770SOL     OW18208   6.628   6.690   1.107
 5770SOL    HW118209   6.677   6.776   1.095
 5770SOL    HW218210   6.587   6.662   1.021
 5771SOL     OW18211   1.404   6.294   1.637
 5771SOL    HW118212   1.445   6.203   1.625
 5771SOL    HW218213   1.337   6.309   1.564
 5772SOL     OW18214   6.084   3.224   0.786
 5772SOL    HW118215   6.087   3.284   0.707
 5772SOL    HW218216   5.989   3.204   0.809
 5773SOL     OW18217   5.862   7.014   3.974
 5773SOL    HW118218   5.961   7.009   3.990
 5773SOL    HW218219   5.815   0.005   4.061
 5774SOL     OW18220   2.349   4.943   3.557
 5774SOL    HW118221   2.337   5.025   3.613
 5774SOL    HW218222   2.408   4.965   3.479
 5775SOL     OW18223   1.951   0.662   1.039
 5775SOL    HW118224   1.945   0.563   1.032
 5775SOL    HW218225   2.025   0.696   0.980
 5776SOL     OW18226   0.040   0.423   6.213
 5776SOL    HW118227   0.069   0.398   6.305
 5776SOL    HW218228   0.096   0.376   6.145
 5777SOL     OW18229   5.824   1.098   4.066
 5777SOL    HW118230   5.867   1.175   4.113
 5777SOL    HW218231   5.861   1.092   3.973
 5778SOL     OW18232   2.110   0.721   1.851
 5778SOL    HW118233   2.037   0.743   1.786
 5778SOL    HW218234   2.190   0.687   1.802
 5779SOL     OW18235   3.743   0.321   0.876
 5779SOL    HW118236   3.734   0.400   0.936
 5779SOL    HW218237   3.820   0.265   0.907
 5780SOL     OW18238   6.566   5.249   1.812
 5780SOL    HW118239   6.513   5.242   1.727
 5780SOL    HW218240   6.526   5.319   1.871
 5781SOL     OW18241   2.048   4.575   4.707
 5781SOL    HW118242   2.043   4.485   4.751
 5781SOL    HW218243   2.143   4.594   4.682
 5782SOL     OW18244   1.559   1.057   1.844
 5782SOL    HW118245   1.543   0.964   1.810
 5782SOL    HW218246   1.486   1.080   1.909
 5783SOL     OW18247   1.755   1.533   0.966
 5783SOL    HW118248   1.697   1.598   0.918
 5783SOL    HW218249   1.833   1.581   1.007
 5784SOL     OW18250   0.394   6.452   0.295
 5784SOL    HW118251   0.462   6.441   0.222
 5784SOL    HW218252   0.440   6.476   0.380
 5785SOL     OW18253   1.461   1.623   1.193
 5785SOL    HW118254   1.507   1.538   1.217
 5785SOL    HW218255   1.520   1.675   1.130
 5786SOL     OW18256   1.655   3.421   1.369
 5786SOL    HW118257   1.581   3.479   1.335
 5786SOL    HW218258   1.647   3.330   1.328
 5787SOL     OW18259   5.543   2.362   4.085
 5787SOL    HW118260   5.581   2.438   4.031
 5787SOL    HW218261   5.454   2.336   4.048
 5788SOL     OW18262   3.065   0.350   0.926
 5788SOL    HW118263   3.132   0.319   0.993
 5788SOL    HW218264   2.974   0.318   0.952
 5789SOL     OW18265   3.882   2.843   6.515
 5789SOL    HW118266   3.889   2.913   6.444
 5789SOL    HW218267   3.864   2.754   6.473
 5790SOL     OW18268   6.477   5.984   5.014
 5790SOL    HW118269   6.462   6.040   4.933
 5790SOL    HW218270   6.550   5.918   4.997
 5791SOL     OW18271   3.281   1.410   2.357
 5791SOL    HW118272   3.238   1.351   2.289
 5791SOL    HW218273   3.313   1.354   2.434
 5792SOL     OW18274   4.906   3.602   3.244
 5792SOL    HW118275   4.920   3.697   3.217
 5792SOL    HW218276   4.886   3.546   3.163
 5793SOL     OW18277   5.968   2.292   5.591
 5793SOL    HW118278   5.944   2.282   5.495
 5793SOL    HW218279   5.918   2.369   5.631
 5794SOL     OW18280   3.185   6.862   6.265
 5794SOL    HW118281   3.264   6.921   6.282
 5794SOL    HW218282   3.179   6.840   6.168
 5795SOL     OW18283   1.035   5.938   1.837
 5795SOL    HW118284   1.028   5.948   1.937
 5795SOL    HW218285   1.016   6.026   1.794
 5796SOL     OW18286   4.828   0.973   6.342
 5796SOL    HW118287   4.891   0.940   6.272
 5796SOL    HW218288   4.734   0.968   6.308
 5797SOL     OW18289   5.824   1.369   0.122
 5797SOL    HW118290   5.797   1.302   0.192
 5797SOL    HW218291   5.916   1.347   0.089
 5798SOL     OW18292   0.904   4.012   4.578
 5798SOL    HW118293   0.941   4.034   4.668
 5798SOL    HW218294   0.977   4.014   4.509
 5799SOL     OW18295   1.067   6.783   3.236
 5799SOL    HW118296   1.141   6.727   3.200
 5799SOL    HW218297   1.101   6.874   3.259
 5800SOL     OW18298   0.853   6.935   0.809
 5800SOL    HW118299   0.794   6.864   0.847
 5800SOL    HW218300   0.914   6.894   0.741
 5801SOL     OW18301   2.275   2.703   2.856
 5801SOL    HW118302   2.271   2.655   2.944
 5801SOL    HW218303   2.307   2.796   2.870
 5802SOL     OW18304   6.237   2.617   2.623
 5802SOL    HW118305   6.331   2.614   2.589
 5802SOL    HW218306   6.174   2.587   2.551
 5803SOL     OW18307   1.310   4.411   3.670
 5803SOL    HW118308   1.320   4.473   3.592
 5803SOL    HW218309   1.248   4.450   3.737
 5804SOL     OW18310   6.975   6.932   3.804
 5804SOL    HW118311   6.904   6.983   3.756
 5804SOL    HW218312   6.932   6.867   3.867
 5805SOL     OW18313   1.360   3.491   1.058
 5805SOL    HW118314   1.322   3.439   1.135
 5805SOL    HW218315   1.338   3.444   0.972
 5806SOL     OW18316   0.434   3.617   4.424
 5806SOL    HW118317   0.358   3.663   4.469
 5806SOL    HW218318   0.427   3.518   4.439
 5807SOL     OW18319   1.296   6.113   1.158
 5807SOL    HW118320   1.358   6.141   1.231
 5807SOL    HW218321   1.209   6.161   1.169
 5808SOL     OW18322   6.657   6.651   4.139
 5808SOL    HW118323   6.645   6.556   4.166
 5808SOL    HW218324   6.572   6.685   4.097
 5809SOL     OW18325   0.768   2.261   5.797
 5809SOL    HW118326   0.817   2.289   5.879
 5809SOL    HW218327   0.813   2.181   5.757
 5810SOL     OW18328   4.457   6.822   4.967
 5810SOL    HW118329   4.396   6.768   4.909
 5810SOL    HW218330   4.440   6.798   5.063
 5811SOL     OW18331   2.845   2.898   5.751
 5811SOL    HW118332   2.835   2.810   5.798
 5811SOL    HW218333   2.786   2.900   5.670
 5812SOL     OW18334   6.062   3.208   0.277
 5812SOL    HW118335   6.013   3.282   0.232
 5812SOL    HW218336   6.155   3.238   0.299
 5813SOL     OW18337   3.490   6.358   1.458
 5813SOL    HW118338   3.512   6.339   1.363
 5813SOL    HW218339   3.472   6.455   1.470
 5814SOL     OW18340   6.798   2.128   2.292
 5814SOL    HW118341   6.884   2.083   2.267
 5814SOL    HW218342   6.724   2.061   2.289
 5815SOL     OW18343   6.227   1.563   3.991
 5815SOL    HW118344   6.145   1.603   3.950
 5815SOL    HW218345   6.305   1.576   3.930
 5816SOL     OW18346   0.102   5.142   2.235
 5816SOL    HW118347   0.123   5.214   2.301
 5816SOL    HW218348   0.037   5.078   2.276
 5817SOL     OW18349   5.530   3.919   5.299
 5817SOL    HW118350   5.442   3.913   5.345
 5817SOL    HW218351   5.581   3.998   5.334
 5818SOL     OW18352   1.213   6.089   5.514
 5818SOL    HW118353   1.161   6.059   5.593
 5818SOL    HW218354   1.191   6.185   5.493
 5819SOL     OW18355   2.888   5.332   0.065
 5819SOL    HW118356   2.932   5.265   0.005
 5819SOL    HW218357   2.868   5.290   0.153
 5820SOL     OW18358   5.359   5.053   2.355
 5820SOL    HW118359   5.403   4.993   2.422
 5820SOL    HW218360   5.260   5.052   2.370
 5821SOL     OW18361   6.628   1.106   1.223
 5821SOL    HW118362   6.613   1.067   1.314
 5821SOL    HW218363   6.704   1.172   1.227
 5822SOL     OW18364   1.642   2.042   2.886
 5822SOL    HW118365   1.645   2.130   2.932
 5822SOL    HW218366   1.557   2.034   2.834
 5823SOL     OW18367   2.109   6.307   4.653
 5823SOL    HW118368   2.021   6.301   4.700
 5823SOL    HW218369   2.152   6.395   4.674
 5824SOL     OW18370   0.872   7.013   2.323
 5824SOL    HW118371   0.839   6.978   2.411
 5824SOL    HW218372   0.803   0.048   2.282
 5825SOL     OW18373   6.964   6.147   4.746
 5825SOL    HW118374   0.023   6.193   4.778
 5825SOL    HW218375   6.983   6.102   4.658
 5826SOL     OW18376   6.952   0.286   5.300
 5826SOL    HW118377   6.979   0.382   5.297
 5826SOL    HW218378   6.968   0.244   5.211
 5827SOL     OW18379   1.122   3.589   4.865
 5827SOL    HW118380   1.203   3.589   4.924
 5827SOL    HW218381   1.125   3.670   4.806
 5828SOL     OW18382   5.417   7.007   3.990
 5828SOL    HW118383   5.355   6.996   3.912
 5828SOL    HW218384   5.455   0.075   3.989
 5829SOL     OW18385   1.783   0.783   4.881
 5829SOL    HW118386   1.811   0.811   4.789
 5829SOL    HW218387   1.846   0.714   4.915
 5830SOL     OW18388   3.710   5.206   5.387
 5830SOL    HW118389   3.636   5.192   5.321
 5830SOL    HW218390   3.786   5.144   5.365
 5831SOL     OW18391   1.082   1.337   5.350
 5831SOL    HW118392   0.983   1.329   5.363
 5831SOL    HW218393   1.127   1.260   5.395
 5832SOL     OW18394   3.342   4.443   1.407
 5832SOL    HW118395   3.335   4.439   1.307
 5832SOL    HW218396   3.254   4.417   1.447
 5833SOL     OW18397   4.266   3.788   5.327
 5833SOL    HW118398   4.244   3.774   5.424
 5833SOL    HW218399   4.298   3.702   5.287
 5834SOL     OW18400   6.711   4.444   6.553
 5834SOL    HW118401   6.797   4.435   6.604
 5834SOL    HW218402   6.725   4.412   6.459
 5835SOL     OW18403   5.874   0.951   2.611
 5835SOL    HW118404   5.882   0.851   2.605
 5835SOL    HW218405   5.945   0.993   2.554
 5836SOL     OW18406   3.529   6.272   2.627
 5836SOL    HW118407   3.478   6.338   2.572
 5836SOL    HW218408   3.581   6.211   2.567
 5837SOL     OW18409   3.285   4.155   0.488
 5837SOL    HW118410   3.383   4.132   0.482
 5837SOL    HW218411   3.272   4.228   0.554
 5838SOL     OW18412   3.259   2.043   1.459
 5838SOL    HW118413   3.280   1.953   1.497
 5838SOL    HW218414   3.342   2.097   1.452
 5839SOL     OW18415   0.456   2.939   1.664
 5839SOL    HW118416   0.544   2.946   1.710
 5839SOL    HW218417   0.462   2.871   1.591
 5840SOL     OW18418   0.264   3.911   2.186
 5840SOL    HW118419   0.223   3.822   2.206
 5840SOL    HW218420   0.307   3.947   2.269
 5841SOL     OW18421   4.630   0.778   1.740
 5841SOL    HW118422   4.643   0.866   1.784
 5841SOL    HW218423   4.714   0.750   1.695
 5842SOL     OW18424   3.596   2.035   0.097
 5842SOL    HW118425   3.658   2.015   0.173
 5842SOL    HW218426   3.633   2.111   0.044
 5843SOL     OW18427   2.112   3.580   1.349
 5843SOL    HW118428   2.135   3.486   1.322
 5843SOL    HW218429   2.056   3.578   1.432
 5844SOL     OW18430   0.461   6.568   5.000
 5844SOL    HW118431   0.498   6.476   4.985
 5844SOL    HW218432   0.516   6.616   5.067
 5845SOL     OW18433   0.210   6.812   1.756
 5845SOL    HW118434   0.150   6.821   1.836
 5845SOL    HW218435   0.172   6.863   1.680
 5846SOL     OW18436   6.750   3.677   5.344
 5846SOL    HW118437   6.732   3.772   5.368
 5846SOL    HW218438   6.737   3.618   5.424
 5847SOL     OW18439   2.535   2.897   1.745
 5847SOL    HW118440   2.517   2.800   1.725
 5847SOL    HW218441   2.451   2.941   1.775
 5848SOL     OW18442   2.388   5.981   4.065
 5848SOL    HW118443   2.302   6.027   4.046
 5848SOL    HW218444   2.449   6.043   4.114
 5849SOL     OW18445   2.333   6.340   5.369
 5849SOL    HW118446   2.314   6.349   5.271
 5849SOL    HW218447   2.260   6.385   5.421
 5850SOL     OW18448   1.121   2.505   1.931
 5850SOL    HW118449   1.029   2.526   1.965
 5850SOL    HW218450   1.171   2.591   1.918
 5851SOL     OW18451   5.679   3.451   4.539
 5851SOL    HW118452   5.746   3.430   4.611
 5851SOL    HW218453   5.724   3.452   4.450
 5852SOL     OW18454   4.728   5.781   3.521
 5852SOL    HW118455   4.650   5.796   3.582
 5852SOL    HW218456   4.785   5.707   3.556
 5853SOL     OW18457   3.961   4.944   4.949
 5853SOL    HW118458   4.019   4.872   4.989
 5853SOL    HW218459   4.018   5.021   4.922
 5854SOL     OW18460   3.575   4.512   5.657
 5854SOL    HW118461   3.652   4.466   5.613
 5854SOL    HW218462   3.542   4.586   5.598
 5855SOL     OW18463   2.108   2.572   3.792
 5855SOL    HW118464   2.022   2.581   3.743
 5855SOL    HW218465   2.090   2.561   3.890
 5856SOL     OW18466   1.761   6.871   2.567
 5856SOL    HW118467   1.664   6.872   2.543
 5856SOL    HW218468   1.812   6.922   2.498
 5857SOL     OW18469   0.051   3.152   5.441
 5857SOL    HW118470   0.011   3.138   5.532
 5857SOL    HW218471   0.061   3.250   5.424
 5858SOL     OW18472   2.826   1.779   2.545
 5858SOL    HW118473   2.925   1.781   2.527
 5858SOL    HW218474   2.807   1.724   2.626
 5859SOL     OW18475   5.661   6.101   1.722
 5859SOL    HW118476   5.665   6.170   1.794
 5859SOL    HW218477   5.684   6.143   1.634
 5860SOL     OW18478   0.337   4.628   3.410
 5860SOL    HW118479   0.426   4.638   3.454
 5860SOL    HW218480   0.331   4.537   3.369
 5861SOL     OW18481   5.798   0.576   5.262
 5861SOL    HW118482   5.737   0.537   5.330
 5861SOL    HW218483   5.746   0.637   5.202
 5862SOL     OW18484   6.194   5.514   2.024
 5862SOL    HW118485   6.150   5.603   2.024
 5862SOL    HW218486   6.127   5.443   2.046
 5863SOL     OW18487   3.069   1.069   4.612
 5863SOL    HW118488   3.004   1.010   4.659
 5863SOL    HW218489   3.076   1.157   4.659
 5864SOL     OW18490   3.302   3.873   3.154
 5864SOL    HW118491   3.382   3.863   3.214
 5864SOL    HW218492   3.332   3.908   3.065
 5865SOL     OW18493   5.711   1.533   5.779
 5865SOL    HW118494   5.747   1.605   5.838
 5865SOL    HW218495   5.784   1.499   5.720
 5866SOL     OW18496   2.963   2.923   1.228
 5866SOL    HW118497   2.987   3.007   1.179
 5866SOL    HW218498   2.929   2.855   1.164
 5867SOL     OW18499   1.958   2.342   1.558
 5867SOL    HW118500   1.870   2.317   1.518
 5867SOL    HW218501   2.031   2.324   1.492
 5868SOL     OW18502   1.131   1.818   5.921
 5868SOL    HW118503   1.187   1.842   6.001
 5868SOL    HW218504   1.185   1.830   5.838
 5869SOL     OW18505   1.744   4.372   3.288
 5869SOL    HW118506   1.840   4.345   3.299
 5869SOL    HW218507   1.687   4.316   3.347
 5870SOL     OW18508   4.155   4.617   5.518
 5870SOL    HW118509   4.236   4.662   5.481
 5870SOL    HW218510   4.102   4.577   5.443
 5871SOL     OW18511   3.653   3.661   3.309
 5871SOL    HW118512   3.692   3.748   3.278
 5871SOL    HW218513   3.569   3.643   3.259
 5872SOL     OW18514   3.496   5.775   1.477
 5872SOL    HW118515   3.471   5.678   1.475
 5872SOL    HW218516   3.436   5.826   1.414
 5873SOL     OW18517   2.465   5.376   2.065
 5873SOL    HW118518   2.517   5.457   2.093
 5873SOL    HW218519   2.521   5.294   2.080
 5874SOL     OW18520   2.242   4.262   5.112
 5874SOL    HW118521   2.321   4.322   5.122
 5874SOL    HW218522   2.273   4.168   5.102
 5875SOL     OW18523   3.714   2.254   6.955
 5875SOL    HW118524   3.682   2.317   0.001
 5875SOL    HW218525   3.696   2.293   6.864
 5876SOL     OW18526   3.761   3.326   2.298
 5876SOL    HW118527   3.802   3.313   2.207
 5876SOL    HW218528   3.661   3.324   2.290
 5877SOL     OW18529   5.890   6.073   1.141
 5877SOL    HW118530   5.949   6.036   1.069
 5877SOL    HW218531   5.931   6.057   1.230
 5878SOL     OW18532   1.133   6.183   3.556
 5878SOL    HW118533   1.033   6.183   3.558
 5878SOL    HW218534   1.167   6.277   3.567
 5879SOL     OW18535   6.418   3.483   0.196
 5879SOL    HW118536   6.415   3.574   0.237
 5879SOL    HW218537   6.457   3.489   0.104
 5880SOL     OW18538   2.757   5.400   1.100
 5880SOL    HW118539   2.798   5.324   1.150
 5880SOL    HW218540   2.758   5.379   1.002
 5881SOL     OW18541   0.338   5.118   3.560
 5881SOL    HW118542   0.315   5.215   3.558
 5881SOL    HW218543   0.313   5.076   3.473
 5882SOL     OW18544   5.818   7.006   1.041
 5882SOL    HW118545   5.771   0.070   1.042
 5882SOL    HW218546   5.901   7.012   1.097
 5883SOL     OW18547   0.290   2.171   6.584
 5883SOL    HW118548   0.228   2.166   6.661
 5883SOL    HW218549   0.368   2.229   6.608
 5884SOL     OW18550   2.217   1.329   3.419
 5884SOL    HW118551   2.229   1.328   3.518
 5884SOL    HW218552   2.236   1.238   3.382
 5885SOL     OW18553   6.780   6.726   1.662
 5885SOL    HW118554   6.748   6.644   1.709
 5885SOL    HW218555   6.840   6.699   1.586
 5886SOL     OW18556   0.181   2.224   4.976
 5886SOL    HW118557   0.213   2.203   4.884
 5886SOL    HW218558   0.258   2.218   5.041
 5887SOL     OW18559   4.100   1.330   3.448
 5887SOL    HW118560   4.153   1.246   3.463
 5887SOL    HW218561   4.011   1.307   3.408
 5888SOL     OW18562   2.967   6.732   2.805
 5888SOL    HW118563   3.010   6.706   2.719
 5888SOL    HW218564   3.036   6.734   2.877
 5889SOL     OW18565   1.554   7.012   1.237
 5889SOL    HW118566   1.629   0.025   1.291
 5889SOL    HW218567   1.503   0.062   1.195
 5890SOL     OW18568   1.295   0.338   5.282
 5890SOL    HW118569   1.252   0.262   5.331
 5890SOL    HW218570   1.312   0.413   5.346
 5891SOL     OW18571   4.149   2.877   6.276
 5891SOL    HW118572   4.210   2.808   6.316
 5891SOL    HW218573   4.175   2.893   6.181
 5892SOL     OW18574   0.967   6.463   1.392
 5892SOL    HW118575   0.965   6.370   1.355
 5892SOL    HW218576   0.918   6.525   1.331
 5893SOL     OW18577   1.612   3.948   3.579
 5893SOL    HW118578   1.604   4.039   3.537
 5893SOL    HW218579   1.564   3.948   3.667
 5894SOL     OW18580   1.271   5.126   3.184
 5894SOL    HW118581   1.279   5.180   3.101
 5894SOL    HW218582   1.333   5.162   3.254
 5895SOL     OW18583   5.438   2.954   3.979
 5895SOL    HW118584   5.386   3.035   3.952
 5895SOL    HW218585   5.491   2.921   3.902
 5896SOL     OW18586   4.017   1.607   0.057
 5896SOL    HW118587   3.930   1.655   0.067
 5896SOL    HW218588   4.072   1.617   0.140
 5897SOL     OW18589   3.630   0.004   2.010
 5897SOL    HW118590   3.623   0.100   1.983
 5897SOL    HW218591   3.553   7.004   2.069
 5898SOL     OW18592   2.326   0.263   3.117
 5898SOL    HW118593   2.404   0.203   3.135
 5898SOL    HW218594   2.243   0.208   3.109
 5899SOL     OW18595   5.251   0.095   5.537
 5899SOL    HW118596   5.325   0.059   5.481
 5899SOL    HW218597   5.289   0.141   5.618
 5900SOL     OW18598   4.685   5.138   3.843
 5900SOL    HW118599   4.611   5.084   3.884
 5900SOL    HW218600   4.652   5.230   3.825
 5901SOL     OW18601   2.775   0.514   6.486
 5901SOL    HW118602   2.783   0.499   6.388
 5901SOL    HW218603   2.822   0.598   6.511
 5902SOL     OW18604   0.213   2.142   0.825
 5902SOL    HW118605   0.211   2.122   0.923
 5902SOL    HW218606   0.150   2.082   0.777
 5903SOL     OW18607   4.714   4.465   0.663
 5903SOL    HW118608   4.733   4.486   0.759
 5903SOL    HW218609   4.692   4.368   0.655
 5904SOL     OW18610   7.006   3.650   2.047
 5904SOL    HW118611   6.926   3.708   2.066
 5904SOL    HW218612   0.047   3.657   2.122
 5905SOL     OW18613   6.400   5.776   2.993
 5905SOL    HW118614   6.303   5.779   3.015
 5905SOL    HW218615   6.454   5.775   3.077
 5906SOL     OW18616   5.292   1.138   4.447
 5906SOL    HW118617   5.193   1.138   4.438
 5906SOL    HW218618   5.319   1.195   4.524
 5907SOL     OW18619   1.914   5.997   2.083
 5907SOL    HW118620   1.827   5.960   2.116
 5907SOL    HW218621   1.903   6.031   1.990
 5908SOL     OW18622   1.235   2.483   5.527
 5908SOL    HW118623   1.299   2.559   5.540
 5908SOL    HW218624   1.197   2.456   5.616
 5909SOL     OW18625   0.424   5.367   0.897
 5909SOL    HW118626   0.449   5.331   0.987
 5909SOL    HW218627   0.376   5.296   0.845
 5910SOL     OW18628   0.631   2.959   3.488
 5910SOL    HW118629   0.688   3.034   3.519
 5910SOL    HW218630   0.584   2.918   3.566
 5911SOL     OW18631   6.657   5.674   6.390
 5911SOL    HW118632   6.756   5.682   6.382
 5911SOL    HW218633   6.618   5.654   6.301
 5912SOL     OW18634   6.067   1.040   5.119
 5912SOL    HW118635   6.058   1.078   5.211
 5912SOL    HW218636   6.138   1.090   5.069
 5913SOL     OW18637   4.937   3.389   6.882
 5913SOL    HW118638   4.941   3.314   6.815
 5913SOL    HW218639   4.847   3.389   6.925
 5914SOL     OW18640   0.748   6.757   6.624
 5914SOL    HW118641   0.685   6.809   6.682
 5914SOL    HW218642   0.715   6.663   6.614
 5915SOL     OW18643   3.643   6.129   0.355
 5915SOL    HW118644   3.722   6.098   0.302
 5915SOL    HW218645   3.672   6.195   0.423
 5916SOL     OW18646   0.009   6.663   2.651
 5916SOL    HW118647   0.097   6.616   2.650
 5916SOL    HW218648   7.001   6.672   2.746
 5917SOL     OW18649   3.326   3.805   5.193
 5917SOL    HW118650   3.254   3.746   5.228
 5917SOL    HW218651   3.338   3.789   5.095
 5918SOL     OW18652   1.477   5.328   6.308
 5918SOL    HW118653   1.413   5.350   6.382
 5918SOL    HW218654   1.455   5.237   6.272
 5919SOL     OW18655   2.938   3.832   2.558
 5919SOL    HW118656   2.917   3.924   2.524
 5919SOL    HW218657   2.916   3.765   2.486
 5920SOL     OW18658   5.296   0.867   6.602
 5920SOL    HW118659   5.296   0.817   6.688
 5920SOL    HW218660   5.363   0.941   6.606
 5921SOL     OW18661   4.147   5.702   6.008
 5921SOL    HW118662   4.100   5.678   6.093
 5921SOL    HW218663   4.081   5.739   5.943
 5922SOL     OW18664   6.102   3.936   4.387
 5922SOL    HW118665   6.152   3.932   4.474
 5922SOL    HW218666   6.149   3.999   4.325
 5923SOL     OW18667   6.996   0.683   1.799
 5923SOL    HW118668   0.050   0.715   1.852
 5923SOL    HW218669   6.959   0.600   1.840
 5924SOL     OW18670   6.306   0.011   2.745
 5924SOL    HW118671   6.267   0.092   2.700
 5924SOL    HW218672   6.239   6.997   2.809
 5925SOL     OW18673   3.698   5.751   1.637
 5925SOL    HW118674   3.772   5.719   1.577
 5925SOL    HW218675   3.616   5.768   1.583
 5926SOL     OW18676   4.713   4.326   2.435
 5926SOL    HW118677   4.722   4.350   2.532
 5926SOL    HW218678   4.795   4.355   2.385
 5927SOL     OW18679   0.969   4.013   2.015
 5927SOL    HW118680   0.908   4.065   1.955
 5927SOL    HW218681   1.060   4.007   1.973
 5928SOL     OW18682   3.718   6.971   1.694
 5928SOL    HW118683   3.732   0.042   1.666
 5928SOL    HW218684   3.683   6.969   1.788
 5929SOL     OW18685   5.884   1.273   5.669
 5929SOL    HW118686   5.946   1.350   5.655
 5929SOL    HW218687   5.871   1.259   5.767
 5930SOL     OW18688   0.527   2.715   2.892
 5930SOL    HW118689   0.623   2.731   2.916
 5930SOL    HW218690   0.522   2.656   2.812
 5931SOL     OW18691   6.052   5.915   2.283
 5931SOL    HW118692   6.115   5.932   2.359
 5931SOL    HW218693   5.958   5.909   2.319
 5932SOL     OW18694   3.004   0.301   6.873
 5932SOL    HW118695   3.078   0.355   6.831
 5932SOL    HW218696   3.040   0.212   6.901
 5933SOL     OW18697   6.634   4.898   4.082
 5933SOL    HW118698   6.631   4.900   3.982
 5933SOL    HW218699   6.541   4.884   4.118
 5934SOL     OW18700   3.522   2.996   5.502
 5934SOL    HW118701   3.568   2.950   5.578
 5934SOL    HW218702   3.590   3.047   5.449
 5935SOL     OW18703   0.901   5.440   5.663
 5935SOL    HW118704   0.890   5.450   5.564
 5935SOL    HW218705   0.813   5.417   5.704
 5936SOL     OW18706   3.164   3.851   1.853
 5936SOL    HW118707   3.231   3.837   1.926
 5936SOL    HW218708   3.092   3.782   1.860
 5937SOL     OW18709   5.749   3.048   1.883
 5937SOL    HW118710   5.803   3.038   1.967
 5937SOL    HW218711   5.708   3.139   1.882
 5938SOL     OW18712   6.054   6.126   4.911
 5938SOL    HW118713   6.069   6.038   4.955
 5938SOL    HW218714   6.142   6.173   4.900
 5939SOL     OW18715   2.988   6.203   4.759
 5939SOL    HW118716   3.023   6.168   4.672
 5939SOL    HW218717   3.015   6.298   4.770
 5940SOL     OW18718   4.139   5.287   3.980
 5940SOL    HW118719   4.160   5.354   3.910
 5940SOL    HW218720   4.154   5.326   4.071
 5941SOL     OW18721   5.618   2.674   3.289
 5941SOL    HW118722   5.604   2.772   3.272
 5941SOL    HW218723   5.677   2.663   3.369
 5942SOL     OW18724   5.172   3.716   6.390
 5942SOL    HW118725   5.167   3.618   6.407
 5942SOL    HW218726   5.266   3.742   6.369
 5943SOL     OW18727   3.575   3.076   6.436
 5943SOL    HW118728   3.556   3.124   6.522
 5943SOL    HW218729   3.615   2.987   6.457
 5944SOL     OW18730   1.217   2.623   0.085
 5944SOL    HW118731   1.219   2.526   0.063
 5944SOL    HW218732   1.135   2.642   0.140
 5945SOL     OW18733   0.633   5.887   5.289
 5945SOL    HW118734   0.550   5.937   5.262
 5945SOL    HW218735   0.672   5.842   5.209
 5946SOL     OW18736   3.345   4.585   0.084
 5946SOL    HW118737   3.396   4.628   0.158
 5946SOL    HW218738   3.269   4.645   0.056
 5947SOL     OW18739   3.205   3.543   3.499
 5947SOL    HW118740   3.254   3.630   3.503
 5947SOL    HW218741   3.127   3.545   3.561
 5948SOL     OW18742   4.558   4.655   2.341
 5948SOL    HW118743   4.652   4.690   2.340
 5948SOL    HW218744   4.551   4.578   2.278
 5949SOL     OW18745   5.068   4.836   0.837
 5949SOL    HW118746   5.144   4.819   0.774
 5949SOL    HW218747   4.991   4.875   0.787
 5950SOL     OW18748   5.008   2.028   5.474
 5950SOL    HW118749   5.080   2.017   5.405
 5950SOL    HW218750   5.036   1.982   5.558
 5951SOL     OW18751   0.893   5.905   5.360
 5951SOL    HW118752   0.794   5.907   5.343
 5951SOL    HW218753   0.925   5.810   5.361
 5952SOL     OW18754   4.542   5.705   3.758
 5952SOL    HW118755   4.538   5.606   3.770
 5952SOL    HW218756   4.579   5.748   3.841
 5953SOL     OW18757   6.758   4.089   5.228
 5953SOL    HW118758   6.813   4.170   5.251
 5953SOL    HW218759   6.809   4.031   5.165
 5954SOL     OW18760   0.651   5.642   5.514
 5954SOL    HW118761   0.723   5.590   5.468
 5954SOL    HW218762   0.634   5.726   5.462
 5955SOL     OW18763   4.067   4.724   1.986
 5955SOL    HW118764   4.120   4.658   1.933
 5955SOL    HW218765   4.000   4.769   1.928
 5956SOL     OW18766   5.920   1.951   3.787
 5956SOL    HW118767   5.831   1.921   3.821
 5956SOL    HW218768   5.940   2.043   3.820
 5957SOL     OW18769   2.305   1.838   3.894
 5957SOL    HW118770   2.352   1.818   3.980
 5957SOL    HW218771   2.307   1.937   3.877
 5958SOL     OW18772   4.249   0.378   2.917
 5958SOL    HW118773   4.296   0.399   2.832
 5958SOL    HW218774   4.156   0.413   2.914
 5959SOL     OW18775   4.371   2.548   5.768
 5959SOL    HW118776   4.335   2.604   5.693
 5959SOL    HW218777   4.421   2.470   5.731
 5960SOL     OW18778   2.794   6.126   4.344
 5960SOL    HW118779   2.885   6.092   4.321
 5960SOL    HW218780   2.758   6.180   4.268
 5961SOL     OW18781   4.673   1.384   2.597
 5961SOL    HW118782   4.640   1.461   2.542
 5961SOL    HW218783   4.600   1.316   2.606
 5962SOL     OW18784   5.405   5.794   5.800
 5962SOL    HW118785   5.369   5.882   5.770
 5962SOL    HW218786   5.472   5.808   5.873
 5963SOL     OW18787   2.955   3.898   6.374
 5963SOL    HW118788   2.940   3.814   6.425
 5963SOL    HW218789   3.019   3.956   6.424
 5964SOL     OW18790   2.673   6.769   4.483
 5964SOL    HW118791   2.600   6.704   4.504
 5964SOL    HW218792   2.761   6.723   4.488
 5965SOL     OW18793   1.901   0.553   0.236
 5965SOL    HW118794   1.882   0.519   0.144
 5965SOL    HW218795   1.945   0.642   0.231
 5966SOL     OW18796   0.901   6.870   6.435
 5966SOL    HW118797   0.892   6.813   6.353
 5966SOL    HW218798   0.833   6.842   6.503
 5967SOL     OW18799   1.914   0.035   5.548
 5967SOL    HW118800   1.965   6.974   5.549
 5967SOL    HW218801   1.970   0.109   5.585
 5968SOL     OW18802   5.721   2.455   0.108
 5968SOL    HW118803   5.763   2.519   0.172
 5968SOL    HW218804   5.623   2.449   0.125
 5969SOL     OW18805   5.141   1.003   6.419
 5969SOL    HW118806   5.046   1.030   6.439
 5969SOL    HW218807   5.181   0.962   6.501
 5970SOL     OW18808   0.409   4.741   0.978
 5970SOL    HW118809   0.471   4.679   0.929
 5970SOL    HW218810   0.408   4.830   0.933
 5971SOL     OW18811   6.258   0.228   1.498
 5971SOL    HW118812   6.313   0.288   1.557
 5971SOL    HW218813   6.163   0.228   1.531
 5972SOL     OW18814   4.982   6.112   6.399
 5972SOL    HW118815   5.078   6.100   6.424
 5972SOL    HW218816   4.936   6.168   6.468
 5973SOL     OW18817   1.466   2.951   2.899
 5973SOL    HW118818   1.448   3.018   2.972
 5973SOL    HW218819   1.397   2.961   2.827
 5974SOL     OW18820   4.750   0.132   0.360
 5974SOL    HW118821   4.741   0.037   0.328
 5974SOL    HW218822   4.836   0.171   0.326
 5975SOL     OW18823   3.737   6.073   0.837
 5975SOL    HW118824   3.823   6.114   0.867
 5975SOL    HW218825   3.679   6.143   0.795
 5976SOL     OW18826   3.259   2.881   5.498
 5976SOL    HW118827   3.198   2.958   5.521
 5976SOL    HW218828   3.344   2.917   5.458
 5977SOL     OW18829   0.761   5.868   0.725
 5977SOL    HW118830   0.678   5.887   0.776
 5977SOL    HW218831   0.834   5.842   0.788
 5978SOL     OW18832   3.463   5.459   1.473
 5978SOL    HW118833   3.499   5.367   1.488
 5978SOL    HW218834   3.509   5.500   1.394
 5979SOL     OW18835   6.988   0.676   2.164
 5979SOL    HW118836   6.983   0.655   2.066
 5979SOL    HW218837   6.953   0.598   2.216
 5980SOL     OW18838   3.676   3.225   1.696
 5980SOL    HW118839   3.689   3.157   1.769
 5980SOL    HW218840   3.588   3.270   1.708
 5981SOL     OW18841   5.063   1.651   0.177
 5981SOL    HW118842   5.016   1.728   0.222
 5981SOL    HW218843   5.025   1.638   0.086
 5982SOL     OW18844   6.159   2.015   2.705
 5982SOL    HW118845   6.154   2.113   2.689
 5982SOL    HW218846   6.067   1.977   2.712
 5983SOL     OW18847   1.209   1.249   4.047
 5983SOL    HW118848   1.183   1.212   4.136
 5983SOL    HW218849   1.284   1.195   4.009
 5984SOL     OW18850   5.605   6.718   3.431
 5984SOL    HW118851   5.587   6.810   3.465
 5984SOL    HW218852   5.587   6.714   3.333
 5985SOL     OW18853   6.813   2.766   3.582
 5985SOL    HW118854   6.760   2.821   3.518
 5985SOL    HW218855   6.891   2.820   3.615
 5986SOL     OW18856   3.673   3.530   5.391
 5986SOL    HW118857   3.586   3.492   5.421
 5986SOL    HW218858   3.673   3.629   5.404
 5987SOL     OW18859   5.430   0.830   4.947
 5987SOL    HW118860   5.374   0.909   4.973
 5987SOL    HW218861   5.399   0.795   4.858
 5988SOL     OW18862   3.531   0.708   6.894
 5988SOL    HW118863   3.525   0.687   6.797
 5988SOL    HW218864   3.627   0.711   6.922
 5989SOL     OW18865   1.529   5.270   5.622
 5989SOL    HW118866   1.462   5.345   5.619
 5989SOL    HW218867   1.481   5.183   5.632
 5990SOL     OW18868   4.071   4.096   0.135
 5990SOL    HW118869   4.164   4.060   0.146
 5990SOL    HW218870   4.073   4.173   0.072
 5991SOL     OW18871   4.389   6.130   6.873
 5991SOL    HW118872   4.346   6.051   6.830
 5991SOL    HW218873   4.336   6.212   6.853
 5992SOL     OW18874   3.406   6.710   1.834
 5992SOL    HW118875   3.504   6.716   1.853
 5992SOL    HW218876   3.355   6.743   1.913
 5993SOL     OW18877   5.249   4.188   6.382
 5993SOL    HW118878   5.327   4.142   6.341
 5993SOL    HW218879   5.271   4.215   6.476
 5994SOL     OW18880   6.516   2.771   0.952
 5994SOL    HW118881   6.526   2.735   1.045
 5994SOL    HW218882   6.522   2.871   0.955
 5995SOL     OW18883   4.852   2.778   1.999
 5995SOL    HW118884   4.807   2.867   1.989
 5995SOL    HW218885   4.857   2.733   1.910
 5996SOL     OW18886   1.186   5.102   1.773
 5996SOL    HW118887   1.277   5.142   1.761
 5996SOL    HW218888   1.194   5.014   1.820
 5997SOL     OW18889   1.283   6.503   3.196
 5997SOL    HW118890   1.263   6.409   3.169
 5997SOL    HW218891   1.269   6.513   3.295
 5998SOL     OW18892   5.999   0.556   2.021
 5998SOL    HW118893   5.972   0.583   2.113
 5998SOL    HW218894   5.963   0.465   2.000
 5999SOL     OW18895   2.355   3.163   1.058
 5999SOL    HW118896   2.317   3.105   0.986
 5999SOL    HW218897   2.453   3.177   1.041
 6000SOL     OW18898   0.815   6.259   0.514
 6000SOL    HW118899   0.817   6.162   0.535
 6000SOL    HW218900   0.723   6.295   0.527
 6001SOL     OW18901   6.193   5.388   6.782
 6001SOL    HW118902   6.249   5.359   6.704
 6001SOL    HW218903   6.237   5.465   6.828
 6002SOL     OW18904   6.363   0.050   5.540
 6002SOL    HW118905   6.301   0.089   5.608
 6002SOL    HW218906   6.458   0.067   5.567
 6003SOL     OW18907   5.485   2.587   4.548
 6003SOL    HW118908   5.395   2.596   4.591
 6003SOL    HW218909   5.556   2.583   4.619
 6004SOL     OW18910   6.318   2.351   3.859
 6004SOL    HW118911   6.351   2.445   3.873
 6004SOL    HW218912   6.395   2.291   3.841
 6005SOL     OW18913   5.778   4.477   4.924
 6005SOL    HW118914   5.837   4.396   4.927
 6005SOL    HW218915   5.778   4.515   4.831
 6006SOL     OW18916   3.015   0.794   5.135
 6006SOL    HW118917   2.934   0.767   5.083
 6006SOL    HW218918   3.016   0.894   5.144
 6007SOL     OW18919   0.404   3.197   6.288
 6007SOL    HW118920   0.409   3.157   6.380
 6007SOL    HW218921   0.453   3.138   6.224
 6008SOL     OW18922   2.532   4.696   5.521
 6008SOL    HW118923   2.523   4.748   5.436
 6008SOL    HW218924   2.623   4.655   5.526
 6009SOL     OW18925   4.008   6.066   3.230
 6009SOL    HW118926   4.058   6.005   3.291
 6009SOL    HW218927   4.064   6.147   3.212
 6010SOL     OW18928   0.851   4.441   3.344
 6010SOL    HW118929   0.850   4.442   3.244
 6010SOL    HW218930   0.799   4.362   3.377
 6011SOL     OW18931   4.965   3.178   3.153
 6011SOL    HW118932   4.934   3.175   3.248
 6011SOL    HW218933   4.993   3.086   3.124
 6012SOL     OW18934   6.210   0.499   0.156
 6012SOL    HW118935   6.193   0.439   0.235
 6012SOL    HW218936   6.155   0.468   0.079
 6013SOL     OW18937   5.090   0.902   3.016
 6013SOL    HW118938   5.017   0.909   2.948
 6013SOL    HW218939   5.175   0.875   2.970
 6014SOL     OW18940   3.538   4.166   3.655
 6014SOL    HW118941   3.627   4.189   3.696
 6014SOL    HW218942   3.486   4.108   3.718
 6015SOL     OW18943   6.117   3.587   4.392
 6015SOL    HW118944   6.046   3.650   4.359
 6015SOL    HW218945   6.135   3.604   4.489
 6016SOL     OW18946   5.913   1.705   5.858
 6016SOL    HW118947   5.854   1.738   5.932
 6016SOL    HW218948   6.002   1.752   5.864
 6017SOL     OW18949   6.970   5.064   4.718
 6017SOL    HW118950   7.010   4.972   4.725
 6017SOL    HW218951   6.884   5.066   4.768
 6018SOL     OW18952   3.235   1.230   5.272
 6018SOL    HW118953   3.184   1.181   5.343
 6018SOL    HW218954   3.181   1.308   5.241
 6019SOL     OW18955   0.797   3.114   5.674
 6019SOL    HW118956   0.834   3.021   5.676
 6019SOL    HW218957   0.796   3.148   5.580
 6020SOL     OW18958   0.746   5.471   0.369
 6020SOL    HW118959   0.708   5.550   0.416
 6020SOL    HW218960   0.751   5.489   0.271
 6021SOL     OW18961   4.795   0.136   3.244
 6021SOL    HW118962   4.704   0.159   3.211
 6021SOL    HW218963   4.864   0.183   3.188
 6022SOL     OW18964   0.201   1.637   3.487
 6022SOL    HW118965   0.278   1.696   3.461
 6022SOL    HW218966   0.158   1.600   3.405
 6023SOL     OW18967   5.185   0.673   2.177
 6023SOL    HW118968   5.257   0.713   2.121
 6023SOL    HW218969   5.104   0.657   2.120
 6024SOL     OW18970   0.790   4.439   1.000
 6024SOL    HW118971   0.805   4.537   1.008
 6024SOL    HW218972   0.705   4.414   1.046
 6025SOL     OW18973   3.530   1.479   3.094
 6025SOL    HW118974   3.575   1.549   3.039
 6025SOL    HW218975   3.431   1.485   3.082
 6026SOL     OW18976   0.242   5.615   4.926
 6026SOL    HW118977   0.178   5.691   4.928
 6026SOL    HW218978   0.195   5.531   4.953
 6027SOL     OW18979   0.223   3.319   5.822
 6027SOL    HW118980   0.255   3.290   5.732
 6027SOL    HW218981   0.190   3.240   5.873
 6028SOL     OW18982   5.394   4.752   1.097
 6028SOL    HW118983   5.472   4.814   1.086
 6028SOL    HW218984   5.309   4.804   1.090
 6029SOL     OW18985   2.459   6.906   4.185
 6029SOL    HW118986   2.399   6.943   4.114
 6029SOL    HW218987   2.485   6.812   4.161
 6030SOL     OW18988   5.278   3.949   4.352
 6030SOL    HW118989   5.271   3.924   4.449
 6030SOL    HW218990   5.201   3.910   4.302
 6031SOL     OW18991   2.568   5.295   4.599
 6031SOL    HW118992   2.559   5.197   4.582
 6031SOL    HW218993   2.601   5.309   4.693
 6032SOL     OW18994   2.558   4.683   3.004
 6032SOL    HW118995   2.515   4.731   3.081
 6032SOL    HW218996   2.655   4.669   3.024
 6033SOL     OW18997   1.894   3.190   2.831
 6033SOL    HW118998   1.987   3.155   2.824
 6033SOL    HW218999   1.830   3.118   2.803
 6034SOL     OW19000   1.044   0.675   6.305
 6034SOL    HW119001   1.085   0.735   6.374
 6034SOL    HW219002   0.953   0.645   6.336
 6035SOL     OW19003   1.351   0.393   2.304
 6035SOL    HW119004   1.439   0.345   2.308
 6035SOL    HW219005   1.366   0.491   2.300
 6036SOL     OW19006   5.894   4.995   1.450
 6036SOL    HW119007   5.840   4.911   1.441
 6036SOL    HW219008   5.921   5.027   1.359
 6037SOL     OW19009   3.473   6.881   0.506
 6037SOL    HW119010   3.538   6.827   0.559
 6037SOL    HW219011   3.385   6.885   0.553
 6038SOL     OW19012   1.036   2.575   6.775
 6038SOL    HW119013   1.136   2.581   6.771
 6038SOL    HW219014   0.996   2.653   6.728
 6039SOL     OW19015   4.161   3.463   3.333
 6039SOL    HW119016   4.136   3.369   3.309
 6039SOL    HW219017   4.172   3.471   3.432
 6040SOL     OW19018   1.655   1.444   0.659
 6040SOL    HW119019   1.603   1.411   0.738
 6040SOL    HW219020   1.739   1.391   0.651
 6041SOL     OW19021   3.252   2.032   5.125
 6041SOL    HW119022   3.224   1.965   5.055
 6041SOL    HW219023   3.240   2.124   5.089
 6042SOL     OW19024   3.712   6.662   2.731
 6042SOL    HW119025   3.725   6.563   2.728
 6042SOL    HW219026   3.782   6.706   2.674
 6043SOL     OW19027   1.029   0.561   4.544
 6043SOL    HW119028   0.937   0.532   4.517
 6043SOL    HW219029   1.073   0.609   4.468
 6044SOL     OW19030   2.459   2.254   1.674
 6044SOL    HW119031   2.543   2.262   1.728
 6044SOL    HW219032   2.481   2.222   1.582
 6045SOL     OW19033   5.635   3.377   3.587
 6045SOL    HW119034   5.664   3.465   3.551
 6045SOL    HW219035   5.688   3.304   3.545
 6046SOL     OW19036   3.322   2.663   0.543
 6046SOL    HW119037   3.304   2.604   0.622
 6046SOL    HW219038   3.246   2.728   0.532
 6047SOL     OW19039   5.399   2.040   1.534
 6047SOL    HW119040   5.326   2.088   1.486
 6047SOL    HW219041   5.362   1.956   1.574
 6048SOL     OW19042   5.313   5.473   4.943
 6048SOL    HW119043   5.251   5.550   4.930
 6048SOL    HW219044   5.353   5.476   5.034
 6049SOL     OW19045   4.810   4.369   6.160
 6049SOL    HW119046   4.820   4.362   6.259
 6049SOL    HW219047   4.770   4.457   6.137
 6050SOL     OW19048   1.854   5.109   0.905
 6050SOL    HW119049   1.842   5.208   0.910
 6050SOL    HW219050   1.939   5.084   0.950
 6051SOL     OW19051   1.861   6.460   2.640
 6051SOL    HW119052   1.771   6.419   2.626
 6051SOL    HW219053   1.921   6.433   2.565
 6052SOL     OW19054   5.182   1.468   1.624
 6052SOL    HW119055   5.227   1.530   1.689
 6052SOL    HW219056   5.183   1.510   1.533
 6053SOL     OW19057   4.075   0.521   6.177
 6053SOL    HW119058   4.142   0.521   6.103
 6053SOL    HW219059   4.122   0.515   6.265
 6054SOL     OW19060   3.158   4.290   0.877
 6054SOL    HW119061   3.251   4.268   0.906
 6054SOL    HW219062   3.100   4.208   0.885
 6055SOL     OW19063   3.933   5.842   5.907
 6055SOL    HW119064   3.923   5.869   5.812
 6055SOL    HW219065   3.863   5.774   5.931
 6056SOL     OW19066   5.039   3.537   5.192
 6056SOL    HW119067   5.024   3.525   5.290
 6056SOL    HW219068   4.952   3.556   5.146
 6057SOL     OW19069   6.271   0.400   2.495
 6057SOL    HW119070   6.303   0.473   2.435
 6057SOL    HW219071   6.323   0.317   2.477
 6058SOL     OW19072   5.414   4.096   0.393
 6058SOL    HW119073   5.482   4.106   0.465
 6058SOL    HW219074   5.384   4.000   0.389
 6059SOL     OW19075   5.047   4.618   5.629
 6059SOL    HW119076   5.056   4.701   5.685
 6059SOL    HW219077   5.092   4.542   5.676
 6060SOL     OW19078   2.333   3.287   6.958
 6060SOL    HW119079   2.315   3.191   6.975
 6060SOL    HW219080   2.432   3.303   6.957
 6061SOL     OW19081   4.671   4.178   0.653
 6061SOL    HW119082   4.720   4.140   0.732
 6061SOL    HW219083   4.634   4.103   0.598
 6062SOL     OW19084   2.365   1.613   6.848
 6062SOL    HW119085   2.271   1.586   6.829
 6062SOL    HW219086   2.395   1.571   6.935
 6063SOL     OW19087   3.819   3.257   5.789
 6063SOL    HW119088   3.728   3.296   5.775
 6063SOL    HW219089   3.851   3.279   5.881
 6064SOL     OW19090   1.555   1.140   1.072
 6064SOL    HW119091   1.547   1.213   1.005
 6064SOL    HW219092   1.651   1.112   1.080
 6065SOL     OW19093   0.428   5.785   1.767
 6065SOL    HW119094   0.525   5.773   1.787
 6065SOL    HW219095   0.392   5.863   1.820
 6066SOL     OW19096   5.460   1.411   5.713
 6066SOL    HW119097   5.488   1.355   5.635
 6066SOL    HW219098   5.538   1.463   5.747
 6067SOL     OW19099   4.861   0.802   5.519
 6067SOL    HW119100   4.940   0.821   5.577
 6067SOL    HW219101   4.788   0.868   5.539
 6068SOL     OW19102   4.962   2.590   4.529
 6068SOL    HW119103   5.001   2.613   4.619
 6068SOL    HW219104   4.888   2.653   4.508
 6069SOL     OW19105   6.558   3.752   5.132
 6069SOL    HW119106   6.481   3.815   5.118
 6069SOL    HW219107   6.542   3.699   5.215
 6070SOL     OW19108   3.118   3.104   1.112
 6070SOL    HW119109   3.097   3.142   1.022
 6070SOL    HW219110   3.213   3.074   1.115
 6071SOL     OW19111   0.963   5.805   4.258
 6071SOL    HW119112   1.059   5.832   4.264
 6071SOL    HW219113   0.950   5.716   4.301
 6072SOL     OW19114   0.602   0.766   1.730
 6072SOL    HW119115   0.606   0.675   1.689
 6072SOL    HW219116   0.625   0.761   1.827
 6073SOL     OW19117   5.341   2.826   0.994
 6073SOL    HW119118   5.418   2.761   0.991
 6073SOL    HW219119   5.374   2.917   0.972
 6074SOL     OW19120   1.739   6.307   1.977
 6074SOL    HW119121   1.834   6.337   1.969
 6074SOL    HW219122   1.711   6.310   2.073
 6075SOL     OW19123   4.597   0.029   4.956
 6075SOL    HW119124   4.608   0.064   5.049
 6075SOL    HW219125   4.547   6.967   4.959
 6076SOL     OW19126   2.523   5.305   3.430
 6076SOL    HW119127   2.559   5.248   3.505
 6076SOL    HW219128   2.442   5.353   3.461
 6077SOL     OW19129   6.502   5.917   0.973
 6077SOL    HW119130   6.460   5.854   0.906
 6077SOL    HW219131   6.543   5.864   1.047
 6078SOL     OW19132   4.627   5.032   0.355
 6078SOL    HW119133   4.657   5.055   0.262
 6078SOL    HW219134   4.604   4.935   0.360
 6079SOL     OW19135   5.278   4.594   6.768
 6079SOL    HW119136   5.194   4.631   6.810
 6079SOL    HW219137   5.287   4.498   6.793
 6080SOL     OW19138   0.218   5.515   0.854
 6080SOL    HW119139   0.304   5.486   0.896
 6080SOL    HW219140   0.160   5.559   0.923
 6081SOL     OW19141   0.145   2.722   5.463
 6081SOL    HW119142   0.193   2.657   5.403
 6081SOL    HW219143   0.155   2.814   5.427
 6082SOL     OW19144   3.454   6.733   2.542
 6082SOL    HW119145   3.551   6.742   2.521
 6082SOL    HW219146   3.401   6.794   2.483
 6083SOL     OW19147   5.930   5.712   0.773
 6083SOL    HW119148   5.864   5.700   0.698
 6083SOL    HW219149   5.909   5.796   0.822
 6084SOL     OW19150   0.830   6.729   2.257
 6084SOL    HW119151   0.908   6.684   2.301
 6084SOL    HW219152   0.842   6.828   2.260
 6085SOL     OW19153   6.939   5.986   6.800
 6085SOL    HW119154   6.978   5.979   6.709
 6085SOL    HW219155   6.888   6.072   6.809
 6086SOL     OW19156   2.440   1.981   5.985
 6086SOL    HW119157   2.441   2.033   5.900
 6086SOL    HW219158   2.423   1.884   5.965
 6087SOL     OW19159   3.715   5.601   1.032
 6087SOL    HW119160   3.677   5.665   0.965
 6087SOL    HW219161   3.754   5.522   0.984
 6088SOL     OW19162   5.615   6.959   4.565
 6088SOL    HW119163   5.613   6.859   4.574
 6088SOL    HW219164   5.703   6.988   4.528
 6089SOL     OW19165   6.131   2.313   3.038
 6089SOL    HW119166   6.057   2.256   3.074
 6089SOL    HW219167   6.111   2.409   3.056
 6090SOL     OW19168   2.221   4.883   4.485
 6090SOL    HW119169   2.314   4.854   4.461
 6090SOL    HW219170   2.167   4.894   4.402
 6091SOL     OW19171   2.680   1.583   0.402
 6091SOL    HW119172   2.601   1.560   0.458
 6091SOL    HW219173   2.692   1.512   0.332
 6092SOL     OW19174   4.847   1.057   1.868
 6092SOL    HW119175   4.845   1.097   1.777
 6092SOL    HW219176   4.814   1.123   1.935
 6093SOL     OW19177   2.307   2.510   1.647
 6093SOL    HW119178   2.315   2.411   1.642
 6093SOL    HW219179   2.314   2.540   1.742
 6094SOL     OW19180   1.645   5.919   3.294
 6094SOL    HW119181   1.700   5.837   3.281
 6094SOL    HW219182   1.636   5.968   3.207
 6095SOL     OW19183   4.885   5.093   6.763
 6095SOL    HW119184   4.866   5.008   6.812
 6095SOL    HW219185   4.974   5.087   6.719
 6096SOL     OW19186   6.177   6.518   2.473
 6096SOL    HW119187   6.214   6.565   2.392
 6096SOL    HW219188   6.192   6.575   2.554
 6097SOL     OW19189   1.849   5.161   2.322
 6097SOL    HW119190   1.902   5.175   2.406
 6097SOL    HW219191   1.858   5.066   2.292
 6098SOL     OW19192   0.213   1.503   5.936
 6098SOL    HW119193   0.288   1.437   5.938
 6098SOL    HW219194   0.250   1.596   5.936
 6099SOL     OW19195   5.237   5.765   5.453
 6099SOL    HW119196   5.191   5.854   5.449
 6099SOL    HW219197   5.327   5.772   5.409
 6100SOL     OW19198   6.920   6.160   2.528
 6100SOL    HW119199   6.864   6.078   2.534
 6100SOL    HW219200   6.862   6.242   2.534
 6101SOL     OW19201   6.977   2.924   2.929
 6101SOL    HW119202   7.000   2.836   2.969
 6101SOL    HW219203   6.934   2.910   2.840
 6102SOL     OW19204   4.160   5.265   2.875
 6102SOL    HW119205   4.195   5.172   2.875
 6102SOL    HW219206   4.236   5.329   2.885
 6103SOL     OW19207   6.409   0.665   1.141
 6103SOL    HW119208   6.450   0.713   1.064
 6103SOL    HW219209   6.327   0.616   1.111
 6104SOL     OW19210   5.743   6.852   5.060
 6104SOL    HW119211   5.643   6.851   5.052
 6104SOL    HW219212   5.775   6.946   5.066
 6105SOL     OW19213   1.724   5.442   6.230
 6105SOL    HW119214   1.641   5.406   6.272
 6105SOL    HW219215   1.708   5.536   6.199
 6106SOL     OW19216   1.264   5.148   6.734
 6106SOL    HW119217   1.331   5.102   6.676
 6106SOL    HW219218   1.311   5.195   6.809
 6107SOL     OW19219   5.021   5.440   5.143
 6107SOL    HW119220   5.120   5.449   5.138
 6107SOL    HW219221   4.987   5.481   5.227
 6108SOL     OW19222   2.343   2.539   3.614
 6108SOL    HW119223   2.361   2.607   3.543
 6108SOL    HW219224   2.253   2.555   3.654
 6109SOL     OW19225   5.514   1.236   5.499
 6109SOL    HW119226   5.584   1.167   5.517
 6109SOL    HW219227   5.460   1.208   5.420
 6110SOL     OW19228   2.618   2.963   0.662
 6110SOL    HW119229   2.623   2.961   0.563
 6110SOL    HW219230   2.656   2.879   0.700
 6111SOL     OW19231   1.072   3.207   2.459
 6111SOL    HW119232   0.977   3.207   2.489
 6111SOL    HW219233   1.114   3.295   2.479
 6112SOL     OW19234   3.994   0.749   2.706
 6112SOL    HW119235   3.949   0.809   2.772
 6112SOL    HW219236   4.066   0.697   2.753
 6113SOL     OW19237   2.418   2.932   6.841
 6113SOL    HW119238   2.454   2.845   6.877
 6113SOL    HW219239   2.478   3.006   6.871
 6114SOL     OW19240   4.861   3.882   2.722
 6114SOL    HW119241   4.814   3.796   2.699
 6114SOL    HW219242   4.837   3.952   2.655
 6115SOL     OW19243   6.229   1.000   4.616
 6115SOL    HW119244   6.201   0.904   4.624
 6115SOL    HW219245   6.270   1.030   4.702
 6116SOL     OW19246   3.747   1.434   5.890
 6116SOL    HW119247   3.787   1.488   5.965
 6116SOL    HW219248   3.796   1.348   5.882
 6117SOL     OW19249   1.881   1.964   3.417
 6117SOL    HW119250   1.878   1.864   3.410
 6117SOL    HW219251   1.856   2.004   3.329
 6118SOL     OW19252   6.037   1.221   1.333
 6118SOL    HW119253   6.078   1.219   1.242
 6118SOL    HW219254   6.046   1.312   1.372
 6119SOL     OW19255   1.501   3.991   0.439
 6119SOL    HW119256   1.420   4.004   0.497
 6119SOL    HW219257   1.541   4.079   0.417
 6120SOL     OW19258   1.860   6.225   5.707
 6120SOL    HW119259   1.802   6.287   5.655
 6120SOL    HW219260   1.867   6.257   5.802
 6121SOL     OW19261   1.271   3.678   5.328
 6121SOL    HW119262   1.318   3.740   5.266
 6121SOL    HW219263   1.197   3.727   5.375
 6122SOL     OW19264   4.261   5.501   6.742
 6122SOL    HW119265   4.162   5.502   6.730
 6122SOL    HW219266   4.288   5.575   6.804
 6123SOL     OW19267   4.843   6.665   5.963
 6123SOL    HW119268   4.877   6.606   6.037
 6123SOL    HW219269   4.870   6.627   5.875
 6124SOL     OW19270   0.900   6.758   6.185
 6124SOL    HW119271   0.897   6.822   6.107
 6124SOL    HW219272   0.993   6.723   6.196
 6125SOL     OW19273   2.343   4.206   0.361
 6125SOL    HW119274   2.409   4.281   0.356
 6125SOL    HW219275   2.377   4.129   0.308
 6126SOL     OW19276   0.145   1.135   5.062
 6126SOL    HW119277   0.111   1.215   5.112
 6126SOL    HW219278   0.126   1.052   5.115
 6127SOL     OW19279   4.045   0.035   1.806
 6127SOL    HW119280   4.115   6.990   1.789
 6127SOL    HW219281   4.017   0.031   1.902
 6128SOL     OW19282   5.480   5.597   0.937
 6128SOL    HW119283   5.381   5.587   0.947
 6128SOL    HW219284   5.515   5.655   1.011
 6129SOL     OW19285   0.798   3.261   2.567
 6129SOL    HW119286   0.773   3.316   2.646
 6129SOL    HW219287   0.794   3.317   2.485
 6130SOL     OW19288   5.028   2.646   2.746
 6130SOL    HW119289   4.971   2.644   2.664
 6130SOL    HW219290   5.091   2.723   2.741
 6131SOL     OW19291   0.709   1.735   3.326
 6131SOL    HW119292   0.627   1.752   3.271
 6131SOL    HW219293   0.724   1.636   3.332
 6132SOL     OW19294   3.504   1.926   6.450
 6132SOL    HW119295   3.483   1.989   6.526
 6132SOL    HW219296   3.460   1.838   6.468
 6133SOL     OW19297   2.142   3.168   3.204
 6133SOL    HW119298   2.130   3.201   3.111
 6133SOL    HW219299   2.134   3.245   3.268
 6134SOL     OW19300   4.505   6.431   6.982
 6134SOL    HW119301   4.445   6.510   6.968
 6134SOL    HW219302   4.568   6.423   6.905
 6135SOL     OW19303   0.384   5.773   1.488
 6135SOL    HW119304   0.322   5.847   1.466
 6135SOL    HW219305   0.398   5.769   1.587
 6136SOL     OW19306   1.025   2.647   1.530
 6136SOL    HW119307   1.010   2.633   1.432
 6136SOL    HW219308   0.964   2.719   1.563
 6137SOL     OW19309   0.218   4.065   2.553
 6137SOL    HW119310   0.191   4.160   2.539
 6137SOL    HW219311   0.300   4.045   2.500
 6138SOL     OW19312   3.885   0.158   3.579
 6138SOL    HW119313   3.872   0.107   3.494
 6138SOL    HW219314   3.865   0.255   3.564
 6139SOL     OW19315   1.133   0.117   5.390
 6139SOL    HW119316   1.183   0.030   5.386
 6139SOL    HW219317   1.061   0.117   5.320
 6140SOL     OW19318   0.593   0.546   2.320
 6140SOL    HW119319   0.603   0.470   2.385
 6140SOL    HW219320   0.498   0.553   2.291
 6141SOL     OW19321   0.213   7.011   6.615
 6141SOL    HW119322   0.169   6.936   6.566
 6141SOL    HW219323   0.143   0.052   6.646
 6142SOL     OW19324   0.237   5.273   6.271
 6142SOL    HW119325   0.293   5.229   6.201
 6142SOL    HW219326   0.227   5.212   6.350
 6143SOL     OW19327   0.018   4.319   0.831
 6143SOL    HW119328   0.106   4.340   0.874
 6143SOL    HW219329   0.010   4.369   0.745
 6144SOL     OW19330   5.428   5.067   3.958
 6144SOL    HW119331   5.334   5.100   3.957
 6144SOL    HW219332   5.489   5.141   3.989
 6145SOL     OW19333   5.414   4.839   4.096
 6145SOL    HW119334   5.406   4.791   4.009
 6145SOL    HW219335   5.451   4.931   4.080
 6146SOL     OW19336   3.284   5.906   3.438
 6146SOL    HW119337   3.342   5.888   3.358
 6146SOL    HW219338   3.335   5.960   3.505
 6147SOL     OW19339   2.095   2.287   4.934
 6147SOL    HW119340   2.012   2.310   4.884
 6147SOL    HW219341   2.077   2.287   5.032
 6148SOL     OW19342   4.160   6.091   5.385
 6148SOL    HW119343   4.116   6.180   5.374
 6148SOL    HW219344   4.189   6.079   5.480
 6149SOL     OW19345   2.688   6.574   1.666
 6149SOL    HW119346   2.617   6.580   1.736
 6149SOL    HW219347   2.660   6.627   1.586
 6150SOL     OW19348   6.028   4.168   6.979
 6150SOL    HW119349   6.012   4.216   6.893
 6150SOL    HW219350   5.973   4.211   0.027
 6151SOL     OW19351   6.159   4.809   5.627
 6151SOL    HW119352   6.131   4.905   5.627
 6151SOL    HW219353   6.166   4.777   5.722
 6152SOL     OW19354   0.727   5.891   4.831
 6152SOL    HW119355   0.718   5.841   4.917
 6152SOL    HW219356   0.653   5.866   4.769
 6153SOL     OW19357   5.984   5.070   1.184
 6153SOL    HW119358   5.988   5.166   1.212
 6153SOL    HW219359   6.039   5.057   1.101
 6154SOL     OW19360   5.704   3.152   2.372
 6154SOL    HW119361   5.702   3.252   2.378
 6154SOL    HW219362   5.781   3.124   2.315
 6155SOL     OW19363   3.200   1.068   2.543
 6155SOL    HW119364   3.240   1.050   2.454
 6155SOL    HW219365   3.245   1.011   2.612
 6156SOL     OW19366   4.565   4.837   1.566
 6156SOL    HW119367   4.555   4.929   1.528
 6156SOL    HW219368   4.476   4.802   1.593
 6157SOL     OW19369   0.473   2.382   2.953
 6157SOL    HW119370   0.442   2.286   2.953
 6157SOL    HW219371   0.545   2.394   3.021
 6158SOL     OW19372   4.153   2.422   6.474
 6158SOL    HW119373   4.183   2.394   6.566
 6158SOL    HW219374   4.104   2.509   6.480
 6159SOL     OW19375   4.119   2.649   0.298
 6159SOL    HW119376   4.213   2.614   0.292
 6159SOL    HW219377   4.065   2.588   0.356
 6160SOL     OW19378   5.911   0.278   6.475
 6160SOL    HW119379   5.971   0.256   6.398
 6160SOL    HW219380   5.826   0.226   6.467
 6161SOL     OW19381   5.665   1.594   0.067
 6161SOL    HW119382   5.722   1.519   0.100
 6161SOL    HW219383   5.721   1.677   0.058
 6162SOL     OW19384   5.971   6.595   3.840
 6162SOL    HW119385   5.880   6.619   3.808
 6162SOL    HW219386   5.967   6.509   3.892
 6163SOL     OW19387   5.172   5.964   2.314
 6163SOL    HW119388   5.253   5.914   2.343
 6163SOL    HW219389   5.173   6.055   2.356
 6164SOL     OW19390   3.424   4.211   4.454
 6164SOL    HW119391   3.337   4.232   4.497
 6164SOL    HW219392   3.498   4.223   4.521
 6165SOL     OW19393   4.555   1.510   6.081
 6165SOL    HW119394   4.555   1.502   6.180
 6165SOL    HW219395   4.640   1.554   6.051
 6166SOL     OW19396   5.920   1.617   0.399
 6166SOL    HW119397   5.939   1.608   0.301
 6166SOL    HW219398   5.852   1.549   0.425
 6167SOL     OW19399   0.995   4.791   2.911
 6167SOL    HW119400   0.968   4.747   2.996
 6167SOL    HW219401   0.967   4.887   2.913
 6168SOL     OW19402   0.290   3.359   3.737
 6168SOL    HW119403   0.388   3.370   3.756
 6168SOL    HW219404   0.248   3.448   3.724
 6169SOL     OW19405   1.331   2.005   0.193
 6169SOL    HW119406   1.371   2.097   0.189
 6169SOL    HW219407   1.235   2.012   0.220
 6170SOL     OW19408   3.364   4.131   5.512
 6170SOL    HW119409   3.425   4.178   5.576
 6170SOL    HW219410   3.270   4.161   5.527
 6171SOL     OW19411   1.742   3.418   1.624
 6171SOL    HW119412   1.821   3.477   1.643
 6171SOL    HW219413   1.706   3.439   1.533
 6172SOL     OW19414   1.047   0.853   3.642
 6172SOL    HW119415   1.051   0.854   3.742
 6172SOL    HW219416   1.023   0.762   3.609
 6173SOL     OW19417   6.685   5.019   2.438
 6173SOL    HW119418   6.657   5.060   2.352
 6173SOL    HW219419   6.644   5.069   2.514
 6174SOL     OW19420   6.221   5.207   2.731
 6174SOL    HW119421   6.153   5.158   2.785
 6174SOL    HW219422   6.221   5.304   2.756
 6175SOL     OW19423   5.329   0.598   3.883
 6175SOL    HW119424   5.279   0.662   3.825
 6175SOL    HW219425   5.359   0.645   3.966
 6176SOL     OW19426   6.582   2.568   0.289
 6176SOL    HW119427   6.496   2.564   0.239
 6176SOL    HW219428   6.641   2.637   0.247
 6177SOL     OW19429   6.242   1.815   1.439
 6177SOL    HW119430   6.253   1.892   1.376
 6177SOL    HW219431   6.147   1.808   1.467
 6178SOL     OW19432   4.724   5.008   2.482
 6178SOL    HW119433   4.775   5.093   2.490
 6178SOL    HW219434   4.651   5.006   2.551
 6179SOL     OW19435   6.540   4.797   4.486
 6179SOL    HW119436   6.619   4.837   4.438
 6179SOL    HW219437   6.524   4.847   4.571
 6180SOL     OW19438   3.437   6.114   6.577
 6180SOL    HW119439   3.386   6.165   6.646
 6180SOL    HW219440   3.534   6.142   6.581
 6181SOL     OW19441   4.172   6.736   1.220
 6181SOL    HW119442   4.257   6.780   1.189
 6181SOL    HW219443   4.156   6.758   1.316
 6182SOL     OW19444   5.566   3.626   5.673
 6182SOL    HW119445   5.503   3.702   5.686
 6182SOL    HW219446   5.535   3.569   5.597
 6183SOL     OW19447   3.012   0.077   2.886
 6183SOL    HW119448   3.066   0.157   2.860
 6183SOL    HW219449   2.918   0.105   2.906
 6184SOL     OW19450   1.142   6.817   6.534
 6184SOL    HW119451   1.208   6.891   6.545
 6184SOL    HW219452   1.064   6.850   6.481
 6185SOL     OW19453   0.414   4.530   6.324
 6185SOL    HW119454   0.490   4.595   6.328
 6185SOL    HW219455   0.416   4.470   6.403
 6186SOL     OW19456   5.843   0.082   5.090
 6186SOL    HW119457   5.846   0.177   5.058
 6186SOL    HW219458   5.830   0.080   5.189
 6187SOL     OW19459   4.519   4.493   4.320
 6187SOL    HW119460   4.601   4.534   4.360
 6187SOL    HW219461   4.439   4.517   4.376
 6188SOL     OW19462   2.294   0.159   0.528
 6188SOL    HW119463   2.295   0.173   0.429
 6188SOL    HW219464   2.314   0.063   0.548
 6189SOL     OW19465   4.844   4.241   3.873
 6189SOL    HW119466   4.807   4.160   3.919
 6189SOL    HW219467   4.943   4.232   3.865
 6190SOL     OW19468   6.753   3.656   6.247
 6190SOL    HW119469   6.750   3.679   6.344
 6190SOL    HW219470   6.839   3.609   6.226
 6191SOL     OW19471   4.159   2.991   6.912
 6191SOL    HW119472   4.177   2.896   6.886
 6191SOL    HW219473   4.162   3.049   6.830
 6192SOL     OW19474   2.922   3.434   6.523
 6192SOL    HW119475   2.891   3.529   6.523
 6192SOL    HW219476   2.903   3.392   6.434
 6193SOL     OW19477   4.919   0.763   2.736
 6193SOL    HW119478   4.995   0.822   2.707
 6193SOL    HW219479   4.922   0.678   2.684
 6194SOL     OW19480   0.919   6.779   0.547
 6194SOL    HW119481   0.901   6.717   0.471
 6194SOL    HW219482   0.938   6.871   0.511
 6195SOL     OW19483   3.933   5.894   5.633
 6195SOL    HW119484   3.919   5.838   5.552
 6195SOL    HW219485   3.865   5.968   5.635
 6196SOL     OW19486   6.089   2.197   1.542
 6196SOL    HW119487   6.139   2.232   1.462
 6196SOL    HW219488   6.005   2.250   1.554
 6197SOL     OW19489   4.258   4.381   0.340
 6197SOL    HW119490   4.165   4.415   0.352
 6197SOL    HW219491   4.266   4.336   0.251
 6198SOL     OW19492   3.069   5.322   2.297
 6198SOL    HW119493   3.144   5.281   2.350
 6198SOL    HW219494   3.088   5.419   2.282
 6199SOL     OW19495   0.860   0.091   0.996
 6199SOL    HW119496   0.866   0.044   0.908
 6199SOL    HW219497   0.850   0.024   1.069
 6200SOL     OW19498   2.108   0.961   5.480
 6200SOL    HW119499   2.023   1.008   5.501
 6200SOL    HW219500   2.181   0.994   5.541
 6201SOL     OW19501   1.737   3.900   5.056
 6201SOL    HW119502   1.697   3.834   5.120
 6201SOL    HW219503   1.821   3.937   5.094
 6202SOL     OW19504   3.943   1.725   1.496
 6202SOL    HW119505   3.940   1.639   1.548
 6202SOL    HW219506   3.991   1.794   1.549
 6203SOL     OW19507   5.697   6.571   3.061
 6203SOL    HW119508   5.772   6.587   2.998
 6203SOL    HW219509   5.721   6.499   3.125
 6204SOL     OW19510   0.992   5.013   5.025
 6204SOL    HW119511   0.906   5.063   5.032
 6204SOL    HW219512   1.057   5.049   5.093
 6205SOL     OW19513   6.099   6.555   0.073
 6205SOL    HW119514   6.090   6.562   0.173
 6205SOL    HW219515   6.193   6.578   0.047
 6206SOL     OW19516   6.763   0.456   2.842
 6206SOL    HW119517   6.743   0.393   2.918
 6206SOL    HW219518   6.819   0.531   2.876
 6207SOL     OW19519   1.775   4.624   4.260
 6207SOL    HW119520   1.858   4.571   4.242
 6207SOL    HW219521   1.762   4.633   4.359
 6208SOL     OW19522   6.023   1.626   6.129
 6208SOL    HW119523   5.994   1.720   6.112
 6208SOL    HW219524   6.008   1.604   6.226
 6209SOL     OW19525   4.730   5.521   6.974
 6209SOL    HW119526   4.711   5.611   7.013
 6209SOL    HW219527   4.735   5.528   6.874
 6210SOL     OW19528   5.942   4.386   3.894
 6210SOL    HW119529   6.016   4.325   3.920
 6210SOL    HW219530   5.923   4.449   3.969
 6211SOL     OW19531   3.126   6.236   5.085
 6211SOL    HW119532   3.054   6.303   5.064
 6211SOL    HW219533   3.105   6.190   5.171
 6212SOL     OW19534   2.318   5.068   2.757
 6212SOL    HW119535   2.326   4.968   2.752
 6212SOL    HW219536   2.240   5.098   2.702
 6213SOL     OW19537   5.056   0.632   7.006
 6213SOL    HW119538   4.956   0.638   7.013
 6213SOL    HW219539   5.098   0.686   0.054
 6214SOL     OW19540   4.409   5.100   3.971
 6214SOL    HW119541   4.344   5.025   3.969
 6214SOL    HW219542   4.441   5.115   4.065
 6215SOL     OW19543   4.092   2.191   0.542
 6215SOL    HW119544   4.175   2.205   0.597
 6215SOL    HW219545   4.117   2.155   0.453
 6216SOL     OW19546   6.397   2.190   2.321
 6216SOL    HW119547   6.326   2.245   2.277
 6216SOL    HW219548   6.391   2.201   2.420
 6217SOL     OW19549   0.431   3.191   2.840
 6217SOL    HW119550   0.512   3.137   2.862
 6217SOL    HW219551   0.358   3.169   2.905
 6218SOL     OW19552   3.372   5.113   5.425
 6218SOL    HW119553   3.321   5.109   5.339
 6218SOL    HW219554   3.342   5.193   5.477
 6219SOL     OW19555   0.930   1.939   4.196
 6219SOL    HW119556   0.953   2.034   4.215
 6219SOL    HW219557   0.840   1.934   4.153
 6220SOL     OW19558   1.542   2.979   5.444
 6220SOL    HW119559   1.503   2.901   5.394
 6220SOL    HW219560   1.635   2.956   5.473
 6221SOL     OW19561   6.321   5.708   6.619
 6221SOL    HW119562   6.350   5.769   6.693
 6221SOL    HW219563   6.232   5.738   6.585
 6222SOL     OW19564   1.447   6.270   1.307
 6222SOL    HW119565   1.365   6.325   1.323
 6222SOL    HW219566   1.525   6.331   1.288
 6223SOL     OW19567   0.348   4.439   4.759
 6223SOL    HW119568   0.341   4.381   4.678
 6223SOL    HW219569   0.443   4.464   4.775
 6224SOL     OW19570   2.462   2.022   6.252
 6224SOL    HW119571   2.537   1.973   6.296
 6224SOL    HW219572   2.469   2.012   6.153
 6225SOL     OW19573   3.442   3.432   1.134
 6225SOL    HW119574   3.471   3.353   1.189
 6225SOL    HW219575   3.400   3.400   1.050
 6226SOL     OW19576   6.018   1.532   5.675
 6226SOL    HW119577   6.052   1.559   5.585
 6226SOL    HW219578   5.973   1.610   5.719
 6227SOL     OW19579   3.778   5.639   5.971
 6227SOL    HW119580   3.819   5.578   5.903
 6227SOL    HW219581   3.747   5.585   6.050
 6228SOL     OW19582   1.222   2.475   2.925
 6228SOL    HW119583   1.190   2.558   2.971
 6228SOL    HW219584   1.278   2.422   2.988
 6229SOL     OW19585   0.503   2.645   2.611
 6229SOL    HW119586   0.578   2.689   2.561
 6229SOL    HW219587   0.505   2.546   2.595
 6230SOL     OW19588   0.930   1.144   3.936
 6230SOL    HW119589   0.854   1.209   3.936
 6230SOL    HW219590   0.987   1.159   4.018
 6231SOL     OW19591   0.020   5.128   1.449
 6231SOL    HW119592   0.053   5.052   1.506
 6231SOL    HW219593   6.967   5.172   1.494
 6232SOL     OW19594   6.497   1.748   0.935
 6232SOL    HW119595   6.461   1.676   0.994
 6232SOL    HW219596   6.436   1.760   0.856
 6233SOL     OW19597   6.183   0.768   0.133
 6233SOL    HW119598   6.209   0.672   0.148
 6233SOL    HW219599   6.259   0.816   0.089
 6234SOL     OW19600   6.547   1.776   5.765
 6234SOL    HW119601   6.503   1.866   5.755
 6234SOL    HW219602   6.604   1.776   5.847
 6235SOL     OW19603   1.173   0.678   1.505
 6235SOL    HW119604   1.256   0.729   1.528
 6235SOL    HW219605   1.109   0.680   1.582
 6236SOL     OW19606   0.645   4.055   0.393
 6236SOL    HW119607   0.670   4.081   0.486
 6236SOL    HW219608   0.565   4.109   0.364
 6237SOL     OW19609   3.325   6.270   6.774
 6237SOL    HW119610   3.296   6.191   6.828
 6237SOL    HW219611   3.304   6.354   6.824
 6238SOL     OW19612   3.961   4.809   3.297
 6238SOL    HW119613   4.041   4.760   3.332
 6238SOL    HW219614   3.992   4.886   3.241
 6239SOL     OW19615   3.413   6.077   1.838
 6239SOL    HW119616   3.343   6.012   1.867
 6239SOL    HW219617   3.491   6.072   1.902
 6240SOL     OW19618   2.693   3.374   6.335
 6240SOL    HW119619   2.646   3.345   6.419
 6240SOL    HW219620   2.631   3.363   6.257
 6241SOL     OW19621   3.211   0.119   1.652
 6241SOL    HW119622   3.196   0.199   1.595
 6241SOL    HW219623   3.273   0.055   1.605
 6242SOL     OW19624   5.508   1.494   3.502
 6242SOL    HW119625   5.465   1.405   3.490
 6242SOL    HW219626   5.464   1.561   3.442
 6243SOL     OW19627   6.321   6.619   3.851
 6243SOL    HW119628   6.300   6.525   3.878
 6243SOL    HW219629   6.414   6.642   3.878
 6244SOL     OW19630   0.944   2.129   2.052
 6244SOL    HW119631   1.030   2.139   2.103
 6244SOL    HW219632   0.963   2.141   1.954
 6245SOL     OW19633   1.807   3.873   0.078
 6245SOL    HW119634   1.803   3.938   0.002
 6245SOL    HW219635   1.718   3.830   0.090
 6246SOL     OW19636   1.929   2.415   5.553
 6246SOL    HW119637   1.981   2.424   5.638
 6246SOL    HW219638   1.832   2.433   5.570
 6247SOL     OW19639   1.569   6.513   4.343
 6247SOL    HW119640   1.610   6.427   4.310
 6247SOL    HW219641   1.492   6.537   4.285
 6248SOL     OW19642   3.150   3.921   0.383
 6248SOL    HW119643   3.188   3.982   0.453
 6248SOL    HW219644   3.091   3.974   0.322
 6249SOL     OW19645   0.617   4.517   0.493
 6249SOL    HW119646   0.522   4.525   0.522
 6249SOL    HW219647   0.657   4.434   0.530
 6250SOL     OW19648   0.125   5.854   0.790
 6250SOL    HW119649   0.100   5.773   0.737
 6250SOL    HW219650   0.043   5.910   0.806
 6251SOL     OW19651   3.612   5.216   6.891
 6251SOL    HW119652   3.518   5.205   6.922
 6251SOL    HW219653   3.665   5.135   6.918
 6252SOL     OW19654   1.068   6.750   5.689
 6252SOL    HW119655   1.136   6.694   5.640
 6252SOL    HW219656   0.992   6.771   5.627
 6253SOL     OW19657   2.181   4.081   2.981
 6253SOL    HW119658   2.142   4.172   2.998
 6253SOL    HW219659   2.281   4.088   2.979
 6254SOL     OW19660   4.918   1.381   0.631
 6254SOL    HW119661   4.935   1.288   0.596
 6254SOL    HW219662   4.999   1.437   0.615
 6255SOL     OW19663   2.789   0.397   1.297
 6255SOL    HW119664   2.706   0.341   1.293
 6255SOL    HW219665   2.780   0.474   1.234
 6256SOL     OW19666   3.318   4.999   2.627
 6256SOL    HW119667   3.267   4.917   2.653
 6256SOL    HW219668   3.405   4.973   2.586
 6257SOL     OW19669   4.584   2.189   0.632
 6257SOL    HW119670   4.653   2.228   0.571
 6257SOL    HW219671   4.555   2.257   0.698
 6258SOL     OW19672   4.597   0.197   3.891
 6258SOL    HW119673   4.644   0.284   3.899
 6258SOL    HW219674   4.515   0.209   3.836
 6259SOL     OW19675   2.712   2.427   0.521
 6259SOL    HW119676   2.738   2.421   0.618
 6259SOL    HW219677   2.788   2.463   0.468
 6260SOL     OW19678   3.156   5.555   6.858
 6260SOL    HW119679   3.061   5.585   6.853
 6260SOL    HW219680   3.181   5.539   6.953
 6261SOL     OW19681   4.075   0.303   5.992
 6261SOL    HW119682   4.119   0.221   6.027
 6261SOL    HW219683   4.078   0.376   6.060
 6262SOL     OW19684   1.651   5.092   0.702
 6262SOL    HW119685   1.719   5.112   0.773
 6262SOL    HW219686   1.588   5.022   0.734
 6263SOL     OW19687   6.827   0.062   5.427
 6263SOL    HW119688   6.887   7.013   5.394
 6263SOL    HW219689   6.840   0.143   5.370
 6264SOL     OW19690   1.205   6.620   1.845
 6264SOL    HW119691   1.169   6.531   1.872
 6264SOL    HW219692   1.303   6.624   1.863
 6265SOL     OW19693   3.520   3.942   0.430
 6265SOL    HW119694   3.587   3.868   0.431
 6265SOL    HW219695   3.465   3.936   0.346
 6266SOL     OW19696   4.296   6.694   4.793
 6266SOL    HW119697   4.322   6.757   4.720
 6266SOL    HW219698   4.219   6.638   4.763
 6267SOL     OW19699   2.869   0.741   6.608
 6267SOL    HW119700   2.785   0.793   6.623
 6267SOL    HW219701   2.901   0.702   6.694
 6268SOL     OW19702   3.541   6.455   3.450
 6268SOL    HW119703   3.457   6.491   3.490
 6268SOL    HW219704   3.525   6.435   3.353
 6269SOL     OW19705   6.466   5.459   1.971
 6269SOL    HW119706   6.369   5.483   1.976
 6269SOL    HW219707   6.506   5.465   2.063
 6270SOL     OW19708   1.989   0.540   4.909
 6270SOL    HW119709   1.963   0.511   5.001
 6270SOL    HW219710   1.939   0.486   4.842
 6271SOL     OW19711   5.699   2.347   5.871
 6271SOL    HW119712   5.613   2.320   5.829
 6271SOL    HW219713   5.759   2.267   5.879
 6272SOL     OW19714   0.446   1.991   6.892
 6272SOL    HW119715   0.380   2.056   6.929
 6272SOL    HW219716   0.539   2.023   6.913
 6273SOL     OW19717   1.721   6.537   3.131
 6273SOL    HW119718   1.637   6.591   3.139
 6273SOL    HW219719   1.752   6.538   3.036
 6274SOL     OW19720   2.282   5.395   5.900
 6274SOL    HW119721   2.345   5.425   5.828
 6274SOL    HW219722   2.201   5.353   5.858
 6275SOL     OW19723   2.053   5.949   5.451
 6275SOL    HW119724   2.127   5.982   5.392
 6275SOL    HW219725   2.024   5.858   5.422
 6276SOL     OW19726   1.846   5.069   3.030
 6276SOL    HW119727   1.872   5.036   3.121
 6276SOL    HW219728   1.924   5.114   2.987
 6277SOL     OW19729   5.609   3.770   1.819
 6277SOL    HW119730   5.679   3.718   1.770
 6277SOL    HW219731   5.646   3.804   1.905
 6278SOL     OW19732   5.319   6.575   4.725
 6278SOL    HW119733   5.378   6.596   4.803
 6278SOL    HW219734   5.294   6.659   4.679
 6279SOL     OW19735   3.681   0.425   6.507
 6279SOL    HW119736   3.702   0.445   6.412
 6279SOL    HW219737   3.763   0.389   6.552
 6280SOL     OW19738   0.881   2.111   4.990
 6280SOL    HW119739   0.905   2.159   4.906
 6280SOL    HW219740   0.955   2.049   5.016
 6281SOL     OW19741   1.681   5.081   3.646
 6281SOL    HW119742   1.766   5.030   3.634
 6281SOL    HW219743   1.622   5.034   3.711
 6282SOL     OW19744   1.730   6.853   4.855
 6282SOL    HW119745   1.686   6.933   4.895
 6282SOL    HW219746   1.827   6.873   4.839
 6283SOL     OW19747   6.652   3.136   6.205
 6283SOL    HW119748   6.572   3.143   6.146
 6283SOL    HW219749   6.704   3.054   6.182
 6284SOL     OW19750   1.693   5.183   4.891
 6284SOL    HW119751   1.725   5.107   4.834
 6284SOL    HW219752   1.634   5.243   4.837
 6285SOL     OW19753   1.036   3.455   4.061
 6285SOL    HW119754   1.062   3.548   4.035
 6285SOL    HW219755   1.042   3.445   4.160
 6286SOL     OW19756   6.640   1.560   3.728
 6286SOL    HW119757   6.634   1.460   3.732
 6286SOL    HW219758   6.553   1.597   3.696
 6287SOL     OW19759   3.840   5.182   3.933
 6287SOL    HW119760   3.912   5.114   3.945
 6287SOL    HW219761   3.774   5.149   3.866
 6288SOL     OW19762   5.253   4.820   2.814
 6288SOL    HW119763   5.344   4.816   2.774
 6288SOL    HW219764   5.219   4.728   2.830
 6289SOL     OW19765   1.660   4.561   2.051
 6289SOL    HW119766   1.673   4.542   2.149
 6289SOL    HW219767   1.691   4.654   2.031
 6290SOL     OW19768   5.967   3.780   4.184
 6290SOL    HW119769   6.000   3.831   4.263
 6290SOL    HW219770   5.868   3.790   4.177
 6291SOL     OW19771   3.425   2.871   4.842
 6291SOL    HW119772   3.481   2.791   4.822
 6291SOL    HW219773   3.389   2.864   4.935
 6292SOL     OW19774   1.608   2.203   3.782
 6292SOL    HW119775   1.675   2.129   3.796
 6292SOL    HW219776   1.532   2.192   3.846
 6293SOL     OW19777   3.819   0.226   0.149
 6293SOL    HW119778   3.855   0.164   0.219
 6293SOL    HW219779   3.770   0.301   0.193
 6294SOL     OW19780   3.421   4.998   4.386
 6294SOL    HW119781   3.388   4.968   4.475
 6294SOL    HW219782   3.349   4.983   4.317
 6295SOL     OW19783   5.389   5.037   5.829
 6295SOL    HW119784   5.438   4.985   5.899
 6295SOL    HW219785   5.293   5.009   5.828
 6296SOL     OW19786   0.440   6.799   5.419
 6296SOL    HW119787   0.414   6.757   5.506
 6296SOL    HW219788   0.450   6.898   5.432
 6297SOL     OW19789   4.739   6.521   4.480
 6297SOL    HW119790   4.755   6.464   4.561
 6297SOL    HW219791   4.773   6.474   4.399
 6298SOL     OW19792   1.443   2.829   6.413
 6298SOL    HW119793   1.375   2.863   6.478
 6298SOL    HW219794   1.422   2.863   6.321
 6299SOL     OW19795   5.346   1.524   0.190
 6299SOL    HW119796   5.248   1.516   0.211
 6299SOL    HW219797   5.359   1.518   0.091
 6300SOL     OW19798   5.535   0.371   0.034
 6300SOL    HW119799   5.622   0.355   7.012
 6300SOL    HW219800   5.500   0.462   0.009
 6301SOL     OW19801   3.724   0.725   0.642
 6301SOL    HW119802   3.801   0.758   0.696
 6301SOL    HW219803   3.742   0.742   0.545
 6302SOL     OW19804   1.909   0.583   3.703
 6302SOL    HW119805   1.869   0.663   3.749
 6302SOL    HW219806   1.976   0.540   3.765
 6303SOL     OW19807   1.826   1.193   4.278
 6303SOL    HW119808   1.895   1.153   4.218
 6303SOL    HW219809   1.828   1.147   4.367
 6304SOL     OW19810   2.243   1.396   1.369
 6304SOL    HW119811   2.154   1.373   1.407
 6304SOL    HW219812   2.298   1.442   1.438
 6305SOL     OW19813   5.472   0.130   1.906
 6305SOL    HW119814   5.541   0.102   1.972
 6305SOL    HW219815   5.511   0.130   1.814
 6306SOL     OW19816   1.304   3.648   4.339
 6306SOL    HW119817   1.372   3.716   4.365
 6306SOL    HW219818   1.214   3.692   4.330
 6307SOL     OW19819   3.976   4.220   5.400
 6307SOL    HW119820   3.894   4.163   5.397
 6307SOL    HW219821   3.969   4.284   5.476
 6308SOL     OW19822   2.053   2.234   4.594
 6308SOL    HW119823   2.008   2.172   4.529
 6308SOL    HW219824   2.136   2.271   4.553
 6309SOL     OW19825   5.329   4.183   4.622
 6309SOL    HW119826   5.427   4.203   4.624
 6309SOL    HW219827   5.291   4.211   4.534
 6310SOL     OW19828   2.065   5.884   3.293
 6310SOL    HW119829   2.164   5.890   3.282
 6310SOL    HW219830   2.041   5.881   3.390
 6311SOL     OW19831   5.048   0.885   5.735
 6311SOL    HW119832   5.140   0.875   5.698
 6311SOL    HW219833   5.029   0.982   5.751
 6312SOL     OW19834   5.811   5.521   5.723
 6312SOL    HW119835   5.745   5.592   5.701
 6312SOL    HW219836   5.833   5.469   5.640
 6313SOL     OW19837   1.369   6.394   3.912
 6313SOL    HW119838   1.439   6.435   3.855
 6313SOL    HW219839   1.391   6.297   3.928
 6314SOL     OW19840   4.022   6.408   1.738
 6314SOL    HW119841   3.941   6.363   1.702
 6314SOL    HW219842   4.000   6.452   1.825
 6315SOL     OW19843   3.052   3.107   6.240
 6315SOL    HW119844   3.066   3.116   6.141
 6315SOL    HW219845   3.032   3.197   6.279
 6316SOL     OW19846   4.694   1.657   6.593
 6316SOL    HW119847   4.755   1.736   6.592
 6316SOL    HW219848   4.746   1.573   6.610
 6317SOL     OW19849   4.792   5.575   2.646
 6317SOL    HW119850   4.794   5.675   2.638
 6317SOL    HW219851   4.885   5.541   2.656
 6318SOL     OW19852   3.033   1.941   4.575
 6318SOL    HW119853   2.973   1.907   4.648
 6318SOL    HW219854   3.049   1.868   4.509
 6319SOL     OW19855   6.589   1.922   3.954
 6319SOL    HW119856   6.634   1.859   3.891
 6319SOL    HW219857   6.490   1.911   3.948
 6320SOL     OW19858   5.967   5.291   4.969
 6320SOL    HW119859   5.904   5.346   5.023
 6320SOL    HW219860   5.980   5.202   5.012
 6321SOL     OW19861   3.085   3.593   1.007
 6321SOL    HW119862   2.990   3.564   0.995
 6321SOL    HW219863   3.115   3.569   1.100
 6322SOL     OW19864   1.794   2.107   7.004
 6322SOL    HW119865   1.862   2.173   6.970
 6322SOL    HW219866   1.718   2.102   6.939
 6323SOL     OW19867   2.741   2.671   1.268
 6323SOL    HW119868   2.811   2.632   1.207
 6323SOL    HW219869   2.728   2.611   1.346
 6324SOL     OW19870   5.170   0.270   6.452
 6324SOL    HW119871   5.134   0.310   6.368
 6324SOL    HW219872   5.270   0.270   6.449
 6325SOL     OW19873   2.302   1.689   2.378
 6325SOL    HW119874   2.353   1.737   2.306
 6325SOL    HW219875   2.211   1.665   2.344
 6326SOL     OW19876   4.948   5.326   1.475
 6326SOL    HW119877   5.041   5.302   1.445
 6326SOL    HW219878   4.951   5.412   1.526
 6327SOL     OW19879   7.019   0.202   5.044
 6327SOL    HW119880   6.928   0.166   5.022
 6327SOL    HW219881   0.014   0.282   4.988
 6328SOL     OW19882   2.100   3.734   0.955
 6328SOL    HW119883   2.106   3.833   0.942
 6328SOL    HW219884   2.062   3.715   1.046
 6329SOL     OW19885   2.513   2.409   3.260
 6329SOL    HW119886   2.510   2.505   3.288
 6329SOL    HW219887   2.583   2.396   3.190
 6330SOL     OW19888   4.513   0.895   0.867
 6330SOL    HW119889   4.471   0.877   0.777
 6330SOL    HW219890   4.523   0.808   0.916
 6331SOL     OW19891   6.280   2.205   6.850
 6331SOL    HW119892   6.302   2.300   6.871
 6331SOL    HW219893   6.184   2.187   6.870
 6332SOL     OW19894   5.979   3.435   1.705
 6332SOL    HW119895   5.996   3.496   1.782
 6332SOL    HW219896   6.065   3.416   1.657
 6333SOL     OW19897   4.374   5.534   5.000
 6333SOL    HW119898   4.394   5.600   5.073
 6333SOL    HW219899   4.359   5.584   4.915
 6334SOL     OW19900   3.044   6.984   1.837
 6334SOL    HW119901   3.114   7.017   1.774
 6334SOL    HW219902   3.080   6.906   1.888
 6335SOL     OW19903   4.583   0.965   0.494
 6335SOL    HW119904   4.569   1.048   0.440
 6335SOL    HW219905   4.599   0.888   0.432
 6336SOL     OW19906   0.946   1.839   6.278
 6336SOL    HW119907   0.892   1.910   6.323
 6336SOL    HW219908   1.034   1.876   6.250
 6337SOL     OW19909   4.504   4.377   6.206
 6337SOL    HW119910   4.580   4.429   6.167
 6337SOL    HW219911   4.418   4.414   6.172
 6338SOL     OW19912   3.406   1.781   3.319
 6338SOL    HW119913   3.324   1.777   3.262
 6338SOL    HW219914   3.431   1.688   3.347
 6339SOL     OW19915   1.264   3.072   2.723
 6339SOL    HW119916   1.269   3.162   2.767
 6339SOL    HW219917   1.272   3.084   2.624
 6340SOL     OW19918   1.599   4.747   2.684
 6340SOL    HW119919   1.531   4.674   2.673
 6340SOL    HW219920   1.638   4.770   2.595
 6341SOL     OW19921   0.914   4.391   4.223
 6341SOL    HW119922   0.850   4.406   4.148
 6341SOL    HW219923   0.909   4.295   4.252
 6342SOL     OW19924   2.707   2.042   1.733
 6342SOL    HW119925   2.719   2.073   1.639
 6342SOL    HW219926   2.793   2.051   1.782
 6343SOL     OW19927   4.885   2.049   6.467
 6343SOL    HW119928   4.839   2.099   6.394
 6343SOL    HW219929   4.883   2.104   6.551
 6344SOL     OW19930   5.860   3.329   5.253
 6344SOL    HW119931   5.857   3.327   5.353
 6344SOL    HW219932   5.930   3.265   5.220
 6345SOL     OW19933   5.158   1.934   2.443
 6345SOL    HW119934   5.247   1.956   2.402
 6345SOL    HW219935   5.148   1.835   2.451
 6346SOL     OW19936   6.912   4.432   3.866
 6346SOL    HW119937   6.995   4.489   3.867
 6346SOL    HW219938   6.928   4.349   3.920
 6347SOL     OW19939   2.178   0.266   0.998
 6347SOL    HW119940   2.182   0.353   0.950
 6347SOL    HW219941   2.189   0.191   0.932
 6348SOL     OW19942   1.827   4.302   4.984
 6348SOL    HW119943   1.912   4.344   5.015
 6348SOL    HW219944   1.848   4.229   4.919
 6349SOL     OW19945   3.304   0.364   1.284
 6349SOL    HW119946   3.221   0.309   1.275
 6349SOL    HW219947   3.309   0.402   1.376
 6350SOL     OW19948   2.418   4.495   3.886
 6350SOL    HW119949   2.476   4.560   3.934
 6350SOL    HW219950   2.466   4.463   3.804
 6351SOL     OW19951   6.534   3.746   3.270
 6351SOL    HW119952   6.498   3.813   3.204
 6351SOL    HW219953   6.480   3.662   3.264
 6352SOL     OW19954   3.095   5.339   4.939
 6352SOL    HW119955   3.103   5.417   4.877
 6352SOL    HW219956   3.074   5.257   4.886
 6353SOL     OW19957   0.528   0.633   5.844
 6353SOL    HW119958   0.468   0.684   5.906
 6353SOL    HW219959   0.544   0.688   5.761
 6354SOL     OW19960   1.917   6.099   3.244
 6354SOL    HW119961   1.962   6.010   3.242
 6354SOL    HW219962   1.848   6.103   3.172
 6355SOL     OW19963   0.761   5.414   6.377
 6355SOL    HW119964   0.674   5.392   6.421
 6355SOL    HW219965   0.744   5.474   6.299
 6356SOL     OW19966   3.806   4.967   2.673
 6356SOL    HW119967   3.886   4.908   2.666
 6356SOL    HW219968   3.833   5.057   2.708
 6357SOL     OW19969   5.106   2.990   2.229
 6357SOL    HW119970   5.008   3.006   2.217
 6357SOL    HW219971   5.130   3.000   2.326
 6358SOL     OW19972   1.328   2.125   6.281
 6358SOL    HW119973   1.318   2.222   6.260
 6358SOL    HW219974   1.371   2.114   6.370
 6359SOL     OW19975   6.230   6.642   5.642
 6359SOL    HW119976   6.295   6.702   5.595
 6359SOL    HW219977   6.218   6.558   5.588
 6360SOL     OW19978   1.385   3.867   3.755
 6360SOL    HW119979   1.297   3.886   3.799
 6360SOL    HW219980   1.372   3.804   3.679
 6361SOL     OW19981   5.865   0.378   0.446
 6361SOL    HW119982   5.894   0.283   0.438
 6361SOL    HW219983   5.873   0.423   0.357
 6362SOL     OW19984   0.296   6.126   0.580
 6362SOL    HW119985   0.298   6.094   0.485
 6362SOL    HW219986   0.321   6.051   0.640
 6363SOL     OW19987   2.296   4.184   3.593
 6363SOL    HW119988   2.280   4.170   3.691
 6363SOL    HW219989   2.388   4.154   3.570
 6364SOL     OW19990   3.033   1.348   6.150
 6364SOL    HW119991   2.993   1.326   6.239
 6364SOL    HW219992   2.961   1.377   6.087
 6365SOL     OW19993   5.782   0.124   4.201
 6365SOL    HW119994   5.695   0.168   4.221
 6365SOL    HW219995   5.808   0.064   4.276
 6366SOL     OW19996   0.992   5.826   6.404
 6366SOL    HW119997   0.961   5.767   6.330
 6366SOL    HW219998   0.935   5.812   6.485
 6367SOL     OW19999   4.162   6.978   4.500
 6367SOL    HW120000   4.138   6.897   4.446
 6367SOL    HW220001   4.245   6.958   4.553
 6368SOL     OW20002   3.558   5.573   3.695
 6368SOL    HW120003   3.643   5.572   3.643
 6368SOL    HW220004   3.494   5.638   3.653
 6369SOL     OW20005   2.043   4.844   4.277
 6369SOL    HW120006   1.993   4.764   4.309
 6369SOL    HW220007   2.011   4.870   4.186
 6370SOL     OW20008   0.658   3.590   2.715
 6370SOL    HW120009   0.585   3.524   2.730
 6370SOL    HW220010   0.618   3.682   2.704
 6371SOL     OW20011   5.183   3.560   4.444
 6371SOL    HW120012   5.240   3.491   4.399
 6371SOL    HW220013   5.121   3.600   4.377
 6372SOL     OW20014   3.412   0.202   1.850
 6372SOL    HW120015   3.377   0.185   1.942
 6372SOL    HW220016   3.353   0.155   1.783
 6373SOL     OW20017   5.395   4.254   3.629
 6373SOL    HW120018   5.338   4.217   3.555
 6373SOL    HW220019   5.490   4.232   3.611
 6374SOL     OW20020   3.245   3.917   4.589
 6374SOL    HW120021   3.260   4.005   4.636
 6374SOL    HW220022   3.149   3.892   4.598
 6375SOL     OW20023   6.747   1.579   4.119
 6375SOL    HW120024   6.761   1.638   4.039
 6375SOL    HW220025   6.742   1.484   4.089
 6376SOL     OW20026   6.429   2.526   5.036
 6376SOL    HW120027   6.465   2.593   4.972
 6376SOL    HW220028   6.457   2.434   5.006
 6377SOL     OW20029   6.411   1.522   5.850
 6377SOL    HW120030   6.439   1.618   5.852
 6377SOL    HW220031   6.329   1.510   5.906
 6378SOL     OW20032   5.211   5.560   3.937
 6378SOL    HW120033   5.294   5.527   3.892
 6378SOL    HW220034   5.171   5.634   3.883
 6379SOL     OW20035   2.336   4.301   4.291
 6379SOL    HW120036   2.335   4.375   4.224
 6379SOL    HW220037   2.363   4.337   4.380
 6380SOL     OW20038   0.872   1.608   6.461
 6380SOL    HW120039   0.905   1.661   6.383
 6380SOL    HW220040   0.773   1.600   6.456
 6381SOL     OW20041   4.047   3.105   1.932
 6381SOL    HW120042   4.146   3.100   1.915
 6381SOL    HW220043   4.003   3.023   1.895
 6382SOL     OW20044   0.780   2.225   0.702
 6382SOL    HW120045   0.724   2.156   0.748
 6382SOL    HW220046   0.731   2.311   0.697
 6383SOL     OW20047   2.012   1.950   3.024
 6383SOL    HW120048   2.055   1.965   2.935
 6383SOL    HW220049   1.983   1.855   3.031
 6384SOL     OW20050   5.318   4.463   1.254
 6384SOL    HW120051   5.331   4.487   1.158
 6384SOL    HW220052   5.262   4.380   1.260
 6385SOL     OW20053   6.748   5.131   3.841
 6385SOL    HW120054   6.842   5.110   3.813
 6385SOL    HW220055   6.749   5.175   3.931
 6386SOL     OW20056   2.314   4.489   6.733
 6386SOL    HW120057   2.379   4.413   6.740
 6386SOL    HW220058   2.326   4.536   6.645
 6387SOL     OW20059   0.934   1.858   6.724
 6387SOL    HW120060   1.020   1.880   6.678
 6387SOL    HW220061   0.860   1.857   6.657
 6388SOL     OW20062   4.212   4.425   1.169
 6388SOL    HW120063   4.134   4.411   1.231
 6388SOL    HW220064   4.289   4.369   1.199
 6389SOL     OW20065   1.202   6.352   2.821
 6389SOL    HW120066   1.169   6.258   2.825
 6389SOL    HW220067   1.146   6.409   2.881
 6390SOL     OW20068   1.056   1.463   4.719
 6390SOL    HW120069   1.047   1.487   4.816
 6390SOL    HW220070   1.084   1.545   4.668
 6391SOL     OW20071   2.538   6.480   5.705
 6391SOL    HW120072   2.558   6.408   5.639
 6391SOL    HW220073   2.509   6.562   5.656
 6392SOL     OW20074   2.088   0.026   3.324
 6392SOL    HW120075   2.080   0.006   3.226
 6392SOL    HW220076   2.082   0.125   3.339
 6393SOL     OW20077   5.983   0.324   1.538
 6393SOL    HW120078   5.931   0.338   1.622
 6393SOL    HW220079   6.053   0.395   1.529
 6394SOL     OW20080   2.703   4.673   0.717
 6394SOL    HW120081   2.604   4.664   0.703
 6394SOL    HW220082   2.740   4.587   0.752
 6395SOL     OW20083   6.309   2.925   2.132
 6395SOL    HW120084   6.285   2.871   2.052
 6395SOL    HW220085   6.341   3.015   2.103
 6396SOL     OW20086   5.351   3.367   6.270
 6396SOL    HW120087   5.303   3.321   6.345
 6396SOL    HW220088   5.449   3.354   6.280
 6397SOL     OW20089   5.617   2.976   6.419
 6397SOL    HW120090   5.532   3.007   6.376
 6397SOL    HW220091   5.671   3.054   6.450
 6398SOL     OW20092   3.225   0.499   0.759
 6398SOL    HW120093   3.304   0.514   0.819
 6398SOL    HW220094   3.155   0.449   0.809
 6399SOL     OW20095   1.242   5.523   6.860
 6399SOL    HW120096   1.306   5.469   6.916
 6399SOL    HW220097   1.286   5.609   6.834
 6400SOL     OW20098   2.179   6.649   2.385
 6400SOL    HW120099   2.122   6.686   2.459
 6400SOL    HW220100   2.274   6.678   2.398
 6401SOL     OW20101   0.574   4.627   3.565
 6401SOL    HW120102   0.532   4.716   3.581
 6401SOL    HW220103   0.673   4.634   3.572
 6402SOL     OW20104   4.367   1.307   2.796
 6402SOL    HW120105   4.300   1.233   2.803
 6402SOL    HW220106   4.354   1.356   2.710
 6403SOL     OW20107   6.646   6.332   6.228
 6403SOL    HW120108   6.571   6.321   6.293
 6403SOL    HW220109   6.678   6.242   6.199
 6404SOL     OW20110   3.923   1.396   2.817
 6404SOL    HW120111   3.993   1.326   2.804
 6404SOL    HW220112   3.921   1.456   2.737
 6405SOL     OW20113   2.541   0.671   3.607
 6405SOL    HW120114   2.484   0.603   3.560
 6405SOL    HW220115   2.615   0.625   3.655
 6406SOL     OW20116   1.171   2.434   3.555
 6406SOL    HW120117   1.229   2.514   3.538
 6406SOL    HW220118   1.223   2.350   3.538
 6407SOL     OW20119   2.994   6.870   3.957
 6407SOL    HW120120   3.093   6.886   3.949
 6407SOL    HW220121   2.946   6.956   3.944
 6408SOL     OW20122   5.693   2.070   0.238
 6408SOL    HW120123   5.655   2.110   0.321
 6408SOL    HW220124   5.778   2.117   0.214
 6409SOL     OW20125   0.274   4.706   3.166
 6409SOL    HW120126   0.309   4.683   3.256
 6409SOL    HW220127   0.178   4.679   3.159
 6410SOL     OW20128   2.042   1.575   0.589
 6410SOL    HW120129   2.031   1.651   0.652
 6410SOL    HW220130   2.063   1.610   0.498
 6411SOL     OW20131   0.341   2.769   3.433
 6411SOL    HW120132   0.280   2.837   3.391
 6411SOL    HW220133   0.324   2.680   3.393
 6412SOL     OW20134   0.383   2.572   5.418
 6412SOL    HW120135   0.399   2.474   5.406
 6412SOL    HW220136   0.415   2.600   5.509
 6413SOL     OW20137   4.455   4.872   3.496
 6413SOL    HW120138   4.461   4.972   3.500
 6413SOL    HW220139   4.492   4.833   3.580
 6414SOL     OW20140   5.781   0.851   1.057
 6414SOL    HW120141   5.699   0.889   1.015
 6414SOL    HW220142   5.809   0.908   1.135
 6415SOL     OW20143   2.041   2.434   3.248
 6415SOL    HW120144   1.954   2.432   3.297
 6415SOL    HW220145   2.032   2.381   3.163
 6416SOL     OW20146   1.217   0.905   6.069
 6416SOL    HW120147   1.247   0.842   5.998
 6416SOL    HW220148   1.117   0.911   6.068
 6417SOL     OW20149   6.673   4.608   2.178
 6417SOL    HW120150   6.733   4.669   2.125
 6417SOL    HW220151   6.687   4.514   2.148
 6418SOL     OW20152   4.684   4.843   1.842
 6418SOL    HW120153   4.718   4.751   1.859
 6418SOL    HW220154   4.646   4.849   1.750
 6419SOL     OW20155   2.486   4.419   2.594
 6419SOL    HW120156   2.394   4.379   2.601
 6419SOL    HW220157   2.495   4.467   2.507
 6420SOL     OW20158   3.056   3.877   5.467
 6420SOL    HW120159   3.053   3.796   5.409
 6420SOL    HW220160   3.035   3.958   5.412
 6421SOL     OW20161   5.717   1.001   2.330
 6421SOL    HW120162   5.782   0.967   2.398
 6421SOL    HW220163   5.720   1.101   2.327
 6422SOL     OW20164   0.040   0.185   4.268
 6422SOL    HW120165   0.127   0.206   4.223
 6422SOL    HW220166   7.010   0.268   4.275
 6423SOL     OW20167   4.978   4.667   2.646
 6423SOL    HW120168   4.909   4.701   2.583
 6423SOL    HW220169   5.068   4.702   2.620
 6424SOL     OW20170   6.499   5.825   5.574
 6424SOL    HW120171   6.437   5.849   5.649
 6424SOL    HW220172   6.471   5.873   5.491
 6425SOL     OW20173   6.312   6.039   3.197
 6425SOL    HW120174   6.231   5.997   3.158
 6425SOL    HW220175   6.382   5.969   3.211
 6426SOL     OW20176   0.558   4.872   3.380
 6426SOL    HW120177   0.470   4.909   3.349
 6426SOL    HW220178   0.600   4.819   3.306
 6427SOL     OW20179   2.550   3.034   5.895
 6427SOL    HW120180   2.628   2.983   5.931
 6427SOL    HW220181   2.578   3.129   5.877
 6428SOL     OW20182   6.544   2.921   6.879
 6428SOL    HW120183   6.468   2.906   6.815
 6428SOL    HW220184   6.603   2.992   6.843
 6429SOL     OW20185   0.868   1.495   5.687
 6429SOL    HW120186   0.957   1.508   5.733
 6429SOL    HW220187   0.805   1.450   5.750
 6430SOL     OW20188   5.307   1.202   2.107
 6430SOL    HW120189   5.406   1.196   2.095
 6430SOL    HW220190   5.262   1.143   2.040
 6431SOL     OW20191   5.413   6.621   3.041
 6431SOL    HW120192   5.378   6.543   3.092
 6431SOL    HW220193   5.510   6.608   3.022
 6432SOL     OW20194   4.328   3.762   6.641
 6432SOL    HW120195   4.336   3.800   6.549
 6432SOL    HW220196   4.329   3.662   6.636
 6433SOL     OW20197   3.694   4.336   0.813
 6433SOL    HW120198   3.671   4.296   0.725
 6433SOL    HW220199   3.610   4.364   0.860
 6434SOL     OW20200   1.835   3.817   0.397
 6434SOL    HW120201   1.914   3.778   0.351
 6434SOL    HW220202   1.775   3.859   0.329
 6435SOL     OW20203   4.184   6.485   0.044
 6435SOL    HW120204   4.245   6.488   0.124
 6435SOL    HW220205   4.240   6.481   6.985
 6436SOL     OW20206   2.081   3.072   3.607
 6436SOL    HW120207   1.996   3.077   3.555
 6436SOL    HW220208   2.156   3.048   3.545
 6437SOL     OW20209   2.548   0.955   1.215
 6437SOL    HW120210   2.614   1.029   1.221
 6437SOL    HW220211   2.532   0.916   1.305
 6438SOL     OW20212   0.598   4.704   6.395
 6438SOL    HW120213   0.680   4.708   6.337
 6438SOL    HW220214   0.625   4.681   6.488
 6439SOL     OW20215   6.294   0.951   1.412
 6439SOL    HW120216   6.218   0.917   1.357
 6439SOL    HW220217   6.291   0.909   1.503
 6440SOL     OW20218   2.308   1.939   0.603
 6440SOL    HW120219   2.378   1.870   0.623
 6440SOL    HW220220   2.218   1.897   0.607
 6441SOL     OW20221   1.521   6.530   2.546
 6441SOL    HW120222   1.493   6.461   2.613
 6441SOL    HW220223   1.472   6.514   2.460
 6442SOL     OW20224   2.634   0.791   4.070
 6442SOL    HW120225   2.628   0.833   3.980
 6442SOL    HW220226   2.619   0.860   4.141
 6443SOL     OW20227   4.082   2.592   6.118
 6443SOL    HW120228   4.097   2.498   6.089
 6443SOL    HW220229   4.164   2.628   6.162
 6444SOL     OW20230   6.819   2.376   3.812
 6444SOL    HW120231   6.817   2.471   3.778
 6444SOL    HW220232   6.788   2.374   3.907
 6445SOL     OW20233   5.083   3.083   5.950
 6445SOL    HW120234   5.126   3.172   5.962
 6445SOL    HW220235   5.002   3.092   5.892
 6446SOL     OW20236   1.293   0.713   5.875
 6446SOL    HW120237   1.264   0.758   5.791
 6446SOL    HW220238   1.392   0.725   5.887
 6447SOL     OW20239   0.238   5.361   2.763
 6447SOL    HW120240   0.236   5.261   2.754
 6447SOL    HW220241   0.320   5.397   2.717
 6448SOL     OW20242   5.094   5.048   2.910
 6448SOL    HW120243   5.108   5.117   2.838
 6448SOL    HW220244   5.147   4.966   2.887
 6449SOL     OW20245   3.068   4.976   0.170
 6449SOL    HW120246   3.095   5.069   0.194
 6449SOL    HW220247   2.991   4.948   0.228
 6450SOL     OW20248   6.905   4.015   1.337
 6450SOL    HW120249   6.968   4.053   1.404
 6450SOL    HW220250   6.916   4.062   1.249
 6451SOL     OW20251   2.520   6.817   5.304
 6451SOL    HW120252   2.509   6.893   5.367
 6451SOL    HW220253   2.591   6.755   5.338
 6452SOL     OW20254   3.373   6.576   4.626
 6452SOL    HW120255   3.407   6.669   4.615
 6452SOL    HW220256   3.389   6.524   4.541
 6453SOL     OW20257   1.287   6.775   0.653
 6453SOL    HW120258   1.240   6.708   0.594
 6453SOL    HW220259   1.230   6.857   0.660
 6454SOL     OW20260   3.280   1.620   3.516
 6454SOL    HW120261   3.356   1.566   3.552
 6454SOL    HW220262   3.234   1.568   3.444
 6455SOL     OW20263   0.140   2.074   3.795
 6455SOL    HW120264   0.057   2.024   3.820
 6455SOL    HW220265   0.214   2.048   3.857
 6456SOL     OW20266   1.498   0.715   3.683
 6456SOL    HW120267   1.481   0.650   3.757
 6456SOL    HW220268   1.571   0.680   3.624
 6457SOL     OW20269   4.757   1.587   0.706
 6457SOL    HW120270   4.805   1.502   0.684
 6457SOL    HW220271   4.801   1.630   0.785
 6458SOL     OW20272   0.994   0.155   3.233
 6458SOL    HW120273   0.958   0.070   3.271
 6458SOL    HW220274   1.061   0.194   3.296
 6459SOL     OW20275   5.958   5.221   0.690
 6459SOL    HW120276   6.009   5.280   0.753
 6459SOL    HW220277   5.976   5.125   0.713
 6460SOL     OW20278   4.757   5.442   5.705
 6460SOL    HW120279   4.713   5.442   5.615
 6460SOL    HW220280   4.856   5.449   5.694
 6461SOL     OW20281   2.811   4.689   5.384
 6461SOL    HW120282   2.808   4.667   5.481
 6461SOL    HW220283   2.852   4.613   5.334
 6462SOL     OW20284   2.350   2.631   4.999
 6462SOL    HW120285   2.382   2.724   4.976
 6462SOL    HW220286   2.259   2.617   4.960
 6463SOL     OW20287   0.630   3.706   6.893
 6463SOL    HW120288   0.565   3.677   6.822
 6463SOL    HW220289   0.721   3.671   6.870
 6464SOL     OW20290   1.054   5.331   5.082
 6464SOL    HW120291   1.084   5.269   5.154
 6464SOL    HW220292   1.095   5.304   4.995
 6465SOL     OW20293   6.502   2.569   3.548
 6465SOL    HW120294   6.598   2.546   3.538
 6465SOL    HW220295   6.493   2.667   3.567
 6466SOL     OW20296   0.875   1.296   6.471
 6466SOL    HW120297   0.916   1.243   6.397
 6466SOL    HW220298   0.876   1.393   6.447
 6467SOL     OW20299   3.403   0.955   6.991
 6467SOL    HW120300   3.413   0.942   0.065
 6467SOL    HW220301   3.462   0.890   6.943
 6468SOL     OW20302   4.244   6.852   1.740
 6468SOL    HW120303   4.300   6.933   1.760
 6468SOL    HW220304   4.279   6.774   1.792
 6469SOL     OW20305   4.169   0.693   5.559
 6469SOL    HW120306   4.223   0.754   5.617
 6469SOL    HW220307   4.075   0.689   5.593
 6470SOL     OW20308   6.316   5.271   6.559
 6470SOL    HW120309   6.304   5.337   6.484
 6470SOL    HW220310   6.338   5.181   6.521
 6471SOL     OW20311   6.339   6.087   5.678
 6471SOL    HW120312   6.274   6.156   5.709
 6471SOL    HW220313   6.327   6.072   5.580
 6472SOL     OW20314   0.314   4.434   1.320
 6472SOL    HW120315   0.279   4.493   1.393
 6472SOL    HW220316   0.414   4.433   1.323
 6473SOL     OW20317   2.506   1.676   4.019
 6473SOL    HW120318   2.475   1.623   3.940
 6473SOL    HW220319   2.537   1.613   4.091
 6474SOL     OW20320   1.857   3.960   6.042
 6474SOL    HW120321   1.803   4.029   5.993
 6474SOL    HW220322   1.945   3.949   5.996
 6475SOL     OW20323   0.164   5.424   4.555
 6475SOL    HW120324   0.175   5.377   4.468
 6475SOL    HW220325   0.183   5.361   4.630
 6476SOL     OW20326   4.648   3.630   1.147
 6476SOL    HW120327   4.585   3.705   1.167
 6476SOL    HW220328   4.630   3.555   1.211
 6477SOL     OW20329   7.007   5.138   1.168
 6477SOL    HW120330   0.002   5.109   1.261
 6477SOL    HW220331   7.008   5.238   1.164
 6478SOL     OW20332   3.721   6.126   2.482
 6478SOL    HW120333   3.746   6.093   2.391
 6478SOL    HW220334   3.804   6.155   2.531
 6479SOL     OW20335   3.763   5.900   3.460
 6479SOL    HW120336   3.765   5.989   3.413
 6479SOL    HW220337   3.840   5.895   3.524
 6480SOL     OW20338   3.241   2.220   5.855
 6480SOL    HW120339   3.294   2.271   5.787
 6480SOL    HW220340   3.172   2.280   5.896
 6481SOL     OW20341   3.388   2.015   2.216
 6481SOL    HW120342   3.360   2.001   2.310
 6481SOL    HW220343   3.316   2.064   2.166
 6482SOL     OW20344   0.544   0.369   6.025
 6482SOL    HW120345   0.488   0.447   5.996
 6482SOL    HW220346   0.640   0.388   6.008
 6483SOL     OW20347   1.743   6.047   1.540
 6483SOL    HW120348   1.773   6.087   1.453
 6483SOL    HW220349   1.646   6.026   1.535
 6484SOL     OW20350   4.005   0.365   2.018
 6484SOL    HW120351   4.072   0.348   1.945
 6484SOL    HW220352   3.934   0.426   1.984
 6485SOL     OW20353   1.808   4.148   3.030
 6485SOL    HW120354   1.743   4.154   3.106
 6485SOL    HW220355   1.758   4.148   2.944
 6486SOL     OW20356   1.862   4.302   4.493
 6486SOL    HW120357   1.931   4.267   4.430
 6486SOL    HW220358   1.771   4.271   4.465
 6487SOL     OW20359   6.946   5.860   5.613
 6487SOL    HW120360   6.933   5.851   5.711
 6487SOL    HW220361   6.872   5.813   5.565
 6488SOL     OW20362   3.099   5.866   5.419
 6488SOL    HW120363   3.187   5.859   5.371
 6488SOL    HW220364   3.112   5.842   5.515
 6489SOL     OW20365   2.222   3.364   6.723
 6489SOL    HW120366   2.135   3.318   6.702
 6489SOL    HW220367   2.250   3.340   6.816
 6490SOL     OW20368   4.235   1.823   6.293
 6490SOL    HW120369   4.160   1.858   6.350
 6490SOL    HW220370   4.314   1.801   6.350
 6491SOL     OW20371   3.904   1.266   6.790
 6491SOL    HW120372   3.951   1.188   6.749
 6491SOL    HW220373   3.806   1.249   6.791
 6492SOL     OW20374   5.253   5.834   0.030
 6492SOL    HW120375   5.273   5.930   0.048
 6492SOL    HW220376   5.333   5.779   0.053
 6493SOL     OW20377   1.014   5.456   4.455
 6493SOL    HW120378   1.054   5.520   4.520
 6493SOL    HW220379   1.082   5.434   4.385
 6494SOL     OW20380   0.819   1.357   3.061
 6494SOL    HW120381   0.761   1.275   3.067
 6494SOL    HW220382   0.807   1.400   2.972
 6495SOL     OW20383   4.690   5.895   4.548
 6495SOL    HW120384   4.772   5.855   4.589
 6495SOL    HW220385   4.691   5.880   4.449
 6496SOL     OW20386   0.038   6.850   1.947
 6496SOL    HW120387   0.093   6.904   2.010
 6496SOL    HW220388   6.969   6.842   1.983
 6497SOL     OW20389   2.590   3.460   6.969
 6497SOL    HW120390   2.573   3.458   6.871
 6497SOL    HW220391   2.687   3.476   6.986
 6498SOL     OW20392   2.235   4.120   3.860
 6498SOL    HW120393   2.216   4.199   3.917
 6498SOL    HW220394   2.226   4.036   3.914
 6499SOL     OW20395   5.264   2.288   4.760
 6499SOL    HW120396   5.226   2.228   4.690
 6499SOL    HW220397   5.251   2.247   4.851
 6500SOL     OW20398   6.705   4.557   3.966
 6500SOL    HW120399   6.776   4.518   3.907
 6500SOL    HW220400   6.667   4.639   3.922
 6501SOL     OW20401   6.331   2.959   6.689
 6501SOL    HW120402   6.298   2.886   6.629
 6501SOL    HW220403   6.294   3.046   6.658
 6502SOL     OW20404   5.999   3.837   1.871
 6502SOL    HW120405   5.959   3.882   1.791
 6502SOL    HW220406   6.094   3.814   1.851
 6503SOL     OW20407   5.536   0.438   3.853
 6503SOL    HW120408   5.453   0.494   3.857
 6503SOL    HW220409   5.610   0.491   3.812
 6504SOL     OW20410   5.079   6.706   6.377
 6504SOL    HW120411   5.039   6.761   6.451
 6504SOL    HW220412   5.115   6.767   6.306
 6505SOL     OW20413   5.384   5.125   1.623
 6505SOL    HW120414   5.353   5.165   1.537
 6505SOL    HW220415   5.462   5.064   1.606
 6506SOL     OW20416   6.256   3.622   1.436
 6506SOL    HW120417   6.246   3.537   1.487
 6506SOL    HW220418   6.167   3.669   1.431
 6507SOL     OW20419   1.959   5.305   5.884
 6507SOL    HW120420   1.928   5.369   5.813
 6507SOL    HW220421   1.981   5.357   5.967
 6508SOL     OW20422   2.429   0.677   3.243
 6508SOL    HW120423   2.414   0.775   3.228
 6508SOL    HW220424   2.524   0.654   3.223
 6509SOL     OW20425   2.941   1.943   3.675
 6509SOL    HW120426   3.027   1.937   3.625
 6509SOL    HW220427   2.928   2.037   3.709
 6510SOL     OW20428   6.724   4.176   0.135
 6510SOL    HW120429   6.658   4.232   0.084
 6510SOL    HW220430   6.817   4.200   0.106
 6511SOL     OW20431   4.731   0.775   4.772
 6511SOL    HW120432   4.653   0.837   4.762
 6511SOL    HW220433   4.753   0.764   4.868
 6512SOL     OW20434   5.255   6.995   1.828
 6512SOL    HW120435   5.183   7.005   1.898
 6512SOL    HW220436   5.339   0.014   1.860
 6513SOL     OW20437   3.404   5.122   2.846
 6513SOL    HW120438   3.353   5.090   2.925
 6513SOL    HW220439   3.374   5.073   2.764
 6514SOL     OW20440   5.894   0.433   3.442
 6514SOL    HW120441   5.805   0.465   3.412
 6514SOL    HW220442   5.882   0.359   3.508
 6515SOL     OW20443   0.762   4.962   4.077
 6515SOL    HW120444   0.790   4.970   3.981
 6515SOL    HW220445   0.734   5.052   4.111
 6516SOL     OW20446   0.185   3.371   1.475
 6516SOL    HW120447   0.103   3.315   1.485
 6516SOL    HW220448   0.265   3.318   1.503
 6517SOL     OW20449   6.856   1.238   0.661
 6517SOL    HW120450   6.875   1.302   0.735
 6517SOL    HW220451   6.932   1.239   0.596
 6518SOL     OW20452   0.052   0.478   0.169
 6518SOL    HW120453   0.120   0.490   0.241
 6518SOL    HW220454   0.085   0.522   0.085
 6519SOL     OW20455   2.535   1.820   3.463
 6519SOL    HW120456   2.454   1.801   3.518
 6519SOL    HW220457   2.567   1.913   3.482
 6520SOL     OW20458   5.217   5.535   2.150
 6520SOL    HW120459   5.140   5.566   2.206
 6520SOL    HW220460   5.302   5.573   2.187
 6521SOL     OW20461   1.437   2.340   4.115
 6521SOL    HW120462   1.449   2.258   4.058
 6521SOL    HW220463   1.345   2.377   4.101
 6522SOL     OW20464   3.508   4.511   6.906
 6522SOL    HW120465   3.499   4.575   6.830
 6522SOL    HW220466   3.445   4.536   6.979
 6523SOL     OW20467   3.230   0.725   6.623
 6523SOL    HW120468   3.147   0.709   6.677
 6523SOL    HW220469   3.214   0.697   6.528
 6524SOL     OW20470   2.887   3.462   2.147
 6524SOL    HW120471   2.879   3.484   2.050
 6524SOL    HW220472   2.970   3.410   2.163
 6525SOL     OW20473   1.597   3.462   3.051
 6525SOL    HW120474   1.571   3.438   3.144
 6525SOL    HW220475   1.656   3.390   3.013
 6526SOL     OW20476   2.304   0.102   6.105
 6526SOL    HW120477   2.241   0.048   6.050
 6526SOL    HW220478   2.398   0.075   6.085
 6527SOL     OW20479   0.669   2.009   4.477
 6527SOL    HW120480   0.751   2.064   4.459
 6527SOL    HW220481   0.681   1.918   4.438
 6528SOL     OW20482   0.203   0.972   3.686
 6528SOL    HW120483   0.173   0.892   3.739
 6528SOL    HW220484   0.126   1.009   3.635
 6529SOL     OW20485   6.831   1.458   3.231
 6529SOL    HW120486   6.826   1.485   3.134
 6529SOL    HW220487   6.922   1.480   3.267
 6530SOL     OW20488   6.597   3.713   1.839
 6530SOL    HW120489   6.600   3.673   1.747
 6530SOL    HW220490   6.569   3.809   1.833
 6531SOL     OW20491   5.854   3.737   4.866
 6531SOL    HW120492   5.869   3.811   4.800
 6531SOL    HW220493   5.852   3.649   4.819
 6532SOL     OW20494   6.363   0.487   6.727
 6532SOL    HW120495   6.360   0.477   6.826
 6532SOL    HW220496   6.433   0.426   6.689
 6533SOL     OW20497   4.606   6.106   0.904
 6533SOL    HW120498   4.596   6.121   1.003
 6533SOL    HW220499   4.636   6.012   0.888
 6534SOL     OW20500   3.204   4.112   1.439
 6534SOL    HW120501   3.277   4.127   1.372
 6534SOL    HW220502   3.220   4.024   1.485
 6535SOL     OW20503   6.550   3.243   4.215
 6535SOL    HW120504   6.554   3.244   4.315
 6535SOL    HW220505   6.643   3.252   4.178
 6536SOL     OW20506   0.927   2.505   5.683
 6536SOL    HW120507   0.930   2.567   5.605
 6536SOL    HW220508   0.887   2.418   5.655
 6537SOL     OW20509   5.753   5.711   0.098
 6537SOL    HW120510   5.817   5.636   0.083
 6537SOL    HW220511   5.746   5.729   0.197
 6538SOL     OW20512   3.225   4.369   0.177
 6538SOL    HW120513   3.276   4.283   0.184
 6538SOL    HW220514   3.285   4.441   0.141
 6539SOL     OW20515   3.661   1.014   6.217
 6539SOL    HW120516   3.743   1.026   6.274
 6539SOL    HW220517   3.673   1.064   6.132
 6540SOL     OW20518   4.717   1.361   5.204
 6540SOL    HW120519   4.642   1.305   5.167
 6540SOL    HW220520   4.747   1.322   5.292
 6541SOL     OW20521   3.795   1.619   5.199
 6541SOL    HW120522   3.760   1.689   5.136
 6541SOL    HW220523   3.807   1.533   5.149
 6542SOL     OW20524   6.913   4.796   3.955
 6542SOL    HW120525   6.966   4.716   3.985
 6542SOL    HW220526   6.827   4.800   4.006
 6543SOL     OW20527   6.402   3.912   6.958
 6543SOL    HW120528   6.320   3.872   6.997
 6543SOL    HW220529   6.377   3.987   6.897
 6544SOL     OW20530   0.480   6.208   2.731
 6544SOL    HW120531   0.406   6.177   2.790
 6544SOL    HW220532   0.452   6.200   2.635
 6545SOL     OW20533   5.523   2.222   6.559
 6545SOL    HW120534   5.608   2.169   6.567
 6545SOL    HW220535   5.462   2.177   6.493
 6546SOL     OW20536   4.291   4.271   6.646
 6546SOL    HW120537   4.226   4.196   6.632
 6546SOL    HW220538   4.243   4.352   6.678
 6547SOL     OW20539   4.759   1.432   5.736
 6547SOL    HW120540   4.718   1.425   5.645
 6547SOL    HW220541   4.821   1.510   5.739
 6548SOL     OW20542   0.824   3.284   0.056
 6548SOL    HW120543   0.798   3.202   0.006
 6548SOL    HW220544   0.745   3.318   0.107
 6549SOL     OW20545   4.250   1.560   0.631
 6549SOL    HW120546   4.153   1.540   0.640
 6549SOL    HW220547   4.303   1.480   0.657
 6550SOL     OW20548   0.408   6.301   3.717
 6550SOL    HW120549   0.494   6.303   3.666
 6550SOL    HW220550   0.413   6.368   3.792
 6551SOL     OW20551   1.924   4.285   2.222
 6551SOL    HW120552   1.927   4.322   2.129
 6551SOL    HW220553   2.017   4.272   2.256
 6552SOL     OW20554   2.408   6.732   5.622
 6552SOL    HW120555   2.311   6.710   5.630
 6552SOL    HW220556   2.419   6.825   5.588
 6553SOL     OW20557   0.715   1.631   2.534
 6553SOL    HW120558   0.650   1.662   2.603
 6553SOL    HW220559   0.741   1.708   2.476
 6554SOL     OW20560   6.687   1.574   5.612
 6554SOL    HW120561   6.620   1.633   5.657
 6554SOL    HW220562   6.733   1.517   5.680
 6555SOL     OW20563   0.502   2.331   1.681
 6555SOL    HW120564   0.424   2.390   1.700
 6555SOL    HW220565   0.544   2.303   1.767
 6556SOL     OW20566   4.377   4.763   5.250
 6556SOL    HW120567   4.387   4.822   5.331
 6556SOL    HW220568   4.320   4.810   5.182
 6557SOL     OW20569   4.240   5.373   1.683
 6557SOL    HW120570   4.253   5.309   1.760
 6557SOL    HW220571   4.329   5.405   1.652
 6558SOL     OW20572   6.566   5.597   0.251
 6558SOL    HW120573   6.530   5.521   0.198
 6558SOL    HW220574   6.523   5.682   0.222
 6559SOL     OW20575   6.287   4.128   6.820
 6559SOL    HW120576   6.205   4.086   6.781
 6559SOL    HW220577   6.328   4.190   6.753
 6560SOL     OW20578   3.676   3.758   1.081
 6560SOL    HW120579   3.663   3.851   1.045
 6560SOL    HW220580   3.601   3.700   1.048
 6561SOL     OW20581   3.619   4.098   2.260
 6561SOL    HW120582   3.529   4.060   2.235
 6561SOL    HW220583   3.672   4.114   2.177
 6562SOL     OW20584   5.880   4.805   6.967
 6562SOL    HW120585   5.834   4.775   6.884
 6562SOL    HW220586   5.930   4.729   7.007
 6563SOL     OW20587   0.038   6.057   0.369
 6563SOL    HW120588   0.079   6.086   0.283
 6563SOL    HW220589   0.032   5.958   0.372
 6564SOL     OW20590   6.516   3.938   2.757
 6564SOL    HW120591   6.548   3.986   2.839
 6564SOL    HW220592   6.592   3.924   2.694
 6565SOL     OW20593   6.131   2.460   4.324
 6565SOL    HW120594   6.145   2.540   4.382
 6565SOL    HW220595   6.119   2.490   4.229
 6566SOL     OW20596   2.925   6.890   1.583
 6566SOL    HW120597   2.970   6.800   1.584
 6566SOL    HW220598   2.960   6.945   1.659
 6567SOL     OW20599   3.700   2.812   1.224
 6567SOL    HW120600   3.784   2.828   1.173
 6567SOL    HW220601   3.702   2.867   1.308
 6568SOL     OW20602   5.029   6.353   3.074
 6568SOL    HW120603   5.071   6.265   3.098
 6568SOL    HW220604   4.982   6.391   3.154
 6569SOL     OW20605   3.449   4.180   0.918
 6569SOL    HW120606   3.457   4.277   0.939
 6569SOL    HW220607   3.511   4.157   0.843
 6570SOL     OW20608   4.644   6.506   2.020
 6570SOL    HW120609   4.649   6.408   2.002
 6570SOL    HW220610   4.728   6.536   2.064
 6571SOL     OW20611   2.766   6.173   1.935
 6571SOL    HW120612   2.809   6.218   1.857
 6571SOL    HW220613   2.768   6.073   1.922
 6572SOL     OW20614   6.737   5.701   5.538
 6572SOL    HW120615   6.740   5.602   5.552
 6572SOL    HW220616   6.644   5.734   5.554
 6573SOL     OW20617   2.726   1.250   2.459
 6573SOL    HW120618   2.760   1.254   2.553
 6573SOL    HW220619   2.642   1.197   2.456
 6574SOL     OW20620   2.722   5.847   2.562
 6574SOL    HW120621   2.660   5.807   2.629
 6574SOL    HW220622   2.804   5.880   2.608
 6575SOL     OW20623   0.865   1.497   1.908
 6575SOL    HW120624   0.846   1.442   1.990
 6575SOL    HW220625   0.962   1.492   1.886
 6576SOL     OW20626   1.361   6.556   6.493
 6576SOL    HW120627   1.292   6.560   6.565
 6576SOL    HW220628   1.403   6.646   6.483
 6577SOL     OW20629   0.424   1.935   3.843
 6577SOL    HW120630   0.476   2.018   3.860
 6577SOL    HW220631   0.404   1.927   3.746
 6578SOL     OW20632   0.509   4.448   2.675
 6578SOL    HW120633   0.519   4.348   2.677
 6578SOL    HW220634   0.414   4.472   2.696
 6579SOL     OW20635   0.419   3.835   4.626
 6579SOL    HW120636   0.409   3.860   4.530
 6579SOL    HW220637   0.483   3.759   4.635
 6580SOL     OW20638   6.865   1.251   1.243
 6580SOL    HW120639   6.924   1.223   1.168
 6580SOL    HW220640   6.876   1.187   1.319
 6581SOL     OW20641   3.346   1.320   6.773
 6581SOL    HW120642   3.389   1.330   6.863
 6581SOL    HW220643   3.413   1.338   6.701
 6582SOL     OW20644   1.868   0.657   2.302
 6582SOL    HW120645   1.884   0.619   2.211
 6582SOL    HW220646   1.847   0.755   2.295
 6583SOL     OW20647   4.325   0.345   5.117
 6583SOL    HW120648   4.301   0.305   5.205
 6583SOL    HW220649   4.413   0.393   5.124
 6584SOL     OW20650   4.948   1.892   6.932
 6584SOL    HW120651   5.033   1.928   6.969
 6584SOL    HW220652   4.965   1.853   6.842
 6585SOL     OW20653   6.901   0.912   0.376
 6585SOL    HW120654   6.872   0.967   0.454
 6585SOL    HW220655   6.828   0.910   0.308
 6586SOL     OW20656   6.297   2.764   6.087
 6586SOL    HW120657   6.291   2.682   6.143
 6586SOL    HW220658   6.238   2.753   6.007
 6587SOL     OW20659   2.657   5.827   4.855
 6587SOL    HW120660   2.605   5.882   4.789
 6587SOL    HW220661   2.596   5.800   4.930
 6588SOL     OW20662   1.562   4.001   1.509
 6588SOL    HW120663   1.567   3.977   1.412
 6588SOL    HW220664   1.540   3.919   1.563
 6589SOL     OW20665   4.690   0.138   6.442
 6589SOL    HW120666   4.659   0.111   6.533
 6589SOL    HW220667   4.730   0.229   6.445
 6590SOL     OW20668   0.883   1.227   5.939
 6590SOL    HW120669   0.876   1.216   5.840
 6590SOL    HW220670   0.803   1.275   5.973
 6591SOL     OW20671   4.998   6.044   2.636
 6591SOL    HW120672   5.013   5.951   2.602
 6591SOL    HW220673   4.899   6.061   2.644
 6592SOL     OW20674   6.116   6.722   4.040
 6592SOL    HW120675   6.088   6.686   3.951
 6592SOL    HW220676   6.138   6.819   4.031
 6593SOL     OW20677   2.340   1.760   3.649
 6593SOL    HW120678   2.345   1.801   3.740
 6593SOL    HW220679   2.248   1.725   3.633
 6594SOL     OW20680   4.083   1.670   0.309
 6594SOL    HW120681   3.988   1.693   0.333
 6594SOL    HW220682   4.144   1.739   0.348
 6595SOL     OW20683   0.881   3.247   1.126
 6595SOL    HW120684   0.897   3.311   1.201
 6595SOL    HW220685   0.914   3.287   1.041
 6596SOL     OW20686   3.360   6.891   4.590
 6596SOL    HW120687   3.290   6.854   4.528
 6596SOL    HW220688   3.412   6.961   4.541
 6597SOL     OW20689   1.752   6.468   3.422
 6597SOL    HW120690   1.762   6.537   3.494
 6597SOL    HW220691   1.764   6.512   3.333
 6598SOL     OW20692   0.609   0.017   4.285
 6598SOL    HW120693   0.512   7.016   4.297
 6598SOL    HW220694   0.647   6.988   4.209
 6599SOL     OW20695   3.393   5.631   5.574
 6599SOL    HW120696   3.415   5.691   5.497
 6599SOL    HW220697   3.432   5.671   5.658
 6600SOL     OW20698   4.606   5.120   6.118
 6600SOL    HW120699   4.614   5.195   6.184
 6600SOL    HW220700   4.642   5.149   6.030
 6601SOL     OW20701   0.629   1.185   6.559
 6601SOL    HW120702   0.555   1.250   6.541
 6601SOL    HW220703   0.716   1.222   6.526
 6602SOL     OW20704   0.076   1.280   1.848
 6602SOL    HW120705   0.014   1.207   1.874
 6602SOL    HW220706   0.103   1.331   1.929
 6603SOL     OW20707   0.762   2.857   4.397
 6603SOL    HW120708   0.836   2.826   4.337
 6603SOL    HW220709   0.705   2.923   4.348
 6604SOL     OW20710   2.520   6.567   0.567
 6604SOL    HW120711   2.441   6.577   0.628
 6604SOL    HW220712   2.500   6.611   0.479
 6605SOL     OW20713   5.768   4.468   1.127
 6605SOL    HW120714   5.834   4.505   1.193
 6605SOL    HW220715   5.744   4.375   1.154
 6606SOL     OW20716   5.138   0.314   2.649
 6606SOL    HW120717   5.103   0.228   2.612
 6606SOL    HW220718   5.202   0.355   2.583
 6607SOL     OW20719   1.715   2.526   1.444
 6607SOL    HW120720   1.774   2.548   1.367
 6607SOL    HW220721   1.670   2.610   1.475
 6608SOL     OW20722   4.808   5.973   2.056
 6608SOL    HW120723   4.859   5.892   2.030
 6608SOL    HW220724   4.865   6.031   2.114
 6609SOL     OW20725   4.695   0.768   6.034
 6609SOL    HW120726   4.793   0.746   6.038
 6609SOL    HW220727   4.682   0.866   6.046
 6610SOL     OW20728   2.465   1.376   6.198
 6610SOL    HW120729   2.521   1.373   6.281
 6610SOL    HW220730   2.494   1.453   6.141
 6611SOL     OW20731   6.273   2.750   3.658
 6611SOL    HW120732   6.181   2.780   3.684
 6611SOL    HW220733   6.305   2.681   3.723
 6612SOL     OW20734   0.135   2.697   6.889
 6612SOL    HW120735   0.046   2.731   6.860
 6612SOL    HW220736   0.190   2.675   6.808
 6613SOL     OW20737   6.027   6.017   4.646
 6613SOL    HW120738   6.114   6.064   4.629
 6613SOL    HW220739   6.035   5.961   4.727
 6614SOL     OW20740   5.575   6.138   0.157
 6614SOL    HW120741   5.608   6.114   0.248
 6614SOL    HW220742   5.653   6.149   0.095
 6615SOL     OW20743   0.845   4.608   3.564
 6615SOL    HW120744   0.912   4.682   3.567
 6615SOL    HW220745   0.856   4.557   3.479
 6616SOL     OW20746   4.025   1.216   6.112
 6616SOL    HW120747   4.116   1.187   6.141
 6616SOL    HW220748   3.987   1.280   6.180
 6617SOL     OW20749   3.082   5.847   3.227
 6617SOL    HW120750   3.118   5.851   3.134
 6617SOL    HW220751   3.159   5.846   3.292
 6618SOL     OW20752   1.146   3.187   3.295
 6618SOL    HW120753   1.190   3.275   3.278
 6618SOL    HW220754   1.141   3.170   3.393
 6619SOL     OW20755   6.847   6.847   4.485
 6619SOL    HW120756   6.934   6.898   4.490
 6619SOL    HW220757   6.847   6.775   4.554
 6620SOL     OW20758   2.650   2.479   5.319
 6620SOL    HW120759   2.634   2.578   5.317
 6620SOL    HW220760   2.677   2.448   5.228
 6621SOL     OW20761   1.783   3.231   6.434
 6621SOL    HW120762   1.728   3.176   6.371
 6621SOL    HW220763   1.735   3.239   6.521
 6622SOL     OW20764   5.962   6.143   1.419
 6622SOL    HW120765   5.946   6.046   1.440
 6622SOL    HW220766   6.031   6.179   1.482
 6623SOL     OW20767   3.037   3.783   0.772
 6623SOL    HW120768   2.949   3.740   0.754
 6623SOL    HW220769   3.081   3.739   0.850
 6624SOL     OW20770   1.656   0.483   4.563
 6624SOL    HW120771   1.646   0.526   4.653
 6624SOL    HW220772   1.567   0.453   4.531
 6625SOL     OW20773   5.458   2.146   5.791
 6625SOL    HW120774   5.504   2.170   5.705
 6625SOL    HW220775   5.398   2.221   5.818
 6626SOL     OW20776   4.006   4.775   5.233
 6626SOL    HW120777   3.948   4.851   5.263
 6626SOL    HW220778   3.967   4.688   5.264
 6627SOL     OW20779   2.440   0.734   6.064
 6627SOL    HW120780   2.516   0.707   6.005
 6627SOL    HW220781   2.354   0.726   6.013
 6628SOL     OW20782   4.721   4.660   4.436
 6628SOL    HW120783   4.763   4.734   4.384
 6628SOL    HW220784   4.667   4.698   4.511
 6629SOL     OW20785   2.918   5.878   6.646
 6629SOL    HW120786   2.831   5.876   6.596
 6629SOL    HW220787   2.992   5.902   6.582
 6630SOL     OW20788   3.015   1.349   1.508
 6630SOL    HW120789   3.060   1.266   1.475
 6630SOL    HW220790   2.979   1.333   1.600
 6631SOL     OW20791   3.710   0.643   2.198
 6631SOL    HW120792   3.798   0.634   2.152
 6631SOL    HW220793   3.641   0.590   2.149
 6632SOL     OW20794   0.652   0.145   2.254
 6632SOL    HW120795   0.609   0.192   2.332
 6632SOL    HW220796   0.586   0.139   2.179
 6633SOL     OW20797   1.127   4.428   5.516
 6633SOL    HW120798   1.062   4.360   5.551
 6633SOL    HW220799   1.078   4.494   5.459
 6634SOL     OW20800   6.094   2.917   5.009
 6634SOL    HW120801   6.006   2.880   4.980
 6634SOL    HW220802   6.162   2.900   4.937
 6635SOL     OW20803   3.926   5.174   3.612
 6635SOL    HW120804   3.969   5.154   3.700
 6635SOL    HW220805   3.908   5.088   3.564
 6636SOL     OW20806   3.829   1.700   5.788
 6636SOL    HW120807   3.802   1.615   5.832
 6636SOL    HW220808   3.747   1.749   5.757
 6637SOL     OW20809   1.716   0.362   5.924
 6637SOL    HW120810   1.638   0.305   5.899
 6637SOL    HW220811   1.687   0.433   5.987
 6638SOL     OW20812   3.621   4.213   4.630
 6638SOL    HW120813   3.658   4.123   4.653
 6638SOL    HW220814   3.595   4.261   4.714
 6639SOL     OW20815   5.735   5.259   0.194
 6639SOL    HW120816   5.736   5.159   0.196
 6639SOL    HW220817   5.791   5.294   0.269
 6640SOL     OW20818   0.494   1.825   4.869
 6640SOL    HW120819   0.462   1.762   4.798
 6640SOL    HW220820   0.460   1.917   4.849
 6641SOL     OW20821   2.275   2.192   6.985
 6641SOL    HW120822   2.266   2.283   7.024
 6641SOL    HW220823   2.272   2.124   0.034
 6642SOL     OW20824   2.654   5.647   0.263
 6642SOL    HW120825   2.572   5.685   0.219
 6642SOL    HW220826   2.710   5.600   0.195
 6643SOL     OW20827   6.676   5.189   6.950
 6643SOL    HW120828   6.654   5.099   6.988
 6643SOL    HW220829   6.629   5.201   6.863
 6644SOL     OW20830   2.901   4.729   1.691
 6644SOL    HW120831   2.829   4.723   1.621
 6644SOL    HW220832   2.876   4.672   1.769
 6645SOL     OW20833   6.874   5.237   0.166
 6645SOL    HW120834   6.793   5.270   0.214
 6645SOL    HW220835   6.899   5.302   0.095
 6646SOL     OW20836   3.861   0.019   4.292
 6646SOL    HW120837   3.947   0.069   4.295
 6646SOL    HW220838   3.834   7.015   4.384
 6647SOL     OW20839   4.057   0.824   2.280
 6647SOL    HW120840   4.107   0.826   2.367
 6647SOL    HW220841   4.075   0.737   2.234
 6648SOL     OW20842   3.255   5.747   2.440
 6648SOL    HW120843   3.233   5.747   2.538
 6648SOL    HW220844   3.342   5.793   2.426
 6649SOL     OW20845   4.902   1.426   0.132
 6649SOL    HW120846   4.889   1.488   0.209
 6649SOL    HW220847   4.970   1.357   0.157
 6650SOL     OW20848   3.393   1.061   5.049
 6650SOL    HW120849   3.326   1.127   5.085
 6650SOL    HW220850   3.460   1.040   5.121
 6651SOL     OW20851   1.909   1.219   6.676
 6651SOL    HW120852   1.966   1.140   6.694
 6651SOL    HW220853   1.926   1.252   6.583
 6652SOL     OW20854   6.657   5.218   0.357
 6652SOL    HW120855   6.700   5.160   0.426
 6652SOL    HW220856   6.579   5.170   0.318
 6653SOL     OW20857   3.182   3.345   2.194
 6653SOL    HW120858   3.206   3.270   2.256
 6653SOL    HW220859   3.215   3.324   2.102
 6654SOL     OW20860   1.597   3.203   0.879
 6654SOL    HW120861   1.591   3.174   0.975
 6654SOL    HW220862   1.512   3.246   0.851
 6655SOL     OW20863   3.386   6.946   1.566
 6655SOL    HW120864   3.318   6.880   1.597
 6655SOL    HW220865   3.468   6.899   1.536
 6656SOL     OW20866   6.380   1.888   1.994
 6656SOL    HW120867   6.314   1.948   2.040
 6656SOL    HW220868   6.344   1.863   1.904
 6657SOL     OW20869   5.262   6.112   6.489
 6657SOL    HW120870   5.342   6.058   6.464
 6657SOL    HW220871   5.271   6.145   6.582
 6658SOL     OW20872   5.964   1.747   4.871
 6658SOL    HW120873   5.892   1.719   4.934
 6658SOL    HW220874   5.937   1.723   4.777
 6659SOL     OW20875   2.158   2.353   0.622
 6659SOL    HW120876   2.245   2.307   0.640
 6659SOL    HW220877   2.103   2.297   0.560
 6660SOL     OW20878   0.861   6.088   1.096
 6660SOL    HW120879   0.915   6.047   1.023
 6660SOL    HW220880   0.768   6.053   1.092
 6661SOL     OW20881   0.611   5.923   3.368
 6661SOL    HW120882   0.541   5.873   3.317
 6661SOL    HW220883   0.578   5.939   3.461
 6662SOL     OW20884   0.979   0.804   6.741
 6662SOL    HW120885   1.003   0.730   6.804
 6662SOL    HW220886   1.002   0.892   6.783
 6663SOL     OW20887   6.940   5.509   3.142
 6663SOL    HW120888   6.858   5.564   3.124
 6663SOL    HW220889   6.994   5.552   3.214
 6664SOL     OW20890   1.754   6.955   0.439
 6664SOL    HW120891   1.742   6.932   0.343
 6664SOL    HW220892   1.690   6.903   0.495
 6665SOL     OW20893   1.493   0.173   3.256
 6665SOL    HW120894   1.551   0.237   3.307
 6665SOL    HW220895   1.550   0.123   3.191
 6666SOL     OW20896   5.993   0.558   6.180
 6666SOL    HW120897   6.076   0.546   6.125
 6666SOL    HW220898   6.018   0.594   6.270
 6667SOL     OW20899   0.001   5.224   5.603
 6667SOL    HW120900   0.023   5.313   5.563
 6667SOL    HW220901   0.024   5.225   5.700
 6668SOL     OW20902   6.004   5.771   1.827
 6668SOL    HW120903   6.005   5.772   1.927
 6668SOL    HW220904   6.030   5.680   1.795
 6669SOL     OW20905   2.246   2.798   3.779
 6669SOL    HW120906   2.187   2.717   3.781
 6669SOL    HW220907   2.228   2.855   3.859
 6670SOL     OW20908   3.542   2.393   5.756
 6670SOL    HW120909   3.572   2.316   5.812
 6670SOL    HW220910   3.477   2.361   5.687
 6671SOL     OW20911   5.201   5.585   1.380
 6671SOL    HW120912   5.156   5.673   1.367
 6671SOL    HW220913   5.210   5.567   1.478
 6672SOL     OW20914   0.573   2.094   5.475
 6672SOL    HW120915   0.610   2.047   5.395
 6672SOL    HW220916   0.603   2.048   5.558
 6673SOL     OW20917   5.300   6.151   3.204
 6673SOL    HW120918   5.323   6.079   3.270
 6673SOL    HW220919   5.287   6.238   3.253
 6674SOL     OW20920   0.621   4.716   6.032
 6674SOL    HW120921   0.690   4.665   6.083
 6674SOL    HW220922   0.644   4.813   6.033
 6675SOL     OW20923   4.330   3.986   1.682
 6675SOL    HW120924   4.234   3.991   1.712
 6675SOL    HW220925   4.385   4.049   1.737
 6676SOL     OW20926   0.564   4.166   5.536
 6676SOL    HW120927   0.547   4.125   5.446
 6676SOL    HW220928   0.626   4.107   5.588
 6677SOL     OW20929   0.973   1.973   6.980
 6677SOL    HW120930   0.943   1.942   6.890
 6677SOL    HW220931   1.031   1.902   7.021
 6678SOL     OW20932   2.536   2.551   0.257
 6678SOL    HW120933   2.582   2.462   0.256
 6678SOL    HW220934   2.492   2.565   0.346
 6679SOL     OW20935   3.020   1.271   3.870
 6679SOL    HW120936   3.055   1.194   3.924
 6679SOL    HW220937   2.931   1.299   3.905
 6680SOL     OW20938   4.752   6.613   6.555
 6680SOL    HW120939   4.831   6.674   6.546
 6680SOL    HW220940   4.681   6.642   6.492
 6681SOL     OW20941   4.642   5.113   0.086
 6681SOL    HW120942   4.725   5.136   0.034
 6681SOL    HW220943   4.562   5.119   0.026
 6682SOL     OW20944   1.367   4.734   2.330
 6682SOL    HW120945   1.284   4.747   2.384
 6682SOL    HW220946   1.350   4.668   2.257
 6683SOL     OW20947   5.013   2.726   5.618
 6683SOL    HW120948   5.052   2.665   5.686
 6683SOL    HW220949   4.916   2.743   5.639
 6684SOL     OW20950   2.747   6.660   0.696
 6684SOL    HW120951   2.663   6.611   0.673
 6684SOL    HW220952   2.780   6.711   0.617
 6685SOL     OW20953   5.518   2.991   5.686
 6685SOL    HW120954   5.513   3.091   5.684
 6685SOL    HW220955   5.425   2.954   5.696
 6686SOL     OW20956   5.227   5.921   4.140
 6686SOL    HW120957   5.298   5.850   4.145
 6686SOL    HW220958   5.159   5.905   4.211
 6687SOL     OW20959   6.850   2.137   1.269
 6687SOL    HW120960   6.766   2.189   1.254
 6687SOL    HW220961   6.890   2.114   1.180
 6688SOL     OW20962   6.678   4.325   2.171
 6688SOL    HW120963   6.672   4.283   2.262
 6688SOL    HW220964   6.612   4.281   2.110
 6689SOL     OW20965   4.190   3.187   0.324
 6689SOL    HW120966   4.168   3.189   0.226
 6689SOL    HW220967   4.158   3.101   0.364
 6690SOL     OW20968   2.353   0.930   1.590
 6690SOL    HW120969   2.341   0.998   1.518
 6690SOL    HW220970   2.326   0.968   1.678
 6691SOL     OW20971   2.815   6.292   1.696
 6691SOL    HW120972   2.768   6.371   1.737
 6691SOL    HW220973   2.910   6.315   1.679
 6692SOL     OW20974   3.154   4.290   5.590
 6692SOL    HW120975   3.164   4.378   5.637
 6692SOL    HW220976   3.116   4.305   5.499
 6693SOL     OW20977   4.159   3.124   5.869
 6693SOL    HW120978   4.072   3.108   5.823
 6693SOL    HW220979   4.143   3.175   5.954
 6694SOL     OW20980   5.272   6.326   0.379
 6694SOL    HW120981   5.270   6.399   0.311
 6694SOL    HW220982   5.305   6.362   0.467
 6695SOL     OW20983   2.526   2.344   5.837
 6695SOL    HW120984   2.522   2.369   5.740
 6695SOL    HW220985   2.621   2.342   5.867
 6696SOL     OW20986   1.686   2.590   0.542
 6696SOL    HW120987   1.641   2.508   0.507
 6696SOL    HW220988   1.641   2.620   0.626
 6697SOL     OW20989   5.062   2.343   3.318
 6697SOL    HW120990   5.034   2.437   3.301
 6697SOL    HW220991   5.155   2.330   3.283
 6698SOL     OW20992   2.944   2.721   0.533
 6698SOL    HW120993   2.951   2.693   0.629
 6698SOL    HW220994   3.023   2.778   0.509
 6699SOL     OW20995   3.240   5.157   6.523
 6699SOL    HW120996   3.215   5.243   6.567
 6699SOL    HW220997   3.167   5.129   6.460
 6700SOL     OW20998   0.063   6.199   1.253
 6700SOL    HW120999   0.129   6.221   1.180
 6700SOL    HW221000   0.047   6.100   1.253
 6701SOL     OW21001   5.481   3.049   0.896
 6701SOL    HW121002   5.396   3.076   0.853
 6701SOL    HW221003   5.545   3.015   0.826
 6702SOL     OW21004   2.632   2.792   0.171
 6702SOL    HW121005   2.591   2.882   0.156
 6702SOL    HW221006   2.561   2.725   0.191
 6703SOL     OW21007   6.444   1.508   6.856
 6703SOL    HW121008   6.407   1.473   6.770
 6703SOL    HW221009   6.543   1.515   6.849
 6704SOL     OW21010   4.413   2.260   2.340
 6704SOL    HW121011   4.347   2.246   2.266
 6704SOL    HW221012   4.462   2.346   2.327
 6705SOL     OW21013   6.963   2.595   2.189
 6705SOL    HW121014   6.992   2.524   2.253
 6705SOL    HW221015   6.979   2.685   2.229
 6706SOL     OW21016   1.217   3.832   1.349
 6706SOL    HW121017   1.278   3.902   1.385
 6706SOL    HW221018   1.234   3.820   1.251
 6707SOL     OW21019   0.369   5.761   4.394
 6707SOL    HW121020   0.359   5.751   4.493
 6707SOL    HW221021   0.451   5.713   4.364
 6708SOL     OW21022   1.374   4.985   2.654
 6708SOL    HW121023   1.321   5.041   2.589
 6708SOL    HW221024   1.472   5.000   2.637
 6709SOL     OW21025   3.176   5.656   1.949
 6709SOL    HW121026   3.225   5.572   1.968
 6709SOL    HW221027   3.089   5.635   1.904
 6710SOL     OW21028   2.609   1.690   6.058
 6710SOL    HW121029   2.555   1.696   6.142
 6710SOL    HW221030   2.682   1.758   6.060
 6711SOL     OW21031   5.540   4.807   6.922
 6711SOL    HW121032   5.610   4.771   6.859
 6711SOL    HW221033   5.547   4.907   6.926
 6712SOL     OW21034   4.521   5.447   0.131
 6712SOL    HW121035   4.556   5.430   0.223
 6712SOL    HW221036   4.596   5.442   0.065
 6713SOL     OW21037   1.679   1.929   1.684
 6713SOL    HW121038   1.771   1.959   1.659
 6713SOL    HW221039   1.621   2.008   1.703
 6714SOL     OW21040   5.297   0.732   6.130
 6714SOL    HW121041   5.200   0.714   6.148
 6714SOL    HW221042   5.332   0.665   6.065
 6715SOL     OW21043   0.104   0.607   6.937
 6715SOL    HW121044   0.163   0.631   6.859
 6715SOL    HW221045   0.078   0.690   6.986
 6716SOL     OW21046   1.009   5.829   2.325
 6716SOL    HW121047   1.060   5.781   2.396
 6716SOL    HW221048   0.911   5.822   2.344
 6717SOL     OW21049   4.322   3.207   0.969
 6717SOL    HW121050   4.360   3.255   0.890
 6717SOL    HW221051   4.244   3.153   0.940
 6718SOL     OW21052   3.953   6.201   6.130
 6718SOL    HW121053   3.930   6.105   6.148
 6718SOL    HW221054   4.044   6.220   6.165
 6719SOL     OW21055   0.489   0.111   5.687
 6719SOL    HW121056   0.535   0.059   5.758
 6719SOL    HW221057   0.510   0.208   5.698
 6720SOL     OW21058   1.668   6.114   2.256
 6720SOL    HW121059   1.735   6.119   2.330
 6720SOL    HW221060   1.678   6.028   2.207
 6721SOL     OW21061   6.005   6.676   4.528
 6721SOL    HW121062   5.948   6.595   4.538
 6721SOL    HW221063   5.968   6.734   4.456
 6722SOL     OW21064   5.388   3.386   1.398
 6722SOL    HW121065   5.319   3.335   1.346
 6722SOL    HW221066   5.477   3.343   1.386
 6723SOL     OW21067   2.275   6.402   2.916
 6723SOL    HW121068   2.205   6.473   2.911
 6723SOL    HW221069   2.300   6.375   2.823
 6724SOL     OW21070   1.336   3.493   6.230
 6724SOL    HW121071   1.313   3.494   6.133
 6724SOL    HW221072   1.428   3.456   6.242
 6725SOL     OW21073   0.654   4.350   1.887
 6725SOL    HW121074   0.584   4.314   1.826
 6725SOL    HW221075   0.622   4.435   1.929
 6726SOL     OW21076   0.870   2.211   4.437
 6726SOL    HW121077   0.938   2.285   4.435
 6726SOL    HW221078   0.778   2.250   4.431
 6727SOL     OW21079   6.456   3.706   5.743
 6727SOL    HW121080   6.468   3.805   5.752
 6727SOL    HW221081   6.424   3.684   5.651
 6728SOL     OW21082   4.919   1.594   4.700
 6728SOL    HW121083   4.998   1.632   4.651
 6728SOL    HW221084   4.940   1.589   4.798
 6729SOL     OW21085   6.628   1.580   2.392
 6729SOL    HW121086   6.544   1.585   2.445
 6729SOL    HW221087   6.607   1.562   2.296
 6730SOL     OW21088   1.828   6.631   6.130
 6730SOL    HW121089   1.784   6.626   6.041
 6730SOL    HW221090   1.785   6.564   6.192
 6731SOL     OW21091   2.039   4.458   1.020
 6731SOL    HW121092   2.042   4.464   0.920
 6731SOL    HW221093   1.944   4.443   1.049
 6732SOL     OW21094   4.562   5.779   5.810
 6732SOL    HW121095   4.634   5.716   5.840
 6732SOL    HW221096   4.597   5.873   5.812
 6733SOL     OW21097   4.247   4.998   6.692
 6733SOL    HW121098   4.171   5.049   6.733
 6733SOL    HW221099   4.272   5.039   6.604
 6734SOL     OW21100   0.784   3.251   5.449
 6734SOL    HW121101   0.755   3.346   5.461
 6734SOL    HW221102   0.879   3.249   5.419
 6735SOL     OW21103   0.744   6.230   5.053
 6735SOL    HW121104   0.802   6.305   5.023
 6735SOL    HW221105   0.802   6.157   5.092
 6736SOL     OW21106   1.692   3.619   0.507
 6736SOL    HW121107   1.620   3.590   0.444
 6736SOL    HW221108   1.747   3.690   0.465
 6737SOL     OW21109   2.205   3.054   0.866
 6737SOL    HW121110   2.194   3.142   0.821
 6737SOL    HW221111   2.211   2.981   0.798
 6738SOL     OW21112   2.131   3.311   2.241
 6738SOL    HW121113   2.122   3.386   2.174
 6738SOL    HW221114   2.227   3.284   2.247
 6739SOL     OW21115   3.429   5.445   5.861
 6739SOL    HW121116   3.511   5.416   5.911
 6739SOL    HW221117   3.373   5.504   5.918
 6740SOL     OW21118   2.074   1.543   4.576
 6740SOL    HW121119   2.056   1.478   4.502
 6740SOL    HW221120   2.049   1.635   4.546
 6741SOL     OW21121   4.609   1.326   5.529
 6741SOL    HW121122   4.608   1.426   5.526
 6741SOL    HW221123   4.547   1.290   5.460
 6742SOL     OW21124   0.382   5.796   2.716
 6742SOL    HW121125   0.460   5.854   2.694
 6742SOL    HW221126   0.414   5.707   2.749
 6743SOL     OW21127   3.755   4.400   6.985
 6743SOL    HW121128   3.677   4.444   6.940
 6743SOL    HW221129   3.827   4.383   6.918
 6744SOL     OW21130   4.280   5.556   5.476
 6744SOL    HW121131   4.198   5.510   5.511
 6744SOL    HW221132   4.308   5.627   5.540
 6745SOL     OW21133   1.184   6.221   2.228
 6745SOL    HW121134   1.244   6.294   2.197
 6745SOL    HW221135   1.102   6.260   2.269
 6746SOL     OW21136   0.666   1.060   2.856
 6746SOL    HW121137   0.695   1.085   2.949
 6746SOL    HW221138   0.612   1.135   2.817
 6747SOL     OW21139   5.384   6.983   4.416
 6747SOL    HW121140   5.393   6.993   4.317
 6747SOL    HW221141   5.475   6.977   4.457
 6748SOL     OW21142   1.344   0.440   3.046
 6748SOL    HW121143   1.326   0.528   3.001
 6748SOL    HW221144   1.257   0.400   3.075
 6749SOL     OW21145   3.070   6.738   6.966
 6749SOL    HW121146   3.129   6.780   0.010
 6749SOL    HW221147   3.127   6.687   6.900
 6750SOL     OW21148   3.794   1.303   4.953
 6750SOL    HW121149   3.845   1.386   4.935
 6750SOL    HW221150   3.843   1.248   5.021
 6751SOL     OW21151   4.063   1.825   3.657
 6751SOL    HW121152   4.023   1.739   3.625
 6751SOL    HW221153   4.049   1.834   3.756
 6752SOL     OW21154   6.131   2.985   2.528
 6752SOL    HW121155   6.115   3.077   2.565
 6752SOL    HW221156   6.111   2.917   2.598
 6753SOL     OW21157   4.806   1.366   6.242
 6753SOL    HW121158   4.714   1.391   6.272
 6753SOL    HW221159   4.861   1.341   6.322
 6754SOL     OW21160   6.450   2.018   5.714
 6754SOL    HW121161   6.529   2.078   5.697
 6754SOL    HW221162   6.369   2.058   5.670
 6755SOL     OW21163   4.550   2.025   3.928
 6755SOL    HW121164   4.557   2.071   4.017
 6755SOL    HW221165   4.461   1.979   3.923
 6756SOL     OW21166   4.666   4.276   4.636
 6756SOL    HW121167   4.585   4.228   4.668
 6756SOL    HW221168   4.658   4.294   4.538
 6757SOL     OW21169   4.624   6.299   0.710
 6757SOL    HW121170   4.712   6.342   0.727
 6757SOL    HW221171   4.601   6.238   0.786
 6758SOL     OW21172   5.465   4.020   1.876
 6758SOL    HW121173   5.525   4.053   1.803
 6758SOL    HW221174   5.374   4.001   1.839
 6759SOL     OW21175   1.249   3.564   3.850
 6759SOL    HW121176   1.306   3.592   3.928
 6759SOL    HW221177   1.173   3.629   3.840
 6760SOL     OW21178   6.396   5.614   4.558
 6760SOL    HW121179   6.366   5.522   4.532
 6760SOL    HW221180   6.479   5.607   4.614
 6761SOL     OW21181   5.386   2.626   5.842
 6761SOL    HW121182   5.476   2.664   5.861
 6761SOL    HW221183   5.351   2.665   5.757
 6762SOL     OW21184   0.275   5.476   3.302
 6762SOL    HW121185   0.310   5.387   3.273
 6762SOL    HW221186   0.252   5.531   3.222
 6763SOL     OW21187   6.788   5.959   4.009
 6763SOL    HW121188   6.849   5.941   4.086
 6763SOL    HW221189   6.749   6.051   4.019
 6764SOL     OW21190   2.752   4.642   6.585
 6764SOL    HW121191   2.766   4.585   6.504
 6764SOL    HW221192   2.828   4.630   6.648
 6765SOL     OW21193   5.695   5.206   3.666
 6765SOL    HW121194   5.632   5.278   3.639
 6765SOL    HW221195   5.644   5.129   3.704
 6766SOL     OW21196   2.782   0.136   6.488
 6766SOL    HW121197   2.754   0.221   6.532
 6766SOL    HW221198   2.719   0.115   6.414
 6767SOL     OW21199   0.668   2.958   1.044
 6767SOL    HW121200   0.674   2.996   1.136
 6767SOL    HW221201   0.716   3.017   0.979
 6768SOL     OW21202   1.063   0.377   3.928
 6768SOL    HW121203   1.040   0.308   3.860
 6768SOL    HW221204   1.033   0.467   3.895
 6769SOL     OW21205   2.796   1.500   5.425
 6769SOL    HW121206   2.896   1.502   5.427
 6769SOL    HW221207   2.763   1.562   5.353
 6770SOL     OW21208   0.164   2.281   4.351
 6770SOL    HW121209   0.173   2.246   4.257
 6770SOL    HW221210   0.235   2.350   4.367
 6771SOL     OW21211   3.808   2.167   3.419
 6771SOL    HW121212   3.780   2.178   3.324
 6771SOL    HW221213   3.830   2.071   3.437
 6772SOL     OW21214   5.601   1.881   2.209
 6772SOL    HW121215   5.681   1.941   2.216
 6772SOL    HW221216   5.620   1.807   2.144
 6773SOL     OW21217   6.723   6.398   1.853
 6773SOL    HW121218   6.698   6.394   1.756
 6773SOL    HW221219   6.822   6.399   1.862
 6774SOL     OW21220   1.835   1.630   5.603
 6774SOL    HW121221   1.784   1.715   5.613
 6774SOL    HW221222   1.814   1.569   5.680
 6775SOL     OW21223   0.947   1.870   3.843
 6775SOL    HW121224   1.020   1.803   3.856
 6775SOL    HW221225   0.957   1.911   3.752
 6776SOL     OW21226   3.583   3.435   1.978
 6776SOL    HW121227   3.551   3.529   1.967
 6776SOL    HW221228   3.675   3.435   2.017
 6777SOL     OW21229   4.166   5.327   1.367
 6777SOL    HW121230   4.257   5.369   1.368
 6777SOL    HW221231   4.137   5.306   1.460
 6778SOL     OW21232   5.499   3.661   2.367
 6778SOL    HW121233   5.400   3.658   2.351
 6778SOL    HW221234   5.517   3.711   2.452
 6779SOL     OW21235   6.283   4.321   6.150
 6779SOL    HW121236   6.231   4.341   6.066
 6779SOL    HW221237   6.307   4.407   6.195
 6780SOL     OW21238   2.285   2.966   2.916
 6780SOL    HW121239   2.340   3.025   2.975
 6780SOL    HW221240   2.262   3.015   2.832
 6781SOL     OW21241   6.502   0.979   4.098
 6781SOL    HW121242   6.532   1.038   4.023
 6781SOL    HW221243   6.532   0.885   4.080
 6782SOL     OW21244   0.256   1.340   3.601
 6782SOL    HW121245   0.227   1.427   3.561
 6782SOL    HW221246   0.354   1.326   3.584
 6783SOL     OW21247   1.412   4.142   4.787
 6783SOL    HW121248   1.427   4.068   4.852
 6783SOL    HW221249   1.327   4.189   4.809
 6784SOL     OW21250   2.155   3.245   1.788
 6784SOL    HW121251   2.065   3.289   1.784
 6784SOL    HW221252   2.221   3.308   1.830
 6785SOL     OW21253   5.693   4.645   5.362
 6785SOL    HW121254   5.623   4.700   5.405
 6785SOL    HW221255   5.775   4.642   5.420
 6786SOL     OW21256   6.289   3.015   0.437
 6786SOL    HW121257   6.324   3.099   0.397
 6786SOL    HW221258   6.229   2.969   0.371
 6787SOL     OW21259   3.506   2.406   0.881
 6787SOL    HW121260   3.418   2.452   0.869
 6787SOL    HW221261   3.491   2.308   0.895
 6788SOL     OW21262   0.714   3.735   2.207
 6788SOL    HW121263   0.676   3.653   2.165
 6788SOL    HW221264   0.813   3.739   2.190
 6789SOL     OW21265   6.624   4.210   4.276
 6789SOL    HW121266   6.569   4.135   4.240
 6789SOL    HW221267   6.672   4.256   4.201
 6790SOL     OW21268   0.584   4.940   5.615
 6790SOL    HW121269   0.591   4.868   5.684
 6790SOL    HW221270   0.554   4.900   5.529
 6791SOL     OW21271   4.792   1.541   3.007
 6791SOL    HW121272   4.842   1.623   3.036
 6791SOL    HW221273   4.798   1.472   3.079
 6792SOL     OW21274   4.443   6.735   5.244
 6792SOL    HW121275   4.431   6.646   5.287
 6792SOL    HW221276   4.371   6.797   5.276
 6793SOL     OW21277   3.090   2.019   6.858
 6793SOL    HW121278   3.168   1.961   6.832
 6793SOL    HW221279   3.052   2.063   6.776
 6794SOL     OW21280   4.597   1.291   5.910
 6794SOL    HW121281   4.660   1.338   5.848
 6794SOL    HW221282   4.578   1.349   5.989
 6795SOL     OW21283   1.237   1.107   1.417
 6795SOL    HW121284   1.258   1.173   1.489
 6795SOL    HW221285   1.178   1.035   1.453
 6796SOL     OW21286   6.326   0.853   1.943
 6796SOL    HW121287   6.271   0.831   2.023
 6796SOL    HW221288   6.423   0.839   1.964
 6797SOL     OW21289   6.661   2.914   1.906
 6797SOL    HW121290   6.750   2.877   1.882
 6797SOL    HW221291   6.589   2.858   1.865
 6798SOL     OW21292   5.264   0.627   1.555
 6798SOL    HW121293   5.268   0.570   1.474
 6798SOL    HW221294   5.190   0.596   1.615
 6799SOL     OW21295   5.592   6.856   3.107
 6799SOL    HW121296   5.637   6.767   3.101
 6799SOL    HW221297   5.499   6.849   3.069
 6800SOL     OW21298   1.224   1.530   1.125
 6800SOL    HW121299   1.311   1.578   1.133
 6800SOL    HW221300   1.185   1.517   1.217
 6801SOL     OW21301   1.435   6.277   4.799
 6801SOL    HW121302   1.523   6.317   4.773
 6801SOL    HW221303   1.366   6.299   4.730
 6802SOL     OW21304   3.017   6.589   0.772
 6802SOL    HW121305   2.920   6.574   0.752
 6802SOL    HW221306   3.031   6.592   0.871
 6803SOL     OW21307   4.949   4.541   0.146
 6803SOL    HW121308   4.872   4.543   0.082
 6803SOL    HW221309   5.029   4.503   0.100
 6804SOL     OW21310   2.967   5.017   2.556
 6804SOL    HW121311   2.873   5.015   2.588
 6804SOL    HW221312   3.006   5.108   2.572
 6805SOL     OW21313   0.216   4.977   5.050
 6805SOL    HW121314   0.200   4.972   5.149
 6805SOL    HW221315   0.224   5.072   5.023
 6806SOL     OW21316   6.834   0.703   4.187
 6806SOL    HW121317   6.844   0.608   4.217
 6806SOL    HW221318   6.737   0.724   4.176
 6807SOL     OW21319   3.654   3.293   3.499
 6807SOL    HW121320   3.703   3.228   3.557
 6807SOL    HW221321   3.557   3.293   3.524
 6808SOL     OW21322   4.930   1.106   5.252
 6808SOL    HW121323   4.934   1.006   5.257
 6808SOL    HW221324   5.023   1.143   5.253
 6809SOL     OW21325   6.016   4.723   1.731
 6809SOL    HW121326   5.939   4.664   1.756
 6809SOL    HW221327   6.101   4.670   1.736
 6810SOL     OW21328   3.402   0.811   3.195
 6810SOL    HW121329   3.473   0.757   3.150
 6810SOL    HW221330   3.409   0.799   3.294
 6811SOL     OW21331   6.868   1.894   2.737
 6811SOL    HW121332   6.866   1.941   2.825
 6811SOL    HW221333   6.888   1.960   2.664
 6812SOL     OW21334   3.473   3.583   4.737
 6812SOL    HW121335   3.501   3.489   4.723
 6812SOL    HW221336   3.408   3.610   4.666
 6813SOL     OW21337   5.060   3.312   1.689
 6813SOL    HW121338   5.159   3.306   1.701
 6813SOL    HW221339   5.016   3.233   1.732
 6814SOL     OW21340   4.333   1.554   5.925
 6814SOL    HW121341   4.399   1.534   5.997
 6814SOL    HW221342   4.258   1.608   5.963
 6815SOL     OW21343   1.931   4.908   6.663
 6815SOL    HW121344   1.981   4.995   6.661
 6815SOL    HW221345   1.987   4.836   6.621
 6816SOL     OW21346   6.438   1.743   4.702
 6816SOL    HW121347   6.341   1.750   4.683
 6816SOL    HW221348   6.462   1.808   4.775
 6817SOL     OW21349   2.561   2.141   3.312
 6817SOL    HW121350   2.531   2.236   3.300
 6817SOL    HW221351   2.628   2.137   3.386
 6818SOL     OW21352   1.873   6.326   5.945
 6818SOL    HW121353   1.839   6.241   5.984
 6818SOL    HW221354   1.957   6.353   5.992
 6819SOL     OW21355   4.752   5.419   3.218
 6819SOL    HW121356   4.715   5.327   3.217
 6819SOL    HW221357   4.692   5.479   3.272
 6820SOL     OW21358   1.320   6.696   1.412
 6820SOL    HW121359   1.227   6.730   1.430
 6820SOL    HW221360   1.342   6.710   1.316
 6821SOL     OW21361   3.965   2.210   5.484
 6821SOL    HW121362   4.028   2.166   5.549
 6821SOL    HW221363   3.872   2.207   5.520
 6822SOL     OW21364   6.884   2.727   6.244
 6822SOL    HW121365   6.910   2.783   6.323
 6822SOL    HW221366   6.925   2.636   6.253
 6823SOL     OW21367   5.065   3.900   6.560
 6823SOL    HW121368   5.061   3.808   6.522
 6823SOL    HW221369   5.154   3.914   6.604
 6824SOL     OW21370   1.736   1.707   6.708
 6824SOL    HW121371   1.672   1.712   6.785
 6824SOL    HW221372   1.714   1.626   6.653
 6825SOL     OW21373   6.546   6.104   1.396
 6825SOL    HW121374   6.532   6.186   1.340
 6825SOL    HW221375   6.613   6.045   1.352
 6826SOL     OW21376   0.427   3.685   3.007
 6826SOL    HW121377   0.491   3.757   2.982
 6826SOL    HW221378   0.464   3.596   2.981
 6827SOL     OW21379   4.821   5.254   5.446
 6827SOL    HW121380   4.872   5.311   5.511
 6827SOL    HW221381   4.886   5.204   5.389
 6828SOL     OW21382   3.959   1.581   3.065
 6828SOL    HW121383   3.903   1.527   3.002
 6828SOL    HW221384   4.005   1.654   3.013
 6829SOL     OW21385   5.750   0.153   5.408
 6829SOL    HW121386   5.705   0.239   5.385
 6829SOL    HW221387   5.849   0.165   5.401
 6830SOL     OW21388   6.100   0.988   3.221
 6830SOL    HW121389   6.143   1.022   3.137
 6830SOL    HW221390   6.035   1.055   3.255
 6831SOL     OW21391   1.229   1.509   5.518
 6831SOL    HW121392   1.152   1.462   5.561
 6831SOL    HW221393   1.215   1.511   5.419
 6832SOL     OW21394   2.948   2.254   0.284
 6832SOL    HW121395   2.931   2.353   0.291
 6832SOL    HW221396   2.999   2.235   0.200
 6833SOL     OW21397   3.289   5.589   6.064
 6833SOL    HW121398   3.190   5.580   6.063
 6833SOL    HW221399   3.313   5.680   6.098
 6834SOL     OW21400   5.279   7.010   0.592
 6834SOL    HW121401   5.193   0.008   0.638
 6834SOL    HW221402   5.338   0.067   0.591
 6835SOL     OW21403   3.644   1.771   3.892
 6835SOL    HW121404   3.673   1.788   3.986
 6835SOL    HW221405   3.725   1.767   3.832
 6836SOL     OW21406   1.784   4.464   6.482
 6836SOL    HW121407   1.782   4.499   6.576
 6836SOL    HW221408   1.863   4.403   6.471
 6837SOL     OW21409   1.098   0.865   2.453
 6837SOL    HW121410   1.175   0.926   2.438
 6837SOL    HW221411   1.073   0.867   2.550
 6838SOL     OW21412   2.817   4.352   5.367
 6838SOL    HW121413   2.845   4.416   5.295
 6838SOL    HW221414   2.732   4.307   5.340
 6839SOL     OW21415   5.110   1.787   3.941
 6839SOL    HW121416   5.136   1.698   3.905
 6839SOL    HW221417   5.092   1.780   4.039
 6840SOL     OW21418   2.778   6.863   4.724
 6840SOL    HW121419   2.856   6.905   4.677
 6840SOL    HW221420   2.699   6.862   4.663
 6841SOL     OW21421   3.927   5.083   1.599
 6841SOL    HW121422   3.894   4.989   1.606
 6841SOL    HW221423   3.881   5.129   1.523
 6842SOL     OW21424   0.949   2.995   0.219
 6842SOL    HW121425   0.877   3.028   0.280
 6842SOL    HW221426   1.030   2.970   0.272
 6843SOL     OW21427   4.831   1.657   1.989
 6843SOL    HW121428   4.736   1.626   1.980
 6843SOL    HW221429   4.835   1.732   2.056
 6844SOL     OW21430   4.680   5.563   4.626
 6844SOL    HW121431   4.709   5.657   4.612
 6844SOL    HW221432   4.759   5.502   4.617
 6845SOL     OW21433   4.407   4.538   2.937
 6845SOL    HW121434   4.374   4.479   3.011
 6845SOL    HW221435   4.339   4.541   2.864
 6846SOL     OW21436   3.790   3.616   1.512
 6846SOL    HW121437   3.848   3.559   1.571
 6846SOL    HW221438   3.749   3.559   1.441
 6847SOL     OW21439   4.759   3.625   1.719
 6847SOL    HW121440   4.744   3.548   1.781
 6847SOL    HW221441   4.678   3.639   1.662
 6848SOL     OW21442   0.819   5.033   4.602
 6848SOL    HW121443   0.811   4.945   4.555
 6848SOL    HW221444   0.860   5.100   4.541
 6849SOL     OW21445   3.946   5.626   4.299
 6849SOL    HW121446   3.897   5.688   4.360
 6849SOL    HW221447   4.001   5.562   4.354
 6850SOL     OW21448   6.191   2.109   3.792
 6850SOL    HW121449   6.232   2.201   3.789
 6850SOL    HW221450   6.093   2.115   3.774
 6851SOL     OW21451   0.640   4.655   5.761
 6851SOL    HW121452   0.620   4.557   5.759
 6851SOL    HW221453   0.636   4.687   5.856
 6852SOL     OW21454   0.867   4.182   1.824
 6852SOL    HW121455   0.955   4.230   1.829
 6852SOL    HW221456   0.794   4.244   1.852
 6853SOL     OW21457   6.926   5.160   5.908
 6853SOL    HW121458   6.875   5.086   5.864
 6853SOL    HW221459   6.995   5.121   5.969
 6854SOL     OW21460   6.587   1.310   5.881
 6854SOL    HW121461   6.519   1.383   5.865
 6854SOL    HW221462   6.673   1.335   5.836
 6855SOL     OW21463   3.713   6.797   2.434
 6855SOL    HW121464   3.804   6.775   2.468
 6855SOL    HW221465   3.714   6.887   2.390
 6856SOL     OW21466   5.997   3.923   5.230
 6856SOL    HW121467   5.953   3.840   5.196
 6856SOL    HW221468   5.932   3.976   5.284
 6857SOL     OW21469   3.377   1.298   6.427
 6857SOL    HW121470   3.368   1.293   6.328
 6857SOL    HW221471   3.405   1.209   6.462
 6858SOL     OW21472   3.906   3.080   4.112
 6858SOL    HW121473   3.844   3.023   4.165
 6858SOL    HW221474   3.952   3.145   4.172
 6859SOL     OW21475   1.853   0.068   0.969
 6859SOL    HW121476   1.813   0.151   0.931
 6859SOL    HW221477   1.919   0.030   0.905
 6860SOL     OW21478   5.421   4.782   1.783
 6860SOL    HW121479   5.340   4.797   1.727
 6860SOL    HW221480   5.413   4.695   1.831
 6861SOL     OW21481   5.846   4.665   0.831
 6861SOL    HW121482   5.899   4.649   0.914
 6861SOL    HW221483   5.848   4.582   0.775
 6862SOL     OW21484   2.707   4.972   4.811
 6862SOL    HW121485   2.753   5.012   4.890
 6862SOL    HW221486   2.680   4.878   4.832
 6863SOL     OW21487   5.909   1.160   4.615
 6863SOL    HW121488   5.943   1.088   4.675
 6863SOL    HW221489   5.977   1.179   4.544
 6864SOL     OW21490   3.625   6.019   3.874
 6864SOL    HW121491   3.590   6.048   3.784
 6864SOL    HW221492   3.673   5.932   3.864
 6865SOL     OW21493   6.439   4.424   3.828
 6865SOL    HW121494   6.431   4.401   3.731
 6865SOL    HW221495   6.506   4.498   3.839
 6866SOL     OW21496   6.301   4.027   2.240
 6866SOL    HW121497   6.274   4.052   2.147
 6866SOL    HW221498   6.220   4.018   2.297
 6867SOL     OW21499   1.480   3.964   1.237
 6867SOL    HW121500   1.560   3.948   1.179
 6867SOL    HW221501   1.463   4.062   1.246
 6868SOL     OW21502   1.753   6.031   4.576
 6868SOL    HW121503   1.665   6.065   4.610
 6868SOL    HW221504   1.797   5.976   4.647
 6869SOL     OW21505   5.834   3.460   4.768
 6869SOL    HW121506   5.924   3.419   4.783
 6869SOL    HW221507   5.784   3.463   4.855
 6870SOL     OW21508   5.982   3.417   3.155
 6870SOL    HW121509   5.932   3.483   3.100
 6870SOL    HW221510   6.001   3.456   3.245
 6871SOL     OW21511   6.224   5.157   1.870
 6871SOL    HW121512   6.285   5.079   1.891
 6871SOL    HW221513   6.137   5.122   1.837
 6872SOL     OW21514   1.813   3.453   0.837
 6872SOL    HW121515   1.748   3.400   0.783
 6872SOL    HW221516   1.777   3.466   0.930
 6873SOL     OW21517   6.028   3.290   6.139
 6873SOL    HW121518   5.942   3.336   6.163
 6873SOL    HW221519   6.015   3.191   6.143
 6874SOL     OW21520   0.340   4.138   3.128
 6874SOL    HW121521   0.283   4.066   3.167
 6874SOL    HW221522   0.314   4.226   3.169
 6875SOL     OW21523   1.275   2.140   3.537
 6875SOL    HW121524   1.369   2.167   3.554
 6875SOL    HW221525   1.265   2.111   3.442
 6876SOL     OW21526   3.588   5.339   6.659
 6876SOL    HW121527   3.557   5.418   6.712
 6876SOL    HW221528   3.629   5.271   6.721
 6877SOL     OW21529   2.877   4.173   0.091
 6877SOL    HW121530   2.860   4.095   0.150
 6877SOL    HW221531   2.970   4.167   0.054
 6878SOL     OW21532   1.881   1.693   5.917
 6878SOL    HW121533   1.974   1.703   5.953
 6878SOL    HW221534   1.829   1.631   5.977
 6879SOL     OW21535   0.383   2.062   0.628
 6879SOL    HW121536   0.353   1.995   0.560
 6879SOL    HW221537   0.305   2.091   0.683
 6880SOL     OW21538   2.089   3.412   4.892
 6880SOL    HW121539   2.127   3.351   4.823
 6880SOL    HW221540   1.995   3.436   4.868
 6881SOL     OW21541   7.015   4.654   2.001
 6881SOL    HW121542   0.033   4.574   2.043
 6881SOL    HW221543   6.962   4.627   1.921
 6882SOL     OW21544   2.218   0.375   5.841
 6882SOL    HW121545   2.181   0.462   5.810
 6882SOL    HW221546   2.268   0.388   5.927
 6883SOL     OW21547   3.409   0.622   1.228
 6883SOL    HW121548   3.357   0.541   1.252
 6883SOL    HW221549   3.401   0.640   1.130
 6884SOL     OW21550   2.209   4.372   4.015
 6884SOL    HW121551   2.191   4.447   4.078
 6884SOL    HW221552   2.289   4.394   3.959
 6885SOL     OW21553   2.687   5.502   3.632
 6885SOL    HW121554   2.721   5.408   3.628
 6885SOL    HW221555   2.751   5.558   3.686
 6886SOL     OW21556   5.800   1.006   1.886
 6886SOL    HW121557   5.874   1.065   1.918
 6886SOL    HW221558   5.836   0.915   1.867
 6887SOL     OW21559   5.353   0.847   5.412
 6887SOL    HW121560   5.405   0.930   5.391
 6887SOL    HW221561   5.291   0.826   5.336
 6888SOL     OW21562   5.663   0.063   5.875
 6888SOL    HW121563   5.673   0.029   5.968
 6888SOL    HW221564   5.737   0.029   5.818
 6889SOL     OW21565   1.055   3.080   5.876
 6889SOL    HW121566   1.010   3.141   5.811
 6889SOL    HW221567   1.154   3.090   5.870
 6890SOL     OW21568   1.874   0.408   0.650
 6890SOL    HW121569   1.946   0.471   0.620
 6890SOL    HW221570   1.886   0.320   0.605
 6891SOL     OW21571   2.075   3.744   4.669
 6891SOL    HW121572   2.109   3.747   4.763
 6891SOL    HW221573   2.013   3.821   4.653
 6892SOL     OW21574   4.409   0.129   4.288
 6892SOL    HW121575   4.379   0.098   4.198
 6892SOL    HW221576   4.393   0.227   4.297
 6893SOL     OW21577   5.311   6.320   2.221
 6893SOL    HW121578   5.232   6.317   2.284
 6893SOL    HW221579   5.371   6.395   2.248
 6894SOL     OW21580   6.217   5.738   0.896
 6894SOL    HW121581   6.294   5.726   0.833
 6894SOL    HW221582   6.133   5.708   0.851
 6895SOL     OW21583   3.060   4.833   6.776
 6895SOL    HW121584   3.032   4.738   6.788
 6895SOL    HW221585   3.063   4.855   6.679
 6896SOL     OW21586   4.430   0.156   3.670
 6896SOL    HW121587   4.422   0.114   3.580
 6896SOL    HW221588   4.343   0.147   3.719
 6897SOL     OW21589   2.819   3.371   0.372
 6897SOL    HW121590   2.743   3.385   0.308
 6897SOL    HW221591   2.810   3.282   0.417
 6898SOL     OW21592   4.509   1.715   2.118
 6898SOL    HW121593   4.507   1.668   2.030
 6898SOL    HW221594   4.471   1.807   2.108
 6899SOL     OW21595   4.977   0.025   6.722
 6899SOL    HW121596   4.967   6.972   6.785
 6899SOL    HW221597   5.057   0.079   6.747
 6900SOL     OW21598   6.285   0.862   6.405
 6900SOL    HW121599   6.188   0.842   6.398
 6900SOL    HW221600   6.312   0.925   6.332
 6901SOL     OW21601   0.442   0.052   6.446
 6901SOL    HW121602   0.377   0.072   6.372
 6901SOL    HW221603   0.392   0.021   6.526
 6902SOL     OW21604   6.951   6.456   0.395
 6902SOL    HW121605   6.903   6.383   0.445
 6902SOL    HW221606   7.015   6.501   0.457
 6903SOL     OW21607   3.638   3.639   0.055
 6903SOL    HW121608   3.641   3.607   0.149
 6903SOL    HW221609   3.676   3.731   0.049
 6904SOL     OW21610   6.786   0.986   3.334
 6904SOL    HW121611   6.855   0.956   3.401
 6904SOL    HW221612   6.705   1.018   3.383
 6905SOL     OW21613   5.839   6.401   0.236
 6905SOL    HW121614   5.916   6.455   0.202
 6905SOL    HW221615   5.852   6.383   0.334
 6906SOL     OW21616   3.871   1.440   4.509
 6906SOL    HW121617   3.884   1.347   4.541
 6906SOL    HW221618   3.855   1.439   4.410
 6907SOL     OW21619   3.806   2.152   0.538
 6907SOL    HW121620   3.905   2.150   0.526
 6907SOL    HW221621   3.782   2.222   0.606
 6908SOL     OW21622   1.535   0.271   5.157
 6908SOL    HW121623   1.456   0.280   5.217
 6908SOL    HW221624   1.617   0.254   5.212
 6909SOL     OW21625   4.489   4.630   0.843
 6909SOL    HW121626   4.475   4.728   0.853
 6909SOL    HW221627   4.534   4.594   0.925
 6910SOL     OW21628   6.458   1.721   2.966
 6910SOL    HW121629   6.416   1.634   2.941
 6910SOL    HW221630   6.420   1.794   2.909
 6911SOL     OW21631   4.567   0.380   3.541
 6911SOL    HW121632   4.511   0.311   3.587
 6911SOL    HW221633   4.532   0.395   3.448
 6912SOL     OW21634   4.800   4.587   1.888
 6912SOL    HW121635   4.728   4.525   1.857
 6912SOL    HW221636   4.888   4.557   1.851
 6913SOL     OW21637   5.316   4.344   5.604
 6913SOL    HW121638   5.314   4.398   5.519
 6913SOL    HW221639   5.250   4.269   5.597
 6914SOL     OW21640   5.775   5.434   6.962
 6914SOL    HW121641   5.715   5.510   6.937
 6914SOL    HW221642   5.745   5.395   0.025
 6915SOL     OW21643   0.229   4.971   2.058
 6915SOL    HW121644   0.158   5.020   2.109
 6915SOL    HW221645   0.214   4.983   1.960
 6916SOL     OW21646   6.463   4.316   7.019
 6916SOL    HW121647   6.382   4.273   0.035
 6916SOL    HW221648   6.464   4.299   6.920
 6917SOL     OW21649   4.414   5.089   6.896
 6917SOL    HW121650   4.348   5.048   6.833
 6917SOL    HW221651   4.365   5.129   6.974
 6918SOL     OW21652   0.426   4.336   4.084
 6918SOL    HW121653   0.370   4.318   4.003
 6918SOL    HW221654   0.450   4.434   4.086
 6919SOL     OW21655   1.760   5.429   2.416
 6919SOL    HW121656   1.789   5.460   2.507
 6919SOL    HW221657   1.793   5.336   2.401
 6920SOL     OW21658   5.088   5.053   5.905
 6920SOL    HW121659   5.113   4.990   5.979
 6920SOL    HW221660   5.097   5.147   5.938
 6921SOL     OW21661   5.715   5.790   3.233
 6921SOL    HW121662   5.719   5.878   3.280
 6921SOL    HW221663   5.767   5.722   3.284
 6922SOL     OW21664   1.854   5.741   0.053
 6922SOL    HW121665   1.772   5.744   7.020
 6922SOL    HW221666   1.916   5.815   0.027
 6923SOL     OW21667   5.311   6.487   3.962
 6923SOL    HW121668   5.333   6.583   3.946
 6923SOL    HW221669   5.242   6.481   4.034
 6924SOL     OW21670   0.660   3.974   6.968
 6924SOL    HW121671   0.627   3.886   6.936
 6924SOL    HW221672   0.591   4.044   6.948
 6925SOL     OW21673   4.104   6.393   4.072
 6925SOL    HW121674   4.129   6.448   3.993
 6925SOL    HW221675   4.013   6.353   4.059
 6926SOL     OW21676   3.435   3.497   3.206
 6926SOL    HW121677   3.384   3.514   3.122
 6926SOL    HW221678   3.372   3.478   3.281
 6927SOL     OW21679   5.438   3.085   6.004
 6927SOL    HW121680   5.467   2.995   6.036
 6927SOL    HW221681   5.373   3.074   5.928
 6928SOL     OW21682   5.154   6.908   0.099
 6928SOL    HW121683   5.079   6.971   0.078
 6928SOL    HW221684   5.238   6.940   0.055
 6929SOL     OW21685   4.392   5.906   0.065
 6929SOL    HW121686   4.427   5.928   0.156
 6929SOL    HW221687   4.366   5.991   0.018
 6930SOL     OW21688   0.125   6.501   1.657
 6930SOL    HW121689   0.041   6.503   1.603
 6930SOL    HW221690   0.130   6.584   1.713
 6931SOL     OW21691   0.908   0.702   1.634
 6931SOL    HW121692   0.847   0.626   1.610
 6931SOL    HW221693   0.856   0.787   1.633
 6932SOL     OW21694   3.113   0.976   0.258
 6932SOL    HW121695   3.211   0.961   0.272
 6932SOL    HW221696   3.076   1.027   0.335
 6933SOL     OW21697   3.749   5.955   4.924
 6933SOL    HW121698   3.726   5.861   4.898
 6933SOL    HW221699   3.665   6.004   4.950
 6934SOL     OW21700   5.436   3.788   6.285
 6934SOL    HW121701   5.516   3.778   6.345
 6934SOL    HW221702   5.445   3.723   6.209
 6935SOL     OW21703   4.244   6.584   2.919
 6935SOL    HW121704   4.208   6.638   2.843
 6935SOL    HW221705   4.202   6.614   3.005
 6936SOL     OW21706   6.886   2.132   2.601
 6936SOL    HW121707   6.953   2.204   2.618
 6936SOL    HW221708   6.845   2.147   2.511
 6937SOL     OW21709   5.236   6.775   6.790
 6937SOL    HW121710   5.274   6.733   6.707
 6937SOL    HW221711   5.302   6.840   6.828
 6938SOL     OW21712   4.971   3.757   5.478
 6938SOL    HW121713   5.012   3.722   5.562
 6938SOL    HW221714   5.023   3.836   5.446
 6939SOL     OW21715   6.968   5.250   3.119
 6939SOL    HW121716   7.001   5.211   3.205
 6939SOL    HW221717   6.956   5.349   3.131
 6940SOL     OW21718   4.290   1.038   0.943
 6940SOL    HW121719   4.359   0.977   0.904
 6940SOL    HW221720   4.225   0.984   0.997
 6941SOL     OW21721   4.041   3.112   2.399
 6941SOL    HW121722   4.044   3.211   2.412
 6941SOL    HW221723   4.063   3.066   2.486
 6942SOL     OW21724   0.519   3.148   1.385
 6942SOL    HW121725   0.593   3.081   1.377
 6942SOL    HW221726   0.515   3.183   1.478
 6943SOL     OW21727   4.940   6.557   6.921
 6943SOL    HW121728   4.845   6.558   6.890
 6943SOL    HW221729   4.991   6.488   6.869
 6944SOL     OW21730   1.046   4.840   5.457
 6944SOL    HW121731   0.949   4.824   5.472
 6944SOL    HW221732   1.083   4.894   5.532
 6945SOL     OW21733   6.283   2.988   0.066
 6945SOL    HW121734   6.291   3.084   0.037
 6945SOL    HW221735   6.371   2.943   0.060
 6946SOL     OW21736   6.435   5.328   2.373
 6946SOL    HW121737   6.406   5.275   2.453
 6946SOL    HW221738   6.405   5.282   2.289
 6947SOL     OW21739   4.099   0.148   4.684
 6947SOL    HW121740   4.124   0.078   4.617
 6947SOL    HW221741   4.103   0.109   4.776
 6948SOL     OW21742   5.643   0.781   0.456
 6948SOL    HW121743   5.570   0.793   0.389
 6948SOL    HW221744   5.726   0.749   0.411
 6949SOL     OW21745   5.143   6.616   3.452
 6949SOL    HW121746   5.066   6.674   3.478
 6949SOL    HW221747   5.221   6.635   3.512
 6950SOL     OW21748   2.548   0.102   3.153
 6950SOL    HW121749   2.552   0.015   3.203
 6950SOL    HW221750   2.639   0.127   3.122
 6951SOL     OW21751   6.235   6.438   5.975
 6951SOL    HW121752   6.295   6.515   5.953
 6951SOL    HW221753   6.289   6.361   6.009
 6952SOL     OW21754   0.010   5.325   3.615
 6952SOL    HW121755   6.992   5.244   3.654
 6952SOL    HW221756   6.972   5.403   3.623
 6953SOL     OW21757   5.395   0.474   6.033
 6953SOL    HW121758   5.335   0.458   5.954
 6953SOL    HW221759   5.489   0.484   6.001
 6954SOL     OW21760   1.027   3.739   3.943
 6954SOL    HW121761   0.928   3.732   3.956
 6954SOL    HW221762   1.050   3.830   3.909
 6955SOL     OW21763   0.116   0.362   1.677
 6955SOL    HW121764   0.150   0.290   1.616
 6955SOL    HW221765   0.036   0.406   1.635
 6956SOL     OW21766   4.193   6.108   2.699
 6956SOL    HW121767   4.216   6.067   2.610
 6956SOL    HW221768   4.266   6.089   2.764
 6957SOL     OW21769   6.994   4.445   1.140
 6957SOL    HW121770   0.060   4.472   1.108
 6957SOL    HW221771   6.929   4.450   1.064
 6958SOL     OW21772   2.946   3.786   5.690
 6958SOL    HW121773   2.987   3.821   5.774
 6958SOL    HW221774   2.999   3.817   5.611
 6959SOL     OW21775   1.799   1.461   4.731
 6959SOL    HW121776   1.793   1.522   4.809
 6959SOL    HW221777   1.815   1.515   4.648
 6960SOL     OW21778   0.573   5.284   0.472
 6960SOL    HW121779   0.600   5.270   0.567
 6960SOL    HW221780   0.647   5.330   0.423
 6961SOL     OW21781   0.492   2.714   4.323
 6961SOL    HW121782   0.573   2.672   4.364
 6961SOL    HW221783   0.505   2.722   4.225
 6962SOL     OW21784   5.508   5.236   2.648
 6962SOL    HW121785   5.410   5.235   2.624
 6962SOL    HW221786   5.562   5.209   2.569
 6963SOL     OW21787   0.073   5.518   1.137
 6963SOL    HW121788   7.016   5.471   1.102
 6963SOL    HW221789   0.089   5.489   1.231
 6964SOL     OW21790   5.026   4.932   4.973
 6964SOL    HW121791   4.978   4.865   5.029
 6964SOL    HW221792   4.970   5.014   4.963
 6965SOL     OW21793   0.621   3.737   6.032
 6965SOL    HW121794   0.586   3.666   6.092
 6965SOL    HW221795   0.675   3.696   5.959
 6966SOL     OW21796   5.530   2.579   2.794
 6966SOL    HW121797   5.564   2.656   2.848
 6966SOL    HW221798   5.545   2.597   2.697
 6967SOL     OW21799   1.515   1.829   4.917
 6967SOL    HW121800   1.497   1.923   4.945
 6967SOL    HW221801   1.429   1.778   4.914
 6968SOL     OW21802   3.596   6.289   1.728
 6968SOL    HW121803   3.526   6.238   1.779
 6968SOL    HW221804   3.553   6.340   1.654
 6969SOL     OW21805   4.109   1.913   2.101
 6969SOL    HW121806   4.129   1.894   2.197
 6969SOL    HW221807   4.043   1.988   2.095
 6970SOL     OW21808   4.161   3.976   0.551
 6970SOL    HW121809   4.213   4.057   0.580
 6970SOL    HW221810   4.080   3.966   0.609
 6971SOL     OW21811   6.161   3.645   2.476
 6971SOL    HW121812   6.251   3.602   2.463
 6971SOL    HW221813   6.119   3.661   2.387
 6972SOL     OW21814   6.261   4.744   4.457
 6972SOL    HW121815   6.264   4.649   4.426
 6972SOL    HW221816   6.318   4.754   4.538
 6973SOL     OW21817   1.338   3.921   4.968
 6973SOL    HW121818   1.333   3.870   4.882
 6973SOL    HW221819   1.246   3.939   5.001
 6974SOL     OW21820   3.564   2.978   3.449
 6974SOL    HW121821   3.585   2.907   3.382
 6974SOL    HW221822   3.650   3.020   3.480
 6975SOL     OW21823   3.169   6.265   5.731
 6975SOL    HW121824   3.149   6.167   5.722
 6975SOL    HW221825   3.091   6.317   5.697
 6976SOL     OW21826   3.896   3.744   5.989
 6976SOL    HW121827   3.865   3.818   6.048
 6976SOL    HW221828   3.844   3.746   5.903
 6977SOL     OW21829   5.665   2.029   1.402
 6977SOL    HW121830   5.726   1.991   1.472
 6977SOL    HW221831   5.571   2.026   1.435
 6978SOL     OW21832   6.431   1.479   1.561
 6978SOL    HW121833   6.413   1.395   1.510
 6978SOL    HW221834   6.415   1.462   1.659
 6979SOL     OW21835   1.763   4.713   1.528
 6979SOL    HW121836   1.726   4.800   1.495
 6979SOL    HW221837   1.689   4.646   1.535
 6980SOL     OW21838   1.554   0.811   4.148
 6980SOL    HW121839   1.514   0.895   4.113
 6980SOL    HW221840   1.530   0.801   4.245
 6981SOL     OW21841   2.459   3.489   6.675
 6981SOL    HW121842   2.364   3.469   6.701
 6981SOL    HW221843   2.464   3.506   6.577
 6982SOL     OW21844   1.383   1.762   3.699
 6982SOL    HW121845   1.425   1.782   3.611
 6982SOL    HW221846   1.447   1.785   3.773
 6983SOL     OW21847   6.444   2.254   3.345
 6983SOL    HW121848   6.411   2.187   3.279
 6983SOL    HW221849   6.421   2.223   3.438
 6984SOL     OW21850   2.663   1.666   4.961
 6984SOL    HW121851   2.632   1.595   4.897
 6984SOL    HW221852   2.607   1.748   4.950
 6985SOL     OW21853   3.561   5.255   2.569
 6985SOL    HW121854   3.528   5.274   2.477
 6985SOL    HW221855   3.564   5.156   2.584
 6986SOL     OW21856   1.745   6.111   6.060
 6986SOL    HW121857   1.836   6.078   6.086
 6986SOL    HW221858   1.677   6.074   6.122
 6987SOL     OW21859   1.038   2.014   6.478
 6987SOL    HW121860   1.005   2.096   6.524
 6987SOL    HW221861   1.054   2.033   6.381
 6988SOL     OW21862   5.925   0.829   4.996
 6988SOL    HW121863   5.832   0.803   5.025
 6988SOL    HW221864   5.957   0.905   5.051
 6989SOL     OW21865   0.825   2.396   3.351
 6989SOL    HW121866   0.741   2.442   3.323
 6989SOL    HW221867   0.892   2.464   3.382
 6990SOL     OW21868   5.394   2.005   0.326
 6990SOL    HW121869   5.368   1.962   0.412
 6990SOL    HW221870   5.417   1.935   0.258
 6991SOL     OW21871   2.641   4.694   4.862
 6991SOL    HW121872   2.571   4.627   4.885
 6991SOL    HW221873   2.723   4.676   4.917
 6992SOL     OW21874   5.795   5.871   5.311
 6992SOL    HW121875   5.720   5.922   5.267
 6992SOL    HW221876   5.784   5.874   5.410
 6993SOL     OW21877   6.216   6.961   3.007
 6993SOL    HW121878   6.123   6.981   2.975
 6993SOL    HW221879   6.235   7.018   3.088
 6994SOL     OW21880   0.546   2.967   4.748
 6994SOL    HW121881   0.457   2.996   4.783
 6994SOL    HW221882   0.580   3.033   4.682
 6995SOL     OW21883   6.462   4.947   4.690
 6995SOL    HW121884   6.398   5.003   4.636
 6995SOL    HW221885   6.421   4.927   4.779
 6996SOL     OW21886   2.390   1.316   5.221
 6996SOL    HW121887   2.410   1.241   5.283
 6996SOL    HW221888   2.475   1.346   5.177
 6997SOL     OW21889   5.121   6.022   5.485
 6997SOL    HW121890   5.133   6.078   5.403
 6997SOL    HW221891   5.172   6.064   5.561
 6998SOL     OW21892   1.919   2.881   1.467
 6998SOL    HW121893   1.970   2.804   1.506
 6998SOL    HW221894   1.977   2.929   1.400
 6999SOL     OW21895   2.507   1.849   6.829
 6999SOL    HW121896   2.441   1.774   6.829
 6999SOL    HW221897   2.529   1.874   6.923
 7000SOL     OW21898   0.239   6.505   2.642
 7000SOL    HW121899   0.236   6.409   2.612
 7000SOL    HW221900   0.333   6.537   2.641
 7001SOL     OW21901   2.684   2.835   5.521
 7001SOL    HW121902   2.609   2.782   5.561
 7001SOL    HW221903   2.647   2.917   5.477
 7002SOL     OW21904   2.655   4.907   3.168
 7002SOL    HW121905   2.700   4.963   3.098
 7002SOL    HW221906   2.717   4.835   3.199
 7003SOL     OW21907   3.885   6.633   6.976
 7003SOL    HW121908   3.852   6.652   0.044
 7003SOL    HW221909   3.985   6.626   6.977
 7004SOL     OW21910   1.815   5.126   1.533
 7004SOL    HW121911   1.778   5.036   1.557
 7004SOL    HW221912   1.763   5.197   1.581
 7005SOL     OW21913   0.652   6.403   5.288
 7005SOL    HW121914   0.644   6.353   5.202
 7005SOL    HW221915   0.729   6.366   5.340
 7006SOL     OW21916   5.706   4.969   4.748
 7006SOL    HW121917   5.671   4.961   4.841
 7006SOL    HW221918   5.741   5.062   4.734
 7007SOL     OW21919   5.372   6.379   2.898
 7007SOL    HW121920   5.381   6.363   2.800
 7007SOL    HW221921   5.298   6.445   2.914
 7008SOL     OW21922   2.435   5.309   4.162
 7008SOL    HW121923   2.415   5.249   4.240
 7008SOL    HW221924   2.512   5.368   4.185
 7009SOL     OW21925   5.833   5.052   2.195
 7009SOL    HW121926   5.745   5.031   2.152
 7009SOL    HW221927   5.906   5.001   2.148
 7010SOL     OW21928   4.556   4.209   5.939
 7010SOL    HW121929   4.577   4.222   6.036
 7010SOL    HW221930   4.457   4.218   5.925
 7011SOL     OW21931   1.574   0.522   6.082
 7011SOL    HW121932   1.489   0.515   6.134
 7011SOL    HW221933   1.627   0.600   6.116
 7012SOL     OW21934   1.940   0.919   2.330
 7012SOL    HW121935   1.991   0.895   2.412
 7012SOL    HW221936   1.998   0.976   2.271
 7013SOL     OW21937   0.003   6.802   0.614
 7013SOL    HW121938   6.987   6.879   0.663
 7013SOL    HW221939   0.089   6.829   0.572
 7014SOL     OW21940   4.504   3.849   1.178
 7014SOL    HW121941   4.470   3.909   1.106
 7014SOL    HW221942   4.503   3.898   1.265
 7015SOL     OW21943   5.116   4.596   2.021
 7015SOL    HW121944   5.115   4.641   2.111
 7015SOL    HW221945   5.102   4.665   1.950
 7016SOL     OW21946   3.547   4.925   2.206
 7016SOL    HW121947   3.571   4.868   2.128
 7016SOL    HW221948   3.450   4.912   2.228
 7017SOL     OW21949   2.464   0.304   2.271
 7017SOL    HW121950   2.469   0.327   2.368
 7017SOL    HW221951   2.547   0.255   2.244
 7018SOL     OW21952   6.491   4.640   4.226
 7018SOL    HW121953   6.469   4.703   4.301
 7018SOL    HW221954   6.590   4.626   4.223
 7019SOL     OW21955   2.970   4.337   6.478
 7019SOL    HW121956   3.012   4.348   6.568
 7019SOL    HW221957   2.881   4.292   6.489
 7020SOL     OW21958   6.241   6.887   6.578
 7020SOL    HW121959   6.314   6.933   6.527
 7020SOL    HW221960   6.260   6.789   6.581
 7021SOL     OW21961   2.505   0.775   5.755
 7021SOL    HW121962   2.459   0.795   5.668
 7021SOL    HW221963   2.594   0.733   5.737
 7022SOL     OW21964   5.032   4.315   0.335
 7022SOL    HW121965   4.938   4.328   0.305
 7022SOL    HW221966   5.093   4.365   0.274
 7023SOL     OW21967   0.584   2.515   3.467
 7023SOL    HW121968   0.581   2.609   3.434
 7023SOL    HW221969   0.653   2.507   3.539
 7024SOL     OW21970   1.428   5.558   6.114
 7024SOL    HW121971   1.424   5.460   6.134
 7024SOL    HW221972   1.481   5.604   6.185
 7025SOL     OW21973   3.628   1.622   0.408
 7025SOL    HW121974   3.612   1.681   0.329
 7025SOL    HW221975   3.635   1.678   0.491
 7026SOL     OW21976   2.939   1.594   2.173
 7026SOL    HW121977   2.952   1.526   2.244
 7026SOL    HW221978   3.027   1.636   2.151
 7027SOL     OW21979   2.707   5.544   2.380
 7027SOL    HW121980   2.737   5.633   2.344
 7027SOL    HW221981   2.624   5.556   2.433
 7028SOL     OW21982   5.800   6.223   4.724
 7028SOL    HW121983   5.873   6.155   4.725
 7028SOL    HW221984   5.711   6.177   4.722
 7029SOL     OW21985   3.614   7.022   0.045
 7029SOL    HW121986   3.660   0.081   0.073
 7029SOL    HW221987   3.669   6.975   7.000
 7030SOL     OW21988   7.018   2.498   5.797
 7030SOL    HW121989   6.968   2.447   5.727
 7030SOL    HW221990   0.000   2.594   5.771
 7031SOL     OW21991   1.980   5.940   3.541
 7031SOL    HW121992   1.930   5.865   3.583
 7031SOL    HW221993   1.923   6.021   3.537
 7032SOL     OW21994   3.477   6.866   3.690
 7032SOL    HW121995   3.394   6.820   3.721
 7032SOL    HW221996   3.496   6.840   3.595
 7033SOL     OW21997   6.863   1.680   3.877
 7033SOL    HW121998   6.787   1.644   3.824
 7033SOL    HW221999   6.923   1.734   3.817
 7034SOL     OW22000   6.099   0.763   2.790
 7034SOL    HW122001   6.025   0.700   2.767
 7034SOL    HW222002   6.077   0.854   2.753
 7035SOL     OW22003   1.023   6.793   2.042
 7035SOL    HW122004   0.989   6.886   2.051
 7035SOL    HW222005   1.006   6.760   1.950
 7036SOL     OW22006   6.472   6.814   1.682
 7036SOL    HW122007   6.571   6.818   1.667
 7036SOL    HW222008   6.434   6.734   1.634
 7037SOL     OW22009   0.204   6.675   6.218
 7037SOL    HW122010   0.302   6.694   6.226
 7037SOL    HW222011   0.172   6.701   6.127
 7038SOL     OW22012   1.871   3.919   4.590
 7038SOL    HW122013   1.801   3.893   4.657
 7038SOL    HW222014   1.831   3.916   4.498
 7039SOL     OW22015   2.523   6.285   0.551
 7039SOL    HW122016   2.484   6.259   0.463
 7039SOL    HW222017   2.523   6.384   0.560
 7040SOL     OW22018   4.752   2.558   5.205
 7040SOL    HW122019   4.714   2.489   5.143
 7040SOL    HW222020   4.842   2.528   5.237
 7041SOL     OW22021   0.865   1.934   3.227
 7041SOL    HW122022   0.788   1.872   3.242
 7041SOL    HW222023   0.884   1.984   3.312
 7042SOL     OW22024   5.446   5.382   6.986
 7042SOL    HW122025   5.475   5.323   6.911
 7042SOL    HW222026   5.465   5.477   6.963
 7043SOL     OW22027   2.273   2.573   3.099
 7043SOL    HW122028   2.322   2.640   3.154
 7043SOL    HW222029   2.215   2.517   3.158
 7044SOL     OW22030   5.012   4.278   3.009
 7044SOL    HW122031   5.088   4.275   3.073
 7044SOL    HW222032   4.993   4.185   2.976
 7045SOL     OW22033   4.253   6.052   1.857
 7045SOL    HW122034   4.189   6.087   1.789
 7045SOL    HW222035   4.266   5.954   1.842
 7046SOL     OW22036   3.561   1.975   3.429
 7046SOL    HW122037   3.608   2.007   3.347
 7046SOL    HW222038   3.498   1.901   3.404
 7047SOL     OW22039   0.844   2.536   2.898
 7047SOL    HW122040   0.801   2.458   2.852
 7047SOL    HW222041   0.846   2.614   2.836
 7048SOL     OW22042   0.350   6.142   1.394
 7048SOL    HW122043   0.273   6.083   1.420
 7048SOL    HW222044   0.434   6.105   1.432
 7049SOL     OW22045   2.218   0.869   0.490
 7049SOL    HW122046   2.263   0.948   0.449
 7049SOL    HW222047   2.180   0.894   0.579
 7050SOL     OW22048   3.770   4.075   3.780
 7050SOL    HW122049   3.851   4.022   3.805
 7050SOL    HW222050   3.729   4.115   3.863
 7051SOL     OW22051   0.463   0.740   1.102
 7051SOL    HW122052   0.363   0.732   1.105
 7051SOL    HW222053   0.496   0.706   1.014
 7052SOL     OW22054   6.107   2.709   4.431
 7052SOL    HW122055   6.180   2.765   4.470
 7052SOL    HW222056   6.032   2.701   4.497
 7053SOL     OW22057   0.684   2.779   5.277
 7053SOL    HW122058   0.641   2.689   5.278
 7053SOL    HW222059   0.777   2.771   5.241
 7054SOL     OW22060   1.227   6.419   1.449
 7054SOL    HW122061   1.128   6.423   1.435
 7054SOL    HW222062   1.262   6.512   1.466
 7055SOL     OW22063   3.656   6.487   5.228
 7055SOL    HW122064   3.561   6.472   5.255
 7055SOL    HW222065   3.658   6.548   5.148
 7056SOL     OW22066   5.241   5.020   3.584
 7056SOL    HW122067   5.151   5.064   3.579
 7056SOL    HW222068   5.256   4.966   3.501
 7057SOL     OW22069   1.452   4.749   4.560
 7057SOL    HW122070   1.397   4.791   4.632
 7057SOL    HW222071   1.490   4.663   4.593
 7058SOL     OW22072   6.188   5.690   6.165
 7058SOL    HW122073   6.177   5.790   6.165
 7058SOL    HW222074   6.144   5.652   6.084
 7059SOL     OW22075   0.753   0.128   3.135
 7059SOL    HW122076   0.729   0.039   3.174
 7059SOL    HW222077   0.852   0.141   3.140
 7060SOL     OW22078   3.287   0.496   1.875
 7060SOL    HW122079   3.229   0.553   1.816
 7060SOL    HW222080   3.324   0.420   1.822
 7061SOL     OW22081   0.175   2.548   3.683
 7061SOL    HW122082   0.205   2.582   3.594
 7061SOL    HW222083   0.107   2.476   3.671
 7062SOL     OW22084   5.477   1.612   6.283
 7062SOL    HW122085   5.405   1.622   6.215
 7062SOL    HW222086   5.468   1.523   6.329
 7063SOL     OW22087   0.354   0.289   0.965
 7063SOL    HW122088   0.424   0.237   1.014
 7063SOL    HW222089   0.366   0.387   0.984
 7064SOL     OW22090   4.006   2.132   1.740
 7064SOL    HW122091   3.956   2.075   1.805
 7064SOL    HW222092   3.945   2.200   1.700
 7065SOL     OW22093   4.430   3.991   0.738
 7065SOL    HW122094   4.437   3.975   0.640
 7065SOL    HW222095   4.370   4.069   0.755
 7066SOL     OW22096   4.008   0.573   1.012
 7066SOL    HW122097   3.926   0.592   1.067
 7066SOL    HW222098   4.055   0.493   1.050
 7067SOL     OW22099   1.522   1.801   5.300
 7067SOL    HW122100   1.509   1.747   5.384
 7067SOL    HW222101   1.615   1.787   5.266
 7068SOL     OW22102   0.700   4.133   3.281
 7068SOL    HW122103   0.665   4.141   3.187
 7068SOL    HW222104   0.647   4.193   3.341
 7069SOL     OW22105   6.419   2.678   4.169
 7069SOL    HW122106   6.472   2.598   4.199
 7069SOL    HW222107   6.327   2.674   4.210
 7070SOL     OW22108   6.663   6.615   5.073
 7070SOL    HW122109   6.601   6.692   5.067
 7070SOL    HW222110   6.617   6.532   5.039
 7071SOL     OW22111   0.745   6.416   6.008
 7071SOL    HW122112   0.725   6.330   5.961
 7071SOL    HW222113   0.802   6.473   5.950
 7072SOL     OW22114   6.474   6.591   5.995
 7072SOL    HW122115   6.488   6.665   5.929
 7072SOL    HW222116   6.434   6.629   6.079
 7073SOL     OW22117   5.975   0.175   4.537
 7073SOL    HW122118   6.005   0.253   4.482
 7073SOL    HW222119   5.916   0.208   4.611
 7074SOL     OW22120   4.041   3.038   1.291
 7074SOL    HW122121   4.004   2.952   1.254
 7074SOL    HW222122   4.001   3.054   1.381
 7075SOL     OW22123   0.974   6.381   5.112
 7075SOL    HW122124   1.047   6.393   5.180
 7075SOL    HW222125   0.931   6.469   5.094
 7076SOL     OW22126   4.126   2.532   6.938
 7076SOL    HW122127   4.055   2.550   7.006
 7076SOL    HW222128   4.128   2.606   6.872
 7077SOL     OW22129   1.956   5.105   5.667
 7077SOL    HW122130   1.947   5.093   5.766
 7077SOL    HW222131   1.874   5.151   5.632
 7078SOL     OW22132   6.430   0.387   1.658
 7078SOL    HW122133   6.406   0.413   1.752
 7078SOL    HW222134   6.494   0.310   1.660
 7079SOL     OW22135   6.997   6.145   5.254
 7079SOL    HW122136   6.924   6.211   5.271
 7079SOL    HW222137   0.010   6.113   5.341
 7080SOL     OW22138   3.651   2.143   4.171
 7080SOL    HW122139   3.578   2.093   4.219
 7080SOL    HW222140   3.712   2.185   4.238
 7081SOL     OW22141   3.178   0.567   5.963
 7081SOL    HW122142   3.191   0.665   5.975
 7081SOL    HW222143   3.140   0.550   5.872
 7082SOL     OW22144   6.101   5.828   6.541
 7082SOL    HW122145   6.020   5.859   6.492
 7082SOL    HW222146   6.109   5.878   6.627
 7083SOL     OW22147   3.118   1.182   0.055
 7083SOL    HW122148   3.095   1.098   0.105
 7083SOL    HW222149   3.150   1.159   6.988
 7084SOL     OW22150   0.012   6.903   5.658
 7084SOL    HW122151   7.005   6.927   5.567
 7084SOL    HW222152   6.971   6.839   5.700
 7085SOL     OW22153   2.408   0.984   3.159
 7085SOL    HW122154   2.413   1.079   3.130
 7085SOL    HW222155   2.402   0.924   3.079
 7086SOL     OW22156   4.953   1.151   5.994
 7086SOL    HW122157   4.867   1.162   6.043
 7086SOL    HW222158   4.939   1.173   5.897
 7087SOL     OW22159   6.198   4.149   3.639
 7087SOL    HW122160   6.190   4.228   3.579
 7087SOL    HW222161   6.257   4.080   3.596
 7088SOL     OW22162   5.146   2.677   3.531
 7088SOL    HW122163   5.225   2.616   3.528
 7088SOL    HW222164   5.159   2.745   3.604
 7089SOL     OW22165   3.080   2.404   5.964
 7089SOL    HW122166   3.062   2.483   5.905
 7089SOL    HW222167   3.125   2.434   6.048
 7090SOL     OW22168   2.935   1.520   6.511
 7090SOL    HW122169   3.002   1.532   6.438
 7090SOL    HW222170   2.968   1.450   6.574
 7091SOL     OW22171   6.814   2.479   6.962
 7091SOL    HW122172   6.744   2.412   6.986
 7091SOL    HW222173   6.770   2.557   6.918
 7092SOL     OW22174   4.727   2.426   6.128
 7092SOL    HW122175   4.722   2.469   6.218
 7092SOL    HW222176   4.708   2.494   6.057
 7093SOL     OW22177   3.067   3.976   3.720
 7093SOL    HW122178   3.045   4.007   3.628
 7093SOL    HW222179   3.006   3.900   3.745
 7094SOL     OW22180   0.758   5.777   6.010
 7094SOL    HW122181   0.722   5.768   5.917
 7094SOL    HW222182   0.799   5.867   6.022
 7095SOL     OW22183   2.806   2.926   6.937
 7095SOL    HW122184   2.840   2.877   6.856
 7095SOL    HW222185   2.743   2.866   6.987
 7096SOL     OW22186   6.288   0.715   3.962
 7096SOL    HW122187   6.319   0.788   3.900
 7096SOL    HW222188   6.255   0.756   4.047
 7097SOL     OW22189   6.641   0.670   1.823
 7097SOL    HW122190   6.635   0.662   1.724
 7097SOL    HW222191   6.671   0.582   1.862
 7098SOL     OW22192   0.477   6.712   4.305
 7098SOL    HW122193   0.439   6.633   4.259
 7098SOL    HW222194   0.573   6.694   4.328
 7099SOL     OW22195   2.393   0.659   4.572
 7099SOL    HW122196   2.474   0.600   4.565
 7099SOL    HW222197   2.332   0.625   4.643
 7100SOL     OW22198   5.594   3.126   1.130
 7100SOL    HW122199   5.680   3.074   1.132
 7100SOL    HW222200   5.540   3.097   1.051
 7101SOL     OW22201   2.462   0.067   5.148
 7101SOL    HW122202   2.417   7.022   5.203
 7101SOL    HW222203   2.452   0.045   5.051
 7102SOL     OW22204   4.753   0.471   1.032
 7102SOL    HW122205   4.734   0.472   1.130
 7102SOL    HW222206   4.813   0.394   1.010
 7103SOL     OW22207   4.295   5.589   0.830
 7103SOL    HW122208   4.233   5.664   0.807
 7103SOL    HW222209   4.350   5.565   0.749
 7104SOL     OW22210   1.229   3.224   4.681
 7104SOL    HW122211   1.290   3.276   4.621
 7104SOL    HW222212   1.152   3.189   4.628
 7105SOL     OW22213   2.943   2.792   5.356
 7105SOL    HW122214   2.976   2.702   5.328
 7105SOL    HW222215   2.904   2.786   5.448
 7106SOL     OW22216   3.354   2.938   3.088
 7106SOL    HW122217   3.265   2.926   3.046
 7106SOL    HW222218   3.343   2.980   3.179
 7107SOL     OW22219   3.161   0.849   1.028
 7107SOL    HW122220   3.196   0.895   0.946
 7107SOL    HW222221   3.171   0.910   1.106
 7108SOL     OW22222   3.680   6.026   1.437
 7108SOL    HW122223   3.651   5.930   1.440
 7108SOL    HW222224   3.704   6.051   1.343
 7109SOL     OW22225   3.835   0.034   6.429
 7109SOL    HW122226   3.897   7.006   6.370
 7109SOL    HW222227   3.860   0.020   6.525
 7110SOL     OW22228   4.841   5.497   3.946
 7110SOL    HW122229   4.880   5.563   4.011
 7110SOL    HW222230   4.875   5.406   3.968
 7111SOL     OW22231   1.827   2.272   4.752
 7111SOL    HW122232   1.829   2.362   4.795
 7111SOL    HW222233   1.889   2.271   4.673
 7112SOL     OW22234   2.239   5.709   3.727
 7112SOL    HW122235   2.167   5.647   3.757
 7112SOL    HW222236   2.307   5.720   3.800
 7113SOL     OW22237   3.163   4.129   5.115
 7113SOL    HW122238   3.075   4.116   5.161
 7113SOL    HW222239   3.233   4.074   5.161
 7114SOL     OW22240   3.911   6.932   2.025
 7114SOL    HW122241   3.950   6.965   2.111
 7114SOL    HW222242   3.813   6.950   2.025
 7115SOL     OW22243   5.281   2.637   2.085
 7115SOL    HW122244   5.283   2.648   2.184
 7115SOL    HW222245   5.243   2.719   2.042
 7116SOL     OW22246   5.443   3.130   3.327
 7116SOL    HW122247   5.376   3.186   3.278
 7116SOL    HW222248   5.522   3.186   3.350
 7117SOL     OW22249   0.156   6.914   4.568
 7117SOL    HW122250   0.230   6.963   4.615
 7117SOL    HW222251   0.178   6.904   4.471
 7118SOL     OW22252   3.549   4.068   0.676
 7118SOL    HW122253   3.516   3.988   0.726
 7118SOL    HW222254   3.558   4.045   0.579
 7119SOL     OW22255   5.407   1.683   3.316
 7119SOL    HW122256   5.441   1.756   3.257
 7119SOL    HW222257   5.324   1.713   3.362
 7120SOL     OW22258   4.356   1.787   2.838
 7120SOL    HW122259   4.363   1.870   2.894
 7120SOL    HW222260   4.420   1.718   2.873
 7121SOL     OW22261   2.981   6.989   2.403
 7121SOL    HW122262   2.937   6.918   2.348
 7121SOL    HW222263   2.939   6.990   2.494
 7122SOL     OW22264   6.796   0.969   5.919
 7122SOL    HW122265   6.881   1.022   5.917
 7122SOL    HW222266   6.728   1.017   5.975
 7123SOL     OW22267   2.761   4.882   1.273
 7123SOL    HW122268   2.754   4.816   1.198
 7123SOL    HW222269   2.747   4.836   1.360
 7124SOL     OW22270   0.549   3.220   0.484
 7124SOL    HW122271   0.542   3.318   0.465
 7124SOL    HW222272   0.509   3.200   0.574
 7125SOL     OW22273   6.305   6.861   1.235
 7125SOL    HW122274   6.368   6.936   1.257
 7125SOL    HW222275   6.298   6.851   1.136
 7126SOL     OW22276   3.012   4.816   6.472
 7126SOL    HW122277   2.938   4.749   6.470
 7126SOL    HW222278   3.100   4.769   6.474
 7127SOL     OW22279   2.667   5.872   4.302
 7127SOL    HW122280   2.688   5.968   4.320
 7127SOL    HW222281   2.568   5.859   4.300
 7128SOL     OW22282   2.391   5.735   0.193
 7128SOL    HW122283   2.347   5.739   0.283
 7128SOL    HW222284   2.337   5.678   0.131
 7129SOL     OW22285   3.444   0.501   0.554
 7129SOL    HW122286   3.391   0.505   0.639
 7129SOL    HW222287   3.532   0.456   0.572
 7130SOL     OW22288   3.179   4.878   5.043
 7130SOL    HW122289   3.258   4.854   4.986
 7130SOL    HW222290   3.096   4.876   4.987
 7131SOL     OW22291   3.078   1.369   0.656
 7131SOL    HW122292   3.011   1.436   0.624
 7131SOL    HW222293   3.064   1.352   0.754
 7132SOL     OW22294   2.894   4.214   0.579
 7132SOL    HW122295   2.926   4.291   0.524
 7132SOL    HW222296   2.796   4.224   0.596
 7133SOL     OW22297   4.609   5.454   3.815
 7133SOL    HW122298   4.668   5.487   3.889
 7133SOL    HW222299   4.663   5.438   3.733
 7134SOL     OW22300   6.033   5.720   2.085
 7134SOL    HW122301   6.062   5.796   2.144
 7134SOL    HW222302   5.954   5.675   2.126
 7135SOL     OW22303   1.862   1.709   3.288
 7135SOL    HW122304   1.828   1.622   3.325
 7135SOL    HW222305   1.829   1.720   3.195
 7136SOL     OW22306   1.550   3.093   1.120
 7136SOL    HW122307   1.535   3.000   1.154
 7136SOL    HW222308   1.635   3.128   1.158
 7137SOL     OW22309   4.868   0.482   6.163
 7137SOL    HW122310   4.797   0.447   6.103
 7137SOL    HW222311   4.951   0.426   6.153
 7138SOL     OW22312   2.010   2.809   0.533
 7138SOL    HW122313   2.014   2.714   0.564
 7138SOL    HW222314   2.103   2.841   0.513
 7139SOL     OW22315   4.761   4.045   2.525
 7139SOL    HW122316   4.717   4.130   2.495
 7139SOL    HW222317   4.785   3.989   2.445
 7140SOL     OW22318   6.022   3.146   4.390
 7140SOL    HW122319   5.991   3.145   4.485
 7140SOL    HW222320   5.987   3.065   4.343
 7141SOL     OW22321   2.762   5.979   0.956
 7141SOL    HW122322   2.755   5.908   1.026
 7141SOL    HW222323   2.782   6.067   0.999
 7142SOL     OW22324   4.536   6.952   3.166
 7142SOL    HW122325   4.444   6.976   3.135
 7142SOL    HW222326   4.598   6.947   3.087
 7143SOL     OW22327   1.599   2.647   6.070
 7143SOL    HW122328   1.697   2.665   6.062
 7143SOL    HW222329   1.584   2.563   6.123
 7144SOL     OW22330   2.068   1.506   3.832
 7144SOL    HW122331   1.979   1.476   3.867
 7144SOL    HW222332   2.055   1.570   3.757
 7145SOL     OW22333   4.757   6.346   6.139
 7145SOL    HW122334   4.671   6.395   6.125
 7145SOL    HW222335   4.831   6.411   6.156
 7146SOL     OW22336   2.112   0.547   6.818
 7146SOL    HW122337   2.110   0.641   6.852
 7146SOL    HW222338   2.198   0.504   6.847
 7147SOL     OW22339   6.583   6.334   2.815
 7147SOL    HW122340   6.571   6.433   2.818
 7147SOL    HW222341   6.514   6.290   2.873
 7148SOL     OW22342   6.734   6.335   1.568
 7148SOL    HW122343   6.715   6.237   1.573
 7148SOL    HW222344   6.687   6.373   1.488
 7149SOL     OW22345   6.791   6.697   3.539
 7149SOL    HW122346   6.717   6.641   3.502
 7149SOL    HW222347   6.755   6.786   3.567
 7150SOL     OW22348   4.623   2.234   1.751
 7150SOL    HW122349   4.704   2.228   1.809
 7150SOL    HW222350   4.579   2.323   1.763
 7151SOL     OW22351   1.445   5.960   0.682
 7151SOL    HW122352   1.460   5.992   0.776
 7151SOL    HW222353   1.383   5.882   0.682
 7152SOL     OW22354   0.378   2.285   5.174
 7152SOL    HW122355   0.370   2.293   5.274
 7152SOL    HW222356   0.414   2.371   5.137
 7153SOL     OW22357   3.172   6.201   3.164
 7153SOL    HW122358   3.245   6.133   3.173
 7153SOL    HW222359   3.084   6.155   3.168
 7154SOL     OW22360   4.110   6.722   5.056
 7154SOL    HW122361   4.081   6.666   5.134
 7154SOL    HW222362   4.171   6.668   4.998
 7155SOL     OW22363   2.629   5.503   1.791
 7155SOL    HW122364   2.626   5.548   1.880
 7155SOL    HW222365   2.565   5.427   1.790
 7156SOL     OW22366   0.395   4.229   4.562
 7156SOL    HW122367   0.427   4.278   4.480
 7156SOL    HW222368   0.461   4.159   4.587
 7157SOL     OW22369   6.319   4.414   1.286
 7157SOL    HW122370   6.309   4.320   1.320
 7157SOL    HW222371   6.244   4.434   1.223
 7158SOL     OW22372   1.116   0.102   2.795
 7158SOL    HW122373   1.191   0.126   2.857
 7158SOL    HW222374   1.080   0.012   2.819
 7159SOL     OW22375   0.124   4.338   3.010
 7159SOL    HW122376   0.075   4.255   3.037
 7159SOL    HW222377   0.189   4.317   2.937
 7160SOL     OW22378   6.091   0.358   3.227
 7160SOL    HW122379   6.136   0.443   3.200
 7160SOL    HW222380   6.020   0.378   3.294
 7161SOL     OW22381   3.396   4.048   5.260
 7161SOL    HW122382   3.386   3.950   5.244
 7161SOL    HW222383   3.396   4.067   5.358
 7162SOL     OW22384   2.761   6.042   5.952
 7162SOL    HW122385   2.798   5.985   5.879
 7162SOL    HW222386   2.692   6.104   5.915
 7163SOL     OW22387   2.740   6.399   3.523
 7163SOL    HW122388   2.725   6.438   3.432
 7163SOL    HW222389   2.657   6.355   3.555
 7164SOL     OW22390   2.126   1.681   3.381
 7164SOL    HW122391   2.212   1.713   3.343
 7164SOL    HW222392   2.050   1.712   3.324
 7165SOL     OW22393   6.757   1.733   1.369
 7165SOL    HW122394   6.672   1.747   1.419
 7165SOL    HW222395   6.752   1.647   1.318
 7166SOL     OW22396   5.025   3.057   0.242
 7166SOL    HW122397   5.020   2.993   0.166
 7166SOL    HW222398   5.073   3.014   0.318
 7167SOL     OW22399   5.219   3.562   4.943
 7167SOL    HW122400   5.227   3.507   4.860
 7167SOL    HW222401   5.140   3.532   4.996
 7168SOL     OW22402   0.827   2.555   4.142
 7168SOL    HW122403   0.852   2.650   4.163
 7168SOL    HW222404   0.876   2.525   4.060
 7169SOL     OW22405   0.765   3.549   5.416
 7169SOL    HW122406   0.675   3.530   5.457
 7169SOL    HW222407   0.764   3.640   5.376
 7170SOL     OW22408   4.940   6.123   3.926
 7170SOL    HW122409   5.034   6.103   3.900
 7170SOL    HW222410   4.877   6.077   3.864
 7171SOL     OW22411   5.604   4.045   6.560
 7171SOL    HW122412   5.630   4.104   6.637
 7171SOL    HW222413   5.571   4.102   6.485
 7172SOL     OW22414   1.780   0.436   5.545
 7172SOL    HW122415   1.743   0.500   5.612
 7172SOL    HW222416   1.758   0.342   5.572
 7173SOL     OW22417   6.980   4.915   5.002
 7173SOL    HW122418   6.934   4.913   5.090
 7173SOL    HW222419   0.053   4.893   5.014
 7174SOL     OW22420   0.939   5.181   6.368
 7174SOL    HW122421   0.839   5.175   6.371
 7174SOL    HW222422   0.965   5.270   6.330
 7175SOL     OW22423   5.683   3.518   0.370
 7175SOL    HW122424   5.673   3.427   0.329
 7175SOL    HW222425   5.599   3.570   0.357
 7176SOL     OW22426   0.854   5.467   3.111
 7176SOL    HW122427   0.899   5.498   3.194
 7176SOL    HW222428   0.910   5.490   3.032
 7177SOL     OW22429   2.696   6.982   4.311
 7177SOL    HW122430   2.723   6.904   4.367
 7177SOL    HW222431   2.615   6.958   4.257
 7178SOL     OW22432   2.445   3.513   5.725
 7178SOL    HW122433   2.440   3.547   5.631
 7178SOL    HW222434   2.473   3.588   5.786
 7179SOL     OW22435   1.477   3.176   4.804
 7179SOL    HW122436   1.500   3.081   4.823
 7179SOL    HW222437   1.387   3.180   4.760
 7180SOL     OW22438   1.171   4.564   6.506
 7180SOL    HW122439   1.223   4.613   6.436
 7180SOL    HW222440   1.157   4.624   6.585
 7181SOL     OW22441   2.281   5.940   0.810
 7181SOL    HW122442   2.198   5.929   0.865
 7181SOL    HW222443   2.292   6.036   0.786
 7182SOL     OW22444   1.840   3.330   5.460
 7182SOL    HW122445   1.900   3.256   5.429
 7182SOL    HW222446   1.866   3.415   5.414
 7183SOL     OW22447   1.395   5.374   0.552
 7183SOL    HW122448   1.388   5.283   0.512
 7183SOL    HW222449   1.483   5.383   0.599
 7184SOL     OW22450   1.051   0.442   3.096
 7184SOL    HW122451   1.101   0.511   3.149
 7184SOL    HW222452   1.033   0.362   3.154
 7185SOL     OW22453   5.411   1.696   5.623
 7185SOL    HW122454   5.386   1.599   5.630
 7185SOL    HW222455   5.403   1.739   5.713
 7186SOL     OW22456   6.987   0.084   6.430
 7186SOL    HW122457   6.911   0.142   6.399
 7186SOL    HW222458   6.955   7.015   6.441
 7187SOL     OW22459   2.847   4.895   0.311
 7187SOL    HW122460   2.849   4.896   0.411
 7187SOL    HW222461   2.790   4.820   0.279
 7188SOL     OW22462   5.605   6.759   0.358
 7188SOL    HW122463   5.641   6.750   0.265
 7188SOL    HW222464   5.597   6.668   0.400
 7189SOL     OW22465   6.574   1.624   6.194
 7189SOL    HW122466   6.586   1.525   6.203
 7189SOL    HW222467   6.585   1.668   6.283
 7190SOL     OW22468   5.828   3.585   3.006
 7190SOL    HW122469   5.802   3.523   2.932
 7190SOL    HW222470   5.859   3.672   2.967
 7191SOL     OW22471   0.257   4.525   2.700
 7191SOL    HW122472   0.209   4.607   2.669
 7191SOL    HW222473   0.218   4.444   2.656
 7192SOL     OW22474   2.955   5.241   5.174
 7192SOL    HW122475   2.868   5.196   5.155
 7192SOL    HW222476   2.986   5.290   5.093
 7193SOL     OW22477   2.943   1.527   3.119
 7193SOL    HW122478   2.849   1.560   3.120
 7193SOL    HW222479   3.003   1.600   3.086
 7194SOL     OW22480   2.606   2.172   0.791
 7194SOL    HW122481   2.607   2.123   0.878
 7194SOL    HW222482   2.691   2.225   0.782
 7195SOL     OW22483   0.665   5.125   6.405
 7195SOL    HW122484   0.668   5.125   6.305
 7195SOL    HW222485   0.590   5.068   6.437
 7196SOL     OW22486   3.401   4.136   1.916
 7196SOL    HW122487   3.405   4.236   1.913
 7196SOL    HW222488   3.346   4.107   1.994
 7197SOL     OW22489   6.943   2.418   6.271
 7197SOL    HW122490   7.022   2.430   6.211
 7197SOL    HW222491   6.974   2.390   6.362
 7198SOL     OW22492   0.573   1.057   5.884
 7198SOL    HW122493   0.650   1.011   5.930
 7198SOL    HW222494   0.596   1.072   5.788
 7199SOL     OW22495   2.578   0.485   2.094
 7199SOL    HW122496   2.675   0.461   2.096
 7199SOL    HW222497   2.532   0.442   2.171
 7200SOL     OW22498   2.086   1.777   0.391
 7200SOL    HW122499   2.087   1.727   0.305
 7200SOL    HW222500   2.167   1.837   0.396
 7201SOL     OW22501   1.688   5.451   3.840
 7201SOL    HW122502   1.755   5.377   3.833
 7201SOL    HW222503   1.606   5.427   3.789
 7202SOL     OW22504   4.077   0.248   5.689
 7202SOL    HW122505   4.040   0.274   5.778
 7202SOL    HW222506   4.143   0.316   5.659
 7203SOL     OW22507   0.014   1.169   1.054
 7203SOL    HW122508   0.006   1.236   0.981
 7203SOL    HW222509   0.110   1.147   1.070
 7204SOL     OW22510   6.511   6.837   5.099
 7204SOL    HW122511   6.413   6.838   5.080
 7204SOL    HW222512   6.537   6.921   5.147
 7205SOL     OW22513   2.129   6.115   3.049
 7205SOL    HW122514   2.095   6.119   3.142
 7205SOL    HW222515   2.220   6.156   3.044
 7206SOL     OW22516   1.744   0.403   1.449
 7206SOL    HW122517   1.767   0.499   1.434
 7206SOL    HW222518   1.721   0.389   1.546
 7207SOL     OW22519   3.443   6.499   1.165
 7207SOL    HW122520   3.439   6.539   1.073
 7207SOL    HW222521   3.415   6.567   1.232
 7208SOL     OW22522   4.198   6.271   4.285
 7208SOL    HW122523   4.154   6.310   4.204
 7208SOL    HW222524   4.296   6.292   4.283
 7209SOL     OW22525   2.954   3.294   2.416
 7209SOL    HW122526   3.018   3.229   2.374
 7209SOL    HW222527   2.877   3.310   2.354
 7210SOL     OW22528   4.638   6.943   4.398
 7210SOL    HW122529   4.607   6.911   4.487
 7210SOL    HW222530   4.594   0.006   4.377
 7211SOL     OW22531   2.043   5.513   3.816
 7211SOL    HW122532   2.100   5.472   3.887
 7211SOL    HW222533   1.992   5.441   3.769
 7212SOL     OW22534   0.856   5.960   3.263
 7212SOL    HW122535   0.855   5.943   3.164
 7212SOL    HW222536   0.771   5.924   3.303
 7213SOL     OW22537   6.118   0.617   6.741
 7213SOL    HW122538   6.212   0.584   6.736
 7213SOL    HW222539   6.061   0.565   6.677
 7214SOL     OW22540   1.549   5.572   4.386
 7214SOL    HW122541   1.493   5.647   4.423
 7214SOL    HW222542   1.620   5.610   4.326
 7215SOL     OW22543   0.402   3.340   4.446
 7215SOL    HW122544   0.327   3.359   4.509
 7215SOL    HW222545   0.485   3.320   4.499
 7216SOL     OW22546   2.109   5.938   6.660
 7216SOL    HW122547   2.186   5.877   6.642
 7216SOL    HW222548   2.095   5.999   6.582
 7217SOL     OW22549   2.110   4.206   1.961
 7217SOL    HW122550   2.160   4.286   1.994
 7217SOL    HW222551   2.077   4.223   1.868
 7218SOL     OW22552   4.515   2.594   5.358
 7218SOL    HW122553   4.583   2.581   5.286
 7218SOL    HW222554   4.524   2.521   5.426
 7219SOL     OW22555   5.649   5.725   4.094
 7219SOL    HW122556   5.676   5.650   4.033
 7219SOL    HW222557   5.560   5.704   4.135
 7220SOL     OW22558   0.434   5.242   3.812
 7220SOL    HW122559   0.525   5.205   3.794
 7220SOL    HW222560   0.396   5.281   3.728
 7221SOL     OW22561   5.423   5.166   5.165
 7221SOL    HW122562   5.378   5.101   5.105
 7221SOL    HW222563   5.405   5.142   5.260
 7222SOL     OW22564   5.994   0.008   2.142
 7222SOL    HW122565   6.057   6.978   2.197
 7222SOL    HW222566   6.020   0.002   2.045
 7223SOL     OW22567   2.863   2.129   1.507
 7223SOL    HW122568   2.910   2.191   1.570
 7223SOL    HW222569   2.896   2.036   1.521
 7224SOL     OW22570   5.781   2.096   4.325
 7224SOL    HW122571   5.697   2.067   4.279
 7224SOL    HW222572   5.777   2.069   4.421
 7225SOL     OW22573   1.053   6.469   6.174
 7225SOL    HW122574   1.015   6.401   6.111
 7225SOL    HW222575   1.008   6.462   6.262
 7226SOL     OW22576   1.111   0.300   0.444
 7226SOL    HW122577   1.094   0.307   0.542
 7226SOL    HW222578   1.096   0.389   0.401
 7227SOL     OW22579   0.290   2.803   1.245
 7227SOL    HW122580   0.212   2.743   1.228
 7227SOL    HW222581   0.366   2.777   1.185
 7228SOL     OW22582   0.044   1.258   2.335
 7228SOL    HW122583   0.113   1.231   2.267
 7228SOL    HW222584   0.030   1.357   2.331
 7229SOL     OW22585   1.273   0.864   4.196
 7229SOL    HW122586   1.254   0.950   4.245
 7229SOL    HW222587   1.357   0.823   4.231
 7230SOL     OW22588   4.713   5.825   4.895
 7230SOL    HW122589   4.734   5.764   4.972
 7230SOL    HW222590   4.773   5.803   4.818
 7231SOL     OW22591   4.775   6.998   6.992
 7231SOL    HW122592   4.833   0.052   6.970
 7231SOL    HW222593   4.818   6.942   0.038
 7232SOL     OW22594   4.416   5.198   3.554
 7232SOL    HW122595   4.512   5.180   3.533
 7232SOL    HW222596   4.410   5.240   3.645
 7233SOL     OW22597   0.392   2.747   4.668
 7233SOL    HW122598   0.334   2.778   4.593
 7233SOL    HW222599   0.469   2.810   4.679
 7234SOL     OW22600   5.844   2.434   2.851
 7234SOL    HW122601   5.900   2.357   2.882
 7234SOL    HW222602   5.754   2.429   2.895
 7235SOL     OW22603   6.328   4.304   2.948
 7235SOL    HW122604   6.403   4.297   2.882
 7235SOL    HW222605   6.306   4.401   2.961
 7236SOL     OW22606   3.543   1.651   2.634
 7236SOL    HW122607   3.568   1.627   2.728
 7236SOL    HW222608   3.591   1.591   2.570
 7237SOL     OW22609   6.452   6.595   5.347
 7237SOL    HW122610   6.416   6.516   5.397
 7237SOL    HW222611   6.379   6.663   5.336
 7238SOL     OW22612   2.091   2.241   1.077
 7238SOL    HW122613   2.173   2.295   1.058
 7238SOL    HW222614   2.015   2.274   1.021
 7239SOL     OW22615   2.744   1.461   3.756
 7239SOL    HW122616   2.657   1.511   3.753
 7239SOL    HW222617   2.775   1.442   3.663
 7240SOL     OW22618   2.301   4.141   6.732
 7240SOL    HW122619   2.384   4.197   6.734
 7240SOL    HW222620   2.257   4.144   6.821
 7241SOL     OW22621   3.326   0.608   0.000
 7241SOL    HW122622   3.362   0.533   0.056
 7241SOL    HW222623   3.401   0.659   6.984
 7242SOL     OW22624   6.624   4.927   7.018
 7242SOL    HW122625   6.540   4.885   6.984
 7242SOL    HW222626   6.694   4.856   0.005
 7243SOL     OW22627   0.661   4.688   6.673
 7243SOL    HW122628   0.700   4.768   6.718
 7243SOL    HW222629   0.728   4.614   6.673
 7244SOL     OW22630   4.495   0.548   1.371
 7244SOL    HW122631   4.408   0.517   1.334
 7244SOL    HW222632   4.511   0.643   1.344
 7245SOL     OW22633   0.539   2.123   4.957
 7245SOL    HW122634   0.494   2.187   5.018
 7245SOL    HW222635   0.625   2.091   4.998
 7246SOL     OW22636   6.238   6.845   4.983
 7246SOL    HW122637   6.190   6.826   4.898
 7246SOL    HW222638   6.235   6.764   5.042
 7247SOL     OW22639   2.674   6.420   3.253
 7247SOL    HW122640   2.603   6.360   3.218
 7247SOL    HW222641   2.759   6.406   3.202
 7248SOL     OW22642   3.984   0.785   3.228
 7248SOL    HW122643   4.079   0.754   3.223
 7248SOL    HW222644   3.923   0.707   3.237
 7249SOL     OW22645   5.628   4.970   1.645
 7249SOL    HW122646   5.638   4.916   1.561
 7249SOL    HW222647   5.612   4.909   1.723
 7250SOL     OW22648   3.327   5.137   6.098
 7250SOL    HW122649   3.339   5.228   6.140
 7250SOL    HW222650   3.230   5.114   6.098
 7251SOL     OW22651   6.791   6.553   5.594
 7251SOL    HW122652   6.780   6.577   5.497
 7251SOL    HW222653   6.881   6.511   5.607
 7252SOL     OW22654   3.172   3.005   3.983
 7252SOL    HW122655   3.184   2.915   3.942
 7252SOL    HW222656   3.225   3.010   4.068
 7253SOL     OW22657   1.229   0.102   0.055
 7253SOL    HW122658   1.165   0.060   0.119
 7253SOL    HW222659   1.270   0.183   0.098
 7254SOL     OW22660   4.357   5.012   4.913
 7254SOL    HW122661   4.298   4.947   4.960
 7254SOL    HW222662   4.443   5.022   4.963
 7255SOL     OW22663   3.806   3.864   1.943
 7255SOL    HW122664   3.772   3.854   1.850
 7255SOL    HW222665   3.764   3.943   1.987
 7256SOL     OW22666   4.866   4.856   4.606
 7256SOL    HW122667   4.909   4.944   4.630
 7256SOL    HW222668   4.935   4.784   4.612
 7257SOL     OW22669   6.048   3.059   3.432
 7257SOL    HW122670   6.006   3.077   3.343
 7257SOL    HW222671   6.146   3.042   3.420
 7258SOL     OW22672   4.471   0.612   4.152
 7258SOL    HW122673   4.540   0.566   4.207
 7258SOL    HW222674   4.483   0.588   4.056
 7259SOL     OW22675   3.088   3.863   1.102
 7259SOL    HW122676   3.111   3.771   1.072
 7259SOL    HW222677   2.991   3.867   1.127
 7260SOL     OW22678   3.401   2.096   2.825
 7260SOL    HW122679   3.388   2.137   2.734
 7260SOL    HW222680   3.484   2.134   2.867
 7261SOL     OW22681   3.189   2.859   1.612
 7261SOL    HW122682   3.240   2.774   1.601
 7261SOL    HW222683   3.151   2.863   1.705
 7262SOL     OW22684   6.109   2.418   3.689
 7262SOL    HW122685   6.152   2.396   3.776
 7262SOL    HW222686   6.030   2.478   3.705
 7263SOL     OW22687   0.787   5.566   2.095
 7263SOL    HW122688   0.873   5.597   2.054
 7263SOL    HW222689   0.806   5.523   2.183
 7264SOL     OW22690   0.229   1.905   6.770
 7264SOL    HW122691   0.324   1.916   6.801
 7264SOL    HW222692   0.218   1.816   6.726
 7265SOL     OW22693   5.365   5.169   6.208
 7265SOL    HW122694   5.349   5.194   6.112
 7265SOL    HW222695   5.401   5.248   6.258
 7266SOL     OW22696   4.166   0.725   0.866
 7266SOL    HW122697   4.254   0.770   0.883
 7266SOL    HW222698   4.154   0.650   0.931
 7267SOL     OW22699   6.638   4.851   5.192
 7267SOL    HW122700   6.604   4.939   5.159
 7267SOL    HW222701   6.683   4.803   5.117
 7268SOL     OW22702   4.189   4.800   3.086
 7268SOL    HW122703   4.277   4.801   3.134
 7268SOL    HW222704   4.129   4.732   3.129
 7269SOL     OW22705   0.168   5.935   1.515
 7269SOL    HW122706   0.141   6.018   1.564
 7269SOL    HW222707   0.142   5.855   1.569
 7270SOL     OW22708   1.906   2.165   3.210
 7270SOL    HW122709   1.905   2.119   3.121
 7270SOL    HW222710   1.985   2.134   3.262
 7271SOL     OW22711   0.744   4.739   3.163
 7271SOL    HW122712   0.843   4.737   3.176
 7271SOL    HW222713   0.715   4.657   3.114
 7272SOL     OW22714   5.860   3.157   2.693
 7272SOL    HW122715   5.787   3.103   2.651
 7272SOL    HW222716   5.934   3.169   2.627
 7273SOL     OW22717   5.722   4.527   1.854
 7273SOL    HW122718   5.759   4.524   1.947
 7273SOL    HW222719   5.628   4.563   1.857
 7274SOL     OW22720   0.083   5.763   6.039
 7274SOL    HW122721   0.126   5.688   6.089
 7274SOL    HW222722   0.144   5.842   6.040
 7275SOL     OW22723   6.037   0.871   0.418
 7275SOL    HW122724   5.981   0.888   0.499
 7275SOL    HW222725   6.095   0.791   0.434
 7276SOL     OW22726   3.477   1.357   3.781
 7276SOL    HW122727   3.548   1.406   3.833
 7276SOL    HW222728   3.387   1.382   3.816
 7277SOL     OW22729   5.417   1.091   5.290
 7277SOL    HW122730   5.434   1.101   5.192
 7277SOL    HW222731   5.331   1.136   5.314
 7278SOL     OW22732   3.667   2.127   2.912
 7278SOL    HW122733   3.761   2.157   2.930
 7278SOL    HW222734   3.668   2.057   2.840
 7279SOL     OW22735   4.460   4.036   0.457
 7279SOL    HW122736   4.382   3.991   0.413
 7279SOL    HW222737   4.445   4.135   0.459
 7280SOL     OW22738   5.545   2.299   5.145
 7280SOL    HW122739   5.541   2.289   5.245
 7280SOL    HW222740   5.478   2.366   5.115
 7281SOL     OW22741   3.313   0.222   1.022
 7281SOL    HW122742   3.398   0.229   1.075
 7281SOL    HW222743   3.336   0.214   0.925
 7282SOL     OW22744   6.684   5.877   1.915
 7282SOL    HW122745   6.657   5.781   1.905
 7282SOL    HW222746   6.782   5.883   1.931
 7283SOL     OW22747   3.012   6.574   2.050
 7283SOL    HW122748   2.917   6.565   2.021
 7283SOL    HW222749   3.034   6.501   2.114
 7284SOL     OW22750   6.648   2.694   3.798
 7284SOL    HW122751   6.720   2.705   3.730
 7284SOL    HW222752   6.650   2.771   3.862
 7285SOL     OW22753   5.169   2.860   1.373
 7285SOL    HW122754   5.093   2.903   1.325
 7285SOL    HW222755   5.237   2.928   1.397
 7286SOL     OW22756   0.783   1.388   0.676
 7286SOL    HW122757   0.760   1.340   0.591
 7286SOL    HW222758   0.736   1.343   0.753
 7287SOL     OW22759   7.014   2.932   3.816
 7287SOL    HW122760   0.017   2.982   3.734
 7287SOL    HW222761   0.065   2.875   3.848
 7288SOL     OW22762   1.797   2.571   2.541
 7288SOL    HW122763   1.882   2.545   2.586
 7288SOL    HW222764   1.804   2.553   2.443
 7289SOL     OW22765   5.855   2.679   1.923
 7289SOL    HW122766   5.895   2.626   1.848
 7289SOL    HW222767   5.762   2.647   1.940
 7290SOL     OW22768   3.886   1.130   5.147
 7290SOL    HW122769   3.893   1.165   5.240
 7290SOL    HW222770   3.838   1.043   5.148
 7291SOL     OW22771   3.254   0.045   0.148
 7291SOL    HW122772   3.259   0.085   0.240
 7291SOL    HW222773   3.283   0.112   0.080
 7292SOL     OW22774   1.822   6.648   3.594
 7292SOL    HW122775   1.894   6.691   3.541
 7292SOL    HW222776   1.848   6.646   3.691
 7293SOL     OW22777   1.136   1.441   5.796
 7293SOL    HW122778   1.171   1.363   5.848
 7293SOL    HW222779   1.211   1.506   5.779
 7294SOL     OW22780   3.135   4.508   1.697
 7294SOL    HW122781   3.058   4.526   1.758
 7294SOL    HW222782   3.103   4.506   1.603
 7295SOL     OW22783   6.367   4.831   1.459
 7295SOL    HW122784   6.338   4.910   1.405
 7295SOL    HW222785   6.424   4.772   1.404
 7296SOL     OW22786   3.647   5.263   2.874
 7296SOL    HW122787   3.739   5.230   2.854
 7296SOL    HW222788   3.580   5.196   2.842
 7297SOL     OW22789   3.172   6.254   1.882
 7297SOL    HW122790   3.120   6.306   1.814
 7297SOL    HW222791   3.223   6.181   1.835
 7298SOL     OW22792   4.608   6.251   0.174
 7298SOL    HW122793   4.584   6.179   0.109
 7298SOL    HW222794   4.565   6.337   0.145
 7299SOL     OW22795   1.206   2.089   0.592
 7299SOL    HW122796   1.211   2.189   0.603
 7299SOL    HW222797   1.122   2.055   0.634
 7300SOL     OW22798   0.567   4.912   1.903
 7300SOL    HW122799   0.613   4.956   1.980
 7300SOL    HW222800   0.538   4.820   1.929
 7301SOL     OW22801   0.196   0.197   5.806
 7301SOL    HW122802   0.285   0.152   5.815
 7301SOL    HW222803   0.152   0.168   5.721
 7302SOL     OW22804   5.849   2.508   5.715
 7302SOL    HW122805   5.869   2.605   5.731
 7302SOL    HW222806   5.796   2.472   5.792
 7303SOL     OW22807   3.076   1.587   0.311
 7303SOL    HW122808   3.072   1.683   0.283
 7303SOL    HW222809   3.110   1.532   0.235
 7304SOL     OW22810   2.531   5.091   1.280
 7304SOL    HW122811   2.629   5.076   1.287
 7304SOL    HW222812   2.506   5.109   1.184
 7305SOL     OW22813   5.481   2.933   0.490
 7305SOL    HW122814   5.402   2.984   0.456
 7305SOL    HW222815   5.565   2.973   0.454
 7306SOL     OW22816   3.435   1.486   1.480
 7306SOL    HW122817   3.371   1.530   1.542
 7306SOL    HW222818   3.523   1.534   1.481
 7307SOL     OW22819   3.933   6.487   2.200
 7307SOL    HW122820   3.997   6.563   2.194
 7307SOL    HW222821   3.983   6.402   2.215
 7308SOL     OW22822   6.665   0.994   2.460
 7308SOL    HW122823   6.636   1.083   2.427
 7308SOL    HW222824   6.753   0.970   2.418
 7309SOL     OW22825   2.601   6.015   2.906
 7309SOL    HW122826   2.507   5.985   2.892
 7309SOL    HW222827   2.619   6.096   2.850
 7310SOL     OW22828   1.314   2.843   0.260
 7310SOL    HW122829   1.408   2.833   0.292
 7310SOL    HW222830   1.285   2.759   0.215
 7311SOL     OW22831   0.979   0.386   0.087
 7311SOL    HW122832   0.908   0.409   0.020
 7311SOL    HW222833   1.056   0.448   0.078
 7312SOL     OW22834   0.318   1.364   4.913
 7312SOL    HW122835   0.285   1.420   4.988
 7312SOL    HW222836   0.251   1.292   4.893
 7313SOL     OW22837   2.783   0.894   0.770
 7313SOL    HW122838   2.823   0.821   0.715
 7313SOL    HW222839   2.838   0.906   0.853
 7314SOL     OW22840   0.386   4.109   6.981
 7314SOL    HW122841   0.363   4.119   6.884
 7314SOL    HW222842   0.323   4.046   0.000
 7315SOL     OW22843   6.719   5.353   2.395
 7315SOL    HW122844   6.771   5.334   2.312
 7315SOL    HW222845   6.626   5.319   2.384
 7316SOL     OW22846   3.347   1.918   6.222
 7316SOL    HW122847   3.413   1.918   6.296
 7316SOL    HW222848   3.256   1.942   6.258
 7317SOL     OW22849   3.368   1.760   2.010
 7317SOL    HW122850   3.319   1.749   2.096
 7317SOL    HW222851   3.434   1.835   2.019
 7318SOL     OW22852   4.050   6.994   2.319
 7318SOL    HW122853   4.008   6.979   2.409
 7318SOL    HW222854   4.062   0.067   2.303
 7319SOL     OW22855   0.302   3.466   6.694
 7319SOL    HW122856   0.260   3.495   6.608
 7319SOL    HW222857   0.377   3.403   6.674
 7320SOL     OW22858   6.690   4.068   1.025
 7320SOL    HW122859   6.729   3.984   0.989
 7320SOL    HW222860   6.762   4.135   1.039
 7321SOL     OW22861   1.673   6.430   6.270
 7321SOL    HW122862   1.573   6.431   6.263
 7321SOL    HW222863   1.708   6.341   6.242
 7322SOL     OW22864   0.894   2.121   3.008
 7322SOL    HW122865   0.874   2.044   3.069
 7322SOL    HW222866   0.993   2.133   3.001
 7323SOL     OW22867   2.447   1.330   1.902
 7323SOL    HW122868   2.508   1.270   1.953
 7323SOL    HW222869   2.465   1.425   1.928
 7324SOL     OW22870   5.845   4.532   2.087
 7324SOL    HW122871   5.937   4.569   2.096
 7324SOL    HW222872   5.798   4.537   2.175
 7325SOL     OW22873   3.436   0.451   6.010
 7325SOL    HW122874   3.407   0.395   6.088
 7325SOL    HW222875   3.359   0.507   5.979
 7326SOL     OW22876   3.530   0.617   6.639
 7326SOL    HW122877   3.470   0.655   6.568
 7326SOL    HW222878   3.578   0.538   6.602
 7327SOL     OW22879   6.045   4.062   3.276
 7327SOL    HW122880   6.102   3.980   3.265
 7327SOL    HW222881   6.066   4.126   3.202
 7328SOL     OW22882   3.989   5.451   5.506
 7328SOL    HW122883   3.990   5.376   5.572
 7328SOL    HW222884   3.996   5.414   5.414
 7329SOL     OW22885   0.584   2.393   0.259
 7329SOL    HW122886   0.552   2.311   0.305
 7329SOL    HW222887   0.674   2.376   0.217
 7330SOL     OW22888   2.740   2.917   1.419
 7330SOL    HW122889   2.810   2.956   1.358
 7330SOL    HW222890   2.760   2.821   1.435
 7331SOL     OW22891   4.818   0.121   1.898
 7331SOL    HW122892   4.858   0.040   1.854
 7331SOL    HW222893   4.773   0.094   1.983
 7332SOL     OW22894   3.919   4.573   0.136
 7332SOL    HW122895   3.821   4.597   0.137
 7332SOL    HW222896   3.936   4.509   0.061
 7333SOL     OW22897   5.924   3.149   3.205
 7333SOL    HW122898   5.947   3.245   3.187
 7333SOL    HW222899   5.880   3.109   3.125
 7334SOL     OW22900   2.717   6.202   6.497
 7334SOL    HW122901   2.807   6.194   6.455
 7334SOL    HW222902   2.662   6.268   6.445
 7335SOL     OW22903   0.076   3.540   2.885
 7335SOL    HW122904   0.070   3.440   2.879
 7335SOL    HW222905   0.165   3.566   2.921
 7336SOL     OW22906   1.450   6.049   0.930
 7336SOL    HW122907   1.392   6.063   1.011
 7336SOL    HW222908   1.541   6.021   0.959
 7337SOL     OW22909   3.317   2.632   1.552
 7337SOL    HW122910   3.384   2.611   1.480
 7337SOL    HW222911   3.335   2.575   1.632
 7338SOL     OW22912   5.732   2.503   1.245
 7338SOL    HW122913   5.742   2.514   1.344
 7338SOL    HW222914   5.707   2.408   1.224
 7339SOL     OW22915   0.164   6.089   5.064
 7339SOL    HW122916   0.260   6.110   5.084
 7339SOL    HW222917   0.111   6.097   5.149
 7340SOL     OW22918   3.623   1.176   6.893
 7340SOL    HW122919   3.617   1.128   6.806
 7340SOL    HW222920   3.553   1.140   6.956
 7341SOL     OW22921   1.147   5.176   4.308
 7341SOL    HW122922   1.190   5.179   4.398
 7341SOL    HW222923   1.175   5.093   4.260
 7342SOL     OW22924   6.720   0.278   0.637
 7342SOL    HW122925   6.736   0.192   0.589
 7342SOL    HW222926   6.623   0.302   0.632
 7343SOL     OW22927   5.748   3.529   1.817
 7343SOL    HW122928   5.670   3.470   1.839
 7343SOL    HW222929   5.812   3.479   1.758
 7344SOL     OW22930   1.590   6.782   6.782
 7344SOL    HW122931   1.669   6.720   6.785
 7344SOL    HW222932   1.609   6.862   6.839
 7345SOL     OW22933   4.713   4.867   6.055
 7345SOL    HW122934   4.668   4.948   6.093
 7345SOL    HW222935   4.730   4.880   5.957
 7346SOL     OW22936   3.808   3.839   1.347
 7346SOL    HW122937   3.768   3.817   1.258
 7346SOL    HW222938   3.782   3.768   1.412
 7347SOL     OW22939   6.732   2.770   2.420
 7347SOL    HW122940   6.778   2.695   2.373
 7347SOL    HW222941   6.637   2.774   2.391
 7348SOL     OW22942   1.573   3.514   3.809
 7348SOL    HW122943   1.495   3.574   3.828
 7348SOL    HW222944   1.642   3.526   3.882
 7349SOL     OW22945   3.789   1.408   1.415
 7349SOL    HW122946   3.849   1.387   1.493
 7349SOL    HW222947   3.764   1.505   1.418
 7350SOL     OW22948   0.251   3.076   3.762
 7350SOL    HW122949   0.272   3.173   3.756
 7350SOL    HW222950   0.186   3.051   3.691
 7351SOL     OW22951   3.925   4.432   6.268
 7351SOL    HW122952   3.943   4.334   6.266
 7351SOL    HW222953   3.991   4.478   6.326
 7352SOL     OW22954   1.144   1.567   3.392
 7352SOL    HW122955   1.079   1.634   3.427
 7352SOL    HW222956   1.107   1.475   3.406
 7353SOL     OW22957   0.269   1.816   5.280
 7353SOL    HW122958   0.196   1.782   5.220
 7353SOL    HW222959   0.249   1.910   5.306
 7354SOL     OW22960   0.009   0.678   6.113
 7354SOL    HW122961   0.059   0.733   6.179
 7354SOL    HW222962   0.025   0.581   6.132
 7355SOL     OW22963   1.698   5.522   1.116
 7355SOL    HW122964   1.792   5.502   1.143
 7355SOL    HW222965   1.662   5.597   1.172
 7356SOL     OW22966   5.227   2.490   6.522
 7356SOL    HW122967   5.155   2.439   6.475
 7356SOL    HW222968   5.185   2.552   6.589
 7357SOL     OW22969   5.068   1.113   1.357
 7357SOL    HW122970   4.973   1.095   1.333
 7357SOL    HW222971   5.109   1.030   1.395
 7358SOL     OW22972   2.859   2.063   2.554
 7358SOL    HW122973   2.861   2.109   2.465
 7358SOL    HW222974   2.836   1.966   2.541
 7359SOL     OW22975   3.216   2.573   1.072
 7359SOL    HW122976   3.187   2.479   1.091
 7359SOL    HW222977   3.309   2.587   1.105
 7360SOL     OW22978   1.613   2.388   5.164
 7360SOL    HW122979   1.550   2.371   5.240
 7360SOL    HW222980   1.612   2.485   5.141
 7361SOL     OW22981   4.742   0.003   1.344
 7361SOL    HW122982   4.829   6.982   1.324
 7361SOL    HW222983   4.753   0.065   1.422
 7362SOL     OW22984   0.820   6.776   4.851
 7362SOL    HW122985   0.737   6.749   4.802
 7362SOL    HW222986   0.871   6.842   4.796
 7363SOL     OW22987   5.147   2.152   0.377
 7363SOL    HW122988   5.233   2.108   0.353
 7363SOL    HW222989   5.120   2.124   0.470
 7364SOL     OW22990   3.765   6.582   1.520
 7364SOL    HW122991   3.860   6.571   1.491
 7364SOL    HW222992   3.736   6.501   1.571
 7365SOL     OW22993   2.877   6.329   2.247
 7365SOL    HW122994   2.798   6.349   2.191
 7365SOL    HW222995   2.869   6.374   2.335
 7366SOL     OW22996   1.215   5.490   0.393
 7366SOL    HW122997   1.169   5.573   0.425
 7366SOL    HW222998   1.287   5.464   0.458
 7367SOL     OW22999   4.170   3.930   1.162
 7367SOL    HW123000   4.130   3.963   1.248
 7367SOL    HW223001   4.121   3.849   1.131
 7368SOL     OW23002   3.029   3.219   3.947
 7368SOL    HW123003   2.994   3.251   4.036
 7368SOL    HW223004   3.065   3.126   3.957
 7369SOL     OW23005   4.733   3.068   0.894
 7369SOL    HW123006   4.771   2.992   0.946
 7369SOL    HW223007   4.660   3.111   0.948
 7370SOL     OW23008   1.759   0.708   6.214
 7370SOL    HW123009   1.845   0.666   6.242
 7370SOL    HW223010   1.730   0.776   6.282
 7371SOL     OW23011   3.083   5.660   4.040
 7371SOL    HW123012   3.166   5.604   4.044
 7371SOL    HW223013   3.032   5.649   4.126
 7372SOL     OW23014   3.525   0.306   5.729
 7372SOL    HW123015   3.440   0.280   5.683
 7372SOL    HW223016   3.519   0.401   5.759
 7373SOL     OW23017   4.895   1.154   3.633
 7373SOL    HW123018   4.926   1.247   3.650
 7373SOL    HW223019   4.795   1.149   3.643
 7374SOL     OW23020   2.025   2.646   5.424
 7374SOL    HW123021   1.978   2.565   5.459
 7374SOL    HW223022   2.043   2.709   5.499
 7375SOL     OW23023   1.545   1.788   3.900
 7375SOL    HW123024   1.508   1.839   3.977
 7375SOL    HW223025   1.638   1.757   3.922
 7376SOL     OW23026   3.187   2.537   6.960
 7376SOL    HW123027   3.287   2.536   6.967
 7376SOL    HW223028   3.159   2.604   6.892
 7377SOL     OW23029   4.374   5.557   2.298
 7377SOL    HW123030   4.326   5.606   2.370
 7377SOL    HW223031   4.466   5.533   2.330
 7378SOL     OW23032   6.580   1.815   4.411
 7378SOL    HW123033   6.510   1.864   4.462
 7378SOL    HW223034   6.624   1.747   4.470
 7379SOL     OW23035   4.201   0.940   2.738
 7379SOL    HW123036   4.157   1.027   2.760
 7379SOL    HW223037   4.131   0.874   2.708
 7380SOL     OW23038   0.368   3.519   5.925
 7380SOL    HW123039   0.298   3.468   5.874
 7380SOL    HW223040   0.392   3.468   6.008
 7381SOL     OW23041   4.767   2.948   2.440
 7381SOL    HW123042   4.768   2.872   2.375
 7381SOL    HW223043   4.687   2.940   2.499
 7382SOL     OW23044   0.206   5.143   4.640
 7382SOL    HW123045   0.206   5.106   4.547
 7382SOL    HW223046   0.115   5.132   4.680
 7383SOL     OW23047   6.750   6.626   2.560
 7383SOL    HW123048   6.842   6.666   2.565
 7383SOL    HW223049   6.721   6.597   2.651
 7384SOL     OW23050   5.350   1.279   1.561
 7384SOL    HW123051   5.293   1.361   1.564
 7384SOL    HW223052   5.392   1.271   1.470
 7385SOL     OW23053   3.987   5.557   2.308
 7385SOL    HW123054   3.958   5.462   2.322
 7385SOL    HW223055   4.070   5.559   2.253
 7386SOL     OW23056   0.923   2.601   5.399
 7386SOL    HW123057   0.827   2.618   5.378
 7386SOL    HW223058   0.954   2.520   5.349
 7387SOL     OW23059   4.502   6.325   4.761
 7387SOL    HW123060   4.517   6.373   4.675
 7387SOL    HW223061   4.507   6.226   4.745
 7388SOL     OW23062   6.876   5.512   3.935
 7388SOL    HW123063   6.874   5.504   3.835
 7388SOL    HW223064   6.786   5.541   3.969
 7389SOL     OW23065   1.229   4.633   6.964
 7389SOL    HW123066   1.225   4.631   0.039
 7389SOL    HW223067   1.294   4.564   6.931
 7390SOL     OW23068   1.617   1.650   6.267
 7390SOL    HW123069   1.559   1.628   6.188
 7390SOL    HW223070   1.659   1.740   6.254
 7391SOL     OW23071   4.669   4.036   5.257
 7391SOL    HW123072   4.573   4.062   5.264
 7391SOL    HW223073   4.680   3.941   5.287
 7392SOL     OW23074   2.306   6.050   5.974
 7392SOL    HW123075   2.369   6.058   6.052
 7392SOL    HW223076   2.350   5.999   5.900
 7393SOL     OW23077   5.838   5.557   1.687
 7393SOL    HW123078   5.932   5.588   1.679
 7393SOL    HW223079   5.776   5.633   1.668
 7394SOL     OW23080   3.458   2.638   6.444
 7394SOL    HW123081   3.449   2.683   6.355
 7394SOL    HW223082   3.454   2.707   6.517
 7395SOL     OW23083   0.693   0.905   6.821
 7395SOL    HW123084   0.636   0.972   6.867
 7395SOL    HW223085   0.786   0.941   6.810
 7396SOL     OW23086   1.447   0.963   6.756
 7396SOL    HW123087   1.411   1.056   6.743
 7396SOL    HW223088   1.423   0.930   6.847
 7397SOL     OW23089   6.373   4.871   4.117
 7397SOL    HW123090   6.290   4.897   4.166
 7397SOL    HW223091   6.386   4.772   4.122
 7398SOL     OW23092   3.565   5.208   4.543
 7398SOL    HW123093   3.512   5.189   4.461
 7398SOL    HW223094   3.650   5.256   4.518
 7399SOL     OW23095   0.504   4.132   5.274
 7399SOL    HW123096   0.411   4.160   5.249
 7399SOL    HW223097   0.569   4.200   5.239
 7400SOL     OW23098   3.171   4.077   6.868
 7400SOL    HW123099   3.192   3.979   6.865
 7400SOL    HW223100   3.249   4.126   6.907
 7401SOL     OW23101   0.541   1.496   3.137
 7401SOL    HW123102   0.477   1.549   3.081
 7401SOL    HW223103   0.525   1.517   3.234
 7402SOL     OW23104   1.971   0.016   4.149
 7402SOL    HW123105   2.059   0.055   4.177
 7402SOL    HW223106   1.907   0.090   4.128
 7403SOL     OW23107   2.257   3.046   3.414
 7403SOL    HW123108   2.213   3.093   3.338
 7403SOL    HW223109   2.356   3.060   3.410
 7404SOL     OW23110   2.460   0.016   1.150
 7404SOL    HW123111   2.365   0.030   1.181
 7404SOL    HW223112   2.467   6.952   1.104
 7405SOL     OW23113   1.018   4.832   4.212
 7405SOL    HW123114   1.001   4.779   4.294
 7405SOL    HW223115   0.933   4.842   4.160
 7406SOL     OW23116   1.558   3.238   2.608
 7406SOL    HW123117   1.530   3.200   2.696
 7406SOL    HW223118   1.639   3.294   2.620
 7407SOL     OW23119   0.396   6.148   4.654
 7407SOL    HW123120   0.368   6.244   4.652
 7407SOL    HW223121   0.492   6.140   4.628
 7408SOL     OW23122   1.629   4.157   5.093
 7408SOL    HW123123   1.708   4.212   5.067
 7408SOL    HW223124   1.640   4.064   5.058
 7409SOL     OW23125   0.424   1.101   4.534
 7409SOL    HW123126   0.453   1.127   4.626
 7409SOL    HW223127   0.455   1.171   4.469
 7410SOL     OW23128   6.920   5.071   0.919
 7410SOL    HW123129   6.980   5.123   0.858
 7410SOL    HW223130   6.950   5.083   1.014
 7411SOL     OW23131   2.570   0.085   4.493
 7411SOL    HW123132   2.626   0.039   4.425
 7411SOL    HW223133   2.496   0.024   4.523
 7412SOL     OW23134   3.230   1.278   1.084
 7412SOL    HW123135   3.320   1.257   1.044
 7412SOL    HW223136   3.239   1.356   1.145
 7413SOL     OW23137   0.371   4.605   3.809
 7413SOL    HW123138   0.433   4.527   3.795
 7413SOL    HW223139   0.397   4.679   3.748
 7414SOL     OW23140   0.018   0.037   2.344
 7414SOL    HW123141   0.044   6.977   2.391
 7414SOL    HW223142   6.982   0.090   2.403
 7415SOL     OW23143   0.604   3.883   2.970
 7415SOL    HW123144   0.666   3.851   3.041
 7415SOL    HW223145   0.539   3.949   3.008
 7416SOL     OW23146   3.663   0.914   3.614
 7416SOL    HW123147   3.726   0.862   3.671
 7416SOL    HW223148   3.712   0.947   3.533
 7417SOL     OW23149   1.156   6.932   5.862
 7417SOL    HW123150   1.169   7.014   5.807
 7417SOL    HW223151   1.141   6.853   5.801
 7418SOL     OW23152   3.174   4.464   1.122
 7418SOL    HW123153   3.172   4.558   1.157
 7418SOL    HW223154   3.083   4.424   1.129
 7419SOL     OW23155   6.194   2.283   4.981
 7419SOL    HW123156   6.199   2.243   5.072
 7419SOL    HW223157   6.118   2.241   4.931
 7420SOL     OW23158   6.198   6.476   2.931
 7420SOL    HW123159   6.267   6.500   2.999
 7420SOL    HW223160   6.111   6.522   2.954
 7421SOL     OW23161   2.698   2.740   0.788
 7421SOL    HW123162   2.665   2.647   0.773
 7421SOL    HW223163   2.685   2.766   0.884
 7422SOL     OW23164   0.203   3.226   2.385
 7422SOL    HW123165   0.222   3.168   2.464
 7422SOL    HW223166   0.104   3.232   2.371
 7423SOL     OW23167   0.356   4.183   6.367
 7423SOL    HW123168   0.341   4.167   6.269
 7423SOL    HW223169   0.270   4.167   6.416
 7424SOL     OW23170   5.898   1.254   4.333
 7424SOL    HW123171   5.881   1.345   4.293
 7424SOL    HW223172   5.995   1.244   4.353
 7425SOL     OW23173   4.249   4.753   6.531
 7425SOL    HW123174   4.281   4.830   6.585
 7425SOL    HW223175   4.325   4.691   6.513
 7426SOL     OW23176   0.567   1.843   6.682
 7426SOL    HW123177   0.554   1.890   6.594
 7426SOL    HW223178   0.601   1.908   6.750
 7427SOL     OW23179   3.364   5.750   4.991
 7427SOL    HW123180   3.275   5.722   4.954
 7427SOL    HW223181   3.372   5.850   4.986
 7428SOL     OW23182   3.603   1.733   5.582
 7428SOL    HW123183   3.553   1.682   5.512
 7428SOL    HW223184   3.612   1.828   5.554
 7429SOL     OW23185   6.097   0.309   2.884
 7429SOL    HW123186   6.167   0.374   2.855
 7429SOL    HW223187   6.122   0.271   2.973
 7430SOL     OW23188   6.952   4.869   5.813
 7430SOL    HW123189   6.950   4.773   5.843
 7430SOL    HW223190   0.022   4.899   5.806
 7431SOL     OW23191   0.400   4.044   2.374
 7431SOL    HW123192   0.492   4.008   2.358
 7431SOL    HW223193   0.402   4.144   2.371
 7432SOL     OW23194   0.443   6.519   3.906
 7432SOL    HW123195   0.403   6.602   3.867
 7432SOL    HW223196   0.432   6.519   4.005
 7433SOL     OW23197   6.783   5.468   0.337
 7433SOL    HW123198   6.708   5.525   0.303
 7433SOL    HW223199   6.752   5.373   0.344
 7434SOL     OW23200   3.755   0.774   6.667
 7434SOL    HW123201   3.777   0.773   6.765
 7434SOL    HW223202   3.693   0.699   6.646
 7435SOL     OW23203   3.454   6.808   6.810
 7435SOL    HW123204   3.391   6.732   6.825
 7435SOL    HW223205   3.441   6.845   6.718
 7436SOL     OW23206   0.011   3.296   6.317
 7436SOL    HW123207   0.044   3.220   6.374
 7436SOL    HW223208   6.936   3.306   6.329
 7437SOL     OW23209   0.127   5.862   0.132
 7437SOL    HW123210   0.167   5.915   0.057
 7437SOL    HW223211   0.076   5.784   0.095
 7438SOL     OW23212   1.169   4.172   1.069
 7438SOL    HW123213   1.152   4.146   0.974
 7438SOL    HW223214   1.082   4.194   1.113
 7439SOL     OW23215   2.579   6.659   4.080
 7439SOL    HW123216   2.614   6.614   4.161
 7439SOL    HW223217   2.579   6.595   4.003
 7440SOL     OW23218   0.893   3.019   4.588
 7440SOL    HW123219   0.940   2.968   4.660
 7440SOL    HW223220   0.863   2.955   4.516
 7441SOL     OW23221   5.686   6.391   4.401
 7441SOL    HW123222   5.713   6.405   4.305
 7441SOL    HW223223   5.767   6.396   4.459
 7442SOL     OW23224   1.059   0.622   6.015
 7442SOL    HW123225   1.082   0.658   6.106
 7442SOL    HW223226   1.140   0.625   5.957
 7443SOL     OW23227   0.278   1.450   1.231
 7443SOL    HW123228   0.263   1.351   1.226
 7443SOL    HW223229   0.221   1.488   1.304
 7444SOL     OW23230   0.607   3.507   5.788
 7444SOL    HW123231   0.634   3.417   5.822
 7444SOL    HW223232   0.519   3.532   5.827
 7445SOL     OW23233   3.975   1.159   1.571
 7445SOL    HW123234   4.027   1.234   1.530
 7445SOL    HW223235   3.971   1.171   1.670
 7446SOL     OW23236   5.742   4.908   0.391
 7446SOL    HW123237   5.686   4.876   0.468
 7446SOL    HW223238   5.774   5.001   0.410
 7447SOL     OW23239   2.431   3.708   6.850
 7447SOL    HW123240   2.443   3.659   6.936
 7447SOL    HW223241   2.456   3.648   6.774
 7448SOL     OW23242   5.605   6.618   6.179
 7448SOL    HW123243   5.514   6.611   6.138
 7448SOL    HW223244   5.673   6.593   6.111
 7449SOL     OW23245   4.781   2.686   2.249
 7449SOL    HW123246   4.757   2.591   2.231
 7449SOL    HW223247   4.797   2.734   2.163
 7450SOL     OW23248   5.261   2.806   4.597
 7450SOL    HW123249   5.196   2.865   4.645
 7450SOL    HW223250   5.249   2.711   4.628
 7451SOL     OW23251   1.341   0.376   3.864
 7451SOL    HW123252   1.253   0.375   3.912
 7451SOL    HW223253   1.407   0.430   3.916
 7452SOL     OW23254   1.481   0.214   4.832
 7452SOL    HW123255   1.413   0.233   4.903
 7452SOL    HW223256   1.456   0.261   4.748
 7453SOL     OW23257   5.366   5.731   5.212
 7453SOL    HW123258   5.423   5.664   5.260
 7453SOL    HW223259   5.391   5.823   5.242
 7454SOL     OW23260   1.022   2.975   2.009
 7454SOL    HW123261   1.010   2.982   1.910
 7454SOL    HW223262   1.112   2.934   2.028
 7455SOL     OW23263   6.963   1.287   1.587
 7455SOL    HW123264   7.014   1.311   1.671
 7455SOL    HW223265   6.866   1.304   1.601
 7456SOL     OW23266   1.450   2.027   4.644
 7456SOL    HW123267   1.426   1.975   4.726
 7456SOL    HW223268   1.476   1.964   4.571
 7457SOL     OW23269   4.281   0.783   6.472
 7457SOL    HW123270   4.315   0.694   6.505
 7457SOL    HW223271   4.182   0.778   6.459
 7458SOL     OW23272   1.739   6.977   6.939
 7458SOL    HW123273   1.738   6.938   0.006
 7458SOL    HW223274   1.740   0.052   6.944
 7459SOL     OW23275   4.530   7.016   0.172
 7459SOL    HW123276   4.617   0.015   0.129
 7459SOL    HW223277   4.513   6.918   0.164
 7460SOL     OW23278   2.120   4.581   0.088
 7460SOL    HW123279   2.146   4.646   0.017
 7460SOL    HW223280   2.196   4.572   0.153
 7461SOL     OW23281   4.966   1.492   5.307
 7461SOL    HW123282   4.922   1.582   5.317
 7461SOL    HW223283   4.919   1.440   5.236
 7462SOL     OW23284   1.615   2.690   2.178
 7462SOL    HW123285   1.597   2.709   2.274
 7462SOL    HW223286   1.677   2.612   2.170
 7463SOL     OW23287   3.743   3.883   1.633
 7463SOL    HW123288   3.794   3.801   1.607
 7463SOL    HW223289   3.806   3.960   1.643
 7464SOL     OW23290   3.582   6.462   6.384
 7464SOL    HW123291   3.609   6.366   6.398
 7464SOL    HW223292   3.503   6.465   6.323
 7465SOL     OW23293   1.525   0.264   1.043
 7465SOL    HW123294   1.543   0.354   1.085
 7465SOL    HW223295   1.580   0.255   0.960
 7466SOL     OW23296   0.346   0.924   6.708
 7466SOL    HW123297   0.439   0.911   6.675
 7466SOL    HW223298   0.319   1.020   6.695
 7467SOL     OW23299   6.314   2.009   1.260
 7467SOL    HW123300   6.358   1.996   1.171
 7467SOL    HW223301   6.371   2.069   1.316
 7468SOL     OW23302   5.241   2.198   2.201
 7468SOL    HW123303   5.322   2.145   2.226
 7468SOL    HW223304   5.218   2.260   2.275
 7469SOL     OW23305   0.629   0.220   0.153
 7469SOL    HW123306   0.533   0.241   0.171
 7469SOL    HW223307   0.639   0.193   0.057
 7470SOL     OW23308   0.064   3.368   3.897
 7470SOL    HW123309   7.018   3.351   3.828
 7470SOL    HW223310   0.154   3.361   3.855
 7471SOL     OW23311   6.042   6.802   4.271
 7471SOL    HW123312   6.058   6.774   4.177
 7471SOL    HW223313   6.128   6.802   4.321
 7472SOL     OW23314   5.525   6.437   3.723
 7472SOL    HW123315   5.554   6.358   3.778
 7472SOL    HW223316   5.598   6.505   3.723
 7473SOL     OW23317   6.851   4.687   3.239
 7473SOL    HW123318   6.937   4.677   3.187
 7473SOL    HW223319   6.860   4.764   3.302
 7474SOL     OW23320   2.950   1.035   4.947
 7474SOL    HW123321   2.894   1.050   4.865
 7474SOL    HW223322   3.028   0.976   4.923
 7475SOL     OW23323   4.365   1.485   2.605
 7475SOL    HW123324   4.393   1.576   2.575
 7475SOL    HW223325   4.282   1.458   2.556
 7476SOL     OW23326   4.054   6.565   4.375
 7476SOL    HW123327   3.959   6.587   4.352
 7476SOL    HW223328   4.082   6.482   4.326
 7477SOL     OW23329   5.014   1.155   3.925
 7477SOL    HW123330   5.020   1.075   3.866
 7477SOL    HW223331   5.031   1.128   4.020
 7478SOL     OW23332   3.808   3.750   6.396
 7478SOL    HW123333   3.857   3.777   6.479
 7478SOL    HW223334   3.812   3.824   6.330
 7479SOL     OW23335   4.134   2.536   0.875
 7479SOL    HW123336   4.085   2.450   0.859
 7479SOL    HW223337   4.194   2.555   0.797
 7480SOL     OW23338   6.026   5.583   1.289
 7480SOL    HW123339   6.056   5.640   1.366
 7480SOL    HW223340   6.097   5.583   1.218
 7481SOL     OW23341   5.460   5.527   1.283
 7481SOL    HW123342   5.532   5.597   1.289
 7481SOL    HW223343   5.380   5.557   1.335
 7482SOL     OW23344   4.601   1.609   2.348
 7482SOL    HW123345   4.575   1.644   2.258
 7482SOL    HW223346   4.545   1.652   2.418
 7483SOL     OW23347   3.952   1.888   4.731
 7483SOL    HW123348   3.977   1.985   4.726
 7483SOL    HW223349   4.030   1.832   4.704
 7484SOL     OW23350   6.710   0.399   1.946
 7484SOL    HW123351   6.663   0.406   2.034
 7484SOL    HW223352   6.692   0.309   1.906
 7485SOL     OW23353   3.034   6.144   5.331
 7485SOL    HW123354   3.113   6.194   5.364
 7485SOL    HW223355   3.032   6.053   5.372
 7486SOL     OW23356   2.234   6.811   5.998
 7486SOL    HW123357   2.199   6.726   5.959
 7486SOL    HW223358   2.168   6.885   5.983
 7487SOL     OW23359   2.073   6.405   2.450
 7487SOL    HW123360   2.143   6.374   2.515
 7487SOL    HW223361   2.093   6.499   2.422
 7488SOL     OW23362   1.910   6.552   5.247
 7488SOL    HW123363   1.922   6.468   5.300
 7488SOL    HW223364   1.850   6.534   5.169
 7489SOL     OW23365   5.206   2.693   5.072
 7489SOL    HW123366   5.164   2.734   5.153
 7489SOL    HW223367   5.138   2.687   4.999
 7490SOL     OW23368   1.000   1.548   0.996
 7490SOL    HW123369   0.980   1.609   0.919
 7490SOL    HW223370   1.081   1.581   1.043
 7491SOL     OW23371   0.046   4.938   6.550
 7491SOL    HW123372   0.134   4.971   6.585
 7491SOL    HW223373   0.055   4.918   6.453
 7492SOL     OW23374   2.570   1.498   4.715
 7492SOL    HW123375   2.489   1.548   4.686
 7492SOL    HW223376   2.588   1.422   4.652
 7493SOL     OW23377   5.883   4.521   6.341
 7493SOL    HW123378   5.814   4.591   6.320
 7493SOL    HW223379   5.963   4.534   6.283
 7494SOL     OW23380   5.965   1.259   2.692
 7494SOL    HW123381   5.917   1.192   2.635
 7494SOL    HW223382   5.912   1.344   2.695
 7495SOL     OW23383   2.302   1.284   1.051
 7495SOL    HW123384   2.350   1.318   1.132
 7495SOL    HW223385   2.368   1.244   0.987
 7496SOL     OW23386   0.716   3.806   6.338
 7496SOL    HW123387   0.738   3.827   6.434
 7496SOL    HW223388   0.784   3.742   6.302
 7497SOL     OW23389   3.065   4.716   1.285
 7497SOL    HW123390   3.123   4.764   1.220
 7497SOL    HW223391   3.044   4.777   1.362
 7498SOL     OW23392   2.375   0.943   3.906
 7498SOL    HW123393   2.317   0.928   3.825
 7498SOL    HW223394   2.350   1.029   3.949
 7499SOL     OW23395   6.356   1.034   3.295
 7499SOL    HW123396   6.376   1.121   3.249
 7499SOL    HW223397   6.258   1.017   3.291
 7500SOL     OW23398   4.353   6.328   2.948
 7500SOL    HW123399   4.288   6.397   2.916
 7500SOL    HW223400   4.429   6.372   2.994
 7501SOL     OW23401   6.742   4.339   4.500
 7501SOL    HW123402   6.798   4.421   4.503
 7501SOL    HW223403   6.717   4.318   4.405
 7502SOL     OW23404   1.385   0.977   5.315
 7502SOL    HW123405   1.364   0.924   5.233
 7502SOL    HW223406   1.466   1.034   5.298
 7503SOL     OW23407   2.511   1.091   0.192
 7503SOL    HW123408   2.580   1.042   0.245
 7503SOL    HW223409   2.424   1.090   0.242
 7504SOL     OW23410   3.825   0.116   3.295
 7504SOL    HW123411   3.894   0.185   3.271
 7504SOL    HW223412   3.834   0.037   3.233
 7505SOL     OW23413   2.769   0.517   5.293
 7505SOL    HW123414   2.782   0.559   5.203
 7505SOL    HW223415   2.714   0.434   5.284
 7506SOL     OW23416   4.022   7.024   2.594
 7506SOL    HW123417   3.949   0.064   2.572
 7506SOL    HW223418   4.105   0.050   2.618
 7507SOL     OW23419   6.808   6.924   1.028
 7507SOL    HW123420   6.896   6.893   1.064
 7507SOL    HW223421   6.784   7.011   1.071
 7508SOL     OW23422   5.663   6.979   2.343
 7508SOL    HW123423   5.703   6.989   2.252
 7508SOL    HW223424   5.563   6.980   2.336
 7509SOL     OW23425   5.553   4.409   0.849
 7509SOL    HW123426   5.621   4.431   0.919
 7509SOL    HW223427   5.468   4.382   0.893
 7510SOL     OW23428   2.702   4.233   5.616
 7510SOL    HW123429   2.775   4.210   5.681
 7510SOL    HW223430   2.734   4.305   5.554
 7511SOL     OW23431   1.538   0.848   2.996
 7511SOL    HW123432   1.551   0.854   3.095
 7511SOL    HW223433   1.618   0.886   2.950
 7512SOL     OW23434   3.057   4.482   1.434
 7512SOL    HW123435   3.017   4.422   1.365
 7512SOL    HW223436   3.062   4.575   1.398
 7513SOL     OW23437   1.715   2.306   0.827
 7513SOL    HW123438   1.813   2.298   0.811
 7513SOL    HW223439   1.699   2.367   0.904
 7514SOL     OW23440   2.949   6.038   2.159
 7514SOL    HW123441   2.914   6.131   2.161
 7514SOL    HW223442   2.900   5.985   2.090
 7515SOL     OW23443   1.512   6.664   2.135
 7515SOL    HW123444   1.486   6.649   2.231
 7515SOL    HW223445   1.447   6.727   2.092
 7516SOL     OW23446   0.024   5.796   4.731
 7516SOL    HW123447   0.039   5.820   4.827
 7516SOL    HW223448   0.061   5.868   4.672
 7517SOL     OW23449   6.766   3.582   1.346
 7517SOL    HW123450   6.726   3.654   1.290
 7517SOL    HW223451   6.762   3.495   1.298
 7518SOL     OW23452   3.806   5.800   3.877
 7518SOL    HW123453   3.827   5.723   3.938
 7518SOL    HW223454   3.847   5.782   3.787
 7519SOL     OW23455   0.363   6.727   3.754
 7519SOL    HW123456   0.279   6.768   3.720
 7519SOL    HW223457   0.419   6.698   3.676
 7520SOL     OW23458   2.922   0.213   1.958
 7520SOL    HW123459   2.986   0.144   1.923
 7520SOL    HW223460   2.973   0.295   1.983
 7521SOL     OW23461   4.475   4.456   5.417
 7521SOL    HW123462   4.405   4.390   5.446
 7521SOL    HW223463   4.550   4.407   5.372
 7522SOL     OW23464   3.013   0.894   6.393
 7522SOL    HW123465   2.974   0.857   6.477
 7522SOL    HW223466   3.052   0.984   6.412
 7523SOL     OW23467   5.376   1.255   5.939
 7523SOL    HW123468   5.300   1.299   5.986
 7523SOL    HW223469   5.407   1.313   5.863
 7524SOL     OW23470   0.700   2.317   6.118
 7524SOL    HW123471   0.767   2.388   6.137
 7524SOL    HW223472   0.624   2.355   6.066
 7525SOL     OW23473   2.825   6.756   6.550
 7525SOL    HW123474   2.871   6.823   6.609
 7525SOL    HW223475   2.726   6.770   6.555
 7526SOL     OW23476   3.469   2.901   2.284
 7526SOL    HW123477   3.522   2.865   2.361
 7526SOL    HW223478   3.456   2.828   2.216
 7527SOL     OW23479   4.573   5.553   3.399
 7527SOL    HW123480   4.604   5.621   3.466
 7527SOL    HW223481   4.476   5.535   3.413
 7528SOL     OW23482   4.379   2.514   6.950
 7528SOL    HW123483   4.407   2.420   6.970
 7528SOL    HW223484   4.281   2.523   6.965
 7529SOL     OW23485   5.756   0.992   4.420
 7529SOL    HW123486   5.832   1.054   4.441
 7529SOL    HW223487   5.718   0.956   4.505
 7530SOL     OW23488   5.917   3.423   2.318
 7530SOL    HW123489   5.969   3.374   2.248
 7530SOL    HW223490   5.939   3.385   2.408
 7531SOL     OW23491   4.023   2.200   3.926
 7531SOL    HW123492   3.924   2.202   3.939
 7531SOL    HW223493   4.065   2.141   3.995
 7532SOL     OW23494   5.005   5.540   1.631
 7532SOL    HW123495   4.931   5.576   1.688
 7532SOL    HW223496   5.086   5.598   1.640
 7533SOL     OW23497   2.702   0.593   3.209
 7533SOL    HW123498   2.742   0.615   3.119
 7533SOL    HW223499   2.771   0.605   3.280
 7534SOL     OW23500   3.514   6.939   4.831
 7534SOL    HW123501   3.455   6.928   4.911
 7534SOL    HW223502   3.458   6.970   4.754
 7535SOL     OW23503   2.611   0.968   5.936
 7535SOL    HW123504   2.572   1.030   6.003
 7535SOL    HW223505   2.539   0.913   5.894
 7536SOL     OW23506   5.287   4.557   4.861
 7536SOL    HW123507   5.335   4.575   4.775
 7536SOL    HW223508   5.269   4.459   4.869
 7537SOL     OW23509   2.320   4.776   4.746
 7537SOL    HW123510   2.419   4.790   4.751
 7537SOL    HW223511   2.281   4.837   4.676
 7538SOL     OW23512   3.100   3.361   1.912
 7538SOL    HW123513   3.175   3.402   1.859
 7538SOL    HW223514   3.013   3.400   1.883
 7539SOL     OW23515   2.868   2.191   4.630
 7539SOL    HW123516   2.939   2.209   4.562
 7539SOL    HW223517   2.857   2.093   4.641
 7540SOL     OW23518   3.179   1.008   5.794
 7540SOL    HW123519   3.262   1.065   5.795
 7540SOL    HW223520   3.128   1.023   5.878
 7541SOL     OW23521   6.890   3.464   4.658
 7541SOL    HW123522   6.820   3.424   4.598
 7541SOL    HW223523   6.946   3.392   4.697
 7542SOL     OW23524   0.227   6.520   6.618
 7542SOL    HW123525   0.315   6.474   6.612
 7542SOL    HW223526   0.158   6.466   6.570
 7543SOL     OW23527   3.922   1.874   0.771
 7543SOL    HW123528   3.910   1.861   0.869
 7543SOL    HW223529   3.924   1.972   0.750
 7544SOL     OW23530   0.417   2.418   3.786
 7544SOL    HW123531   0.346   2.478   3.748
 7544SOL    HW223532   0.478   2.472   3.844
 7545SOL     OW23533   5.310   6.710   2.824
 7545SOL    HW123534   5.215   6.722   2.849
 7545SOL    HW223535   5.367   6.707   2.907
 7546SOL     OW23536   4.506   0.823   1.259
 7546SOL    HW123537   4.521   0.904   1.317
 7546SOL    HW223538   4.425   0.837   1.202
 7547SOL     OW23539   3.721   6.339   0.520
 7547SOL    HW123540   3.688   6.391   0.441
 7547SOL    HW223541   3.820   6.353   0.530
 7548SOL     OW23542   2.956   2.128   0.617
 7548SOL    HW123543   2.928   2.091   0.529
 7548SOL    HW223544   2.980   2.053   0.679
 7549SOL     OW23545   6.275   2.065   1.704
 7549SOL    HW123546   6.292   1.967   1.714
 7549SOL    HW223547   6.188   2.078   1.656
 7550SOL     OW23548   2.511   4.889   2.132
 7550SOL    HW123549   2.559   4.813   2.088
 7550SOL    HW223550   2.571   4.969   2.136
 7551SOL     OW23551   4.625   4.248   0.036
 7551SOL    HW123552   4.590   4.255   6.967
 7551SOL    HW223553   4.682   4.327   0.057
 7552SOL     OW23554   1.916   5.786   3.937
 7552SOL    HW123555   1.942   5.727   4.013
 7552SOL    HW223556   1.948   5.746   3.851
 7553SOL     OW23557   3.942   5.049   5.385
 7553SOL    HW123558   4.020   5.110   5.369
 7553SOL    HW223559   3.956   4.999   5.470
 7554SOL     OW23560   5.036   0.754   0.626
 7554SOL    HW123561   5.097   0.714   0.694
 7554SOL    HW223562   4.942   0.751   0.660
 7555SOL     OW23563   1.222   4.930   4.517
 7555SOL    HW123564   1.168   4.890   4.444
 7555SOL    HW223565   1.170   4.929   4.603
 7556SOL     OW23566   0.588   2.374   5.617
 7556SOL    HW123567   0.666   2.343   5.672
 7556SOL    HW223568   0.563   2.303   5.551
 7557SOL     OW23569   5.615   3.286   6.270
 7557SOL    HW123570   5.693   3.233   6.305
 7557SOL    HW223571   5.612   3.279   6.170
 7558SOL     OW23572   2.573   2.535   3.785
 7558SOL    HW123573   2.485   2.569   3.751
 7558SOL    HW223574   2.574   2.537   3.885
 7559SOL     OW23575   6.577   5.737   1.159
 7559SOL    HW123576   6.634   5.789   1.222
 7559SOL    HW223577   6.556   5.648   1.200
 7560SOL     OW23578   5.479   6.395   0.031
 7560SOL    HW123579   5.381   6.398   0.050
 7560SOL    HW223580   5.517   6.309   0.064
 7561SOL     OW23581   0.758   3.090   0.401
 7561SOL    HW123582   0.688   3.155   0.430
 7561SOL    HW223583   0.752   3.007   0.456
 7562SOL     OW23584   4.744   6.099   4.882
 7562SOL    HW123585   4.729   6.000   4.877
 7562SOL    HW223586   4.658   6.144   4.904
 7563SOL     OW23587   2.596   0.050   0.418
 7563SOL    HW123588   2.621   0.144   0.443
 7563SOL    HW223589   2.566   0.049   0.322
 7564SOL     OW23590   4.876   1.395   2.780
 7564SOL    HW123591   4.858   1.469   2.846
 7564SOL    HW223592   4.801   1.392   2.713
 7565SOL     OW23593   4.747   4.545   6.991
 7565SOL    HW123594   4.790   4.562   6.903
 7565SOL    HW223595   4.648   4.534   6.978
 7566SOL     OW23596   0.767   5.025   3.228
 7566SOL    HW123597   0.861   5.039   3.259
 7566SOL    HW223598   0.760   4.936   3.182
 7567SOL     OW23599   1.738   2.165   5.249
 7567SOL    HW123600   1.695   2.253   5.231
 7567SOL    HW223601   1.764   2.159   5.346
 7568SOL     OW23602   5.624   6.008   3.633
 7568SOL    HW123603   5.642   6.057   3.718
 7568SOL    HW223604   5.692   5.936   3.621
 7569SOL     OW23605   4.262   4.739   6.000
 7569SOL    HW123606   4.244   4.703   5.909
 7569SOL    HW223607   4.182   4.787   6.034
 7570SOL     OW23608   5.418   4.776   5.522
 7570SOL    HW123609   5.494   4.787   5.585
 7570SOL    HW223610   5.333   4.808   5.564
 7571SOL     OW23611   5.519   4.785   2.259
 7571SOL    HW123612   5.477   4.696   2.278
 7571SOL    HW223613   5.462   4.835   2.194
 7572SOL     OW23614   5.138   0.623   3.324
 7572SOL    HW123615   5.137   0.534   3.370
 7572SOL    HW223616   5.165   0.611   3.228
 7573SOL     OW23617   6.012   5.659   4.523
 7573SOL    HW123618   6.018   5.696   4.431
 7573SOL    HW223619   6.036   5.562   4.522
 7574SOL     OW23620   6.689   0.837   4.871
 7574SOL    HW123621   6.698   0.875   4.963
 7574SOL    HW223622   6.635   0.899   4.814
 7575SOL     OW23623   4.535   0.334   5.556
 7575SOL    HW123624   4.592   0.279   5.494
 7575SOL    HW223625   4.571   0.427   5.560
 7576SOL     OW23626   6.210   5.730   0.510
 7576SOL    HW123627   6.308   5.744   0.526
 7576SOL    HW223628   6.179   5.788   0.435
 7577SOL     OW23629   6.959   6.824   5.368
 7577SOL    HW123630   0.004   6.785   5.307
 7577SOL    HW223631   6.874   6.771   5.361
 7578SOL     OW23632   2.203   6.163   3.591
 7578SOL    HW123633   2.224   6.069   3.563
 7578SOL    HW223634   2.145   6.206   3.523
 7579SOL     OW23635   4.700   1.942   2.532
 7579SOL    HW123636   4.616   1.989   2.503
 7579SOL    HW223637   4.775   1.967   2.470
 7580SOL     OW23638   1.505   4.355   3.859
 7580SOL    HW123639   1.460   4.391   3.778
 7580SOL    HW223640   1.596   4.395   3.868
 7581SOL     OW23641   4.978   0.774   0.969
 7581SOL    HW123642   4.980   0.721   1.053
 7581SOL    HW223643   5.059   0.833   0.965
 7582SOL     OW23644   3.034   0.670   6.828
 7582SOL    HW123645   3.085   0.595   6.869
 7582SOL    HW223646   3.048   0.754   6.881
 7583SOL     OW23647   5.635   3.770   1.414
 7583SOL    HW123648   5.565   3.764   1.485
 7583SOL    HW223649   5.604   3.720   1.333
 7584SOL     OW23650   3.279   6.667   0.993
 7584SOL    HW123651   3.189   6.624   0.999
 7584SOL    HW223652   3.333   6.622   0.922
 7585SOL     OW23653   1.961   2.940   5.774
 7585SOL    HW123654   1.904   2.859   5.759
 7585SOL    HW223655   1.911   3.021   5.744
 7586SOL     OW23656   3.627   0.492   3.387
 7586SOL    HW123657   3.699   0.448   3.441
 7586SOL    HW223658   3.609   0.583   3.424
 7587SOL     OW23659   3.600   1.498   6.493
 7587SOL    HW123660   3.531   1.431   6.466
 7587SOL    HW223661   3.641   1.470   6.580
 7588SOL     OW23662   0.732   3.332   2.084
 7588SOL    HW123663   0.650   3.287   2.049
 7588SOL    HW223664   0.810   3.270   2.077
 7589SOL     OW23665   5.927   0.113   0.428
 7589SOL    HW123666   5.829   0.093   0.432
 7589SOL    HW223667   5.979   0.034   0.461
 7590SOL     OW23668   2.793   2.092   6.559
 7590SOL    HW123669   2.711   2.035   6.566
 7590SOL    HW223670   2.768   2.181   6.521
 7591SOL     OW23671   7.019   5.136   0.492
 7591SOL    HW123672   0.074   5.103   0.441
 7591SOL    HW223673   0.026   5.191   0.570
 7592SOL     OW23674   0.127   4.733   6.730
 7592SOL    HW123675   0.213   4.706   6.687
 7592SOL    HW223676   0.085   4.807   6.675
 7593SOL     OW23677   5.040   2.333   0.684
 7593SOL    HW123678   5.072   2.321   0.590
 7593SOL    HW223679   5.041   2.245   0.731
 7594SOL     OW23680   6.959   4.086   2.496
 7594SOL    HW123681   0.031   4.061   2.509
 7594SOL    HW223682   6.949   4.185   2.503
 7595SOL     OW23683   0.086   2.280   5.907
 7595SOL    HW123684   0.138   2.222   5.845
 7595SOL    HW223685   0.055   2.362   5.858
 7596SOL     OW23686   4.274   5.016   2.906
 7596SOL    HW123687   4.248   4.923   2.931
 7596SOL    HW223688   4.373   5.027   2.916
 7597SOL     OW23689   2.964   5.541   1.614
 7597SOL    HW123690   2.902   5.464   1.595
 7597SOL    HW223691   3.040   5.537   1.549
 7598SOL     OW23692   7.016   1.228   3.019
 7598SOL    HW123693   0.003   1.140   2.972
 7598SOL    HW223694   6.928   1.231   3.065
 7599SOL     OW23695   5.766   1.572   3.487
 7599SOL    HW123696   5.823   1.541   3.564
 7599SOL    HW223697   5.670   1.553   3.507
 7600SOL     OW23698   1.662   0.513   2.737
 7600SOL    HW123699   1.639   0.513   2.834
 7600SOL    HW223700   1.586   0.473   2.686
 7601SOL     OW23701   2.049   5.541   2.769
 7601SOL    HW123702   1.956   5.553   2.735
 7601SOL    HW223703   2.113   5.540   2.691
 7602SOL     OW23704   2.078   3.925   5.896
 7602SOL    HW123705   2.059   3.862   5.821
 7602SOL    HW223706   2.169   3.906   5.934
 7603SOL     OW23707   1.221   5.734   6.051
 7603SOL    HW123708   1.137   5.731   6.104
 7603SOL    HW223709   1.284   5.663   6.082
 7604SOL     OW23710   2.382   4.947   4.096
 7604SOL    HW123711   2.443   5.022   4.070
 7604SOL    HW223712   2.296   4.956   4.047
 7605SOL     OW23713   1.656   6.119   0.630
 7605SOL    HW123714   1.705   6.117   0.543
 7605SOL    HW223715   1.581   6.052   0.628
 7606SOL     OW23716   0.217   3.023   2.969
 7606SOL    HW123717   0.262   2.950   3.022
 7606SOL    HW223718   0.124   2.995   2.946
 7607SOL     OW23719   4.274   6.320   0.385
 7607SOL    HW123720   4.192   6.269   0.360
 7607SOL    HW223721   4.338   6.260   0.434
 7608SOL     OW23722   3.203   4.128   3.057
 7608SOL    HW123723   3.165   4.061   3.121
 7608SOL    HW223724   3.132   4.195   3.034
 7609SOL     OW23725   6.937   4.341   3.587
 7609SOL    HW123726   6.955   4.385   3.499
 7609SOL    HW223727   6.932   4.410   3.659
 7610SOL     OW23728   6.242   0.234   6.584
 7610SOL    HW123729   6.224   0.291   6.664
 7610SOL    HW223730   6.166   0.243   6.519
 7611SOL     OW23731   0.989   2.187   0.124
 7611SOL    HW123732   0.987   2.128   0.044
 7611SOL    HW223733   1.010   2.133   0.206
 7612SOL     OW23734   4.624   2.644   4.840
 7612SOL    HW123735   4.622   2.584   4.760
 7612SOL    HW223736   4.651   2.736   4.811
 7613SOL     OW23737   5.403   2.159   1.866
 7613SOL    HW123738   5.433   2.177   1.772
 7613SOL    HW223739   5.401   2.246   1.917
 7614SOL     OW23740   5.005   2.716   1.543
 7614SOL    HW123741   5.074   2.768   1.493
 7614SOL    HW223742   5.020   2.618   1.529
 7615SOL     OW23743   4.910   4.258   5.789
 7615SOL    HW123744   4.894   4.194   5.714
 7615SOL    HW223745   4.827   4.311   5.807
 7616SOL     OW23746   6.941   4.545   4.532
 7616SOL    HW123747   7.003   4.533   4.610
 7616SOL    HW223748   6.977   4.617   4.473
 7617SOL     OW23749   2.924   5.503   2.555
 7617SOL    HW123750   2.853   5.524   2.488
 7617SOL    HW223751   2.940   5.582   2.613
 7618SOL     OW23752   0.595   2.381   6.970
 7618SOL    HW123753   0.670   2.432   6.928
 7618SOL    HW223754   0.602   2.388   0.046
 7619SOL     OW23755   6.089   3.406   5.060
 7619SOL    HW123756   5.995   3.372   5.058
 7619SOL    HW223757   6.153   3.329   5.050
 7620SOL     OW23758   4.235   5.118   0.089
 7620SOL    HW123759   4.180   5.077   0.017
 7620SOL    HW223760   4.176   5.166   0.153
 7621SOL     OW23761   0.388   1.627   0.560
 7621SOL    HW123762   0.449   1.671   0.495
 7621SOL    HW223763   0.407   1.529   0.564
 7622SOL     OW23764   4.868   5.012   1.744
 7622SOL    HW123765   4.856   5.025   1.645
 7622SOL    HW223766   4.791   4.961   1.780
 7623SOL     OW23767   4.613   4.368   6.788
 7623SOL    HW123768   4.656   4.436   6.728
 7623SOL    HW223769   4.584   4.289   6.733
 7624SOL     OW23770   6.752   2.796   4.551
 7624SOL    HW123771   6.789   2.750   4.470
 7624SOL    HW223772   6.813   2.869   4.579
 7625SOL     OW23773   4.432   0.595   1.686
 7625SOL    HW123774   4.488   0.672   1.718
 7625SOL    HW223775   4.447   0.580   1.589
 7626SOL     OW23776   6.854   6.594   4.613
 7626SOL    HW123777   6.929   6.583   4.678
 7626SOL    HW223778   6.780   6.532   4.638
 7627SOL     OW23779   5.247   3.297   0.252
 7627SOL    HW123780   5.255   3.348   0.167
 7627SOL    HW223781   5.186   3.219   0.239
 7628SOL     OW23782   3.433   0.802   1.777
 7628SOL    HW123783   3.449   0.809   1.678
 7628SOL    HW223784   3.335   0.787   1.793
 7629SOL     OW23785   6.714   6.823   3.048
 7629SOL    HW123786   6.622   6.839   3.084
 7629SOL    HW223787   6.759   6.750   3.101
 7630SOL     OW23788   5.371   6.724   1.821
 7630SOL    HW123789   5.397   6.646   1.877
 7630SOL    HW223790   5.321   6.791   1.877
 7631SOL     OW23791   0.620   0.824   5.129
 7631SOL    HW123792   0.661   0.762   5.196
 7631SOL    HW223793   0.667   0.816   5.042
 7632SOL     OW23794   3.557   2.407   1.691
 7632SOL    HW123795   3.612   2.449   1.619
 7632SOL    HW223796   3.618   2.367   1.760
 7633SOL     OW23797   4.360   2.528   0.266
 7633SOL    HW123798   4.398   2.532   0.174
 7633SOL    HW223799   4.405   2.596   0.324
 7634SOL     OW23800   1.427   1.269   2.231
 7634SOL    HW123801   1.379   1.216   2.162
 7634SOL    HW223802   1.510   1.309   2.191
 7635SOL     OW23803   2.881   5.889   5.074
 7635SOL    HW123804   2.875   5.987   5.056
 7635SOL    HW223805   2.816   5.840   5.016
 7636SOL     OW23806   1.645   1.516   3.250
 7636SOL    HW123807   1.587   1.493   3.328
 7636SOL    HW223808   1.597   1.579   3.190
 7637SOL     OW23809   2.854   6.518   2.450
 7637SOL    HW123810   2.808   6.467   2.522
 7637SOL    HW223811   2.927   6.574   2.489
 7638SOL     OW23812   4.411   5.757   2.068
 7638SOL    HW123813   4.323   5.802   2.064
 7638SOL    HW223814   4.426   5.721   2.160
 7639SOL     OW23815   1.431   2.515   0.940
 7639SOL    HW123816   1.466   2.463   1.017
 7639SOL    HW223817   1.507   2.556   0.889
 7640SOL     OW23818   3.305   2.054   0.166
 7640SOL    HW123819   3.357   2.069   0.082
 7640SOL    HW223820   3.247   2.133   0.183
 7641SOL     OW23821   0.807   4.516   1.689
 7641SOL    HW123822   0.775   4.611   1.688
 7641SOL    HW223823   0.742   4.459   1.739
 7642SOL     OW23824   3.089   1.504   2.793
 7642SOL    HW123825   3.002   1.552   2.778
 7642SOL    HW223826   3.092   1.422   2.737
 7643SOL     OW23827   4.960   2.721   3.974
 7643SOL    HW123828   4.910   2.796   4.018
 7643SOL    HW223829   5.045   2.704   4.025
 7644SOL     OW23830   5.868   2.186   2.507
 7644SOL    HW123831   5.950   2.244   2.512
 7644SOL    HW223832   5.791   2.234   2.548
 7645SOL     OW23833   4.388   4.011   5.290
 7645SOL    HW123834   4.331   3.929   5.298
 7645SOL    HW223835   4.333   4.092   5.309
 7646SOL     OW23836   2.063   2.307   2.358
 7646SOL    HW123837   2.002   2.229   2.351
 7646SOL    HW223838   2.142   2.282   2.415
 7647SOL     OW23839   0.098   3.308   1.871
 7647SOL    HW123840   0.154   3.300   1.788
 7647SOL    HW223841   0.157   3.321   1.950
 7648SOL     OW23842   3.677   1.377   3.570
 7648SOL    HW123843   3.625   1.418   3.495
 7648SOL    HW223844   3.637   1.404   3.657
 7649SOL     OW23845   1.131   1.562   2.920
 7649SOL    HW123846   1.114   1.646   2.869
 7649SOL    HW223847   1.160   1.585   3.013
 7650SOL     OW23848   5.398   2.640   1.642
 7650SOL    HW123849   5.335   2.586   1.697
 7650SOL    HW223850   5.384   2.737   1.659
 7651SOL     OW23851   2.865   6.427   5.078
 7651SOL    HW123852   2.839   6.476   4.995
 7651SOL    HW223853   2.803   6.451   5.152
 7652SOL     OW23854   0.144   4.050   3.800
 7652SOL    HW123855   0.142   3.985   3.876
 7652SOL    HW223856   0.157   4.142   3.836
 7653SOL     OW23857   2.450   1.699   0.762
 7653SOL    HW123858   2.394   1.695   0.844
 7653SOL    HW223859   2.542   1.730   0.786
 7654SOL     OW23860   4.898   3.630   4.189
 7654SOL    HW123861   4.991   3.655   4.166
 7654SOL    HW223862   4.898   3.548   4.247
 7655SOL     OW23863   3.525   0.062   3.305
 7655SOL    HW123864   3.447   0.122   3.322
 7655SOL    HW223865   3.610   0.114   3.313
 7656SOL     OW23866   1.842   4.794   6.432
 7656SOL    HW123867   1.827   4.731   6.356
 7656SOL    HW223868   1.774   4.777   6.504
 7657SOL     OW23869   2.454   2.701   3.291
 7657SOL    HW123870   2.428   2.753   3.372
 7657SOL    HW223871   2.524   2.752   3.240
 7658SOL     OW23872   4.035   6.316   5.876
 7658SOL    HW123873   3.957   6.278   5.925
 7658SOL    HW223874   4.019   6.307   5.777
 7659SOL     OW23875   5.576   5.621   6.870
 7659SOL    HW123876   5.596   5.679   6.949
 7659SOL    HW223877   5.533   5.675   6.798
 7660SOL     OW23878   6.641   6.389   4.324
 7660SOL    HW123879   6.738   6.414   4.328
 7660SOL    HW223880   6.598   6.410   4.412
 7661SOL     OW23881   5.866   2.483   4.519
 7661SOL    HW123882   5.817   2.443   4.441
 7661SOL    HW223883   5.952   2.434   4.533
 7662SOL     OW23884   0.789   2.493   2.296
 7662SOL    HW123885   0.867   2.499   2.358
 7662SOL    HW223886   0.772   2.398   2.273
 7663SOL     OW23887   6.759   6.809   6.228
 7663SOL    HW123888   6.766   6.901   6.189
 7663SOL    HW223889   6.816   6.803   6.309
 7664SOL     OW23890   3.962   0.847   2.034
 7664SOL    HW123891   3.920   0.857   2.124
 7664SOL    HW223892   3.985   0.938   1.998
 7665SOL     OW23893   4.706   0.251   4.569
 7665SOL    HW123894   4.784   0.200   4.533
 7665SOL    HW223895   4.706   0.246   4.669
 7666SOL     OW23896   0.630   6.735   1.295
 7666SOL    HW123897   0.610   6.652   1.243
 7666SOL    HW223898   0.675   6.802   1.236
 7667SOL     OW23899   4.396   5.976   1.415
 7667SOL    HW123900   4.373   5.897   1.358
 7667SOL    HW223901   4.488   5.966   1.451
 7668SOL     OW23902   2.830   4.193   1.023
 7668SOL    HW123903   2.768   4.259   0.979
 7668SOL    HW223904   2.872   4.136   0.952
 7669SOL     OW23905   5.846   2.037   6.075
 7669SOL    HW123906   5.848   2.073   5.982
 7669SOL    HW223907   5.928   1.983   6.092
 7670SOL     OW23908   1.541   4.759   6.033
 7670SOL    HW123909   1.560   4.732   5.939
 7670SOL    HW223910   1.534   4.677   6.090
 7671SOL     OW23911   4.425   0.522   4.869
 7671SOL    HW123912   4.389   0.434   4.837
 7671SOL    HW223913   4.393   0.595   4.809
 7672SOL     OW23914   5.857   6.276   3.710
 7672SOL    HW123915   5.955   6.275   3.729
 7672SOL    HW223916   5.809   6.218   3.777
 7673SOL     OW23917   2.120   5.248   0.001
 7673SOL    HW123918   2.128   5.195   0.086
 7673SOL    HW223919   2.102   5.344   0.023
 7674SOL     OW23920   6.142   2.547   4.044
 7674SOL    HW123921   6.215   2.487   4.011
 7674SOL    HW223922   6.171   2.642   4.036
 7675SOL     OW23923   4.918   0.593   2.993
 7675SOL    HW123924   4.907   0.650   2.912
 7675SOL    HW223925   5.009   0.609   3.032
 7676SOL     OW23926   1.552   2.330   0.606
 7676SOL    HW123927   1.601   2.340   0.693
 7676SOL    HW223928   1.454   2.322   0.624
 7677SOL     OW23929   0.107   3.775   2.567
 7677SOL    HW123930   0.172   3.744   2.637
 7677SOL    HW223931   0.129   3.869   2.540
 7678SOL     OW23932   1.799   1.143   5.843
 7678SOL    HW123933   1.893   1.119   5.821
 7678SOL    HW223934   1.766   1.084   5.917
 7679SOL     OW23935   1.790   5.970   5.338
 7679SOL    HW123936   1.885   5.949   5.359
 7679SOL    HW223937   1.736   5.886   5.341
 7680SOL     OW23938   1.744   2.644   0.274
 7680SOL    HW123939   1.786   2.735   0.267
 7680SOL    HW223940   1.749   2.612   0.368
 7681SOL     OW23941   2.887   0.005   0.192
 7681SOL    HW123942   2.864   0.097   0.224
 7681SOL    HW223943   2.956   6.989   0.252
 7682SOL     OW23944   3.664   0.269   1.867
 7682SOL    HW123945   3.741   0.295   1.809
 7682SOL    HW223946   3.583   0.253   1.811
 7683SOL     OW23947   6.953   1.952   3.978
 7683SOL    HW123948   6.904   1.941   4.065
 7683SOL    HW223949   6.888   1.947   3.903
 7684SOL     OW23950   4.399   1.777   0.740
 7684SOL    HW123951   4.464   1.780   0.816
 7684SOL    HW223952   4.387   1.682   0.711
 7685SOL     OW23953   3.199   3.435   0.050
 7685SOL    HW123954   3.124   3.437   7.008
 7685SOL    HW223955   3.168   3.394   0.136
 7686SOL     OW23956   5.270   0.227   3.165
 7686SOL    HW123957   5.303   0.158   3.229
 7686SOL    HW223958   5.203   0.285   3.209
 7687SOL     OW23959   5.942   5.031   5.455
 7687SOL    HW123960   5.924   4.943   5.499
 7687SOL    HW223961   5.996   5.089   5.517
 7688SOL     OW23962   0.500   0.128   5.230
 7688SOL    HW123963   0.424   0.156   5.171
 7688SOL    HW223964   0.466   0.114   5.323
 7689SOL     OW23965   5.070   5.453   2.961
 7689SOL    HW123966   5.040   5.547   2.970
 7689SOL    HW223967   5.170   5.449   2.961
 7690SOL     OW23968   6.660   5.076   0.991
 7690SOL    HW123969   6.753   5.099   0.962
 7690SOL    HW223970   6.651   4.977   0.997
 7691SOL     OW23971   5.656   3.197   4.171
 7691SOL    HW123972   5.647   3.100   4.191
 7691SOL    HW223973   5.566   3.241   4.175
 7692SOL     OW23974   1.040   6.810   1.744
 7692SOL    HW123975   1.096   6.891   1.765
 7692SOL    HW223976   1.093   6.727   1.764
 7693SOL     OW23977   3.929   7.002   1.244
 7693SOL    HW123978   4.017   7.016   1.200
 7693SOL    HW223979   3.942   6.991   1.343
 7694SOL     OW23980   6.986   4.239   4.093
 7694SOL    HW123981   6.913   4.178   4.063
 7694SOL    HW223982   7.002   4.226   4.191
 7695SOL     OW23983   3.705   6.396   0.236
 7695SOL    HW123984   3.759   6.480   0.248
 7695SOL    HW223985   3.610   6.420   0.220
 7696SOL     OW23986   6.466   1.467   4.718
 7696SOL    HW123987   6.447   1.560   4.750
 7696SOL    HW223988   6.466   1.465   4.618
 7697SOL     OW23989   2.957   0.834   2.349
 7697SOL    HW123990   2.917   0.846   2.441
 7697SOL    HW223991   3.048   0.794   2.357
 7698SOL     OW23992   7.016   2.506   4.624
 7698SOL    HW123993   6.965   2.420   4.615
 7698SOL    HW223994   0.089   2.486   4.627
 7699SOL     OW23995   3.997   5.492   6.732
 7699SOL    HW123996   3.967   5.443   6.651
 7699SOL    HW223997   3.993   5.431   6.811
 7700SOL     OW23998   4.691   6.178   5.220
 7700SOL    HW123999   4.616   6.131   5.173
 7700SOL    HW224000   4.774   6.122   5.216
 7701SOL     OW24001   6.797   1.712   6.368
 7701SOL    HW124002   6.895   1.696   6.373
 7701SOL    HW224003   6.776   1.804   6.400
 7702SOL     OW24004   3.093   6.275   6.075
 7702SOL    HW124005   3.023   6.235   6.133
 7702SOL    HW224006   3.080   6.246   5.980
 7703SOL     OW24007   6.864   0.595   4.523
 7703SOL    HW124008   6.923   0.666   4.484
 7703SOL    HW224009   6.790   0.637   4.575
 7704SOL     OW24010   5.328   4.912   5.297
 7704SOL    HW124011   5.242   4.864   5.281
 7704SOL    HW224012   5.383   4.860   5.362
 7705SOL     OW24013   4.065   5.331   5.972
 7705SOL    HW124014   4.132   5.394   5.933
 7705SOL    HW224015   3.984   5.328   5.914
 7706SOL     OW24016   4.670   1.596   5.496
 7706SOL    HW124017   4.752   1.654   5.498
 7706SOL    HW224018   4.610   1.626   5.422
 7707SOL     OW24019   1.086   6.350   6.732
 7707SOL    HW124020   1.047   6.331   6.823
 7707SOL    HW224021   1.120   6.444   6.729
 7708SOL     OW24022   5.235   6.055   5.045
 7708SOL    HW124023   5.141   6.054   5.010
 7708SOL    HW224024   5.293   6.107   4.983
 7709SOL     OW24025   5.449   3.993   1.406
 7709SOL    HW124026   5.495   3.924   1.349
 7709SOL    HW224027   5.407   3.948   1.485
 7710SOL     OW24028   3.453   1.225   0.950
 7710SOL    HW124029   3.457   1.132   0.988
 7710SOL    HW224030   3.473   1.221   0.853
 7711SOL     OW24031   6.028   5.956   5.144
 7711SOL    HW124032   6.030   5.899   5.062
 7711SOL    HW224033   5.945   5.938   5.196
 7712SOL     OW24034   5.750   4.388   1.587
 7712SOL    HW124035   5.769   4.411   1.683
 7712SOL    HW224036   5.752   4.472   1.532
 7713SOL     OW24037   1.442   4.691   0.501
 7713SOL    HW124038   1.427   4.751   0.423
 7713SOL    HW224039   1.536   4.657   0.500
 7714SOL     OW24040   6.309   5.032   5.346
 7714SOL    HW124041   6.237   5.100   5.337
 7714SOL    HW224042   6.344   5.033   5.440
 7715SOL     OW24043   4.587   1.802   0.947
 7715SOL    HW124044   4.677   1.761   0.961
 7715SOL    HW224045   4.597   1.901   0.936
 7716SOL     OW24046   6.339   3.936   3.550
 7716SOL    HW124047   6.278   3.886   3.490
 7716SOL    HW224048   6.341   3.892   3.640
 7717SOL     OW24049   2.311   1.078   5.123
 7717SOL    HW124050   2.229   1.070   5.180
 7717SOL    HW224051   2.349   1.170   5.131
 7718SOL     OW24052   2.039   1.692   3.001
 7718SOL    HW124053   1.977   1.632   2.951
 7718SOL    HW224054   2.133   1.660   2.989
 7719SOL     OW24055   0.360   3.924   4.379
 7719SOL    HW124056   0.418   3.881   4.310
 7719SOL    HW224057   0.323   4.010   4.343
 7720SOL     OW24058   6.849   6.958   0.766
 7720SOL    HW124059   6.848   6.959   0.866
 7720SOL    HW224060   6.774   6.902   0.732
 7721SOL     OW24061   1.165   4.733   2.140
 7721SOL    HW124062   1.131   4.827   2.146
 7721SOL    HW224063   1.124   4.687   2.062
 7722SOL     OW24064   0.122   5.689   2.677
 7722SOL    HW124065   0.214   5.727   2.677
 7722SOL    HW224066   0.103   5.646   2.765
 7723SOL     OW24067   6.630   3.669   0.142
 7723SOL    HW124068   6.678   3.751   0.112
 7723SOL    HW224069   6.687   3.619   0.207
 7724SOL     OW24070   2.383   4.278   1.826
 7724SOL    HW124071   2.369   4.181   1.805
 7724SOL    HW224072   2.375   4.332   1.742
 7725SOL     OW24073   5.109   2.995   3.955
 7725SOL    HW124074   5.011   2.983   3.937
 7725SOL    HW224075   5.131   2.957   4.044
 7726SOL     OW24076   0.844   6.022   4.420
 7726SOL    HW124077   0.867   5.966   4.340
 7726SOL    HW224078   0.927   6.062   4.457
 7727SOL     OW24079   7.013   0.816   3.442
 7727SOL    HW124080   6.973   0.853   3.526
 7727SOL    HW224081   0.081   0.854   3.429
 7728SOL     OW24082   1.006   4.658   3.178
 7728SOL    HW124083   1.016   4.565   3.144
 7728SOL    HW224084   1.095   4.704   3.177
 7729SOL     OW24085   5.748   3.350   0.951
 7729SOL    HW124086   5.653   3.356   0.984
 7729SOL    HW224087   5.757   3.272   0.889
 7730SOL     OW24088   5.797   5.450   1.957
 7730SOL    HW124089   5.703   5.417   1.955
 7730SOL    HW224090   5.824   5.478   1.865
 7731SOL     OW24091   6.758   0.972   0.680
 7731SOL    HW124092   6.766   0.952   0.777
 7731SOL    HW224093   6.777   1.068   0.663
 7732SOL     OW24094   4.264   6.203   0.824
 7732SOL    HW124095   4.298   6.181   0.916
 7732SOL    HW224096   4.273   6.123   0.765
 7733SOL     OW24097   4.094   6.728   2.203
 7733SOL    HW124098   4.087   6.812   2.256
 7733SOL    HW224099   4.190   6.713   2.176
 7734SOL     OW24100   2.589   4.772   3.643
 7734SOL    HW124101   2.675   4.811   3.611
 7734SOL    HW224102   2.522   4.844   3.658
 7735SOL     OW24103   4.368   6.315   6.503
 7735SOL    HW124104   4.361   6.336   6.601
 7735SOL    HW224105   4.277   6.295   6.466
 7736SOL     OW24106   4.486   4.088   6.740
 7736SOL    HW124107   4.409   4.143   6.708
 7736SOL    HW224108   4.460   4.040   6.823
 7737SOL     OW24109   4.471   1.022   1.795
 7737SOL    HW124110   4.443   1.013   1.891
 7737SOL    HW224111   4.397   0.990   1.735
 7738SOL     OW24112   1.452   5.517   6.543
 7738SOL    HW124113   1.372   5.458   6.550
 7738SOL    HW224114   1.481   5.523   6.447
 7739SOL     OW24115   0.388   1.524   1.927
 7739SOL    HW124116   0.422   1.474   2.006
 7739SOL    HW224117   0.355   1.459   1.858
 7740SOL     OW24118   1.615   0.532   3.016
 7740SOL    HW124119   1.549   0.463   3.045
 7740SOL    HW224120   1.566   0.611   2.978
 7741SOL     OW24121   1.340   6.122   4.013
 7741SOL    HW124122   1.242   6.101   4.011
 7741SOL    HW224123   1.376   6.099   4.104
 7742SOL     OW24124   6.192   2.054   3.342
 7742SOL    HW124125   6.154   2.146   3.331
 7742SOL    HW224126   6.268   2.042   3.278
 7743SOL     OW24127   4.408   2.353   6.434
 7743SOL    HW124128   4.438   2.377   6.342
 7743SOL    HW224129   4.315   2.387   6.449
 7744SOL     OW24130   0.521   5.894   3.649
 7744SOL    HW124131   0.467   5.959   3.702
 7744SOL    HW224132   0.615   5.892   3.684
 7745SOL     OW24133   3.305   1.394   5.579
 7745SOL    HW124134   3.385   1.388   5.639
 7745SOL    HW224135   3.332   1.431   5.491
 7746SOL     OW24136   2.189   6.653   6.794
 7746SOL    HW124137   2.221   6.627   6.885
 7746SOL    HW224138   2.199   6.576   6.731
 7747SOL     OW24139   4.069   5.943   1.384
 7747SOL    HW124140   4.160   5.909   1.410
 7747SOL    HW224141   4.047   5.912   1.292
 7748SOL     OW24142   3.317   4.009   6.189
 7748SOL    HW124143   3.268   3.923   6.173
 7748SOL    HW224144   3.380   4.025   6.113
 7749SOL     OW24145   3.084   3.075   5.562
 7749SOL    HW124146   3.033   3.143   5.508
 7749SOL    HW224147   3.028   3.044   5.638
 7750SOL     OW24148   7.022   6.112   1.684
 7750SOL    HW124149   0.010   6.074   1.775
 7750SOL    HW224150   6.925   6.111   1.659
 7751SOL     OW24151   1.711   1.081   2.251
 7751SOL    HW124152   1.785   1.048   2.310
 7751SOL    HW224153   1.751   1.126   2.171
 7752SOL     OW24154   4.972   0.150   5.539
 7752SOL    HW124155   5.069   0.128   5.527
 7752SOL    HW224156   4.930   0.164   5.449
 7753SOL     OW24157   2.145   1.797   4.456
 7753SOL    HW124158   2.212   1.841   4.397
 7753SOL    HW224159   2.132   1.852   4.539
 7754SOL     OW24160   3.445   5.570   1.780
 7754SOL    HW124161   3.373   5.598   1.716
 7754SOL    HW224162   3.532   5.562   1.731
 7755SOL     OW24163   0.997   2.886   6.232
 7755SOL    HW124164   1.020   2.849   6.322
 7755SOL    HW224165   1.068   2.952   6.205
 7756SOL     OW24166   3.038   6.303   1.367
 7756SOL    HW124167   3.103   6.317   1.292
 7756SOL    HW224168   3.006   6.208   1.367
 7757SOL     OW24169   6.915   4.522   1.415
 7757SOL    HW124170   6.943   4.482   1.328
 7757SOL    HW224171   6.919   4.622   1.409
 7758SOL     OW24172   1.697   6.538   5.886
 7758SOL    HW124173   1.743   6.454   5.917
 7758SOL    HW224174   1.607   6.545   5.929
 7759SOL     OW24175   2.507   1.596   5.646
 7759SOL    HW124176   2.463   1.558   5.565
 7759SOL    HW224177   2.561   1.676   5.620
 7760SOL     OW24178   5.349   2.368   2.031
 7760SOL    HW124179   5.306   2.458   2.042
 7760SOL    HW224180   5.297   2.300   2.081
 7761SOL     OW24181   6.448   5.925   4.711
 7761SOL    HW124182   6.378   5.933   4.640
 7761SOL    HW224183   6.533   5.968   4.680
 7762SOL     OW24184   1.918   0.315   3.607
 7762SOL    HW124185   1.954   0.286   3.518
 7762SOL    HW224186   1.913   0.414   3.611
 7763SOL     OW24187   2.344   0.024   6.403
 7763SOL    HW124188   2.379   0.062   6.317
 7763SOL    HW224189   2.335   6.949   6.394
 7764SOL     OW24190   2.875   4.564   6.350
 7764SOL    HW124191   2.909   4.478   6.389
 7764SOL    HW224192   2.913   4.574   6.257
 7765SOL     OW24193   6.503   3.211   4.507
 7765SOL    HW124194   6.414   3.230   4.466
 7765SOL    HW224195   6.512   3.113   4.523
 7766SOL     OW24196   0.248   4.376   0.292
 7766SOL    HW124197   0.301   4.302   0.250
 7766SOL    HW224198   0.206   4.432   0.220
 7767SOL     OW24199   4.512   6.664   2.583
 7767SOL    HW124200   4.449   6.588   2.569
 7767SOL    HW224201   4.562   6.651   2.668
 7768SOL     OW24202   4.673   4.819   3.983
 7768SOL    HW124203   4.697   4.777   4.071
 7768SOL    HW224204   4.575   4.839   3.981
 7769SOL     OW24205   3.804   1.835   4.980
 7769SOL    HW124206   3.841   1.875   4.896
 7769SOL    HW224207   3.705   1.846   4.980
 7770SOL     OW24208   0.136   3.605   4.511
 7770SOL    HW124209   0.089   3.650   4.587
 7770SOL    HW224210   0.144   3.507   4.529
 7771SOL     OW24211   2.738   1.961   6.304
 7771SOL    HW124212   2.821   1.927   6.262
 7771SOL    HW224213   2.759   1.996   6.396
 7772SOL     OW24214   5.073   0.624   1.196
 7772SOL    HW124215   5.108   0.535   1.169
 7772SOL    HW224216   5.137   0.695   1.166
 7773SOL     OW24217   2.599   5.577   6.127
 7773SOL    HW124218   2.619   5.591   6.224
 7773SOL    HW224219   2.525   5.511   6.117
 7774SOL     OW24220   4.800   2.247   4.618
 7774SOL    HW124221   4.707   2.216   4.638
 7774SOL    HW224222   4.807   2.272   4.522
 7775SOL     OW24223   3.929   6.787   0.380
 7775SOL    HW124224   4.028   6.792   0.372
 7775SOL    HW224225   3.903   6.797   0.476
 7776SOL     OW24226   0.745   6.542   6.252
 7776SOL    HW124227   0.736   6.504   6.160
 7776SOL    HW224228   0.809   6.619   6.250
 7777SOL     OW24229   6.553   5.759   4.891
 7777SOL    HW124230   6.497   5.679   4.912
 7777SOL    HW224231   6.500   5.822   4.834
 7778SOL     OW24232   5.705   4.362   2.333
 7778SOL    HW124233   5.685   4.382   2.429
 7778SOL    HW224234   5.770   4.286   2.327
 7779SOL     OW24235   3.121   0.311   2.776
 7779SOL    HW124236   3.217   0.300   2.752
 7779SOL    HW224237   3.113   0.351   2.868
 7780SOL     OW24238   0.082   6.178   5.709
 7780SOL    HW124239   0.163   6.120   5.714
 7780SOL    HW224240   0.029   6.169   5.793
 7781SOL     OW24241   1.401   4.259   0.206
 7781SOL    HW124242   1.341   4.237   0.283
 7781SOL    HW224243   1.489   4.292   0.241
 7782SOL     OW24244   5.564   4.926   3.398
 7782SOL    HW124245   5.481   4.939   3.342
 7782SOL    HW224246   5.570   4.831   3.426
 7783SOL     OW24247   0.568   6.938   5.878
 7783SOL    HW124248   0.656   6.919   5.921
 7783SOL    HW224249   0.508   6.986   5.943
 7784SOL     OW24250   2.749   2.470   1.490
 7784SOL    HW124251   2.849   2.476   1.497
 7784SOL    HW224252   2.710   2.460   1.581
 7785SOL     OW24253   1.382   6.855   3.936
 7785SOL    HW124254   1.456   6.823   3.995
 7785SOL    HW224255   1.330   6.776   3.902
 7786SOL     OW24256   4.347   0.530   0.181
 7786SOL    HW124257   4.345   0.467   0.104
 7786SOL    HW224258   4.374   0.621   0.150
 7787SOL     OW24259   2.260   2.859   0.436
 7787SOL    HW124260   2.239   2.928   0.366
 7787SOL    HW224261   2.268   2.769   0.392
 7788SOL     OW24262   1.471   6.299   2.199
 7788SOL    HW124263   1.464   6.313   2.100
 7788SOL    HW224264   1.539   6.228   2.218
 7789SOL     OW24265   3.178   0.204   6.232
 7789SOL    HW124266   3.150   0.151   6.312
 7789SOL    HW224267   3.278   0.202   6.224
 7790SOL     OW24268   6.341   4.947   2.433
 7790SOL    HW124269   6.420   4.890   2.410
 7790SOL    HW224270   6.369   5.017   2.499
 7791SOL     OW24271   2.688   5.640   2.035
 7791SOL    HW124272   2.760   5.677   2.093
 7791SOL    HW224273   2.600   5.679   2.062
 7792SOL     OW24274   0.876   0.727   2.938
 7792SOL    HW124275   0.933   0.759   3.014
 7792SOL    HW224276   0.809   0.661   2.972
 7793SOL     OW24277   4.801   0.380   6.425
 7793SOL    HW124278   4.776   0.442   6.499
 7793SOL    HW224279   4.812   0.432   6.340
 7794SOL     OW24280   0.594   5.409   1.949
 7794SOL    HW124281   0.522   5.461   1.902
 7794SOL    HW224282   0.653   5.472   1.999
 7795SOL     OW24283   3.127   5.668   5.634
 7795SOL    HW124284   3.224   5.646   5.625
 7795SOL    HW224285   3.073   5.599   5.587
 7796SOL     OW24286   3.246   2.826   5.778
 7796SOL    HW124287   3.333   2.778   5.787
 7796SOL    HW224288   3.224   2.836   5.681
 7797SOL     OW24289   1.032   5.175   1.543
 7797SOL    HW124290   1.108   5.220   1.590
 7797SOL    HW224291   1.023   5.214   1.451
 7798SOL     OW24292   1.690   1.304   2.464
 7798SOL    HW124293   1.628   1.329   2.538
 7798SOL    HW224294   1.660   1.217   2.424
 7799SOL     OW24295   2.620   5.714   2.762
 7799SOL    HW124296   2.550   5.713   2.833
 7799SOL    HW224297   2.706   5.745   2.801
 7800SOL     OW24298   0.500   5.924   2.351
 7800SOL    HW124299   0.580   5.877   2.386
 7800SOL    HW224300   0.434   5.938   2.425
 7801SOL     OW24301   1.927   1.452   3.156
 7801SOL    HW124302   1.855   1.453   3.225
 7801SOL    HW224303   1.917   1.532   3.096
 7802SOL     OW24304   6.899   4.315   6.946
 7802SOL    HW124305   6.924   4.398   6.896
 7802SOL    HW224306   6.910   4.235   6.886
 7803SOL     OW24307   4.772   1.943   0.104
 7803SOL    HW124308   4.825   1.901   0.178
 7803SOL    HW224309   4.830   1.952   0.023
 7804SOL     OW24310   3.377   1.693   4.563
 7804SOL    HW124311   3.420   1.765   4.509
 7804SOL    HW224312   3.443   1.654   4.627
 7805SOL     OW24313   4.924   3.310   2.421
 7805SOL    HW124314   4.889   3.246   2.352
 7805SOL    HW224315   4.934   3.263   2.508
 7806SOL     OW24316   6.695   2.181   6.209
 7806SOL    HW124317   6.675   2.148   6.117
 7806SOL    HW224318   6.717   2.279   6.205
 7807SOL     OW24319   1.423   4.293   5.210
 7807SOL    HW124320   1.363   4.233   5.264
 7807SOL    HW224321   1.489   4.237   5.160
 7808SOL     OW24322   4.984   4.220   2.381
 7808SOL    HW124323   5.057   4.209   2.314
 7808SOL    HW224324   4.994   4.152   2.454
 7809SOL     OW24325   5.135   4.774   4.777
 7809SOL    HW124326   5.177   4.696   4.822
 7809SOL    HW224327   5.109   4.842   4.847
 7810SOL     OW24328   3.793   6.925   4.791
 7810SOL    HW124329   3.840   6.988   4.854
 7810SOL    HW224330   3.697   6.919   4.817
 7811SOL     OW24331   1.846   5.722   3.221
 7811SOL    HW124332   1.916   5.791   3.242
 7811SOL    HW224333   1.889   5.633   3.209
 7812SOL     OW24334   2.346   3.082   5.381
 7812SOL    HW124335   2.357   3.080   5.480
 7812SOL    HW224336   2.423   3.037   5.337
 7813SOL     OW24337   4.542   2.901   1.225
 7813SOL    HW124338   4.581   2.883   1.315
 7813SOL    HW224339   4.488   2.822   1.195
 7814SOL     OW24340   6.762   3.406   2.794
 7814SOL    HW124341   6.783   3.500   2.770
 7814SOL    HW224342   6.719   3.403   2.884
 7815SOL     OW24343   5.620   1.836   5.189
 7815SOL    HW124344   5.580   1.909   5.133
 7815SOL    HW224345   5.547   1.778   5.226
 7816SOL     OW24346   0.579   2.074   5.890
 7816SOL    HW124347   0.580   2.023   5.804
 7816SOL    HW224348   0.634   2.157   5.880
 7817SOL     OW24349   4.510   3.758   5.446
 7817SOL    HW124350   4.454   3.840   5.452
 7817SOL    HW224351   4.589   3.775   5.387
 7818SOL     OW24352   4.906   1.175   2.288
 7818SOL    HW124353   4.846   1.155   2.366
 7818SOL    HW224354   4.850   1.197   2.208
 7819SOL     OW24355   6.920   3.411   4.300
 7819SOL    HW124356   6.873   3.499   4.309
 7819SOL    HW224357   7.019   3.426   4.295
 7820SOL     OW24358   1.896   1.163   5.453
 7820SOL    HW124359   1.843   1.236   5.410
 7820SOL    HW224360   1.835   1.105   5.507
 7821SOL     OW24361   5.582   5.558   0.591
 7821SOL    HW124362   5.571   5.647   0.634
 7821SOL    HW224363   5.635   5.568   0.506
 7822SOL     OW24364   0.953   1.667   6.064
 7822SOL    HW124365   1.003   1.734   6.009
 7822SOL    HW224366   0.936   1.704   6.155
 7823SOL     OW24367   1.390   4.204   6.338
 7823SOL    HW124368   1.402   4.193   6.239
 7823SOL    HW224369   1.294   4.187   6.362
 7824SOL     OW24370   6.258   0.494   4.198
 7824SOL    HW124371   6.285   0.522   4.106
 7824SOL    HW224372   6.336   0.503   4.260
 7825SOL     OW24373   2.068   2.697   1.581
 7825SOL    HW124374   2.024   2.705   1.671
 7825SOL    HW224375   2.088   2.601   1.563
 7826SOL     OW24376   5.176   2.170   6.764
 7826SOL    HW124377   5.173   2.098   6.694
 7826SOL    HW224378   5.256   2.156   6.823
 7827SOL     OW24379   3.570   4.848   1.123
 7827SOL    HW124380   3.565   4.938   1.079
 7827SOL    HW224381   3.561   4.858   1.222
 7828SOL     OW24382   0.658   5.662   0.544
 7828SOL    HW124383   0.682   5.740   0.602
 7828SOL    HW224384   0.592   5.604   0.592
 7829SOL     OW24385   2.244   3.233   1.494
 7829SOL    HW124386   2.335   3.274   1.493
 7829SOL    HW224387   2.213   3.223   1.589
 7830SOL     OW24388   5.491   4.085   6.297
 7830SOL    HW124389   5.454   3.993   6.312
 7830SOL    HW224390   5.564   4.080   6.229
 7831SOL     OW24391   0.951   5.016   6.996
 7831SOL    HW124392   0.940   5.103   0.020
 7831SOL    HW224393   0.959   5.033   6.898
 7832SOL     OW24394   3.647   0.885   4.719
 7832SOL    HW124395   3.663   0.824   4.797
 7832SOL    HW224396   3.617   0.974   4.752
 7833SOL     OW24397   0.833   0.847   0.603
 7833SOL    HW124398   0.913   0.804   0.645
 7833SOL    HW224399   0.775   0.777   0.563
 7834SOL     OW24400   0.224   1.668   2.120
 7834SOL    HW124401   0.278   1.609   2.060
 7834SOL    HW224402   0.147   1.706   2.069
 7835SOL     OW24403   2.502   2.518   4.665
 7835SOL    HW124404   2.411   2.491   4.696
 7835SOL    HW224405   2.554   2.556   4.742
 7836SOL     OW24406   3.379   0.998   6.516
 7836SOL    HW124407   3.293   1.018   6.563
 7836SOL    HW224408   3.372   0.910   6.470
 7837SOL     OW24409   5.949   6.295   1.895
 7837SOL    HW124410   5.853   6.315   1.877
 7837SOL    HW224411   5.964   6.196   1.891
 7838SOL     OW24412   4.526   6.609   6.211
 7838SOL    HW124413   4.560   6.702   6.222
 7838SOL    HW224414   4.485   6.578   6.296
 7839SOL     OW24415   6.540   4.265   4.660
 7839SOL    HW124416   6.555   4.185   4.719
 7839SOL    HW224417   6.620   4.278   4.601
 7840SOL     OW24418   5.229   3.606   3.856
 7840SOL    HW124419   5.317   3.652   3.843
 7840SOL    HW224420   5.227   3.522   3.802
 7841SOL     OW24421   5.697   1.753   6.326
 7841SOL    HW124422   5.611   1.710   6.300
 7841SOL    HW224423   5.726   1.718   6.415
 7842SOL     OW24424   1.376   0.919   3.540
 7842SOL    HW124425   1.398   0.826   3.568
 7842SOL    HW224426   1.294   0.950   3.589
 7843SOL     OW24427   5.577   4.556   1.359
 7843SOL    HW124428   5.497   4.496   1.359
 7843SOL    HW224429   5.632   4.540   1.277
 7844SOL     OW24430   4.701   0.827   4.105
 7844SOL    HW124431   4.769   0.754   4.115
 7844SOL    HW224432   4.612   0.787   4.082
 7845SOL     OW24433   0.429   0.786   3.996
 7845SOL    HW124434   0.443   0.884   4.013
 7845SOL    HW224435   0.504   0.734   4.036
 7846SOL     OW24436   2.349   0.661   1.708
 7846SOL    HW124437   2.334   0.755   1.678
 7846SOL    HW224438   2.366   0.603   1.628
 7847SOL     OW24439   0.520   1.575   1.085
 7847SOL    HW124440   0.431   1.538   1.112
 7847SOL    HW224441   0.526   1.670   1.114
 7848SOL     OW24442   2.971   4.310   1.226
 7848SOL    HW124443   2.964   4.244   1.301
 7848SOL    HW224444   2.931   4.273   1.143
 7849SOL     OW24445   5.724   3.822   4.337
 7849SOL    HW124446   5.682   3.787   4.421
 7849SOL    HW224447   5.758   3.914   4.353
 7850SOL     OW24448   0.169   0.768   3.922
 7850SOL    HW124449   0.261   0.783   3.960
 7850SOL    HW224450   0.155   0.670   3.908
 7851SOL     OW24451   6.248   6.791   0.962
 7851SOL    HW124452   6.330   6.749   0.922
 7851SOL    HW224453   6.207   6.852   0.895
 7852SOL     OW24454   3.102   6.551   6.534
 7852SOL    HW124455   3.124   6.648   6.541
 7852SOL    HW224456   3.010   6.535   6.570
 7853SOL     OW24457   3.814   1.161   1.044
 7853SOL    HW124458   3.890   1.222   1.023
 7853SOL    HW224459   3.775   1.185   1.133
 7854SOL     OW24460   3.399   4.449   0.939
 7854SOL    HW124461   3.335   4.453   1.016
 7854SOL    HW224462   3.429   4.541   0.916
 7855SOL     OW24463   4.535   5.601   6.152
 7855SOL    HW124464   4.493   5.682   6.111
 7855SOL    HW224465   4.517   5.599   6.250
 7856SOL     OW24466   6.256   4.625   3.877
 7856SOL    HW124467   6.321   4.550   3.862
 7856SOL    HW224468   6.304   4.712   3.875
 7857SOL     OW24469   0.263   2.721   5.856
 7857SOL    HW124470   0.315   2.781   5.795
 7857SOL    HW224471   0.171   2.758   5.869
 7858SOL     OW24472   5.283   4.824   3.380
 7858SOL    HW124473   5.280   4.725   3.392
 7858SOL    HW224474   5.219   4.850   3.307
 7859SOL     OW24475   0.302   4.175   6.084
 7859SOL    HW124476   0.352   4.090   6.068
 7859SOL    HW224477   0.248   4.198   6.004
 7860SOL     OW24478   3.967   6.235   2.595
 7860SOL    HW124479   4.039   6.187   2.644
 7860SOL    HW224480   4.001   6.322   2.560
 7861SOL     OW24481   3.954   5.984   1.963
 7861SOL    HW124482   3.965   6.034   1.878
 7861SOL    HW224483   3.899   5.902   1.947
 7862SOL     OW24484   2.740   4.452   1.528
 7862SOL    HW124485   2.667   4.449   1.596
 7862SOL    HW224486   2.816   4.394   1.558
 7863SOL     OW24487   0.106   5.918   3.419
 7863SOL    HW124488   0.189   5.970   3.400
 7863SOL    HW224489   0.047   5.970   3.481
 7864SOL     OW24490   0.194   5.805   5.709
 7864SOL    HW124491   0.095   5.810   5.702
 7864SOL    HW224492   0.220   5.735   5.776
 7865SOL     OW24493   4.326   6.621   3.945
 7865SOL    HW124494   4.359   6.675   3.867
 7865SOL    HW224495   4.345   6.524   3.929
 7866SOL     OW24496   2.634   1.578   1.618
 7866SOL    HW124497   2.658   1.647   1.550
 7866SOL    HW224498   2.676   1.491   1.593
 7867SOL     OW24499   5.881   5.029   2.590
 7867SOL    HW124500   5.856   4.968   2.515
 7867SOL    HW224501   5.845   5.120   2.573
 7868SOL     OW24502   5.092   0.028   2.524
 7868SOL    HW124503   5.034   6.975   2.498
 7868SOL    HW224504   5.173   7.019   2.572
 7869SOL     OW24505   6.120   3.728   0.832
 7869SOL    HW124506   6.200   3.671   0.816
 7869SOL    HW224507   6.039   3.671   0.839
 7870SOL     OW24508   5.712   5.573   3.671
 7870SOL    HW124509   5.668   5.556   3.582
 7870SOL    HW224510   5.753   5.664   3.671
 7871SOL     OW24511   5.758   3.960   3.036
 7871SOL    HW124512   5.831   3.907   2.991
 7871SOL    HW224513   5.773   3.960   3.135
 7872SOL     OW24514   0.841   4.094   2.230
 7872SOL    HW124515   0.877   4.050   2.148
 7872SOL    HW224516   0.838   4.193   2.216
 7873SOL     OW24517   6.238   0.740   5.543
 7873SOL    HW124518   6.332   0.758   5.513
 7873SOL    HW224519   6.193   0.827   5.565
 7874SOL     OW24520   6.548   1.569   6.557
 7874SOL    HW124521   6.547   1.487   6.500
 7874SOL    HW224522   6.543   1.650   6.498
 7875SOL     OW24523   4.303   3.534   6.302
 7875SOL    HW124524   4.349   3.616   6.336
 7875SOL    HW224525   4.343   3.507   6.215
 7876SOL     OW24526   7.014   6.858   5.017
 7876SOL    HW124527   6.990   6.955   5.006
 7876SOL    HW224528   0.053   6.848   5.094
 7877SOL     OW24529   0.269   2.773   2.518
 7877SOL    HW124530   0.248   2.848   2.581
 7877SOL    HW224531   0.351   2.724   2.551
 7878SOL     OW24532   4.724   5.126   3.252
 7878SOL    HW124533   4.705   5.030   3.230
 7878SOL    HW224534   4.800   5.159   3.196
 7879SOL     OW24535   4.731   5.853   3.225
 7879SOL    HW124536   4.703   5.844   3.320
 7879SOL    HW224537   4.786   5.773   3.199
 7880SOL     OW24538   0.508   6.129   1.125
 7880SOL    HW124539   0.474   6.134   1.219
 7880SOL    HW224540   0.443   6.078   1.069
 7881SOL     OW24541   0.175   3.906   4.738
 7881SOL    HW124542   0.248   3.874   4.678
 7881SOL    HW224543   0.092   3.854   4.721
 7882SOL     OW24544   2.039   2.329   2.986
 7882SOL    HW124545   2.116   2.348   2.925
 7882SOL    HW224546   2.000   2.240   2.962
 7883SOL     OW24547   2.035   0.740   1.280
 7883SOL    HW124548   2.133   0.747   1.296
 7883SOL    HW224549   2.017   0.737   1.181
 7884SOL     OW24550   1.236   3.848   3.292
 7884SOL    HW124551   1.189   3.787   3.228
 7884SOL    HW224552   1.328   3.812   3.310
 7885SOL     OW24553   5.717   5.380   3.103
 7885SOL    HW124554   5.663   5.434   3.039
 7885SOL    HW224555   5.656   5.337   3.170
 7886SOL     OW24556   5.730   3.950   1.220
 7886SOL    HW124557   5.644   3.966   1.171
 7886SOL    HW224558   5.712   3.889   1.298
 7887SOL     OW24559   3.337   2.842   5.117
 7887SOL    HW124560   3.325   2.778   5.192
 7887SOL    HW224561   3.320   2.935   5.149
 7888SOL     OW24562   0.373   0.502   4.775
 7888SOL    HW124563   0.313   0.424   4.759
 7888SOL    HW224564   0.329   0.585   4.741
 7889SOL     OW24565   0.396   5.323   6.572
 7889SOL    HW124566   0.339   5.391   6.619
 7889SOL    HW224567   0.492   5.345   6.587
 7890SOL     OW24568   1.513   2.961   3.964
 7890SOL    HW124569   1.492   3.054   3.995
 7890SOL    HW224570   1.513   2.899   4.042
 7891SOL     OW24571   0.978   3.246   4.512
 7891SOL    HW124572   0.941   3.163   4.552
 7891SOL    HW224573   0.935   3.262   4.423
 7892SOL     OW24574   1.044   2.193   4.212
 7892SOL    HW124575   1.073   2.229   4.124
 7892SOL    HW224576   1.069   2.258   4.284
 7893SOL     OW24577   5.991   6.412   2.132
 7893SOL    HW124578   5.966   6.384   2.040
 7893SOL    HW224579   6.065   6.353   2.166
 7894SOL     OW24580   3.012   1.303   0.920
 7894SOL    HW124581   3.082   1.290   0.990
 7894SOL    HW224582   2.924   1.269   0.953
 7895SOL     OW24583   3.416   6.462   4.361
 7895SOL    HW124584   3.481   6.386   4.358
 7895SOL    HW224585   3.445   6.533   4.297
 7896SOL     OW24586   5.198   2.812   1.742
 7896SOL    HW124587   5.155   2.818   1.832
 7896SOL    HW224588   5.139   2.762   1.679
 7897SOL     OW24589   3.137   3.647   6.676
 7897SOL    HW124590   3.168   3.649   6.581
 7897SOL    HW224591   3.168   3.730   6.723
 7898SOL     OW24592   4.785   0.392   3.913
 7898SOL    HW124593   4.818   0.410   3.820
 7898SOL    HW224594   4.841   0.321   3.955
 7899SOL     OW24595   5.151   6.563   2.438
 7899SOL    HW124596   5.200   6.647   2.414
 7899SOL    HW224597   5.053   6.578   2.429
 7900SOL     OW24598   0.889   3.663   0.577
 7900SOL    HW124599   0.896   3.566   0.554
 7900SOL    HW224600   0.820   3.706   0.519
 7901SOL     OW24601   5.150   1.348   6.048
 7901SOL    HW124602   5.094   1.265   6.044
 7901SOL    HW224603   5.102   1.419   6.098
 7902SOL     OW24604   6.861   6.302   3.382
 7902SOL    HW124605   6.919   6.259   3.313
 7902SOL    HW224606   6.848   6.238   3.458
 7903SOL     OW24607   4.280   2.004   3.293
 7903SOL    HW124608   4.334   1.988   3.375
 7903SOL    HW224609   4.186   1.973   3.308
 7904SOL     OW24610   6.169   0.077   3.519
 7904SOL    HW124611   6.159   0.166   3.563
 7904SOL    HW224612   6.103   0.012   3.558
 7905SOL     OW24613   5.642   1.287   0.357
 7905SOL    HW124614   5.643   1.190   0.382
 7905SOL    HW224615   5.695   1.339   0.425
 7906SOL     OW24616   1.075   5.685   0.533
 7906SOL    HW124617   1.087   5.720   0.626
 7906SOL    HW224618   1.003   5.736   0.486
 7907SOL     OW24619   6.148   1.056   2.760
 7907SOL    HW124620   6.065   1.111   2.748
 7907SOL    HW224621   6.219   1.088   2.698
 7908SOL     OW24622   1.255   1.888   6.571
 7908SOL    HW124623   1.277   1.801   6.527
 7908SOL    HW224624   1.179   1.931   6.523
 7909SOL     OW24625   4.918   4.294   3.580
 7909SOL    HW124626   4.977   4.242   3.642
 7909SOL    HW224627   4.838   4.328   3.631
 7910SOL     OW24628   1.530   3.035   1.578
 7910SOL    HW124629   1.566   3.090   1.653
 7910SOL    HW224630   1.497   3.095   1.505
 7911SOL     OW24631   0.951   3.957   1.332
 7911SOL    HW124632   0.974   4.037   1.277
 7911SOL    HW224633   1.035   3.914   1.364
 7912SOL     OW24634   5.012   4.430   0.848
 7912SOL    HW124635   4.929   4.474   0.882
 7912SOL    HW224636   5.092   4.484   0.876
 7913SOL     OW24637   1.781   4.444   1.125
 7913SOL    HW124638   1.746   4.375   1.062
 7913SOL    HW224639   1.708   4.472   1.188
 7914SOL     OW24640   0.095   4.523   0.113
 7914SOL    HW124641   0.125   4.507   0.019
 7914SOL    HW224642   7.021   4.509   0.120
 7915SOL     OW24643   4.719   1.743   2.727
 7915SOL    HW124644   4.710   1.817   2.660
 7915SOL    HW224645   4.629   1.708   2.751
 7916SOL     OW24646   0.953   0.190   4.866
 7916SOL    HW124647   0.979   0.285   4.850
 7916SOL    HW224648   0.945   0.173   4.964
 7917SOL     OW24649   3.899   2.678   5.642
 7917SOL    HW124650   3.963   2.754   5.639
 7917SOL    HW224651   3.913   2.618   5.563
 7918SOL     OW24652   0.698   1.629   5.299
 7918SOL    HW124653   0.739   1.539   5.315
 7918SOL    HW224654   0.702   1.651   5.202
 7919SOL     OW24655   1.016   4.960   2.146
 7919SOL    HW124656   0.950   4.964   2.221
 7919SOL    HW224657   0.972   4.925   2.063
 7920SOL     OW24658   5.198   1.036   1.897
 7920SOL    HW124659   5.129   0.963   1.890
 7920SOL    HW224660   5.159   1.121   1.862
 7921SOL     OW24661   5.840   0.680   1.377
 7921SOL    HW124662   5.875   0.754   1.319
 7921SOL    HW224663   5.913   0.612   1.391
 7922SOL     OW24664   0.190   6.199   0.167
 7922SOL    HW124665   0.256   6.127   0.189
 7922SOL    HW224666   0.218   6.285   0.209
 7923SOL     OW24667   3.396   1.662   6.479
 7923SOL    HW124668   3.483   1.625   6.448
 7923SOL    HW224669   3.326   1.591   6.473
 7924SOL     OW24670   4.999   0.266   1.377
 7924SOL    HW124671   5.027   0.225   1.464
 7924SOL    HW224672   4.899   0.259   1.368
 7925SOL     OW24673   1.650   6.590   0.731
 7925SOL    HW124674   1.595   6.507   0.718
 7925SOL    HW224675   1.673   6.599   0.828
 7926SOL     OW24676   5.248   1.518   6.768
 7926SOL    HW124677   5.198   1.433   6.782
 7926SOL    HW224678   5.340   1.510   6.807
 7927SOL     OW24679   5.195   6.871   1.586
 7927SOL    HW124680   5.198   6.928   1.668
 7927SOL    HW224681   5.126   6.907   1.523
 7928SOL     OW24682   0.055   1.159   3.557
 7928SOL    HW124683   0.143   1.207   3.550
 7928SOL    HW224684   7.005   1.222   3.536
 7929SOL     OW24685   4.180   3.755   6.101
 7929SOL    HW124686   4.196   3.701   6.183
 7929SOL    HW224687   4.083   3.754   6.078
 7930SOL     OW24688   3.749   5.293   6.431
 7930SOL    HW124689   3.720   5.213   6.377
 7930SOL    HW224690   3.702   5.292   6.519
 7931SOL     OW24691   4.283   2.610   0.667
 7931SOL    HW124692   4.209   2.676   0.684
 7931SOL    HW224693   4.344   2.645   0.597
 7932SOL     OW24694   0.823   4.956   1.265
 7932SOL    HW124695   0.774   4.961   1.178
 7932SOL    HW224696   0.778   5.014   1.333
 7933SOL     OW24697   0.095   0.494   5.801
 7933SOL    HW124698   0.145   0.484   5.887
 7933SOL    HW224699   0.080   0.404   5.760
 7934SOL     OW24700   1.370   4.872   0.258
 7934SOL    HW124701   1.437   4.866   0.184
 7934SOL    HW224702   1.287   4.917   0.225
 7935SOL     OW24703   5.278   5.354   2.547
 7935SOL    HW124704   5.344   5.404   2.491
 7935SOL    HW224705   5.205   5.318   2.488
 7936SOL     OW24706   3.214   5.473   3.385
 7936SOL    HW124707   3.279   5.533   3.431
 7936SOL    HW224708   3.251   5.442   3.298
 7937SOL     OW24709   2.445   5.763   3.931
 7937SOL    HW124710   2.417   5.846   3.979
 7937SOL    HW224711   2.457   5.689   3.997
 7938SOL     OW24712   5.517   6.274   5.472
 7938SOL    HW124713   5.522   6.279   5.372
 7938SOL    HW224714   5.530   6.366   5.510
 7939SOL     OW24715   0.711   1.837   5.697
 7939SOL    HW124716   0.768   1.865   5.774
 7939SOL    HW224717   0.765   1.780   5.635
 7940SOL     OW24718   3.652   1.907   2.699
 7940SOL    HW124719   3.743   1.888   2.736
 7940SOL    HW224720   3.615   1.824   2.658
 7941SOL     OW24721   4.853   6.761   3.265
 7941SOL    HW124722   4.950   6.739   3.251
 7941SOL    HW224723   4.826   6.732   3.357
 7942SOL     OW24724   0.870   2.956   3.196
 7942SOL    HW124725   0.889   2.881   3.258
 7942SOL    HW224726   0.878   3.043   3.245
 7943SOL     OW24727   0.871   4.246   5.226
 7943SOL    HW124728   0.797   4.304   5.191
 7943SOL    HW224729   0.959   4.289   5.207
 7944SOL     OW24730   0.072   2.637   1.664
 7944SOL    HW124731   0.028   2.629   1.753
 7944SOL    HW224732   0.171   2.622   1.674
 7945SOL     OW24733   6.094   5.318   2.515
 7945SOL    HW124734   6.117   5.278   2.604
 7945SOL    HW224735   6.107   5.249   2.444
 7946SOL     OW24736   3.604   6.796   5.860
 7946SOL    HW124737   3.540   6.820   5.932
 7946SOL    HW224738   3.668   6.872   5.845
 7947SOL     OW24739   2.181   2.019   5.064
 7947SOL    HW124740   2.097   2.030   5.118
 7947SOL    HW224741   2.256   1.991   5.124
 7948SOL     OW24742   1.109   5.090   1.022
 7948SOL    HW124743   1.094   5.045   1.109
 7948SOL    HW224744   1.023   5.132   0.991
 7949SOL     OW24745   4.355   3.930   6.011
 7949SOL    HW124746   4.288   3.861   6.037
 7949SOL    HW224747   4.446   3.901   6.041
 7950SOL     OW24748   4.978   6.074   5.024
 7950SOL    HW124749   4.937   5.998   5.075
 7950SOL    HW224750   4.909   6.116   4.966
 7951SOL     OW24751   2.195   5.066   2.509
 7951SOL    HW124752   2.276   5.028   2.464
 7951SOL    HW224753   2.180   5.160   2.479
 7952SOL     OW24754   6.610   3.266   0.048
 7952SOL    HW124755   6.670   3.254   6.993
 7952SOL    HW224756   6.664   3.266   0.132
 7953SOL     OW24757   4.390   1.844   1.802
 7953SOL    HW124758   4.291   1.842   1.786
 7953SOL    HW224759   4.423   1.938   1.795
 7954SOL     OW24760   3.896   3.795   6.640
 7954SOL    HW124761   3.811   3.827   6.682
 7954SOL    HW224762   3.945   3.736   6.704
 7955SOL     OW24763   2.444   1.429   6.619
 7955SOL    HW124764   2.369   1.363   6.616
 7955SOL    HW224765   2.433   1.488   6.699
 7956SOL     OW24766   6.051   1.183   1.852
 7956SOL    HW124767   6.086   1.146   1.766
 7956SOL    HW224768   6.005   1.270   1.834
 7957SOL     OW24769   2.188   1.132   6.842
 7957SOL    HW124770   2.264   1.083   6.885
 7957SOL    HW224771   2.223   1.185   6.765
 7958SOL     OW24772   5.320   4.178   6.013
 7958SOL    HW124773   5.234   4.228   6.017
 7958SOL    HW224774   5.316   4.101   6.077
 7959SOL     OW24775   5.346   0.495   6.721
 7959SOL    HW124776   5.263   0.456   6.760
 7959SOL    HW224777   5.325   0.533   6.631
 7960SOL     OW24778   1.029   1.417   6.124
 7960SOL    HW124779   1.034   1.364   6.039
 7960SOL    HW224780   1.009   1.513   6.103
 7961SOL     OW24781   6.141   0.264   0.796
 7961SOL    HW124782   6.062   0.319   0.825
 7961SOL    HW224783   6.216   0.325   0.771
 7962SOL     OW24784   0.182   1.748   5.560
 7962SOL    HW124785   0.259   1.791   5.608
 7962SOL    HW224786   0.196   1.754   5.462
 7963SOL     OW24787   6.394   5.384   4.014
 7963SOL    HW124788   6.396   5.456   4.083
 7963SOL    HW224789   6.472   5.395   3.952
 7964SOL     OW24790   6.083   2.884   2.259
 7964SOL    HW124791   6.098   2.898   2.357
 7964SOL    HW224792   6.171   2.869   2.214
 7965SOL     OW24793   4.041   2.269   6.250
 7965SOL    HW124794   4.080   2.316   6.329
 7965SOL    HW224795   3.961   2.216   6.279
 7966SOL     OW24796   3.323   3.179   5.458
 7966SOL    HW124797   3.262   3.172   5.537
 7966SOL    HW224798   3.407   3.128   5.477
 7967SOL     OW24799   2.060   5.200   1.784
 7967SOL    HW124800   2.022   5.174   1.872
 7967SOL    HW224801   2.074   5.299   1.782
 7968SOL     OW24802   6.242   2.179   5.218
 7968SOL    HW124803   6.214   2.083   5.217
 7968SOL    HW224804   6.340   2.184   5.235
 7969SOL     OW24805   5.162   6.073   0.544
 7969SOL    HW124806   5.237   6.046   0.604
 7969SOL    HW224807   5.139   6.169   0.562
 7970SOL     OW24808   5.392   3.328   2.706
 7970SOL    HW124809   5.386   3.398   2.635
 7970SOL    HW224810   5.478   3.339   2.756
 7971SOL     OW24811   3.156   0.710   1.747
 7971SOL    HW124812   3.116   0.696   1.657
 7971SOL    HW224813   3.097   0.772   1.800
 7972SOL     OW24814   3.513   3.706   1.908
 7972SOL    HW124815   3.520   3.739   1.813
 7972SOL    HW224816   3.461   3.772   1.962
 7973SOL     OW24817   5.606   4.175   4.708
 7973SOL    HW124818   5.658   4.098   4.672
 7973SOL    HW224819   5.586   4.160   4.805
 7974SOL     OW24820   6.295   1.016   5.920
 7974SOL    HW124821   6.346   1.036   5.836
 7974SOL    HW224822   6.340   1.059   5.998
 7975SOL     OW24823   4.803   0.202   0.699
 7975SOL    HW124824   4.724   0.145   0.720
 7975SOL    HW224825   4.772   0.291   0.665
 7976SOL     OW24826   0.880   6.889   5.946
 7976SOL    HW124827   0.979   6.895   5.932
 7976SOL    HW224828   0.835   6.879   5.857
 7977SOL     OW24829   4.486   6.099   2.213
 7977SOL    HW124830   4.407   6.158   2.195
 7977SOL    HW224831   4.506   6.045   2.131
 7978SOL     OW24832   0.316   2.794   6.510
 7978SOL    HW124833   0.348   2.832   6.596
 7978SOL    HW224834   0.260   2.713   6.529
 7979SOL     OW24835   1.868   4.470   5.598
 7979SOL    HW124836   1.804   4.439   5.527
 7979SOL    HW224837   1.844   4.428   5.686
 7980SOL     OW24838   2.887   5.670   6.835
 7980SOL    HW124839   2.815   5.658   6.904
 7980SOL    HW224840   2.872   5.756   6.786
 7981SOL     OW24841   0.619   5.149   1.710
 7981SOL    HW124842   0.716   5.171   1.725
 7981SOL    HW224843   0.581   5.110   1.793
 7982SOL     OW24844   1.383   1.575   5.826
 7982SOL    HW124845   1.418   1.485   5.802
 7982SOL    HW224846   1.438   1.645   5.781
 7983SOL     OW24847   6.511   1.756   1.512
 7983SOL    HW124848   6.497   1.657   1.520
 7983SOL    HW224849   6.429   1.798   1.473
 7984SOL     OW24850   0.325   1.334   0.636
 7984SOL    HW124851   0.249   1.328   0.701
 7984SOL    HW224852   0.372   1.246   0.632
 7985SOL     OW24853   2.470   2.116   4.684
 7985SOL    HW124854   2.422   2.146   4.767
 7985SOL    HW224855   2.538   2.046   4.709
 7986SOL     OW24856   3.515   0.837   5.781
 7986SOL    HW124857   3.417   0.830   5.804
 7986SOL    HW224858   3.545   0.753   5.737
 7987SOL     OW24859   2.180   3.306   0.742
 7987SOL    HW124860   2.277   3.327   0.753
 7987SOL    HW224861   2.127   3.391   0.738
 7988SOL     OW24862   1.318   1.002   2.509
 7988SOL    HW124863   1.410   0.966   2.493
 7988SOL    HW224864   1.321   1.101   2.517
 7989SOL     OW24865   2.452   3.769   0.362
 7989SOL    HW124866   2.361   3.792   0.397
 7989SOL    HW224867   2.521   3.791   0.431
 7990SOL     OW24868   2.628   5.076   4.371
 7990SOL    HW124869   2.615   4.983   4.338
 7990SOL    HW224870   2.542   5.126   4.365
 7991SOL     OW24871   5.902   1.379   3.920
 7991SOL    HW124872   5.827   1.312   3.923
 7991SOL    HW224873   5.915   1.418   4.011
 7992SOL     OW24874   1.339   0.243   0.287
 7992SOL    HW124875   1.414   0.193   0.332
 7992SOL    HW224876   1.261   0.247   0.349
 7993SOL     OW24877   0.095   6.990   1.557
 7993SOL    HW124878   0.133   0.055   1.533
 7993SOL    HW224879   0.002   7.001   1.591
 7994SOL     OW24880   5.392   0.853   3.309
 7994SOL    HW124881   5.441   0.895   3.386
 7994SOL    HW224882   5.294   0.872   3.317
 7995SOL     OW24883   5.932   5.358   3.297
 7995SOL    HW124884   5.881   5.294   3.355
 7995SOL    HW224885   5.882   5.373   3.212
 7996SOL     OW24886   3.744   6.086   4.450
 7996SOL    HW124887   3.809   6.081   4.374
 7996SOL    HW224888   3.768   6.018   4.519
 7997SOL     OW24889   6.923   1.921   0.223
 7997SOL    HW124890   6.909   1.825   0.246
 7997SOL    HW224891   6.992   1.929   0.151
 7998SOL     OW24892   3.163   6.808   6.534
 7998SOL    HW124893   3.167   6.801   6.434
 7998SOL    HW224894   3.182   6.902   6.561
 7999SOL     OW24895   1.054   1.059   5.690
 7999SOL    HW124896   0.979   1.125   5.685
 7999SOL    HW224897   1.110   1.065   5.608
 8000SOL     OW24898   5.700   6.903   6.115
 8000SOL    HW124899   5.766   6.836   6.079
 8000SOL    HW224900   5.674   6.877   6.208
 8001SOL     OW24901   4.328   6.243   1.325
 8001SOL    HW124902   4.340   6.154   1.370
 8001SOL    HW224903   4.231   6.256   1.303
 8002SOL     OW24904   0.948   1.060   5.249
 8002SOL    HW124905   0.861   1.011   5.261
 8002SOL    HW224906   0.997   1.023   5.170
 8003SOL     OW24907   2.011   5.628   1.371
 8003SOL    HW124908   2.099   5.675   1.368
 8003SOL    HW224909   1.950   5.675   1.434
 8004SOL     OW24910   2.059   3.327   3.690
 8004SOL    HW124911   2.002   3.376   3.625
 8004SOL    HW224912   2.069   3.232   3.661
 8005SOL     OW24913   2.353   0.473   3.439
 8005SOL    HW124914   2.397   0.519   3.362
 8005SOL    HW224915   2.397   0.385   3.455
 8006SOL     OW24916   2.364   5.853   5.515
 8006SOL    HW124917   2.382   5.756   5.504
 8006SOL    HW224918   2.343   5.873   5.611
 8007SOL     OW24919   5.864   2.139   6.556
 8007SOL    HW124920   5.842   2.107   6.464
 8007SOL    HW224921   5.873   2.238   6.555
 8008SOL     OW24922   3.228   5.639   6.559
 8008SOL    HW124923   3.161   5.603   6.625
 8008SOL    HW224924   3.305   5.680   6.609
 8009SOL     OW24925   4.759   1.194   0.198
 8009SOL    HW124926   4.748   1.257   0.121
 8009SOL    HW224927   4.756   1.246   0.283
 8010SOL     OW24928   2.921   2.218   4.932
 8010SOL    HW124929   2.933   2.252   4.839
 8010SOL    HW224930   3.007   2.228   4.982
 8011SOL     OW24931   3.413   2.252   1.405
 8011SOL    HW124932   3.367   2.287   1.486
 8011SOL    HW224933   3.503   2.216   1.431
 8012SOL     OW24934   1.269   2.660   6.189
 8012SOL    HW124935   1.336   2.725   6.154
 8012SOL    HW224936   1.208   2.706   6.253
 8013SOL     OW24937   1.818   3.729   3.518
 8013SOL    HW124938   1.730   3.774   3.529
 8013SOL    HW224939   1.880   3.756   3.592
 8014SOL     OW24940   2.101   0.336   4.491
 8014SOL    HW124941   2.068   0.422   4.530
 8014SOL    HW224942   2.023   0.281   4.460
 8015SOL     OW24943   1.971   0.258   5.926
 8015SOL    HW124944   1.877   0.291   5.916
 8015SOL    HW224945   2.029   0.302   5.858
 8016SOL     OW24946   4.150   1.412   5.094
 8016SOL    HW124947   4.241   1.450   5.108
 8016SOL    HW224948   4.093   1.480   5.046
 8017SOL     OW24949   6.467   0.098   6.668
 8017SOL    HW124950   6.373   0.125   6.648
 8017SOL    HW224951   6.526   0.179   6.669
 8018SOL     OW24952   3.355   2.650   0.203
 8018SOL    HW124953   3.443   2.663   0.249
 8018SOL    HW224954   3.284   2.700   0.252
 8019SOL     OW24955   1.801   4.059   1.676
 8019SOL    HW124956   1.717   4.030   1.630
 8019SOL    HW224957   1.777   4.113   1.757
 8020SOL     OW24958   6.779   0.473   6.489
 8020SOL    HW124959   6.767   0.459   6.391
 8020SOL    HW224960   6.788   0.570   6.508
 8021SOL     OW24961   1.882   2.965   1.719
 8021SOL    HW124962   1.834   3.047   1.748
 8021SOL    HW224963   1.875   2.956   1.619
 8022SOL     OW24964   6.383   0.556   1.928
 8022SOL    HW124965   6.463   0.615   1.940
 8022SOL    HW224966   6.391   0.476   1.987
 8023SOL     OW24967   5.693   4.611   2.582
 8023SOL    HW124968   5.765   4.543   2.568
 8023SOL    HW224969   5.705   4.686   2.517
 8024SOL     OW24970   1.219   5.292   6.003
 8024SOL    HW124971   1.183   5.209   6.046
 8024SOL    HW224972   1.319   5.287   5.999
 8025SOL     OW24973   1.492   5.121   0.991
 8025SOL    HW124974   1.425   5.169   0.935
 8025SOL    HW224975   1.519   5.178   1.068
 8026SOL     OW24976   6.765   4.354   0.929
 8026SOL    HW124977   6.860   4.348   0.898
 8026SOL    HW224978   6.753   4.436   0.984
 8027SOL     OW24979   3.382   6.446   5.787
 8027SOL    HW124980   3.466   6.398   5.814
 8027SOL    HW224981   3.307   6.380   5.781
 8028SOL     OW24982   3.380   4.953   4.856
 8028SOL    HW124983   3.467   4.960   4.806
 8028SOL    HW224984   3.375   5.026   4.924
 8029SOL     OW24985   4.748   2.320   2.106
 8029SOL    HW124986   4.713   2.227   2.104
 8029SOL    HW224987   4.832   2.324   2.160
 8030SOL     OW24988   5.891   5.429   0.895
 8030SOL    HW124989   5.885   5.521   0.857
 8030SOL    HW224990   5.982   5.415   0.935
 8031SOL     OW24991   6.852   6.323   2.884
 8031SOL    HW124992   6.912   6.402   2.869
 8031SOL    HW224993   6.761   6.343   2.850
 8032SOL     OW24994   5.142   3.672   1.669
 8032SOL    HW124995   5.089   3.598   1.628
 8032SOL    HW224996   5.157   3.653   1.767
 8033SOL     OW24997   4.692   3.382   0.233
 8033SOL    HW124998   4.701   3.481   0.245
 8033SOL    HW224999   4.774   3.336   0.269
 8034SOL     OW25000   4.947   6.824   5.624
 8034SOL    HW125001   5.043   6.848   5.638
 8034SOL    HW225002   4.896   6.904   5.593
 8035SOL     OW25003   5.263   1.703   2.070
 8035SOL    HW125004   5.248   1.801   2.054
 8035SOL    HW225005   5.250   1.683   2.167
 8036SOL     OW25006   0.090   3.824   3.616
 8036SOL    HW125007   7.016   3.811   3.607
 8036SOL    HW225008   0.108   3.913   3.658
 8037SOL     OW25009   1.904   3.291   0.134
 8037SOL    HW125010   1.990   3.334   0.106
 8037SOL    HW225011   1.841   3.289   0.057
 8038SOL     OW25012   4.746   6.230   2.711
 8038SOL    HW125013   4.722   6.304   2.648
 8038SOL    HW225014   4.701   6.146   2.682
 8039SOL     OW25015   6.926   1.934   4.684
 8039SOL    HW125016   7.019   1.950   4.652
 8039SOL    HW225017   6.906   1.836   4.680
 8040SOL     OW25018   1.569   6.431   6.637
 8040SOL    HW125019   1.524   6.477   6.561
 8040SOL    HW225020   1.506   6.365   6.678
 8041SOL     OW25021   3.317   0.905   2.726
 8041SOL    HW125022   3.265   0.828   2.764
 8041SOL    HW225023   3.331   0.974   2.797
 8042SOL     OW25024   4.372   4.112   5.596
 8042SOL    HW125025   4.305   4.054   5.643
 8042SOL    HW225026   4.327   4.161   5.521
 8043SOL     OW25027   3.556   4.431   0.354
 8043SOL    HW125028   3.470   4.398   0.393
 8043SOL    HW225029   3.601   4.357   0.305
 8044SOL     OW25030   3.797   3.861   0.436
 8044SOL    HW125031   3.837   3.809   0.360
 8044SOL    HW225032   3.773   3.798   0.510
 8045SOL     OW25033   6.550   2.508   2.583
 8045SOL    HW125034   6.643   2.499   2.546
 8045SOL    HW225035   6.490   2.441   2.538
 8046SOL     OW25036   0.376   4.329   2.356
 8046SOL    HW125037   0.365   4.311   2.258
 8046SOL    HW225038   0.442   4.402   2.369
 8047SOL     OW25039   3.488   6.739   6.487
 8047SOL    HW125040   3.426   6.674   6.443
 8047SOL    HW225041   3.577   6.696   6.501
 8048SOL     OW25042   2.932   2.413   6.888
 8048SOL    HW125043   2.963   2.335   6.832
 8048SOL    HW225044   2.999   2.487   6.882
 8049SOL     OW25045   0.246   6.691   0.244
 8049SOL    HW125046   0.267   6.597   0.270
 8049SOL    HW225047   0.253   6.750   0.325
 8050SOL     OW25048   2.155   3.507   4.388
 8050SOL    HW125049   2.099   3.566   4.446
 8050SOL    HW225050   2.244   3.493   4.432
 8051SOL     OW25051   4.780   6.192   4.571
 8051SOL    HW125052   4.779   6.268   4.636
 8051SOL    HW225053   4.746   6.110   4.617
 8052SOL     OW25054   2.569   2.127   1.445
 8052SOL    HW125055   2.666   2.128   1.471
 8052SOL    HW225056   2.552   2.200   1.378
 8053SOL     OW25057   3.274   3.134   5.175
 8053SOL    HW125058   3.278   3.174   5.267
 8053SOL    HW225059   3.310   3.199   5.109
 8054SOL     OW25060   7.012   4.217   4.380
 8054SOL    HW125061   0.030   4.210   4.470
 8054SOL    HW225062   6.913   4.226   4.390
 8055SOL     OW25063   6.956   0.696   5.568
 8055SOL    HW125064   7.012   0.614   5.558
 8055SOL    HW225065   6.951   0.721   5.665
 8056SOL     OW25066   3.162   0.362   4.789
 8056SOL    HW125067   3.132   0.429   4.857
 8056SOL    HW225068   3.227   0.405   4.726
 8057SOL     OW25069   2.411   2.499   2.737
 8057SOL    HW125070   2.470   2.531   2.663
 8057SOL    HW225071   2.360   2.576   2.775
 8058SOL     OW25072   3.231   6.392   2.669
 8058SOL    HW125073   3.313   6.448   2.656
 8058SOL    HW225074   3.253   6.296   2.654
 8059SOL     OW25075   3.043   0.402   5.395
 8059SOL    HW125076   3.017   0.323   5.450
 8059SOL    HW225077   2.966   0.466   5.391
 8060SOL     OW25078   0.428   2.016   6.122
 8060SOL    HW125079   0.480   1.953   6.179
 8060SOL    HW225080   0.484   2.042   6.043
 8061SOL     OW25081   0.798   0.979   2.503
 8061SOL    HW125082   0.842   0.943   2.585
 8061SOL    HW225083   0.778   1.076   2.515
 8062SOL     OW25084   4.117   5.172   4.339
 8062SOL    HW125085   4.064   5.089   4.321
 8062SOL    HW225086   4.062   5.252   4.315
 8063SOL     OW25087   2.962   0.940   2.982
 8063SOL    HW125088   3.052   0.977   3.008
 8063SOL    HW225089   2.891   1.006   3.006
 8064SOL     OW25090   5.959   2.291   0.058
 8064SOL    HW125091   5.867   2.318   0.084
 8064SOL    HW225092   5.956   2.241   6.995
 8065SOL     OW25093   2.908   6.584   4.471
 8065SOL    HW125094   2.904   6.544   4.562
 8065SOL    HW225095   2.997   6.565   4.430
 8066SOL     OW25096   6.520   0.229   4.696
 8066SOL    HW125097   6.586   0.249   4.623
 8066SOL    HW225098   6.546   0.143   4.740
 8067SOL     OW25099   5.140   2.547   2.962
 8067SOL    HW125100   5.090   2.566   3.046
 8067SOL    HW225101   5.094   2.593   2.885
 8068SOL     OW25102   0.390   4.767   1.260
 8068SOL    HW125103   0.383   4.752   1.161
 8068SOL    HW225104   0.303   4.743   1.303
 8069SOL     OW25105   2.114   4.510   1.831
 8069SOL    HW125106   2.114   4.457   1.746
 8069SOL    HW225107   2.201   4.557   1.842
 8070SOL     OW25108   3.920   2.805   0.003
 8070SOL    HW125109   3.965   2.858   0.075
 8070SOL    HW225110   3.915   2.859   6.944
 8071SOL     OW25111   3.144   6.518   5.450
 8071SOL    HW125112   3.182   6.442   5.397
 8071SOL    HW225113   3.074   6.483   5.513
 8072SOL     OW25114   3.294   1.845   1.122
 8072SOL    HW125115   3.307   1.762   1.067
 8072SOL    HW225116   3.196   1.864   1.131
 8073SOL     OW25117   2.965   5.702   5.256
 8073SOL    HW125118   3.026   5.753   5.316
 8073SOL    HW225119   2.936   5.760   5.180
 8074SOL     OW25120   2.591   1.267   0.965
 8074SOL    HW125121   2.674   1.215   0.986
 8074SOL    HW225122   2.593   1.298   0.871
 8075SOL     OW25123   0.126   0.753   0.341
 8075SOL    HW125124   0.154   0.689   0.412
 8075SOL    HW225125   0.055   0.813   0.377
 8076SOL     OW25126   6.047   6.934   5.475
 8076SOL    HW125127   6.003   7.006   5.420
 8076SOL    HW225128   5.998   6.848   5.462
 8077SOL     OW25129   3.258   6.101   2.600
 8077SOL    HW125130   3.341   6.044   2.599
 8077SOL    HW225131   3.228   6.118   2.507
 8078SOL     OW25132   0.798   2.029   1.656
 8078SOL    HW125133   0.848   2.113   1.676
 8078SOL    HW225134   0.825   1.994   1.567
 8079SOL     OW25135   6.742   1.272   3.507
 8079SOL    HW125136   6.726   1.355   3.454
 8079SOL    HW225137   6.668   1.207   3.489
 8080SOL     OW25138   1.079   2.381   2.375
 8080SOL    HW125139   1.104   2.372   2.471
 8080SOL    HW225140   1.080   2.290   2.332
 8081SOL     OW25141   6.274   5.576   5.862
 8081SOL    HW125142   6.298   5.479   5.868
 8081SOL    HW225143   6.176   5.587   5.875
 8082SOL     OW25144   3.501   0.490   2.575
 8082SOL    HW125145   3.458   0.549   2.506
 8082SOL    HW225146   3.583   0.448   2.536
 8083SOL     OW25147   5.422   2.694   3.694
 8083SOL    HW125148   5.344   2.745   3.728
 8083SOL    HW225149   5.503   2.715   3.748
 8084SOL     OW25150   2.522   0.519   6.977
 8084SOL    HW125151   2.465   0.489   6.901
 8084SOL    HW225152   2.590   0.449   6.998
 8085SOL     OW25153   6.118   5.865   2.720
 8085SOL    HW125154   6.162   5.913   2.644
 8085SOL    HW225155   6.074   5.932   2.780
 8086SOL     OW25156   0.264   0.504   1.460
 8086SOL    HW125157   0.205   0.460   1.393
 8086SOL    HW225158   0.247   0.465   1.551
 8087SOL     OW25159   1.542   0.351   0.099
 8087SOL    HW125160   1.625   0.314   0.057
 8087SOL    HW225161   1.493   0.277   0.146
 8088SOL     OW25162   5.424   0.740   0.289
 8088SOL    HW125163   5.442   0.641   0.290
 8088SOL    HW225164   5.335   0.757   0.247
 8089SOL     OW25165   5.484   2.974   6.720
 8089SOL    HW125166   5.513   3.069   6.706
 8089SOL    HW225167   5.562   2.913   6.709
 8090SOL     OW25168   3.897   1.091   6.363
 8090SOL    HW125169   3.949   1.129   6.286
 8090SOL    HW225170   3.933   1.129   6.448
 8091SOL     OW25171   1.392   3.613   5.023
 8091SOL    HW125172   1.454   3.550   5.068
 8091SOL    HW225173   1.441   3.696   4.997
 8092SOL     OW25174   4.876   2.107   5.238
 8092SOL    HW125175   4.906   2.077   5.329
 8092SOL    HW225176   4.897   2.036   5.171
 8093SOL     OW25177   2.800   5.350   3.338
 8093SOL    HW125178   2.841   5.441   3.349
 8093SOL    HW225179   2.701   5.356   3.351
 8094SOL     OW25180   0.292   2.630   4.883
 8094SOL    HW125181   0.252   2.692   4.951
 8094SOL    HW225182   0.315   2.682   4.801
 8095SOL     OW25183   0.977   4.214   4.900
 8095SOL    HW125184   0.880   4.224   4.880
 8095SOL    HW225185   0.993   4.127   4.947
 8096SOL     OW25186   2.440   0.558   2.400
 8096SOL    HW125187   2.354   0.518   2.430
 8096SOL    HW225188   2.423   0.630   2.333
 8097SOL     OW25189   4.620   6.700   4.681
 8097SOL    HW125190   4.680   6.663   4.611
 8097SOL    HW225191   4.615   6.636   4.758
 8098SOL     OW25192   2.361   6.369   4.077
 8098SOL    HW125193   2.295   6.376   4.152
 8098SOL    HW225194   2.401   6.459   4.060
 8099SOL     OW25195   4.703   6.245   4.303
 8099SOL    HW125196   4.690   6.219   4.398
 8099SOL    HW225197   4.800   6.265   4.287
 8100SOL     OW25198   6.923   1.629   6.656
 8100SOL    HW125199   6.872   1.679   6.726
 8100SOL    HW225200   6.959   1.693   6.588
 8101SOL     OW25201   1.570   5.708   0.985
 8101SOL    HW125202   1.638   5.777   0.961
 8101SOL    HW225203   1.616   5.622   1.007
 8102SOL     OW25204   0.900   3.591   2.892
 8102SOL    HW125205   0.966   3.534   2.843
 8102SOL    HW225206   0.815   3.597   2.839
 8103SOL     OW25207   3.864   0.211   1.686
 8103SOL    HW125208   3.917   0.129   1.708
 8103SOL    HW225209   3.881   0.236   1.591
 8104SOL     OW25210   1.452   0.702   6.367
 8104SOL    HW125211   1.519   0.628   6.377
 8104SOL    HW225212   1.393   0.706   6.447
 8105SOL     OW25213   6.740   3.143   2.577
 8105SOL    HW125214   6.715   3.180   2.666
 8105SOL    HW225215   6.668   3.162   2.511
 8106SOL     OW25216   2.929   6.103   3.190
 8106SOL    HW125217   2.953   6.010   3.220
 8106SOL    HW225218   2.830   6.114   3.192
 8107SOL     OW25219   0.936   5.543   3.850
 8107SOL    HW125220   0.970   5.591   3.931
 8107SOL    HW225221   1.013   5.507   3.798
 8108SOL     OW25222   6.615   2.749   6.553
 8108SOL    HW125223   6.635   2.847   6.546
 8108SOL    HW225224   6.556   2.722   6.478
 8109SOL     OW25225   0.326   3.469   6.358
 8109SOL    HW125226   0.358   3.381   6.323
 8109SOL    HW225227   0.226   3.473   6.350
 8110SOL     OW25228   4.146   5.842   2.111
 8110SOL    HW125229   4.127   5.852   2.209
 8110SOL    HW225230   4.084   5.900   2.059
 8111SOL     OW25231   4.674   1.526   4.651
 8111SOL    HW125232   4.658   1.503   4.555
 8111SOL    HW225233   4.772   1.540   4.666
 8112SOL     OW25234   2.688   2.263   4.218
 8112SOL    HW125235   2.635   2.328   4.164
 8112SOL    HW225236   2.668   2.276   4.315
 8113SOL     OW25237   0.361   3.877   0.691
 8113SOL    HW125238   0.294   3.834   0.752
 8113SOL    HW225239   0.331   3.969   0.667
 8114SOL     OW25240   1.763   3.651   2.547
 8114SOL    HW125241   1.707   3.591   2.604
 8114SOL    HW225242   1.714   3.737   2.532
 8115SOL     OW25243   3.425   6.962   6.343
 8115SOL    HW125244   3.467   6.902   6.412
 8115SOL    HW225245   3.456   0.032   6.357
 8116SOL     OW25246   3.684   4.661   0.381
 8116SOL    HW125247   3.651   4.570   0.357
 8116SOL    HW225248   3.768   4.653   0.435
 8117SOL     OW25249   2.055   0.165   3.061
 8117SOL    HW125250   1.978   0.101   3.050
 8117SOL    HW225251   2.030   0.253   3.019
 8118SOL     OW25252   5.455   4.148   5.791
 8118SOL    HW125253   5.413   4.217   5.732
 8118SOL    HW225254   5.419   4.158   5.884
 8119SOL     OW25255   5.313   6.644   6.557
 8119SOL    HW125256   5.251   6.714   6.524
 8119SOL    HW225257   5.267   6.555   6.553
 8120SOL     OW25258   3.065   4.581   0.859
 8120SOL    HW125259   3.117   4.635   0.925
 8120SOL    HW225260   3.082   4.484   0.875
 8121SOL     OW25261   0.922   4.966   1.662
 8121SOL    HW125262   0.966   4.879   1.641
 8121SOL    HW225263   0.969   5.039   1.612
 8122SOL     OW25264   6.954   4.749   2.899
 8122SOL    HW125265   6.931   4.842   2.927
 8122SOL    HW225266   6.893   4.721   2.824
 8123SOL     OW25267   6.656   2.118   6.698
 8123SOL    HW125268   6.675   2.134   6.795
 8123SOL    HW225269   6.604   2.195   6.660
 8124SOL     OW25270   4.897   6.162   2.243
 8124SOL    HW125271   4.980   6.191   2.290
 8124SOL    HW225272   4.818   6.176   2.303
 8125SOL     OW25273   1.399   1.464   3.437
 8125SOL    HW125274   1.391   1.386   3.375
 8125SOL    HW225275   1.307   1.495   3.464
 8126SOL     OW25276   5.385   5.312   3.321
 8126SOL    HW125277   5.297   5.306   3.368
 8126SOL    HW225278   5.392   5.238   3.254
 8127SOL     OW25279   2.490   3.660   6.258
 8127SOL    HW125280   2.563   3.639   6.193
 8127SOL    HW225281   2.405   3.618   6.227
 8128SOL     OW25282   2.879   2.225   2.334
 8128SOL    HW125283   2.964   2.250   2.287
 8128SOL    HW225284   2.801   2.243   2.274
 8129SOL     OW25285   3.471   1.465   6.005
 8129SOL    HW125286   3.445   1.556   5.972
 8129SOL    HW225287   3.546   1.430   5.949
 8130SOL     OW25288   0.667   4.950   6.747
 8130SOL    HW125289   0.718   5.029   6.712
 8130SOL    HW225290   0.641   4.966   6.842
 8131SOL     OW25291   2.380   1.604   1.529
 8131SOL    HW125292   2.388   1.697   1.492
 8131SOL    HW225293   2.471   1.565   1.541
 8132SOL     OW25294   5.471   6.867   5.011
 8132SOL    HW125295   5.469   6.922   4.928
 8132SOL    HW225296   5.461   6.771   4.988
 8133SOL     OW25297   2.800   5.277   2.296
 8133SOL    HW125298   2.774   5.374   2.295
 8133SOL    HW225299   2.900   5.269   2.293
 8134SOL     OW25300   0.389   1.772   6.459
 8134SOL    HW125301   0.359   1.867   6.467
 8134SOL    HW225302   0.314   1.711   6.482
 8135SOL     OW25303   2.522   0.377   1.832
 8135SOL    HW125304   2.617   0.356   1.811
 8135SOL    HW225305   2.511   0.390   1.931
 8136SOL     OW25306   4.494   5.263   2.559
 8136SOL    HW125307   4.398   5.282   2.575
 8136SOL    HW225308   4.508   5.235   2.464
 8137SOL     OW25309   2.933   1.204   5.151
 8137SOL    HW125310   2.987   1.288   5.149
 8137SOL    HW225311   2.959   1.146   5.074
 8138SOL     OW25312   5.525   1.300   1.331
 8138SOL    HW125313   5.493   1.361   1.259
 8138SOL    HW225314   5.521   1.205   1.300
 8139SOL     OW25315   0.254   0.701   1.981
 8139SOL    HW125316   0.229   0.750   2.064
 8139SOL    HW225317   0.295   0.764   1.916
 8140SOL     OW25318   6.180   0.541   5.974
 8140SOL    HW125319   6.163   0.517   5.878
 8140SOL    HW225320   6.251   0.612   5.978
 8141SOL     OW25321   4.133   5.357   5.078
 8141SOL    HW125322   4.195   5.434   5.070
 8141SOL    HW225323   4.046   5.387   5.118
 8142SOL     OW25324   0.139   5.459   0.178
 8142SOL    HW125325   0.122   5.369   0.139
 8142SOL    HW225326   0.056   5.491   0.224
 8143SOL     OW25327   6.200   4.325   0.632
 8143SOL    HW125328   6.270   4.283   0.574
 8143SOL    HW225329   6.133   4.374   0.575
 8144SOL     OW25330   5.741   6.334   6.981
 8144SOL    HW125331   5.756   6.347   0.055
 8144SOL    HW225332   5.828   6.309   6.938
 8145SOL     OW25333   4.817   6.031   1.755
 8145SOL    HW125334   4.916   6.023   1.749
 8145SOL    HW225335   4.789   6.025   1.851
 8146SOL     OW25336   4.104   0.795   4.845
 8146SOL    HW125337   4.139   0.766   4.934
 8146SOL    HW225338   4.179   0.797   4.779
 8147SOL     OW25339   5.812   2.583   2.629
 8147SOL    HW125340   5.747   2.538   2.567
 8147SOL    HW225341   5.815   2.533   2.715
 8148SOL     OW25342   4.976   4.265   1.834
 8148SOL    HW125343   5.052   4.257   1.898
 8148SOL    HW225344   4.981   4.354   1.787
 8149SOL     OW25345   2.204   6.076   1.946
 8149SOL    HW125346   2.149   6.002   1.984
 8149SOL    HW225347   2.296   6.042   1.924
 8150SOL     OW25348   0.123   5.140   6.830
 8150SOL    HW125349   0.160   5.108   6.743
 8150SOL    HW225350   0.040   5.088   6.852
 8151SOL     OW25351   6.681   2.177   1.658
 8151SOL    HW125352   6.673   2.167   1.757
 8151SOL    HW225353   6.775   2.203   1.635
 8152SOL     OW25354   0.606   2.396   2.494
 8152SOL    HW125355   0.654   2.445   2.421
 8152SOL    HW225356   0.668   2.381   2.571
 8153SOL     OW25357   3.900   0.240   3.005
 8153SOL    HW125358   3.988   0.239   3.051
 8153SOL    HW225359   3.881   0.150   2.967
 8154SOL     OW25360   3.032   5.857   3.823
 8154SOL    HW125361   3.003   5.900   3.738
 8154SOL    HW225362   3.132   5.846   3.823
 8155SOL     OW25363   2.599   3.446   1.710
 8155SOL    HW125364   2.540   3.448   1.791
 8155SOL    HW225365   2.558   3.389   1.640
 8156SOL     OW25366   4.979   0.094   6.002
 8156SOL    HW125367   5.028   0.013   5.970
 8156SOL    HW225368   4.905   0.066   6.062
 8157SOL     OW25369   5.939   5.626   6.351
 8157SOL    HW125370   5.983   5.701   6.400
 8157SOL    HW225371   5.903   5.660   6.264
 8158SOL     OW25372   0.371   5.577   1.153
 8158SOL    HW125373   0.365   5.661   1.100
 8158SOL    HW225374   0.433   5.591   1.231
 8159SOL     OW25375   2.508   6.196   2.467
 8159SOL    HW125376   2.605   6.183   2.486
 8159SOL    HW225377   2.496   6.212   2.369
 8160SOL     OW25378   4.550   1.617   1.862
 8160SOL    HW125379   4.494   1.700   1.856
 8160SOL    HW225380   4.517   1.550   1.796
 8161SOL     OW25381   5.286   1.350   0.409
 8161SOL    HW125382   5.271   1.252   0.400
 8161SOL    HW225383   5.330   1.385   0.326
 8162SOL     OW25384   6.481   6.827   6.183
 8162SOL    HW125385   6.517   6.919   6.170
 8162SOL    HW225386   6.547   6.772   6.234
 8163SOL     OW25387   2.708   3.819   5.550
 8163SOL    HW125388   2.794   3.791   5.593
 8163SOL    HW225389   2.662   3.884   5.609
 8164SOL     OW25390   5.883   3.570   0.864
 8164SOL    HW125391   5.844   3.491   0.911
 8164SOL    HW225392   5.831   3.587   0.780
 8165SOL     OW25393   1.031   5.024   6.708
 8165SOL    HW125394   1.122   5.056   6.734
 8165SOL    HW225395   1.025   4.925   6.723
 8166SOL     OW25396   2.512   0.927   2.358
 8166SOL    HW125397   2.460   0.846   2.328
 8166SOL    HW225398   2.589   0.897   2.414
 8167SOL     OW25399   5.631   1.304   3.891
 8167SOL    HW125400   5.592   1.390   3.859
 8167SOL    HW225401   5.578   1.227   3.855
 8168SOL     OW25402   3.577   0.934   2.675
 8168SOL    HW125403   3.624   0.905   2.591
 8168SOL    HW225404   3.479   0.921   2.665
 8169SOL     OW25405   5.411   3.461   1.668
 8169SOL    HW125406   5.387   3.374   1.711
 8169SOL    HW225407   5.413   3.449   1.569
 8170SOL     OW25408   1.765   6.128   3.027
 8170SOL    HW125409   1.685   6.178   2.994
 8170SOL    HW225410   1.840   6.139   2.962
 8171SOL     OW25411   1.301   1.609   6.518
 8171SOL    HW125412   1.387   1.567   6.547
 8171SOL    HW225413   1.252   1.546   6.458
 8172SOL     OW25414   0.723   0.813   1.391
 8172SOL    HW125415   0.803   0.759   1.364
 8172SOL    HW225416   0.657   0.754   1.437
 8173SOL     OW25417   3.742   2.007   0.297
 8173SOL    HW125418   3.836   2.009   0.263
 8173SOL    HW225419   3.741   2.031   0.394
 8174SOL     OW25420   4.906   1.611   1.170
 8174SOL    HW125421   4.844   1.646   1.240
 8174SOL    HW225422   4.940   1.521   1.197
 8175SOL     OW25423   0.317   2.878   6.259
 8175SOL    HW125424   0.321   2.848   6.355
 8175SOL    HW225425   0.360   2.810   6.201
 8176SOL     OW25426   2.794   5.906   1.910
 8176SOL    HW125427   2.859   5.920   1.835
 8176SOL    HW225428   2.738   5.826   1.892
 8177SOL     OW25429   2.087   6.114   4.231
 8177SOL    HW125430   2.063   6.049   4.159
 8177SOL    HW225431   2.027   6.099   4.311
 8178SOL     OW25432   1.328   0.005   6.513
 8178SOL    HW125433   1.293   0.071   6.580
 8178SOL    HW225434   1.352   0.054   6.428
 8179SOL     OW25435   3.417   3.236   6.974
 8179SOL    HW125436   3.455   3.327   6.956
 8179SOL    HW225437   3.319   3.242   6.989
 8180SOL     OW25438   6.494   7.001   4.139
 8180SOL    HW125439   6.472   6.904   4.145
 8180SOL    HW225440   6.527   7.023   4.047
 8181SOL     OW25441   2.114   0.844   2.527
 8181SOL    HW125442   2.173   0.924   2.538
 8181SOL    HW225443   2.146   0.771   2.587
 8182SOL     OW25444   3.996   1.770   6.794
 8182SOL    HW125445   3.936   1.787   6.872
 8182SOL    HW225446   4.087   1.808   6.812
 8183SOL     OW25447   0.518   2.492   5.030
 8183SOL    HW125448   0.442   2.545   4.991
 8183SOL    HW225449   0.583   2.469   4.957
 8184SOL     OW25450   5.704   1.855   5.604
 8184SOL    HW125451   5.677   1.851   5.700
 8184SOL    HW225452   5.697   1.764   5.564
 8185SOL     OW25453   2.966   0.489   0.352
 8185SOL    HW125454   2.892   0.470   0.416
 8185SOL    HW225455   3.049   0.444   0.383
 8186SOL     OW25456   2.709   6.414   6.274
 8186SOL    HW125457   2.771   6.491   6.259
 8186SOL    HW225458   2.749   6.331   6.235
 8187SOL     OW25459   1.580   2.126   5.018
 8187SOL    HW125460   1.648   2.071   4.969
 8187SOL    HW225461   1.626   2.179   5.089
 8188SOL     OW25462   5.559   1.783   2.511
 8188SOL    HW125463   5.551   1.770   2.412
 8188SOL    HW225464   5.584   1.878   2.529
 8189SOL     OW25465   4.980   4.488   2.354
 8189SOL    HW125466   4.980   4.388   2.361
 8189SOL    HW225467   4.910   4.517   2.288
 8190SOL     OW25468   5.080   5.347   4.313
 8190SOL    HW125469   5.112   5.274   4.374
 8190SOL    HW225470   5.119   5.334   4.222
 8191SOL     OW25471   2.390   5.620   3.339
 8191SOL    HW125472   2.471   5.646   3.393
 8191SOL    HW225473   2.320   5.583   3.400
 8192SOL     OW25474   2.704   6.074   0.236
 8192SOL    HW125475   2.692   6.117   0.325
 8192SOL    HW225476   2.622   6.087   0.181
 8193SOL     OW25477   5.855   6.880   4.711
 8193SOL    HW125478   5.914   6.922   4.780
 8193SOL    HW225479   5.898   6.886   4.621
 8194SOL     OW25480   6.157   2.564   6.704
 8194SOL    HW125481   6.077   2.555   6.763
 8194SOL    HW225482   6.240   2.540   6.756
 8195SOL     OW25483   0.757   0.957   0.863
 8195SOL    HW125484   0.788   0.944   0.769
 8195SOL    HW225485   0.802   1.037   0.902
 8196SOL     OW25486   4.028   0.020   5.529
 8196SOL    HW125487   4.019   0.014   5.429
 8196SOL    HW225488   4.052   0.113   5.555
 8197SOL     OW25489   5.228   1.692   6.131
 8197SOL    HW125490   5.208   1.754   6.207
 8197SOL    HW225491   5.144   1.646   6.103
 8198SOL     OW25492   3.364   6.442   2.201
 8198SOL    HW125493   3.392   6.455   2.106
 8198SOL    HW225494   3.290   6.376   2.206
 8199SOL     OW25495   6.857   4.083   0.399
 8199SOL    HW125496   6.798   4.067   0.478
 8199SOL    HW225497   6.803   4.077   0.315
 8200SOL     OW25498   4.645   4.223   1.091
 8200SOL    HW125499   4.550   4.216   1.062
 8200SOL    HW225500   4.648   4.245   1.189
 8201SOL     OW25501   5.341   0.795   4.687
 8201SOL    HW125502   5.383   0.822   4.600
 8201SOL    HW225503   5.291   0.710   4.675
 8202SOL     OW25504   1.437   5.331   4.299
 8202SOL    HW125505   1.405   5.268   4.370
 8202SOL    HW225506   1.474   5.413   4.342
 8203SOL     OW25507   4.670   3.325   0.708
 8203SOL    HW125508   4.739   3.359   0.645
 8203SOL    HW225509   4.707   3.324   0.801
 8204SOL     OW25510   3.514   6.053   1.003
 8204SOL    HW125511   3.581   6.059   0.929
 8204SOL    HW225512   3.446   6.126   0.993
 8205SOL     OW25513   5.734   4.747   1.479
 8205SOL    HW125514   5.807   4.687   1.513
 8205SOL    HW225515   5.670   4.693   1.425
 8206SOL     OW25516   2.940   2.412   5.647
 8206SOL    HW125517   3.013   2.468   5.687
 8206SOL    HW225518   2.893   2.463   5.575
 8207SOL     OW25519   3.427   4.656   5.287
 8207SOL    HW125520   3.443   4.755   5.297
 8207SOL    HW225521   3.330   4.639   5.269
 8208SOL     OW25522   2.206   6.446   1.401
 8208SOL    HW125523   2.239   6.360   1.362
 8208SOL    HW225524   2.241   6.523   1.347
 8209SOL     OW25525   1.167   1.241   5.065
 8209SOL    HW125526   1.159   1.142   5.066
 8209SOL    HW225527   1.218   1.271   5.146
 8210SOL     OW25528   3.386   0.962   0.546
 8210SOL    HW125529   3.339   0.897   0.606
 8210SOL    HW225530   3.444   1.023   0.601
 8211SOL     OW25531   3.621   4.177   4.242
 8211SOL    HW125532   3.705   4.163   4.294
 8211SOL    HW225533   3.545   4.192   4.305
 8212SOL     OW25534   2.804   0.467   0.603
 8212SOL    HW125535   2.851   0.381   0.621
 8212SOL    HW225536   2.714   0.448   0.563
 8213SOL     OW25537   4.738   5.379   3.598
 8213SOL    HW125538   4.702   5.409   3.509
 8213SOL    HW225539   4.809   5.443   3.628
 8214SOL     OW25540   2.416   5.616   4.211
 8214SOL    HW125541   2.503   5.573   4.186
 8214SOL    HW225542   2.427   5.665   4.297
 8215SOL     OW25543   4.361   5.659   6.971
 8215SOL    HW125544   4.381   5.752   7.003
 8215SOL    HW225545   4.420   5.594   7.020
 8216SOL     OW25546   5.042   6.729   2.924
 8216SOL    HW125547   5.052   6.702   3.020
 8216SOL    HW225548   4.996   6.818   2.920
 8217SOL     OW25549   2.199   4.039   2.543
 8217SOL    HW125550   2.218   3.953   2.495
 8217SOL    HW225551   2.200   4.115   2.478
 8218SOL     OW25552   2.155   6.885   5.565
 8218SOL    HW125553   2.103   6.832   5.498
 8218SOL    HW225554   2.120   6.869   5.657
 8219SOL     OW25555   2.865   4.058   1.629
 8219SOL    HW125556   2.883   4.054   1.531
 8219SOL    HW225557   2.931   4.119   1.673
 8220SOL     OW25558   3.667   4.496   5.294
 8220SOL    HW125559   3.573   4.530   5.293
 8220SOL    HW225560   3.667   4.397   5.304
 8221SOL     OW25561   5.774   3.881   3.299
 8221SOL    HW125562   5.813   3.793   3.272
 8221SOL    HW225563   5.821   3.914   3.381
 8222SOL     OW25564   5.906   2.786   0.603
 8222SOL    HW125565   5.921   2.798   0.701
 8222SOL    HW225566   5.988   2.812   0.553
 8223SOL     OW25567   6.934   5.168   5.288
 8223SOL    HW125568   6.914   5.261   5.258
 8223SOL    HW225569   6.860   5.135   5.347
 8224SOL     OW25570   4.456   1.431   0.768
 8224SOL    HW125571   4.444   1.332   0.767
 8224SOL    HW225572   4.550   1.453   0.741
 8225SOL     OW25573   3.825   0.029   0.626
 8225SOL    HW125574   3.823   6.979   0.693
 8225SOL    HW225575   3.736   0.037   0.582
 8226SOL     OW25576   3.309   0.613   0.354
 8226SOL    HW125577   3.272   0.701   0.383
 8226SOL    HW225578   3.356   0.569   0.430
 8227SOL     OW25579   5.753   1.275   2.397
 8227SOL    HW125580   5.727   1.239   2.486
 8227SOL    HW225581   5.704   1.361   2.380
 8228SOL     OW25582   0.803   1.383   5.341
 8228SOL    HW125583   0.721   1.347   5.385
 8228SOL    HW225584   0.804   1.354   5.245
 8229SOL     OW25585   4.246   4.835   0.886
 8229SOL    HW125586   4.166   4.895   0.888
 8229SOL    HW225587   4.219   4.744   0.916
 8230SOL     OW25588   4.321   6.916   5.602
 8230SOL    HW125589   4.249   6.859   5.640
 8230SOL    HW225590   4.411   6.878   5.627
 8231SOL     OW25591   3.557   1.501   2.390
 8231SOL    HW125592   3.621   1.427   2.369
 8231SOL    HW225593   3.463   1.467   2.381
 8232SOL     OW25594   5.169   1.401   2.201
 8232SOL    HW125595   5.228   1.354   2.134
 8232SOL    HW225596   5.202   1.382   2.293
 8233SOL     OW25597   0.812   0.369   5.624
 8233SOL    HW125598   0.815   0.454   5.570
 8233SOL    HW225599   0.889   0.367   5.687
 8234SOL     OW25600   3.145   3.073   0.280
 8234SOL    HW125601   3.131   3.058   0.182
 8234SOL    HW225602   3.146   3.172   0.299
 8235SOL     OW25603   6.952   5.029   6.964
 8235SOL    HW125604   6.973   4.931   6.969
 8235SOL    HW225605   6.853   5.041   6.962
 8236SOL     OW25606   6.979   6.129   5.951
 8236SOL    HW125607   6.936   6.051   5.905
 8236SOL    HW225608   0.042   6.100   5.992
 8237SOL     OW25609   4.380   5.413   6.367
 8237SOL    HW125610   4.401   5.393   6.271
 8237SOL    HW225611   4.452   5.472   6.405
 8238SOL     OW25612   1.545   5.768   7.008
 8238SOL    HW125613   1.565   5.796   0.077
 8238SOL    HW225614   1.566   5.843   6.945
 8239SOL     OW25615   0.087   1.229   4.808
 8239SOL    HW125616   0.059   1.171   4.732
 8239SOL    HW225617   0.103   1.173   4.889
 8240SOL     OW25618   3.075   3.069   3.150
 8240SOL    HW125619   3.130   3.130   3.095
 8240SOL    HW225620   2.985   3.110   3.167
 8241SOL     OW25621   1.480   3.163   0.240
 8241SOL    HW125622   1.452   3.133   0.149
 8241SOL    HW225623   1.580   3.153   0.249
 8242SOL     OW25624   1.022   3.746   4.483
 8242SOL    HW125625   0.946   3.759   4.547
 8242SOL    HW225626   1.073   3.832   4.474
 8243SOL     OW25627   0.396   4.711   5.880
 8243SOL    HW125628   0.486   4.703   5.923
 8243SOL    HW225629   0.370   4.623   5.839
 8244SOL     OW25630   0.980   0.600   3.566
 8244SOL    HW125631   0.990   0.509   3.526
 8244SOL    HW225632   0.970   0.591   3.665
 8245SOL     OW25633   4.471   1.742   3.692
 8245SOL    HW125634   4.556   1.729   3.744
 8245SOL    HW225635   4.490   1.797   3.611
 8246SOL     OW25636   1.163   3.943   6.754
 8246SOL    HW125637   1.192   3.858   6.709
 8246SOL    HW225638   1.065   3.941   6.770
 8247SOL     OW25639   2.978   4.985   3.757
 8247SOL    HW125640   3.011   5.079   3.753
 8247SOL    HW225641   2.983   4.944   3.666
 8248SOL     OW25642   1.074   5.832   3.777
 8248SOL    HW125643   1.021   5.780   3.710
 8248SOL    HW225644   1.135   5.895   3.728
 8249SOL     OW25645   2.235   2.282   5.242
 8249SOL    HW125646   2.189   2.215   5.300
 8249SOL    HW225647   2.212   2.374   5.274
 8250SOL     OW25648   3.011   1.661   0.812
 8250SOL    HW125649   3.004   1.639   0.715
 8250SOL    HW225650   3.106   1.687   0.834
 8251SOL     OW25651   6.693   2.098   4.682
 8251SOL    HW125652   6.763   2.029   4.663
 8251SOL    HW225653   6.685   2.111   4.781
 8252SOL     OW25654   2.148   2.156   6.559
 8252SOL    HW125655   2.222   2.170   6.624
 8252SOL    HW225656   2.066   2.203   6.590
 8253SOL     OW25657   3.919   5.933   6.160
 8253SOL    HW125658   3.921   5.904   6.065
 8253SOL    HW225659   3.944   5.856   6.219
 8254SOL     OW25660   6.113   4.572   6.182
 8254SOL    HW125661   6.124   4.544   6.086
 8254SOL    HW225662   6.202   4.601   6.218
 8255SOL     OW25663   0.524   6.780   6.776
 8255SOL    HW125664   0.488   6.788   6.683
 8255SOL    HW225665   0.455   6.740   6.835
 8256SOL     OW25666   0.636   6.643   3.204
 8256SOL    HW125667   0.569   6.628   3.131
 8256SOL    HW225668   0.648   6.558   3.256
 8257SOL     OW25669   5.828   4.168   4.111
 8257SOL    HW125670   5.917   4.182   4.067
 8257SOL    HW225671   5.763   4.236   4.077
 8258SOL     OW25672   5.620   2.767   1.161
 8258SOL    HW125673   5.669   2.683   1.185
 8258SOL    HW225674   5.621   2.829   1.240
 8259SOL     OW25675   4.301   2.052   4.350
 8259SOL    HW125676   4.353   2.008   4.424
 8259SOL    HW225677   4.216   2.088   4.387
 8260SOL     OW25678   2.366   6.614   0.026
 8260SOL    HW125679   2.302   6.559   0.079
 8260SOL    HW225680   2.442   6.556   7.020
 8261SOL     OW25681   5.710   6.347   3.198
 8261SOL    HW125682   5.701   6.300   3.285
 8261SOL    HW225683   5.647   6.307   3.132
 8262SOL     OW25684   0.578   4.908   0.758
 8262SOL    HW125685   0.555   4.998   0.721
 8262SOL    HW225686   0.616   4.851   0.685
 8263SOL     OW25687   6.752   2.998   6.503
 8263SOL    HW125688   6.749   3.036   6.410
 8263SOL    HW225689   6.842   2.959   6.521
 8264SOL     OW25690   1.755   0.124   1.379
 8264SOL    HW125691   1.841   0.117   1.428
 8264SOL    HW225692   1.717   0.216   1.390
 8265SOL     OW25693   4.172   0.668   1.819
 8265SOL    HW125694   4.121   0.583   1.820
 8265SOL    HW225695   4.263   0.652   1.779
 8266SOL     OW25696   2.995   6.963   4.603
 8266SOL    HW125697   2.961   0.022   4.559
 8266SOL    HW225698   3.055   6.987   4.680
 8267SOL     OW25699   1.540   4.939   2.267
 8267SOL    HW125700   1.633   4.905   2.278
 8267SOL    HW225701   1.476   4.873   2.307
 8268SOL     OW25702   2.685   3.826   7.017
 8268SOL    HW125703   2.672   3.913   6.969
 8268SOL    HW225704   2.597   3.793   0.028
 8269SOL     OW25705   4.718   2.800   3.046
 8269SOL    HW125706   4.703   2.851   3.131
 8269SOL    HW225707   4.647   2.730   3.036
 8270SOL     OW25708   2.959   0.081   5.595
 8270SOL    HW125709   2.867   0.067   5.558
 8270SOL    HW225710   2.972   0.021   5.674
 8271SOL     OW25711   5.490   6.117   4.690
 8271SOL    HW125712   5.468   6.201   4.640
 8271SOL    HW225713   5.501   6.041   4.626
 8272SOL     OW25714   0.633   0.349   2.500
 8272SOL    HW125715   0.583   0.321   2.582
 8272SOL    HW225716   0.707   0.283   2.483
 8273SOL     OW25717   3.035   0.050   6.955
 8273SOL    HW125718   2.973   0.013   7.024
 8273SOL    HW225719   3.129   0.024   6.978
 8274SOL     OW25720   4.141   4.870   6.925
 8274SOL    HW125721   4.179   4.778   6.937
 8274SOL    HW225722   4.120   4.884   6.828
 8275SOL     OW25723   6.973   7.012   4.721
 8275SOL    HW125724   6.896   6.973   4.773
 8275SOL    HW225725   7.022   6.938   4.675
 8276SOL     OW25726   6.949   2.700   5.619
 8276SOL    HW125727   0.015   2.709   5.577
 8276SOL    HW225728   6.892   2.778   5.592
 8277SOL     OW25729   1.723   5.931   5.626
 8277SOL    HW125730   1.750   6.021   5.590
 8277SOL    HW225731   1.624   5.921   5.616
 8278SOL     OW25732   3.316   1.319   6.174
 8278SOL    HW125733   3.219   1.322   6.150
 8278SOL    HW225734   3.367   1.380   6.114
 8279SOL     OW25735   4.969   5.946   6.970
 8279SOL    HW125736   4.928   5.883   6.904
 8279SOL    HW225737   5.053   5.906   7.005
 8280SOL     OW25738   4.704   2.678   0.318
 8280SOL    HW125739   4.653   2.593   0.329
 8280SOL    HW225740   4.711   2.724   0.407
 8281SOL     OW25741   2.025   4.758   0.269
 8281SOL    HW125742   2.026   4.853   0.237
 8281SOL    HW225743   2.046   4.697   0.192
 8282SOL     OW25744   2.501   2.467   1.081
 8282SOL    HW125745   2.495   2.558   1.122
 8282SOL    HW225746   2.411   2.441   1.045
 8283SOL     OW25747   0.693   5.236   3.721
 8283SOL    HW125748   0.669   5.155   3.667
 8283SOL    HW225749   0.682   5.318   3.664
 8284SOL     OW25750   1.840   2.498   3.038
 8284SOL    HW125751   1.829   2.524   3.134
 8284SOL    HW225752   1.911   2.428   3.030
 8285SOL     OW25753   3.462   3.972   5.936
 8285SOL    HW125754   3.561   3.961   5.949
 8285SOL    HW225755   3.445   4.038   5.863
 8286SOL     OW25756   5.601   0.961   4.757
 8286SOL    HW125757   5.547   0.925   4.833
 8286SOL    HW225758   5.576   0.914   4.672
 8287SOL     OW25759   1.305   6.652   4.325
 8287SOL    HW125760   1.312   6.744   4.285
 8287SOL    HW225761   1.290   6.660   4.423
 8288SOL     OW25762   1.908   2.104   2.305
 8288SOL    HW125763   1.834   2.044   2.335
 8288SOL    HW225764   1.959   2.059   2.232
 8289SOL     OW25765   6.046   1.229   5.330
 8289SOL    HW125766   6.034   1.287   5.249
 8289SOL    HW225767   5.983   1.259   5.402
 8290SOL     OW25768   3.587   2.976   1.422
 8290SOL    HW125769   3.561   2.880   1.413
 8290SOL    HW225770   3.527   3.021   1.487
 8291SOL     OW25771   5.749   6.896   6.597
 8291SOL    HW125772   5.787   6.854   6.515
 8291SOL    HW225773   5.649   6.890   6.594
 8292SOL     OW25774   1.576   5.007   5.877
 8292SOL    HW125775   1.604   4.990   5.783
 8292SOL    HW225776   1.569   4.920   5.926
 8293SOL     OW25777   1.938   4.715   2.056
 8293SOL    HW125778   1.944   4.727   1.957
 8293SOL    HW225779   2.029   4.699   2.093
 8294SOL     OW25780   7.003   4.018   5.535
 8294SOL    HW125781   6.932   4.007   5.605
 8294SOL    HW225782   6.996   4.108   5.493
 8295SOL     OW25783   4.863   3.837   3.657
 8295SOL    HW125784   4.932   3.891   3.610
 8295SOL    HW225785   4.772   3.866   3.628
 8296SOL     OW25786   3.405   5.819   6.689
 8296SOL    HW125787   3.424   5.899   6.631
 8296SOL    HW225788   3.362   5.849   6.774
 8297SOL     OW25789   6.125   4.140   2.464
 8297SOL    HW125790   6.034   4.100   2.457
 8297SOL    HW225791   6.148   4.155   2.560
 8298SOL     OW25792   0.754   0.740   6.602
 8298SOL    HW125793   0.834   0.769   6.655
 8298SOL    HW225794   0.680   0.714   6.665
 8299SOL     OW25795   0.073   4.073   2.036
 8299SOL    HW125796   0.123   4.039   2.115
 8299SOL    HW225797   7.019   4.127   2.067
 8300SOL     OW25798   5.658   5.490   4.519
 8300SOL    HW125799   5.712   5.478   4.436
 8300SOL    HW225800   5.577   5.431   4.514
 8301SOL     OW25801   4.364   0.066   6.966
 8301SOL    HW125802   4.405   0.156   6.949
 8301SOL    HW225803   4.400   0.029   0.027
 8302SOL     OW25804   3.058   6.471   4.720
 8302SOL    HW125805   3.036   6.525   4.801
 8302SOL    HW225806   3.149   6.497   4.686
 8303SOL     OW25807   6.677   0.346   2.222
 8303SOL    HW125808   6.612   0.270   2.223
 8303SOL    HW225809   6.731   0.346   2.306
 8304SOL     OW25810   5.644   4.162   3.588
 8304SOL    HW125811   5.666   4.095   3.659
 8304SOL    HW225812   5.710   4.154   3.513
 8305SOL     OW25813   4.554   5.643   4.124
 8305SOL    HW125814   4.508   5.646   4.213
 8305SOL    HW225815   4.599   5.555   4.113
 8306SOL     OW25816   6.466   0.985   2.687
 8306SOL    HW125817   6.545   0.977   2.627
 8306SOL    HW225818   6.491   1.036   2.769
 8307SOL     OW25819   1.365   5.012   1.278
 8307SOL    HW125820   1.269   4.984   1.278
 8307SOL    HW225821   1.409   4.979   1.194
 8308SOL     OW25822   1.476   4.300   0.633
 8308SOL    HW125823   1.509   4.323   0.542
 8308SOL    HW225824   1.382   4.266   0.627
 8309SOL     OW25825   6.719   4.970   4.792
 8309SOL    HW125826   6.772   4.908   4.733
 8309SOL    HW225827   6.622   4.950   4.782
 8310SOL     OW25828   0.426   6.616   0.747
 8310SOL    HW125829   0.488   6.572   0.813
 8310SOL    HW225830   0.459   6.709   0.729
 8311SOL     OW25831   5.493   6.286   3.955
 8311SOL    HW125832   5.438   6.370   3.954
 8311SOL    HW225833   5.473   6.235   4.039
 8312SOL     OW25834   4.932   6.911   0.520
 8312SOL    HW125835   5.005   6.861   0.473
 8312SOL    HW225836   4.938   7.008   0.495
 8313SOL     OW25837   3.715   6.616   5.668
 8313SOL    HW125838   3.646   6.671   5.714
 8313SOL    HW225839   3.795   6.673   5.647
 8314SOL     OW25840   5.049   6.374   6.747
 8314SOL    HW125841   5.096   6.409   6.666
 8314SOL    HW225842   4.976   6.312   6.719
 8315SOL     OW25843   3.576   3.572   3.907
 8315SOL    HW125844   3.647   3.605   3.845
 8315SOL    HW225845   3.589   3.475   3.925
 8316SOL     OW25846   1.214   3.309   0.007
 8316SOL    HW125847   1.267   3.387   6.999
 8316SOL    HW225848   1.161   3.335   0.087
 8317SOL     OW25849   1.822   2.032   4.900
 8317SOL    HW125850   1.875   2.031   4.985
 8317SOL    HW225851   1.827   2.124   4.860
 8318SOL     OW25852   3.927   0.776   6.354
 8318SOL    HW125853   3.880   0.816   6.432
 8318SOL    HW225854   3.928   0.677   6.362
 8319SOL     OW25855   1.193   0.110   6.074
 8319SOL    HW125856   1.240   0.191   6.039
 8319SOL    HW225857   1.180   0.044   6.000
 8320SOL     OW25858   3.003   3.931   4.319
 8320SOL    HW125859   2.971   3.938   4.414
 8320SOL    HW225860   3.092   3.975   4.310
 8321SOL     OW25861   6.999   0.466   6.746
 8321SOL    HW125862   0.035   0.513   6.812
 8321SOL    HW225863   6.923   0.526   6.723
 8322SOL     OW25864   0.096   1.496   0.483
 8322SOL    HW125865   0.121   1.490   0.386
 8322SOL    HW225866   0.098   1.405   0.524
 8323SOL     OW25867   4.881   4.576   1.432
 8323SOL    HW125868   4.784   4.591   1.454
 8323SOL    HW225869   4.890   4.555   1.334
 8324SOL     OW25870   6.329   0.926   6.744
 8324SOL    HW125871   6.363   0.841   6.706
 8324SOL    HW225872   6.234   0.940   6.716
 8325SOL     OW25873   1.439   5.719   4.808
 8325SOL    HW125874   1.417   5.760   4.897
 8325SOL    HW225875   1.411   5.623   4.808
 8326SOL     OW25876   2.708   4.153   0.387
 8326SOL    HW125877   2.795   4.127   0.430
 8326SOL    HW225878   2.668   4.074   0.342
 8327SOL     OW25879   0.741   0.957   5.459
 8327SOL    HW125880   0.738   0.867   5.415
 8327SOL    HW225881   0.768   0.947   5.555
 8328SOL     OW25882   0.760   6.230   5.649
 8328SOL    HW125883   0.777   6.230   5.550
 8328SOL    HW225884   0.763   6.324   5.683
 8329SOL     OW25885   0.659   2.474   5.261
 8329SOL    HW125886   0.694   2.381   5.274
 8329SOL    HW225887   0.617   2.481   5.170
 8330SOL     OW25888   4.015   1.268   6.517
 8330SOL    HW125889   4.111   1.244   6.535
 8330SOL    HW225890   3.980   1.321   6.594
 8331SOL     OW25891   2.029   2.162   0.481
 8331SOL    HW125892   1.978   2.078   0.502
 8331SOL    HW225893   2.093   2.144   0.407
 8332SOL     OW25894   5.073   4.822   1.854
 8332SOL    HW125895   4.988   4.839   1.805
 8332SOL    HW225896   5.140   4.892   1.829
 8333SOL     OW25897   1.828   4.734   1.142
 8333SOL    HW125898   1.761   4.780   1.083
 8333SOL    HW225899   1.810   4.636   1.141
 8334SOL     OW25900   3.169   1.685   6.150
 8334SOL    HW125901   3.181   1.652   6.057
 8334SOL    HW225902   3.250   1.734   6.179
 8335SOL     OW25903   4.500   2.976   6.707
 8335SOL    HW125904   4.487   2.906   6.778
 8335SOL    HW225905   4.530   2.933   6.622
 8336SOL     OW25906   1.431   3.340   2.375
 8336SOL    HW125907   1.389   3.424   2.411
 8336SOL    HW225908   1.497   3.305   2.442
 8337SOL     OW25909   1.446   0.881   5.035
 8337SOL    HW125910   1.453   0.972   4.994
 8337SOL    HW225911   1.529   0.862   5.088
 8338SOL     OW25912   3.883   4.872   1.868
 8338SOL    HW125913   3.853   4.963   1.842
 8338SOL    HW225914   3.808   4.823   1.913
 8339SOL     OW25915   0.149   1.093   0.778
 8339SOL    HW125916   0.120   1.049   0.863
 8339SOL    HW225917   0.204   1.029   0.724
 8340SOL     OW25918   5.276   2.346   1.215
 8340SOL    HW125919   5.196   2.349   1.154
 8340SOL    HW225920   5.292   2.436   1.253
 8341SOL     OW25921   3.439   0.186   6.160
 8341SOL    HW125922   3.485   0.182   6.071
 8341SOL    HW225923   3.508   0.187   6.232
 8342SOL     OW25924   3.324   6.247   0.531
 8342SOL    HW125925   3.383   6.246   0.450
 8342SOL    HW225926   3.317   6.154   0.568
 8343SOL     OW25927   6.306   5.116   3.990
 8343SOL    HW125928   6.346   5.037   4.035
 8343SOL    HW225929   6.363   5.197   4.007
 8344SOL     OW25930   0.566   4.580   4.205
 8344SOL    HW125931   0.620   4.543   4.129
 8344SOL    HW225932   0.603   4.669   4.230
 8345SOL     OW25933   5.278   1.193   3.234
 8345SOL    HW125934   5.364   1.202   3.285
 8345SOL    HW225935   5.204   1.171   3.298
 8346SOL     OW25936   4.398   3.198   6.396
 8346SOL    HW125937   4.303   3.219   6.375
 8346SOL    HW225938   4.413   3.208   6.494
 8347SOL     OW25939   1.812   6.760   6.575
 8347SOL    HW125940   1.882   6.696   6.543
 8347SOL    HW225941   1.764   6.799   6.496
 8348SOL     OW25942   3.081   0.042   1.051
 8348SOL    HW125943   3.158   0.104   1.049
 8348SOL    HW225944   3.056   0.021   1.146
 8349SOL     OW25945   0.527   0.006   1.981
 8349SOL    HW125946   0.512   6.976   1.899
 8349SOL    HW225947   0.519   6.972   2.062
 8350SOL     OW25948   3.062   0.178   5.990
 8350SOL    HW125949   2.983   0.118   5.984
 8350SOL    HW225950   3.091   0.185   6.086
 8351SOL     OW25951   5.989   5.630   4.145
 8351SOL    HW125952   6.032   5.704   4.197
 8351SOL    HW225953   6.040   5.545   4.159
 8352SOL     OW25954   2.781   6.168   2.546
 8352SOL    HW125955   2.750   6.077   2.573
 8352SOL    HW225956   2.834   6.162   2.461
 8353SOL     OW25957   1.049   3.926   1.621
 8353SOL    HW125958   0.954   3.953   1.640
 8353SOL    HW225959   1.049   3.839   1.572
 8354SOL     OW25960   3.549   6.485   3.894
 8354SOL    HW125961   3.564   6.581   3.915
 8354SOL    HW225962   3.455   6.472   3.861
 8355SOL     OW25963   1.409   0.170   6.299
 8355SOL    HW125964   1.320   0.165   6.255
 8355SOL    HW225965   1.416   0.255   6.350
 8356SOL     OW25966   1.012   5.677   1.984
 8356SOL    HW125967   1.085   5.669   2.052
 8356SOL    HW225968   1.022   5.763   1.934
 8357SOL     OW25969   3.668   5.561   6.221
 8357SOL    HW125970   3.612   5.620   6.279
 8357SOL    HW225971   3.626   5.470   6.216
 8358SOL     OW25972   1.344   3.010   5.830
 8358SOL    HW125973   1.317   2.950   5.755
 8358SOL    HW225974   1.441   2.996   5.851
 8359SOL     OW25975   2.411   0.890   4.427
 8359SOL    HW125976   2.398   0.796   4.458
 8359SOL    HW225977   2.329   0.943   4.448
 8360SOL     OW25978   4.517   6.797   0.753
 8360SOL    HW125979   4.599   6.796   0.695
 8360SOL    HW225980   4.508   6.709   0.799
 8361SOL     OW25981   2.306   0.108   6.663
 8361SOL    HW125982   2.303   0.077   6.568
 8361SOL    HW225983   2.214   0.103   6.702
 8362SOL     OW25984   6.146   2.321   0.300
 8362SOL    HW125985   6.119   2.416   0.281
 8362SOL    HW225986   6.097   2.260   0.238
 8363SOL     OW25987   4.244   2.031   0.330
 8363SOL    HW125988   4.274   1.986   0.413
 8363SOL    HW225989   4.280   2.124   0.327
 8364SOL     OW25990   0.687   3.096   4.019
 8364SOL    HW125991   0.697   3.017   3.958
 8364SOL    HW225992   0.629   3.164   3.976
 8365SOL     OW25993   1.803   2.460   2.264
 8365SOL    HW125994   1.883   2.419   2.307
 8365SOL    HW225995   1.754   2.390   2.211
 8366SOL     OW25996   4.073   5.559   1.246
 8366SOL    HW125997   3.983   5.543   1.286
 8366SOL    HW225998   4.138   5.492   1.281
 8367SOL     OW25999   2.888   5.325   4.582
 8367SOL    HW126000   2.835   5.384   4.643
 8367SOL    HW226001   2.864   5.229   4.598
 8368SOL     OW26002   0.580   6.448   0.092
 8368SOL    HW126003   0.625   6.518   0.036
 8368SOL    HW226004   0.648   6.382   0.123
 8369SOL     OW26005   0.889   2.135   1.312
 8369SOL    HW126006   0.890   2.044   1.354
 8369SOL    HW226007   0.798   2.175   1.323
 8370SOL     OW26008   2.927   1.877   0.001
 8370SOL    HW126009   2.835   1.914   0.017
 8370SOL    HW226010   2.975   1.934   6.959
 8371SOL     OW26011   1.823   3.161   5.675
 8371SOL    HW126012   1.814   3.222   5.596
 8371SOL    HW226013   1.799   3.210   5.758
 8372SOL     OW26014   2.427   6.598   1.756
 8372SOL    HW126015   2.398   6.648   1.674
 8372SOL    HW226016   2.392   6.505   1.752
 8373SOL     OW26017   0.581   1.582   4.569
 8373SOL    HW126018   0.554   1.677   4.585
 8373SOL    HW226019   0.627   1.575   4.481
 8374SOL     OW26020   1.079   0.273   4.198
 8374SOL    HW126021   1.157   0.308   4.250
 8374SOL    HW226022   1.070   0.325   4.113
 8375SOL     OW26023   4.007   1.048   5.625
 8375SOL    HW126024   3.996   0.949   5.629
 8375SOL    HW226025   3.922   1.090   5.592
 8376SOL     OW26026   1.440   1.408   3.693
 8376SOL    HW126027   1.507   1.333   3.694
 8376SOL    HW226028   1.425   1.437   3.599
 8377SOL     OW26029   5.198   5.600   0.326
 8377SOL    HW126030   5.170   5.577   0.233
 8377SOL    HW226031   5.282   5.551   0.349
 8378SOL     OW26032   5.334   5.322   2.918
 8378SOL    HW126033   5.391   5.291   2.842
 8378SOL    HW226034   5.330   5.250   2.988
 8379SOL     OW26035   4.957   1.951   1.602
 8379SOL    HW126036   5.044   1.906   1.580
 8379SOL    HW226037   4.957   1.978   1.698
 8380SOL     OW26038   6.630   6.747   0.053
 8380SOL    HW126039   6.725   6.771   0.073
 8380SOL    HW226040   6.576   6.753   0.137
 8381SOL     OW26041   0.362   2.594   3.131
 8381SOL    HW126042   0.411   2.681   3.126
 8381SOL    HW226043   0.390   2.536   3.054
 8382SOL     OW26044   2.332   0.354   0.704
 8382SOL    HW126045   2.321   0.285   0.633
 8382SOL    HW226046   2.390   0.428   0.670
 8383SOL     OW26047   2.721   0.185   5.241
 8383SOL    HW126048   2.788   0.153   5.175
 8383SOL    HW226049   2.634   0.137   5.227
 8384SOL     OW26050   6.898   1.957   1.463
 8384SOL    HW126051   6.847   1.874   1.440
 8384SOL    HW226052   6.866   2.032   1.405
 8385SOL     OW26053   4.781   2.904   1.099
 8385SOL    HW126054   4.804   2.813   1.064
 8385SOL    HW226055   4.709   2.895   1.168
 8386SOL     OW26056   2.006   5.896   0.894
 8386SOL    HW126057   2.004   5.807   0.847
 8386SOL    HW226058   1.981   5.883   0.990
 8387SOL     OW26059   2.224   2.022   1.473
 8387SOL    HW126060   2.291   1.960   1.432
 8387SOL    HW226061   2.237   2.024   1.573
 8388SOL     OW26062   1.472   6.596   0.362
 8388SOL    HW126063   1.463   6.681   0.414
 8388SOL    HW226064   1.483   6.616   0.265
 8389SOL     OW26065   1.844   3.364   3.880
 8389SOL    HW126066   1.830   3.267   3.900
 8389SOL    HW226067   1.887   3.374   3.790
 8390SOL     OW26068   3.457   0.318   6.667
 8390SOL    HW126069   3.472   0.225   6.700
 8390SOL    HW226070   3.542   0.370   6.673
 8391SOL     OW26071   5.197   5.426   0.910
 8391SOL    HW126072   5.236   5.382   0.991
 8391SOL    HW226073   5.101   5.399   0.900
 8392SOL     OW26074   6.451   5.549   5.038
 8392SOL    HW126075   6.368   5.576   5.087
 8392SOL    HW226076   6.519   5.514   5.102
 8393SOL     OW26077   0.556   0.379   3.671
 8393SOL    HW126078   0.480   0.445   3.668
 8393SOL    HW226079   0.571   0.351   3.766
 8394SOL     OW26080   1.017   1.703   2.500
 8394SOL    HW126081   0.980   1.750   2.419
 8394SOL    HW226082   0.963   1.621   2.518
 8395SOL     OW26083   0.384   6.482   4.192
 8395SOL    HW126084   0.316   6.453   4.260
 8395SOL    HW226085   0.453   6.411   4.181
 8396SOL     OW26086   4.729   4.327   2.701
 8396SOL    HW126087   4.708   4.230   2.700
 8396SOL    HW226088   4.748   4.356   2.795
 8397SOL     OW26089   2.380   6.725   2.764
 8397SOL    HW126090   2.413   6.668   2.688
 8397SOL    HW226091   2.456   6.747   2.825
 8398SOL     OW26092   3.796   1.743   0.088
 8398SOL    HW126093   3.822   1.840   0.092
 8398SOL    HW226094   3.710   1.730   0.137
 8399SOL     OW26095   5.950   6.378   0.509
 8399SOL    HW126096   5.967   6.282   0.532
 8399SOL    HW226097   5.942   6.431   0.594
 8400SOL     OW26098   0.760   0.460   2.992
 8400SOL    HW126099   0.856   0.456   3.020
 8400SOL    HW226100   0.720   0.369   2.996
 8401SOL     OW26101   4.264   3.212   5.626
 8401SOL    HW126102   4.348   3.161   5.609
 8401SOL    HW226103   4.226   3.187   5.714
 8402SOL     OW26104   3.076   1.303   5.670
 8402SOL    HW126105   3.081   1.212   5.629
 8402SOL    HW226106   3.155   1.357   5.642
 8403SOL     OW26107   0.478   1.508   3.412
 8403SOL    HW126108   0.483   1.555   3.500
 8403SOL    HW226109   0.544   1.433   3.410
 8404SOL     OW26110   5.568   6.501   6.539
 8404SOL    HW126111   5.478   6.539   6.516
 8404SOL    HW226112   5.616   6.564   6.599
 8405SOL     OW26113   1.954   1.464   0.299
 8405SOL    HW126114   1.870   1.455   0.354
 8405SOL    HW226115   1.939   1.530   0.226
 8406SOL     OW26116   4.222   1.542   0.933
 8406SOL    HW126117   4.158   1.579   0.865
 8406SOL    HW226118   4.310   1.526   0.889
 8407SOL     OW26119   5.404   5.409   4.224
 8407SOL    HW126120   5.329   5.368   4.172
 8407SOL    HW226121   5.490   5.363   4.202
 8408SOL     OW26122   5.237   1.352   3.789
 8408SOL    HW126123   5.259   1.319   3.880
 8408SOL    HW226124   5.138   1.360   3.779
 8409SOL     OW26125   6.558   2.224   3.811
 8409SOL    HW126126   6.629   2.245   3.743
 8409SOL    HW226127   6.602   2.197   3.897
 8410SOL     OW26128   4.497   1.082   1.398
 8410SOL    HW126129   4.409   1.118   1.366
 8410SOL    HW226130   4.518   1.120   1.488
 8411SOL     OW26131   1.925   5.263   3.780
 8411SOL    HW126132   1.970   5.191   3.728
 8411SOL    HW226133   1.930   5.242   3.878
 8412SOL     OW26134   4.116   1.718   1.113
 8412SOL    HW126135   4.148   1.691   1.204
 8412SOL    HW226136   4.156   1.657   1.044
 8413SOL     OW26137   4.645   4.775   0.369
 8413SOL    HW126138   4.684   4.751   0.457
 8413SOL    HW226139   4.580   4.705   0.340
 8414SOL     OW26140   3.656   0.365   2.123
 8414SOL    HW126141   3.746   0.337   2.157
 8414SOL    HW226142   3.650   0.344   2.025
 8415SOL     OW26143   0.472   4.854   3.686
 8415SOL    HW126144   0.559   4.897   3.666
 8415SOL    HW226145   0.398   4.906   3.642
 8416SOL     OW26146   4.773   4.673   2.948
 8416SOL    HW126147   4.852   4.690   2.889
 8416SOL    HW226148   4.753   4.575   2.948
 8417SOL     OW26149   1.594   6.480   5.321
 8417SOL    HW126150   1.670   6.423   5.290
 8417SOL    HW226151   1.524   6.422   5.363
 8418SOL     OW26152   5.666   5.246   1.736
 8418SOL    HW126153   5.654   5.155   1.696
 8418SOL    HW226154   5.628   5.248   1.828
 8419SOL     OW26155   4.637   0.590   1.960
 8419SOL    HW126156   4.622   0.643   1.876
 8419SOL    HW226157   4.687   0.506   1.938
 8420SOL     OW26158   3.490   6.550   0.870
 8420SOL    HW126159   3.510   6.458   0.835
 8420SOL    HW226160   3.520   6.618   0.803
 8421SOL     OW26161   2.797   6.766   1.288
 8421SOL    HW126162   2.842   6.677   1.280
 8421SOL    HW226163   2.726   6.761   1.358
 8422SOL     OW26164   5.176   6.188   1.320
 8422SOL    HW126165   5.254   6.239   1.283
 8422SOL    HW226166   5.195   6.161   1.414
 8423SOL     OW26167   4.148   4.513   6.405
 8423SOL    HW126168   4.120   4.599   6.448
 8423SOL    HW226169   4.230   4.528   6.350
 8424SOL     OW26170   2.594   2.255   2.719
 8424SOL    HW126171   2.550   2.327   2.773
 8424SOL    HW226172   2.599   2.171   2.773
 8425SOL     OW26173   6.849   5.389   1.110
 8425SOL    HW126174   6.840   5.430   1.019
 8425SOL    HW226175   6.769   5.331   1.127
 8426SOL     OW26176   3.553   2.973   4.013
 8426SOL    HW126177   3.650   2.952   4.015
 8426SOL    HW226178   3.523   2.986   3.919
 8427SOL     OW26179   1.545   4.126   5.791
 8427SOL    HW126180   1.630   4.153   5.745
 8427SOL    HW226181   1.472   4.117   5.723
 8428SOL     OW26182   6.399   4.454   2.225
 8428SOL    HW126183   6.384   4.388   2.299
 8428SOL    HW226184   6.496   4.477   2.220
 8429SOL     OW26185   1.782   4.614   4.539
 8429SOL    HW126186   1.795   4.670   4.621
 8429SOL    HW226187   1.840   4.533   4.545
 8430SOL     OW26188   3.915   5.177   2.818
 8430SOL    HW126189   4.001   5.227   2.822
 8430SOL    HW226190   3.920   5.095   2.876
 8431SOL     OW26191   2.343   4.837   0.918
 8431SOL    HW126192   2.328   4.752   0.970
 8431SOL    HW226193   2.387   4.815   0.831
 8432SOL     OW26194   4.478   5.287   5.799
 8432SOL    HW126195   4.565   5.240   5.817
 8432SOL    HW226196   4.497   5.374   5.752
 8433SOL     OW26197   0.266   2.504   6.349
 8433SOL    HW126198   0.207   2.481   6.271
 8433SOL    HW226199   0.267   2.604   6.361
 8434SOL     OW26200   2.922   0.118   5.082
 8434SOL    HW126201   3.007   0.142   5.128
 8434SOL    HW226202   2.921   0.158   4.990
 8435SOL     OW26203   5.207   1.626   1.402
 8435SOL    HW126204   5.289   1.653   1.352
 8435SOL    HW226205   5.129   1.622   1.339
 8436SOL     OW26206   3.931   6.356   3.370
 8436SOL    HW126207   3.854   6.361   3.307
 8436SOL    HW226208   4.006   6.305   3.327
 8437SOL     OW26209   1.677   6.942   1.964
 8437SOL    HW126210   1.581   6.926   1.990
 8437SOL    HW226211   1.710   6.865   1.910
 8438SOL     OW26212   2.977   4.821   2.072
 8438SOL    HW126213   3.004   4.824   2.168
 8438SOL    HW226214   2.920   4.741   2.056
 8439SOL     OW26215   6.648   6.032   2.207
 8439SOL    HW126216   6.618   6.102   2.143
 8439SOL    HW226217   6.575   5.964   2.220
 8440SOL     OW26218   0.400   0.806   2.667
 8440SOL    HW126219   0.385   0.863   2.586
 8440SOL    HW226220   0.498   0.784   2.674
 8441SOL     OW26221   6.224   5.929   0.282
 8441SOL    HW126222   6.181   5.959   0.197
 8441SOL    HW226223   6.227   6.006   0.346
 8442SOL     OW26224   3.968   3.052   6.343
 8442SOL    HW126225   4.016   3.139   6.331
 8442SOL    HW226226   4.033   2.976   6.333
 8443SOL     OW26227   1.774   6.831   3.229
 8443SOL    HW126228   1.693   6.799   3.180
 8443SOL    HW226229   1.746   6.882   3.310
 8444SOL     OW26230   3.363   6.284   3.814
 8444SOL    HW126231   3.404   6.228   3.885
 8444SOL    HW226232   3.264   6.288   3.828
 8445SOL     OW26233   3.224   4.913   2.038
 8445SOL    HW126234   3.142   4.859   2.059
 8445SOL    HW226235   3.291   4.900   2.110
 8446SOL     OW26236   4.687   5.346   1.398
 8446SOL    HW126237   4.785   5.335   1.415
 8446SOL    HW226238   4.663   5.303   1.311
 8447SOL     OW26239   6.152   2.296   2.229
 8447SOL    HW126240   6.132   2.330   2.137
 8447SOL    HW226241   6.113   2.358   2.297
 8448SOL     OW26242   0.215   3.596   5.333
 8448SOL    HW126243   0.137   3.650   5.303
 8448SOL    HW226244   0.291   3.656   5.356
 8449SOL     OW26245   0.260   2.802   4.380
 8449SOL    HW126246   0.348   2.756   4.369
 8449SOL    HW226247   0.199   2.776   4.305
 8450SOL     OW26248   2.157   6.300   2.109
 8450SOL    HW126249   2.246   6.338   2.135
 8450SOL    HW226250   2.170   6.218   2.053
 8451SOL     OW26251   4.069   2.791   0.733
 8451SOL    HW126252   4.019   2.714   0.773
 8451SOL    HW226253   4.014   2.832   0.660
 8452SOL     OW26254   0.059   0.058   1.057
 8452SOL    HW126255   0.136   0.099   1.105
 8452SOL    HW226256   0.046   6.989   1.089
 8453SOL     OW26257   6.385   4.562   6.317
 8453SOL    HW126258   6.476   4.527   6.339
 8453SOL    HW226259   6.391   4.660   6.298
 8454SOL     OW26260   1.686   5.479   1.986
 8454SOL    HW126261   1.607   5.467   2.045
 8454SOL    HW226262   1.735   5.563   2.011
 8455SOL     OW26263   4.931   1.711   0.888
 8455SOL    HW126264   5.020   1.755   0.876
 8455SOL    HW226265   4.909   1.706   0.985
 8456SOL     OW26266   5.611   4.977   3.044
 8456SOL    HW126267   5.635   5.037   2.967
 8456SOL    HW226268   5.694   4.949   3.091
 8457SOL     OW26269   6.577   6.452   5.775
 8457SOL    HW126270   6.638   6.523   5.739
 8457SOL    HW226271   6.527   6.486   5.854
 8458SOL     OW26272   1.752   0.732   6.964
 8458SOL    HW126273   1.826   0.796   6.986
 8458SOL    HW226274   1.698   0.769   6.889
 8459SOL     OW26275   3.512   0.064   1.215
 8459SOL    HW126276   3.432   0.011   1.188
 8459SOL    HW226277   3.589   0.003   1.231
 8460SOL     OW26278   4.371   2.737   5.973
 8460SOL    HW126279   4.280   2.779   5.968
 8460SOL    HW226280   4.393   2.695   5.885
 8461SOL     OW26281   1.057   3.435   1.859
 8461SOL    HW126282   1.144   3.388   1.875
 8461SOL    HW226283   1.029   3.481   1.943
 8462SOL     OW26284   3.227   2.371   0.175
 8462SOL    HW126285   3.197   2.388   0.082
 8462SOL    HW226286   3.280   2.449   0.208
 8463SOL     OW26287   0.153   2.090   0.238
 8463SOL    HW126288   0.057   2.099   0.265
 8463SOL    HW226289   0.200   2.032   0.304
 8464SOL     OW26290   6.929   4.294   5.322
 8464SOL    HW126291   6.977   4.329   5.403
 8464SOL    HW226292   6.896   4.371   5.268
 8465SOL     OW26293   3.104   1.997   0.783
 8465SOL    HW126294   3.173   2.070   0.778
 8465SOL    HW226295   3.149   1.909   0.797
 8466SOL     OW26296   6.260   0.130   5.023
 8466SOL    HW126297   6.240   0.035   4.997
 8466SOL    HW226298   6.287   0.133   5.119
 8467SOL     OW26299   4.153   0.980   1.333
 8467SOL    HW126300   4.174   1.066   1.378
 8467SOL    HW226301   4.068   0.943   1.370
 8468SOL     OW26302   5.901   3.060   6.675
 8468SOL    HW126303   5.854   2.978   6.706
 8468SOL    HW226304   5.888   3.134   6.741
 8469SOL     OW26305   2.575   1.933   5.544
 8469SOL    HW126306   2.543   1.908   5.452
 8469SOL    HW226307   2.645   1.868   5.573
 8470SOL     OW26308   1.260   4.610   0.230
 8470SOL    HW126309   1.277   4.707   0.242
 8470SOL    HW226310   1.345   4.559   0.242
 8471SOL     OW26311   3.908   0.567   5.452
 8471SOL    HW126312   3.958   0.628   5.391
 8471SOL    HW226313   3.825   0.535   5.406
 8472SOL     OW26314   5.622   1.435   5.327
 8472SOL    HW126315   5.684   1.401   5.256
 8472SOL    HW226316   5.598   1.361   5.389
 8473SOL     OW26317   5.497   5.301   0.524
 8473SOL    HW126318   5.442   5.233   0.574
 8473SOL    HW226319   5.495   5.388   0.573
 8474SOL     OW26320   3.311   4.088   2.206
 8474SOL    HW126321   3.334   4.121   2.298
 8474SOL    HW226322   3.215   4.110   2.185
 8475SOL     OW26323   6.603   3.204   2.352
 8475SOL    HW126324   6.641   3.291   2.321
 8475SOL    HW226325   6.623   3.132   2.285
 8476SOL     OW26326   6.694   1.391   1.595
 8476SOL    HW126327   6.604   1.348   1.584
 8476SOL    HW226328   6.685   1.470   1.656
 8477SOL     OW26329   4.324   6.437   2.539
 8477SOL    HW126330   4.326   6.337   2.547
 8477SOL    HW226331   4.339   6.463   2.444
 8478SOL     OW26332   0.844   1.233   5.669
 8478SOL    HW126333   0.752   1.224   5.630
 8478SOL    HW226334   0.874   1.328   5.658
 8479SOL     OW26335   1.255   2.880   1.640
 8479SOL    HW126336   1.259   2.804   1.575
 8479SOL    HW226337   1.309   2.956   1.604
 8480SOL     OW26338   5.451   3.485   7.018
 8480SOL    HW126339   5.456   3.572   6.970
 8480SOL    HW226340   5.358   3.449   7.014
 8481SOL     OW26341   4.880   2.393   4.851
 8481SOL    HW126342   4.848   2.335   4.776
 8481SOL    HW226343   4.815   2.388   4.927
 8482SOL     OW26344   4.772   0.383   1.829
 8482SOL    HW126345   4.811   0.296   1.857
 8482SOL    HW226346   4.727   0.372   1.740
 8483SOL     OW26347   2.567   5.512   3.140
 8483SOL    HW126348   2.499   5.465   3.197
 8483SOL    HW226349   2.592   5.599   3.183
 8484SOL     OW26350   6.762   6.167   4.943
 8484SOL    HW126351   6.842   6.167   4.883
 8484SOL    HW226352   6.772   6.095   5.012
 8485SOL     OW26353   3.963   2.494   0.489
 8485SOL    HW126354   3.891   2.526   0.551
 8485SOL    HW226355   3.987   2.400   0.513
 8486SOL     OW26356   1.922   0.577   2.784
 8486SOL    HW126357   1.931   0.521   2.866
 8486SOL    HW226358   1.838   0.553   2.735
 8487SOL     OW26359   5.456   2.380   6.092
 8487SOL    HW126360   5.460   2.414   6.186
 8487SOL    HW226361   5.536   2.412   6.041
 8488SOL     OW26362   5.455   5.793   2.859
 8488SOL    HW126363   5.547   5.819   2.888
 8488SOL    HW226364   5.388   5.858   2.896
 8489SOL     OW26365   0.043   0.459   1.288
 8489SOL    HW126366   7.024   0.530   1.233
 8489SOL    HW226367   0.075   0.386   1.228
 8490SOL     OW26368   3.203   6.643   5.839
 8490SOL    HW126369   3.247   6.727   5.807
 8490SOL    HW226370   3.260   6.564   5.817
 8491SOL     OW26371   1.831   6.194   2.448
 8491SOL    HW126372   1.807   6.141   2.529
 8491SOL    HW226373   1.925   6.173   2.420
 8492SOL     OW26374   5.790   5.093   4.033
 8492SOL    HW126375   5.816   5.026   4.103
 8492SOL    HW226376   5.869   5.150   4.011
 8493SOL     OW26377   2.222   1.703   0.149
 8493SOL    HW126378   2.139   1.674   0.101
 8493SOL    HW226379   2.297   1.640   0.128
 8494SOL     OW26380   3.922   5.276   2.326
 8494SOL    HW126381   3.924   5.195   2.385
 8494SOL    HW226382   3.829   5.312   2.322
 8495SOL     OW26383   0.414   5.521   0.596
 8495SOL    HW126384   0.451   5.498   0.686
 8495SOL    HW226385   0.363   5.442   0.560
 8496SOL     OW26386   6.351   1.228   2.344
 8496SOL    HW126387   6.308   1.318   2.346
 8496SOL    HW226388   6.410   1.220   2.264
 8497SOL     OW26389   0.629   0.584   3.370
 8497SOL    HW126390   0.675   0.495   3.369
 8497SOL    HW226391   0.531   0.571   3.353
 8498SOL     OW26392   6.809   6.605   3.204
 8498SOL    HW126393   6.724   6.578   3.250
 8498SOL    HW226394   6.877   6.630   3.273
 8499SOL     OW26395   0.638   4.429   0.183
 8499SOL    HW126396   0.737   4.437   0.171
 8499SOL    HW226397   0.616   4.428   0.281
 8500SOL     OW26398   1.571   6.718   5.623
 8500SOL    HW126399   1.590   6.739   5.527
 8500SOL    HW226400   1.656   6.701   5.671
 8501SOL     OW26401   0.505   2.452   6.425
 8501SOL    HW126402   0.416   2.479   6.387
 8501SOL    HW226403   0.490   2.395   6.506
 8502SOL     OW26404   0.312   3.205   1.717
 8502SOL    HW126405   0.278   3.110   1.714
 8502SOL    HW226406   0.411   3.205   1.708
 8503SOL     OW26407   0.258   5.913   5.322
 8503SOL    HW126408   0.282   5.830   5.372
 8503SOL    HW226409   0.179   5.956   5.366
 8504SOL     OW26410   1.537   5.480   2.205
 8504SOL    HW126411   1.593   5.450   2.283
 8504SOL    HW226412   1.487   5.563   2.230
 8505SOL     OW26413   5.835   3.431   2.764
 8505SOL    HW126414   5.820   3.333   2.749
 8505SOL    HW226415   5.929   3.454   2.743
 8506SOL     OW26416   1.597   0.259   6.734
 8506SOL    HW126417   1.658   0.196   6.685
 8506SOL    HW226418   1.626   0.266   6.829
 8507SOL     OW26419   3.863   0.124   4.950
 8507SOL    HW126420   3.932   0.082   5.009
 8507SOL    HW226421   3.832   0.210   4.992
 8508SOL     OW26422   4.279   1.505   5.438
 8508SOL    HW126423   4.265   1.459   5.526
 8508SOL    HW226424   4.192   1.509   5.389
 8509SOL     OW26425   5.930   6.921   3.349
 8509SOL    HW126426   6.023   6.885   3.350
 8509SOL    HW226427   5.906   6.954   3.440
 8510SOL     OW26428   5.068   3.630   2.879
 8510SOL    HW126429   5.028   3.541   2.904
 8510SOL    HW226430   5.036   3.656   2.788
 8511SOL     OW26431   6.398   3.008   2.545
 8511SOL    HW126432   6.448   3.059   2.475
 8511SOL    HW226433   6.300   3.011   2.526
 8512SOL     OW26434   2.711   6.612   2.731
 8512SOL    HW126435   2.798   6.661   2.735
 8512SOL    HW226436   2.711   6.538   2.799
 8513SOL     OW26437   0.144   5.790   1.055
 8513SOL    HW126438   0.111   5.706   1.099
 8513SOL    HW226439   0.183   5.768   0.966
 8514SOL     OW26440   2.897   0.621   3.460
 8514SOL    HW126441   2.882   0.560   3.538
 8514SOL    HW226442   2.903   0.716   3.492
 8515SOL     OW26443   4.630   2.077   0.895
 8515SOL    HW126444   4.598   2.113   0.807
 8515SOL    HW226445   4.614   2.145   0.967
 8516SOL     OW26446   6.978   1.873   2.406
 8516SOL    HW126447   7.000   1.899   2.312
 8516SOL    HW226448   6.880   1.861   2.416
 8517SOL     OW26449   0.535   2.635   5.642
 8517SOL    HW126450   0.556   2.539   5.622
 8517SOL    HW226451   0.619   2.683   5.669
 8518SOL     OW26452   4.010   4.521   0.374
 8518SOL    HW126453   3.968   4.532   0.284
 8518SOL    HW226454   3.939   4.505   0.442
 8519SOL     OW26455   1.847   5.710   2.008
 8519SOL    HW126456   1.927   5.764   1.983
 8519SOL    HW226457   1.766   5.749   1.966
 8520SOL     OW26458   3.740   1.281   0.509
 8520SOL    HW126459   3.702   1.230   0.432
 8520SOL    HW226460   3.771   1.371   0.478
 8521SOL     OW26461   1.971   5.721   5.310
 8521SOL    HW126462   1.906   5.706   5.236
 8521SOL    HW226463   1.936   5.680   5.394
 8522SOL     OW26464   1.358   5.293   2.040
 8522SOL    HW126465   1.406   5.369   2.084
 8522SOL    HW226466   1.414   5.210   2.047
 8523SOL     OW26467   2.774   0.083   6.158
 8523SOL    HW126468   2.818   0.030   6.231
 8523SOL    HW226469   2.729   0.164   6.198
 8524SOL     OW26470   1.282   2.828   4.528
 8524SOL    HW126471   1.284   2.928   4.520
 8524SOL    HW226472   1.367   2.791   4.490
 8525SOL     OW26473   6.205   3.836   3.147
 8525SOL    HW126474   6.217   3.790   3.236
 8525SOL    HW226475   6.192   3.767   3.076
 8526SOL     OW26476   2.586   3.706   1.536
 8526SOL    HW126477   2.578   3.790   1.590
 8526SOL    HW226478   2.623   3.633   1.593
 8527SOL     OW26479   4.063   0.383   4.896
 8527SOL    HW126480   4.146   0.367   4.949
 8527SOL    HW226481   4.050   0.307   4.832
 8528SOL     OW26482   5.112   3.622   5.674
 8528SOL    HW126483   5.057   3.616   5.757
 8528SOL    HW226484   5.206   3.645   5.699
 8529SOL     OW26485   1.370   6.828   0.044
 8529SOL    HW126486   1.274   6.837   0.071
 8529SOL    HW226487   1.410   6.919   0.034
 8530SOL     OW26488   0.889   4.839   5.875
 8530SOL    HW126489   0.982   4.811   5.848
 8530SOL    HW226490   0.835   4.856   5.793
 8531SOL     OW26491   5.550   4.026   3.304
 8531SOL    HW126492   5.587   4.107   3.258
 8531SOL    HW226493   5.625   3.961   3.321
 8532SOL     OW26494   4.208   4.798   5.039
 8532SOL    HW126495   4.158   4.780   5.124
 8532SOL    HW226496   4.280   4.730   5.028
 8533SOL     OW26497   2.152   0.699   5.418
 8533SOL    HW126498   2.092   0.619   5.428
 8533SOL    HW226499   2.098   0.782   5.431
 8534SOL     OW26500   0.023   4.949   2.573
 8534SOL    HW126501   6.970   4.944   2.510
 8534SOL    HW226502   0.009   5.025   2.637
 8535SOL     OW26503   0.930   2.219   4.738
 8535SOL    HW126504   0.917   2.198   4.641
 8535SOL    HW226505   1.021   2.256   4.752
 8536SOL     OW26506   5.910   2.700   4.892
 8536SOL    HW126507   6.003   2.677   4.919
 8536SOL    HW226508   5.908   2.723   4.795
 8537SOL     OW26509   6.068   1.348   0.650
 8537SOL    HW126510   6.141   1.304   0.599
 8537SOL    HW226511   6.106   1.396   0.729
 8538SOL     OW26512   0.718   0.516   4.980
 8538SOL    HW126513   0.710   0.595   4.920
 8538SOL    HW226514   0.635   0.508   5.035
 8539SOL     OW26515   6.112   2.307   2.587
 8539SOL    HW126516   6.135   2.387   2.531
 8539SOL    HW226517   6.167   2.308   2.670
 8540SOL     OW26518   3.673   1.767   0.631
 8540SOL    HW126519   3.744   1.814   0.684
 8540SOL    HW226520   3.600   1.832   0.608
 8541SOL     OW26521   2.688   1.276   5.504
 8541SOL    HW126522   2.737   1.360   5.480
 8541SOL    HW226523   2.741   1.226   5.573
 8542SOL     OW26524   3.423   4.409   6.505
 8542SOL    HW126525   3.351   4.366   6.451
 8542SOL    HW226526   3.508   4.357   6.496
 8543SOL     OW26527   2.722   1.648   5.233
 8543SOL    HW126528   2.660   1.719   5.267
 8543SOL    HW226529   2.712   1.640   5.134
 8544SOL     OW26530   5.526   3.191   5.246
 8544SOL    HW126531   5.584   3.202   5.327
 8544SOL    HW226532   5.433   3.220   5.268
 8545SOL     OW26533   3.235   6.934   4.998
 8545SOL    HW126534   3.230   6.960   4.902
 8545SOL    HW226535   3.259   7.014   5.053
 8546SOL     OW26536   5.457   0.685   1.133
 8546SOL    HW126537   5.519   0.674   1.211
 8546SOL    HW226538   5.393   0.760   1.150
 8547SOL     OW26539   6.619   0.649   5.552
 8547SOL    HW126540   6.717   0.634   5.564
 8547SOL    HW226541   6.569   0.582   5.606
 8548SOL     OW26542   0.551   3.001   5.370
 8548SOL    HW126543   0.613   3.078   5.356
 8548SOL    HW226544   0.597   2.916   5.345
 8549SOL     OW26545   0.702   1.752   3.944
 8549SOL    HW126546   0.795   1.757   3.906
 8549SOL    HW226547   0.670   1.844   3.966
 8550SOL     OW26548   0.715   4.084   6.338
 8550SOL    HW126549   0.697   3.986   6.326
 8550SOL    HW226550   0.629   4.132   6.352
 8551SOL     OW26551   1.952   2.301   6.899
 8551SOL    HW126552   2.047   2.270   6.887
 8551SOL    HW226553   1.950   2.384   6.954
 8552SOL     OW26554   3.427   0.588   2.327
 8552SOL    HW126555   3.422   0.609   2.229
 8552SOL    HW226556   3.496   0.518   2.342
 8553SOL     OW26557   3.616   4.259   0.167
 8553SOL    HW126558   3.653   4.299   0.083
 8553SOL    HW226559   3.681   4.194   0.205
 8554SOL     OW26560   0.788   6.740   1.509
 8554SOL    HW126561   0.861   6.806   1.525
 8554SOL    HW226562   0.744   6.760   1.421
 8555SOL     OW26563   4.412   1.985   3.027
 8555SOL    HW126564   4.367   2.029   3.105
 8555SOL    HW226565   4.477   1.917   3.061
 8556SOL     OW26566   1.589   6.126   5.816
 8556SOL    HW126567   1.662   6.143   5.750
 8556SOL    HW226568   1.628   6.084   5.898
 8557SOL     OW26569   6.486   0.838   0.950
 8557SOL    HW126570   6.500   0.900   0.873
 8557SOL    HW226571   6.465   0.891   1.032
 8558SOL     OW26572   2.073   4.711   3.155
 8558SOL    HW126573   2.140   4.666   3.095
 8558SOL    HW226574   1.993   4.737   3.101
 8559SOL     OW26575   0.854   6.746   3.075
 8559SOL    HW126576   0.927   6.775   3.137
 8559SOL    HW226577   0.774   6.720   3.128
 8560SOL     OW26578   1.223   5.377   1.650
 8560SOL    HW126579   1.274   5.461   1.665
 8560SOL    HW226580   1.188   5.342   1.737
 8561SOL     OW26581   4.207   6.962   3.239
 8561SOL    HW126582   4.159   0.019   3.206
 8561SOL    HW226583   4.227   6.972   3.337
 8562SOL     OW26584   4.077   0.728   6.764
 8562SOL    HW126585   4.034   0.674   6.837
 8562SOL    HW226586   4.136   0.797   6.805
 8563SOL     OW26587   1.356   5.815   2.038
 8563SOL    HW126588   1.371   5.780   2.130
 8563SOL    HW226589   1.269   5.865   2.036
 8564SOL     OW26590   3.639   5.988   6.279
 8564SOL    HW126591   3.732   5.982   6.245
 8564SOL    HW226592   3.620   5.911   6.340
 8565SOL     OW26593   3.808   5.282   1.402
 8565SOL    HW126594   3.816   5.242   1.311
 8565SOL    HW226595   3.795   5.381   1.394
 8566SOL     OW26596   2.500   0.786   2.645
 8566SOL    HW126597   2.493   0.693   2.679
 8566SOL    HW226598   2.408   0.824   2.632
 8567SOL     OW26599   1.565   2.178   1.801
 8567SOL    HW126600   1.465   2.185   1.810
 8567SOL    HW226601   1.594   2.225   1.717
 8568SOL     OW26602   6.902   1.344   0.229
 8568SOL    HW126603   6.829   1.277   0.216
 8568SOL    HW226604   6.868   1.435   0.209
 8569SOL     OW26605   4.787   1.965   5.862
 8569SOL    HW126606   4.789   1.962   5.762
 8569SOL    HW226607   4.857   2.028   5.895
 8570SOL     OW26608   1.704   1.633   4.269
 8570SOL    HW126609   1.697   1.673   4.178
 8570SOL    HW226610   1.638   1.558   4.277
 8571SOL     OW26611   1.186   1.029   4.661
 8571SOL    HW126612   1.238   1.097   4.712
 8571SOL    HW226613   1.130   0.975   4.725
 8572SOL     OW26614   2.232   4.128   5.710
 8572SOL    HW126615   2.156   4.064   5.723
 8572SOL    HW226616   2.212   4.187   5.632
 8573SOL     OW26617   2.771   6.258   6.928
 8573SOL    HW126618   2.787   6.357   6.921
 8573SOL    HW226619   2.858   6.212   6.946
 8574SOL     OW26620   6.231   6.747   5.905
 8574SOL    HW126621   6.295   6.822   5.918
 8574SOL    HW226622   6.255   6.697   5.822
 8575SOL     OW26623   3.623   0.888   2.099
 8575SOL    HW126624   3.670   0.804   2.123
 8575SOL    HW226625   3.572   0.922   2.178
 8576SOL     OW26626   1.478   4.587   4.216
 8576SOL    HW126627   1.452   4.498   4.180
 8576SOL    HW226628   1.572   4.583   4.250
 8577SOL     OW26629   1.544   0.814   5.877
 8577SOL    HW126630   1.522   0.890   5.938
 8577SOL    HW226631   1.644   0.806   5.868
 8578SOL     OW26632   6.179   5.917   5.869
 8578SOL    HW126633   6.203   5.881   5.960
 8578SOL    HW226634   6.250   5.981   5.839
 8579SOL     OW26635   1.835   6.384   2.242
 8579SOL    HW126636   1.926   6.350   2.219
 8579SOL    HW226637   1.813   6.361   2.337
 8580SOL     OW26638   1.314   6.555   0.869
 8580SOL    HW126639   1.364   6.485   0.818
 8580SOL    HW226640   1.300   6.635   0.811
 8581SOL     OW26641   3.832   4.859   1.421
 8581SOL    HW126642   3.848   4.921   1.344
 8581SOL    HW226643   3.866   4.768   1.398
 8582SOL     OW26644   4.758   4.375   5.570
 8582SOL    HW126645   4.785   4.284   5.539
 8582SOL    HW226646   4.808   4.444   5.518
 8583SOL     OW26647   3.855   6.940   3.074
 8583SOL    HW126648   3.834   6.854   3.120
 8583SOL    HW226649   3.811   6.941   2.984
 8584SOL     OW26650   0.139   0.461   4.918
 8584SOL    HW126651   0.150   0.552   4.959
 8584SOL    HW226652   0.097   0.470   4.828
 8585SOL     OW26653   5.795   1.390   0.555
 8585SOL    HW126654   5.725   1.368   0.623
 8585SOL    HW226655   5.886   1.372   0.592
 8586SOL     OW26656   4.766   6.498   1.303
 8586SOL    HW126657   4.672   6.478   1.331
 8586SOL    HW226658   4.826   6.425   1.334
 8587SOL     OW26659   1.259   1.271   4.788
 8587SOL    HW126660   1.207   1.303   4.709
 8587SOL    HW226661   1.213   1.300   4.872
 8588SOL     OW26662   4.473   1.270   0.066
 8588SOL    HW126663   4.455   1.314   0.154
 8588SOL    HW226664   4.483   1.339   7.019
 8589SOL     OW26665   6.846   3.217   5.107
 8589SOL    HW126666   6.884   3.303   5.140
 8589SOL    HW226667   6.798   3.233   5.021
 8590SOL     OW26668   0.149   0.398   2.752
 8590SOL    HW126669   0.213   0.415   2.827
 8590SOL    HW226670   0.184   0.325   2.694
 8591SOL     OW26671   6.942   4.570   0.397
 8591SOL    HW126672   6.902   4.597   0.309
 8591SOL    HW226673   6.997   4.488   0.384
 8592SOL     OW26674   0.263   3.051   0.077
 8592SOL    HW126675   0.342   3.086   0.128
 8592SOL    HW226676   0.240   2.960   0.111
 8593SOL     OW26677   3.622   1.006   6.684
 8593SOL    HW126678   3.659   0.917   6.657
 8593SOL    HW226679   3.559   1.038   6.613
 8594SOL     OW26680   6.430   2.812   5.790
 8594SOL    HW126681   6.476   2.870   5.723
 8594SOL    HW226682   6.481   2.814   5.876
 8595SOL     OW26683   6.021   0.708   3.821
 8595SOL    HW126684   6.017   0.771   3.743
 8595SOL    HW226685   6.109   0.717   3.867
 8596SOL     OW26686   1.292   4.124   3.269
 8596SOL    HW126687   1.245   4.038   3.249
 8596SOL    HW226688   1.273   4.150   3.364
 8597SOL     OW26689   5.715   2.130   0.843
 8597SOL    HW126690   5.736   2.079   0.927
 8597SOL    HW226691   5.800   2.146   0.792
 8598SOL     OW26692   5.405   0.270   5.679
 8598SOL    HW126693   5.368   0.341   5.739
 8598SOL    HW226694   5.505   0.277   5.677
 8599SOL     OW26695   0.943   2.782   4.199
 8599SOL    HW126696   1.034   2.740   4.196
 8599SOL    HW226697   0.946   2.871   4.154
 8600SOL     OW26698   5.155   3.876   0.436
 8600SOL    HW126699   5.087   3.808   0.407
 8600SOL    HW226700   5.162   3.948   0.367
 8601SOL     OW26701   6.943   1.420   3.917
 8601SOL    HW126702   6.910   1.515   3.920
 8601SOL    HW226703   0.017   1.420   3.897
 8602SOL     OW26704   2.438   6.354   3.141
 8602SOL    HW126705   2.374   6.360   3.217
 8602SOL    HW226706   2.389   6.365   3.055
 8603SOL     OW26707   5.546   1.016   6.540
 8603SOL    HW126708   5.509   1.061   6.621
 8603SOL    HW226709   5.588   1.084   6.480
 8604SOL     OW26710   0.751   2.505   6.325
 8604SOL    HW126711   0.744   2.593   6.277
 8604SOL    HW226712   0.660   2.467   6.339
 8605SOL     OW26713   1.029   4.301   3.944
 8605SOL    HW126714   1.107   4.362   3.928
 8605SOL    HW226715   1.018   4.285   4.042
 8606SOL     OW26716   3.129   1.659   7.011
 8606SOL    HW126717   3.069   1.737   0.004
 8606SOL    HW226718   3.076   1.581   6.979
 8607SOL     OW26719   2.526   4.781   6.984
 8607SOL    HW126720   2.426   4.788   6.982
 8607SOL    HW226721   2.554   4.701   6.931
 8608SOL     OW26722   2.371   5.082   1.974
 8608SOL    HW126723   2.415   5.007   2.023
 8608SOL    HW226724   2.316   5.136   2.038
 8609SOL     OW26725   5.044   0.866   4.059
 8609SOL    HW126726   4.971   0.824   4.113
 8609SOL    HW226727   5.022   0.857   3.961
 8610SOL     OW26728   0.079   6.825   3.340
 8610SOL    HW126729   0.060   6.727   3.346
 8610SOL    HW226730   0.083   6.852   3.243
 8611SOL     OW26731   2.660   1.249   4.042
 8611SOL    HW126732   2.733   1.192   4.082
 8611SOL    HW226733   2.697   1.340   4.021
 8612SOL     OW26734   2.921   3.495   1.583
 8612SOL    HW126735   2.888   3.540   1.500
 8612SOL    HW226736   2.863   3.416   1.602
 8613SOL     OW26737   2.704   2.449   1.768
 8613SOL    HW126738   2.800   2.467   1.792
 8613SOL    HW226739   2.660   2.399   1.842
 8614SOL     OW26740   1.502   2.178   3.240
 8614SOL    HW126741   1.491   2.087   3.200
 8614SOL    HW226742   1.545   2.169   3.330
 8615SOL     OW26743   4.401   1.520   5.129
 8615SOL    HW126744   4.453   1.524   5.215
 8615SOL    HW226745   4.462   1.540   5.052
 8616SOL     OW26746   2.369   4.617   1.854
 8616SOL    HW126747   2.374   4.717   1.851
 8616SOL    HW226748   2.426   4.579   1.781
 8617SOL     OW26749   5.677   0.618   4.122
 8617SOL    HW126750   5.720   0.591   4.036
 8617SOL    HW226751   5.731   0.691   4.165
 8618SOL     OW26752   6.631   4.306   0.699
 8618SOL    HW126753   6.697   4.233   0.678
 8618SOL    HW226754   6.646   4.338   0.793
 8619SOL     OW26755   4.578   5.072   2.995
 8619SOL    HW126756   4.587   4.979   3.029
 8619SOL    HW226757   4.665   5.121   3.007
 8620SOL     OW26758   1.889   0.400   4.704
 8620SOL    HW126759   1.862   0.322   4.761
 8620SOL    HW226760   1.812   0.426   4.645
 8621SOL     OW26761   4.862   3.102   2.247
 8621SOL    HW126762   4.800   3.065   2.316
 8621SOL    HW226763   4.822   3.089   2.156
 8622SOL     OW26764   5.936   5.257   1.543
 8622SOL    HW126765   5.911   5.160   1.536
 8622SOL    HW226766   5.954   5.294   1.452
 8623SOL     OW26767   0.780   3.703   4.914
 8623SOL    HW126768   0.738   3.633   4.972
 8623SOL    HW226769   0.852   3.751   4.966
 8624SOL     OW26770   3.405   3.623   6.238
 8624SOL    HW126771   3.422   3.529   6.210
 8624SOL    HW226772   3.346   3.668   6.172
 8625SOL     OW26773   4.419   0.997   6.187
 8625SOL    HW126774   4.347   1.052   6.230
 8625SOL    HW226775   4.380   0.911   6.155
 8626SOL     OW26776   3.577   3.211   6.663
 8626SOL    HW126777   3.527   3.297   6.652
 8626SOL    HW226778   3.533   3.156   6.735
 8627SOL     OW26779   2.465   1.468   2.493
 8627SOL    HW126780   2.408   1.541   2.455
 8627SOL    HW226781   2.477   1.397   2.425
 8628SOL     OW26782   6.320   0.209   6.903
 8628SOL    HW126783   6.288   0.114   6.905
 8628SOL    HW226784   6.407   0.216   6.951
 8629SOL     OW26785   1.119   6.350   5.491
 8629SOL    HW126786   1.064   6.433   5.495
 8629SOL    HW226787   1.180   6.354   5.412
 8630SOL     OW26788   4.777   4.000   3.993
 8630SOL    HW126789   4.692   3.952   3.972
 8630SOL    HW226790   4.852   3.935   3.996
 8631SOL     OW26791   1.163   6.132   6.144
 8631SOL    HW126792   1.092   6.116   6.212
 8631SOL    HW226793   1.134   6.097   6.055
 8632SOL     OW26794   4.053   3.985   5.283
 8632SOL    HW126795   4.097   3.908   5.328
 8632SOL    HW226796   4.018   4.048   5.352
 8633SOL     OW26797   5.792   3.785   5.751
 8633SOL    HW126798   5.706   3.743   5.723
 8633SOL    HW226799   5.822   3.743   5.837
 8634SOL     OW26800   5.219   4.790   0.256
 8634SOL    HW126801   5.249   4.873   0.303
 8634SOL    HW226802   5.138   4.752   0.302
 8635SOL     OW26803   6.115   2.461   6.468
 8635SOL    HW126804   6.016   2.449   6.470
 8635SOL    HW226805   6.147   2.491   6.558
 8636SOL     OW26806   4.482   5.933   0.665
 8636SOL    HW126807   4.476   5.854   0.604
 8636SOL    HW226808   4.557   5.919   0.730
 8637SOL     OW26809   2.077   1.217   6.052
 8637SOL    HW126810   1.989   1.263   6.066
 8637SOL    HW226811   2.132   1.269   5.987
 8638SOL     OW26812   3.916   2.531   5.392
 8638SOL    HW126813   3.964   2.540   5.304
 8638SOL    HW226814   3.818   2.519   5.375
 8639SOL     OW26815   4.338   3.935   0.136
 8639SOL    HW126816   4.389   3.859   0.177
 8639SOL    HW226817   4.282   3.900   0.060
 8640SOL     OW26818   4.183   3.443   1.132
 8640SOL    HW126819   4.233   3.494   1.202
 8640SOL    HW226820   4.211   3.347   1.135
 8641SOL     OW26821   4.070   4.811   4.147
 8641SOL    HW126822   4.111   4.885   4.094
 8641SOL    HW226823   4.014   4.849   4.221
 8642SOL     OW26824   0.623   6.998   3.354
 8642SOL    HW126825   0.569   0.020   3.424
 8642SOL    HW226826   0.648   6.907   3.387
 8643SOL     OW26827   1.991   0.332   0.372
 8643SOL    HW126828   1.976   0.422   0.329
 8643SOL    HW226829   2.074   0.291   0.335
 8644SOL     OW26830   6.516   2.595   6.332
 8644SOL    HW126831   6.430   2.579   6.284
 8644SOL    HW226832   6.589   2.541   6.289
 8645SOL     OW26833   4.632   5.303   1.685
 8645SOL    HW126834   4.730   5.307   1.706
 8645SOL    HW226835   4.617   5.339   1.593
 8646SOL     OW26836   0.694   2.024   0.008
 8646SOL    HW126837   0.676   2.035   0.106
 8646SOL    HW226838   0.791   2.004   7.019
 8647SOL     OW26839   2.589   5.384   0.371
 8647SOL    HW126840   2.598   5.482   0.352
 8647SOL    HW226841   2.578   5.335   0.285
 8648SOL     OW26842   6.338   6.040   1.158
 8648SOL    HW126843   6.384   6.093   1.230
 8648SOL    HW226844   6.407   5.989   1.106
 8649SOL     OW26845   5.666   6.620   0.117
 8649SOL    HW126846   5.747   6.660   0.074
 8649SOL    HW226847   5.595   6.607   0.047
 8650SOL     OW26848   1.558   6.692   4.676
 8650SOL    HW126849   1.515   6.744   4.603
 8650SOL    HW226850   1.630   6.747   4.719
 8651SOL     OW26851   3.024   1.585   1.091
 8651SOL    HW126852   3.006   1.675   1.051
 8651SOL    HW226853   3.031   1.516   1.019
 8652SOL     OW26854   1.094   4.720   3.419
 8652SOL    HW126855   1.180   4.671   3.430
 8652SOL    HW226856   1.039   4.675   3.349
 8653SOL     OW26857   6.685   1.473   5.337
 8653SOL    HW126858   6.684   1.480   5.436
 8653SOL    HW226859   6.648   1.558   5.297
 8654SOL     OW26860   0.867   4.710   0.923
 8654SOL    HW126861   0.836   4.804   0.913
 8654SOL    HW226862   0.943   4.693   0.860
 8655SOL     OW26863   5.873   0.861   5.397
 8655SOL    HW126864   5.860   0.763   5.384
 8655SOL    HW226865   5.944   0.876   5.467
 8656SOL     OW26866   5.553   0.579   2.092
 8656SOL    HW126867   5.492   0.641   2.043
 8656SOL    HW226868   5.629   0.632   2.131
 8657SOL     OW26869   5.728   5.908   6.928
 8657SOL    HW126870   5.637   5.940   6.899
 8657SOL    HW226871   5.718   5.844   7.004
 8658SOL     OW26872   6.260   5.616   1.136
 8658SOL    HW126873   6.269   5.678   1.214
 8658SOL    HW226874   6.237   5.669   1.055
 8659SOL     OW26875   4.449   2.445   2.781
 8659SOL    HW126876   4.376   2.444   2.712
 8659SOL    HW226877   4.487   2.353   2.791
 8660SOL     OW26878   0.055   2.406   2.365
 8660SOL    HW126879   0.116   2.449   2.431
 8660SOL    HW226880   0.077   2.309   2.357
 8661SOL     OW26881   5.649   4.086   2.072
 8661SOL    HW126882   5.579   4.065   2.004
 8661SOL    HW226883   5.650   4.014   2.142
 8662SOL     OW26884   3.587   6.263   2.147
 8662SOL    HW126885   3.499   6.277   2.193
 8662SOL    HW226886   3.641   6.347   2.151
 8663SOL     OW26887   2.669   5.057   2.447
 8663SOL    HW126888   2.678   5.121   2.523
 8663SOL    HW226889   2.727   5.087   2.371
 8664SOL     OW26890   2.462   5.276   2.845
 8664SOL    HW126891   2.412   5.192   2.829
 8664SOL    HW226892   2.534   5.285   2.776
 8665SOL     OW26893   6.302   5.869   4.486
 8665SOL    HW126894   6.204   5.867   4.467
 8665SOL    HW226895   6.338   5.775   4.485
 8666SOL     OW26896   5.782   0.513   4.562
 8666SOL    HW126897   5.698   0.566   4.573
 8666SOL    HW226898   5.793   0.489   4.465
 8667SOL     OW26899   5.401   1.422   4.464
 8667SOL    HW126900   5.394   1.367   4.547
 8667SOL    HW226901   5.430   1.364   4.388
 8668SOL     OW26902   5.213   3.070   4.964
 8668SOL    HW126903   5.289   3.007   4.953
 8668SOL    HW226904   5.195   3.084   5.062
 8669SOL     OW26905   6.944   6.423   5.886
 8669SOL    HW126906   6.881   6.462   5.952
 8669SOL    HW226907   6.911   6.332   5.858
 8670SOL     OW26908   4.729   5.182   5.873
 8670SOL    HW126909   4.806   5.243   5.852
 8670SOL    HW226910   4.750   5.090   5.840
 8671SOL     OW26911   0.927   1.854   2.301
 8671SOL    HW126912   0.941   1.851   2.202
 8671SOL    HW226913   0.829   1.865   2.320
 8672SOL     OW26914   0.759   0.136   3.669
 8672SOL    HW126915   0.757   0.113   3.766
 8672SOL    HW226916   0.700   0.215   3.652
 8673SOL     OW26917   6.814   1.570   6.929
 8673SOL    HW126918   6.757   1.644   6.895
 8673SOL    HW226919   6.899   1.608   6.966
 8674SOL     OW26920   6.477   4.704   2.941
 8674SOL    HW126921   6.506   4.698   2.845
 8674SOL    HW226922   6.467   4.800   2.967
 8675SOL     OW26923   4.150   1.121   5.365
 8675SOL    HW126924   4.071   1.183   5.361
 8675SOL    HW226925   4.172   1.102   5.461
 8676SOL     OW26926   5.248   0.849   1.183
 8676SOL    HW126927   5.225   0.899   1.099
 8676SOL    HW226928   5.223   0.905   1.262
 8677SOL     OW26929   1.806   5.831   5.880
 8677SOL    HW126930   1.900   5.802   5.860
 8677SOL    HW226931   1.774   5.891   5.806
 8678SOL     OW26932   0.227   6.888   0.486
 8678SOL    HW126933   0.299   6.879   0.555
 8678SOL    HW226934   0.262   6.936   0.406
 8679SOL     OW26935   1.891   1.144   3.906
 8679SOL    HW126936   1.876   1.045   3.908
 8679SOL    HW226937   1.893   1.175   3.811
 8680SOL     OW26938   6.163   2.783   6.522
 8680SOL    HW126939   6.147   2.725   6.602
 8680SOL    HW226940   6.200   2.728   6.447
 8681SOL     OW26941   4.581   5.242   1.166
 8681SOL    HW126942   4.563   5.330   1.121
 8681SOL    HW226943   4.626   5.181   1.101
 8682SOL     OW26944   6.834   0.194   1.109
 8682SOL    HW126945   6.926   0.177   1.073
 8682SOL    HW226946   6.839   0.203   1.208
 8683SOL     OW26947   1.741   2.743   4.916
 8683SOL    HW126948   1.684   2.818   4.885
 8683SOL    HW226949   1.824   2.780   4.958
 8684SOL     OW26950   7.016   3.701   4.715
 8684SOL    HW126951   6.946   3.631   4.695
 8684SOL    HW226952   0.034   3.681   4.803
 8685SOL     OW26953   5.334   3.284   6.556
 8685SOL    HW126954   5.268   3.226   6.604
 8685SOL    HW226955   5.423   3.238   6.553
 8686SOL     OW26956   6.033   6.923   2.509
 8686SOL    HW126957   6.092   6.924   2.428
 8686SOL    HW226958   6.073   6.979   2.581
 8687SOL     OW26959   6.054   5.002   3.107
 8687SOL    HW126960   6.023   5.036   3.019
 8687SOL    HW226961   5.988   4.935   3.142
 8688SOL     OW26962   1.397   4.053   0.033
 8688SOL    HW126963   1.413   4.129   0.097
 8688SOL    HW226964   1.361   4.089   6.971
 8689SOL     OW26965   4.901   3.267   0.353
 8689SOL    HW126966   4.956   3.304   0.428
 8689SOL    HW226967   4.955   3.200   0.302
 8690SOL     OW26968   0.641   3.051   2.990
 8690SOL    HW126969   0.675   2.969   2.943
 8690SOL    HW226970   0.673   3.050   3.085
 8691SOL     OW26971   3.043   1.717   5.201
 8691SOL    HW126972   2.989   1.760   5.129
 8691SOL    HW226973   2.989   1.713   5.285
 8692SOL     OW26974   3.737   0.904   5.198
 8692SOL    HW126975   3.678   0.978   5.231
 8692SOL    HW226976   3.682   0.822   5.182
 8693SOL     OW26977   0.025   1.665   6.329
 8693SOL    HW126978   0.063   1.687   6.240
 8693SOL    HW226979   0.055   1.574   6.356
 8694SOL     OW26980   5.879   2.090   5.037
 8694SOL    HW126981   5.861   2.184   5.065
 8694SOL    HW226982   5.810   2.061   4.970
 8695SOL     OW26983   4.146   2.870   6.005
 8695SOL    HW126984   4.079   2.800   6.028
 8695SOL    HW226985   4.127   2.905   5.913
 8696SOL     OW26986   2.562   5.840   5.322
 8696SOL    HW126987   2.632   5.778   5.360
 8696SOL    HW226988   2.489   5.853   5.390
 8697SOL     OW26989   0.635   4.418   6.198
 8697SOL    HW126990   0.559   4.448   6.255
 8697SOL    HW226991   0.700   4.493   6.187
 8698SOL     OW26992   5.341   6.191   5.650
 8698SOL    HW126993   5.309   6.281   5.681
 8698SOL    HW226994   5.410   6.203   5.579
 8699SOL     OW26995   2.086   2.957   6.028
 8699SOL    HW126996   2.185   2.952   6.034
 8699SOL    HW226997   2.056   2.930   5.936
 8700SOL     OW26998   1.525   0.840   5.497
 8700SOL    HW126999   1.587   0.775   5.455
 8700SOL    HW227000   1.480   0.894   5.426
 8701SOL     OW27001   1.949   1.205   6.980
 8701SOL    HW127002   1.933   1.114   7.018
 8701SOL    HW227003   2.019   1.199   6.908
 8702SOL     OW27004   4.862   5.270   1.858
 8702SOL    HW127005   4.938   5.272   1.923
 8702SOL    HW227006   4.853   5.178   1.820
 8703SOL     OW27007   3.332   5.146   6.940
 8703SOL    HW127008   3.234   5.148   6.922
 8703SOL    HW227009   3.348   5.126   0.012
 8704SOL     OW27010   6.830   3.312   3.759
 8704SOL    HW127011   6.809   3.395   3.707
 8704SOL    HW227012   6.816   3.232   3.701
 8705SOL     OW27013   4.480   1.829   6.445
 8705SOL    HW127014   4.472   1.927   6.464
 8705SOL    HW227015   4.444   1.777   6.522
 8706SOL     OW27016   5.448   2.460   0.156
 8706SOL    HW127017   5.389   2.493   0.082
 8706SOL    HW227018   5.453   2.361   0.154
 8707SOL     OW27019   0.775   2.544   3.688
 8707SOL    HW127020   0.836   2.465   3.685
 8707SOL    HW227021   0.708   2.532   3.762
 8708SOL     OW27022   4.169   1.635   4.237
 8708SOL    HW127023   4.257   1.593   4.260
 8708SOL    HW227024   4.132   1.592   4.154
 8709SOL     OW27025   6.863   7.022   6.879
 8709SOL    HW127026   6.847   0.088   6.919
 8709SOL    HW227027   6.945   0.001   6.821
 8710SOL     OW27028   1.862   2.373   3.621
 8710SOL    HW127029   1.923   2.295   3.636
 8710SOL    HW227030   1.813   2.361   3.534
 8711SOL     OW27031   1.200   7.004   1.806
 8711SOL    HW127032   1.219   0.078   1.804
 8711SOL    HW227033   1.278   6.954   1.770
 8712SOL     OW27034   3.082   1.726   4.413
 8712SOL    HW127035   3.078   1.671   4.330
 8712SOL    HW227036   3.153   1.689   4.474
 8713SOL     OW27037   0.157   4.209   1.295
 8713SOL    HW127038   0.205   4.121   1.286
 8713SOL    HW227039   0.218   4.282   1.263
 8714SOL     OW27040   0.778   6.645   0.348
 8714SOL    HW127041   0.713   6.583   0.391
 8714SOL    HW227042   0.842   6.594   0.292
 8715SOL     OW27043   3.609   1.629   6.923
 8715SOL    HW127044   3.692   1.602   6.973
 8715SOL    HW227045   3.635   1.678   6.840
 8716SOL     OW27046   6.493   6.685   0.845
 8716SOL    HW127047   6.546   6.742   0.783
 8716SOL    HW227048   6.504   6.589   0.820
 8717SOL     OW27049   2.334   3.618   6.019
 8717SOL    HW127050   2.289   3.706   6.035
 8717SOL    HW227051   2.423   3.634   5.976
 8718SOL     OW27052   1.620   2.413   6.222
 8718SOL    HW127053   1.673   2.341   6.267
 8718SOL    HW227054   1.557   2.453   6.288
 8719SOL     OW27055   4.220   0.991   0.316
 8719SOL    HW127056   4.150   1.007   0.247
 8719SOL    HW227057   4.235   1.076   0.368
 8720SOL     OW27058   0.208   5.532   5.861
 8720SOL    HW127059   0.195   5.511   5.958
 8720SOL    HW227060   0.119   5.550   5.819
 8721SOL     OW27061   6.318   0.188   0.407
 8721SOL    HW127062   6.271   0.102   0.426
 8721SOL    HW227063   6.250   0.261   0.393
 8722SOL     OW27064   3.421   0.975   0.288
 8722SOL    HW127065   3.411   0.951   0.385
 8722SOL    HW227066   3.478   1.057   0.280
 8723SOL     OW27067   5.782   6.784   2.515
 8723SOL    HW127068   5.868   6.828   2.541
 8723SOL    HW227069   5.728   6.846   2.459
 8724SOL     OW27070   5.820   0.423   4.303
 8724SOL    HW127071   5.805   0.486   4.227
 8724SOL    HW227072   5.750   0.351   4.302
 8725SOL     OW27073   0.559   6.342   4.837
 8725SOL    HW127074   0.614   6.260   4.847
 8725SOL    HW227075   0.467   6.318   4.805
 8726SOL     OW27076   0.063   1.152   0.531
 8726SOL    HW127077   0.069   1.118   0.625
 8726SOL    HW227078   0.124   1.099   0.472
 8727SOL     OW27079   5.661   6.915   0.074
 8727SOL    HW127080   5.608   6.897   7.016
 8727SOL    HW227081   5.743   6.857   0.074
 8728SOL     OW27082   5.629   1.510   2.382
 8728SOL    HW127083   5.532   1.506   2.406
 8728SOL    HW227084   5.682   1.529   2.465
 8729SOL     OW27085   3.025   5.178   5.529
 8729SOL    HW127086   3.048   5.125   5.611
 8729SOL    HW227087   3.045   5.124   5.447
 8730SOL     OW27088   5.069   4.417   3.244
 8730SOL    HW127089   4.977   4.438   3.277
 8730SOL    HW227090   5.111   4.499   3.206
 8731SOL     OW27091   0.560   3.074   3.250
 8731SOL    HW127092   0.608   3.034   3.329
 8731SOL    HW227093   0.567   3.174   3.254
 8732SOL     OW27094   5.249   4.378   1.745
 8732SOL    HW127095   5.238   4.355   1.841
 8732SOL    HW227096   5.277   4.297   1.693
 8733SOL     OW27097   0.996   5.762   1.158
 8733SOL    HW127098   1.086   5.804   1.166
 8733SOL    HW227099   0.988   5.687   1.224
 8734SOL     OW27100   6.932   3.302   2.438
 8734SOL    HW127101   6.938   3.397   2.405
 8734SOL    HW227102   6.852   3.292   2.496
 8735SOL     OW27103   1.041   3.180   5.394
 8735SOL    HW127104   1.117   3.139   5.342
 8735SOL    HW227105   1.078   3.246   5.459
 8736SOL     OW27106   0.375   5.080   2.269
 8736SOL    HW127107   0.275   5.090   2.272
 8736SOL    HW227108   0.399   5.007   2.205
 8737SOL     OW27109   2.475   6.635   6.480
 8737SOL    HW127110   2.473   6.610   6.384
 8737SOL    HW227111   2.512   6.727   6.490
 8738SOL     OW27112   2.261   4.441   3.439
 8738SOL    HW127113   2.337   4.441   3.373
 8738SOL    HW227114   2.289   4.392   3.521
 8739SOL     OW27115   5.071   4.650   5.323
 8739SOL    HW127116   5.026   4.675   5.409
 8739SOL    HW227117   5.144   4.584   5.341
 8740SOL     OW27118   3.529   2.101   2.549
 8740SOL    HW127119   3.554   2.027   2.611
 8740SOL    HW227120   3.593   2.177   2.561
 8741SOL     OW27121   2.600   0.284   2.716
 8741SOL    HW127122   2.672   0.256   2.654
 8741SOL    HW227123   2.549   0.204   2.746
 8742SOL     OW27124   4.067   0.237   2.293
 8742SOL    HW127125   3.995   0.268   2.355
 8742SOL    HW227126   4.046   0.268   2.200
 8743SOL     OW27127   1.911   1.320   1.948
 8743SOL    HW127128   1.869   1.371   1.873
 8743SOL    HW227129   2.009   1.341   1.952
 8744SOL     OW27130   4.610   2.765   0.608
 8744SOL    HW127131   4.593   2.791   0.703
 8744SOL    HW227132   4.709   2.765   0.591
 8745SOL     OW27133   6.897   2.571   6.555
 8745SOL    HW127134   6.799   2.589   6.567
 8745SOL    HW227135   6.933   2.524   6.636
 8746SOL     OW27136   4.937   5.509   4.796
 8746SOL    HW127137   5.024   5.469   4.825
 8746SOL    HW227138   4.867   5.489   4.865
 8747SOL     OW27139   6.899   1.427   2.097
 8747SOL    HW127140   6.932   1.461   2.185
 8747SOL    HW227141   6.801   1.443   2.089
 8748SOL     OW27142   0.865   1.795   4.437
 8748SOL    HW127143   0.919   1.805   4.521
 8748SOL    HW227144   0.889   1.869   4.374
 8749SOL     OW27145   2.023   0.903   5.242
 8749SOL    HW127146   2.077   0.867   5.166
 8749SOL    HW227147   2.081   0.912   5.323
 8750SOL     OW27148   4.113   2.979   5.377
 8750SOL    HW127149   4.145   3.065   5.337
 8750SOL    HW227150   4.168   2.903   5.341
 8751SOL     OW27151   6.593   0.246   0.906
 8751SOL    HW127152   6.640   0.244   0.995
 8751SOL    HW227153   6.647   0.299   0.841
 8752SOL     OW27154   4.922   2.897   6.745
 8752SOL    HW127155   4.935   2.935   6.837
 8752SOL    HW227156   4.844   2.835   6.745
 8753SOL     OW27157   2.402   3.993   0.204
 8753SOL    HW127158   2.385   3.957   0.113
 8753SOL    HW227159   2.415   3.918   0.268
 8754SOL     OW27160   2.978   4.703   5.931
 8754SOL    HW127161   2.996   4.726   5.835
 8754SOL    HW227162   2.912   4.768   5.970
 8755SOL     OW27163   1.750   0.859   1.041
 8755SOL    HW127164   1.687   0.798   0.993
 8755SOL    HW227165   1.838   0.812   1.055
 8756SOL     OW27166   1.652   2.687   3.583
 8756SOL    HW127167   1.749   2.701   3.564
 8756SOL    HW227168   1.636   2.698   3.681
 8757SOL     OW27169   5.140   5.809   6.146
 8757SOL    HW127170   5.170   5.752   6.069
 8757SOL    HW227171   5.040   5.819   6.143
 8758SOL     OW27172   4.656   6.569   3.785
 8758SOL    HW127173   4.605   6.484   3.790
 8758SOL    HW227174   4.592   6.646   3.784
 8759SOL     OW27175   5.963   1.884   6.967
 8759SOL    HW127176   6.025   1.853   0.014
 8759SOL    HW227177   5.869   1.883   7.001
 8760SOL     OW27178   2.469   1.774   4.353
 8760SOL    HW127179   2.407   1.819   4.288
 8760SOL    HW227180   2.561   1.813   4.342
 8761SOL     OW27181   6.388   2.255   1.866
 8761SOL    HW127182   6.341   2.181   1.818
 8761SOL    HW227183   6.483   2.228   1.883
 8762SOL     OW27184   1.500   5.997   3.828
 8762SOL    HW127185   1.536   5.915   3.871
 8762SOL    HW227186   1.458   6.056   3.898
 8763SOL     OW27187   6.278   0.271   4.773
 8763SOL    HW127188   6.253   0.205   4.843
 8763SOL    HW227189   6.367   0.247   4.734
 8764SOL     OW27190   4.891   6.101   6.146
 8764SOL    HW127191   4.933   6.082   6.236
 8764SOL    HW227192   4.832   6.181   6.153
 8765SOL     OW27193   5.442   1.219   5.009
 8765SOL    HW127194   5.421   1.317   5.008
 8765SOL    HW227195   5.515   1.200   4.944
 8766SOL     OW27196   4.256   4.226   5.380
 8766SOL    HW127197   4.275   4.295   5.311
 8766SOL    HW227198   4.166   4.186   5.363
 8767SOL     OW27199   3.550   0.038   3.912
 8767SOL    HW127200   3.636   0.016   3.865
 8767SOL    HW227201   3.569   0.067   4.006
 8768SOL     OW27202   0.656   1.839   1.129
 8768SOL    HW127203   0.719   1.775   1.173
 8768SOL    HW227204   0.657   1.926   1.179
 8769SOL     OW27205   0.234   1.221   2.146
 8769SOL    HW127206   0.286   1.302   2.172
 8769SOL    HW227207   0.270   1.184   2.061
 8770SOL     OW27208   4.999   4.875   2.194
 8770SOL    HW127209   5.082   4.824   2.214
 8770SOL    HW227210   4.974   4.861   2.098
 8771SOL     OW27211   0.520   2.988   6.112
 8771SOL    HW127212   0.509   3.002   6.013
 8771SOL    HW227213   0.431   2.970   6.153
 8772SOL     OW27214   5.066   0.586   5.632
 8772SOL    HW127215   5.126   0.651   5.584
 8772SOL    HW227216   4.976   0.627   5.645
 8773SOL     OW27217   5.813   2.337   3.346
 8773SOL    HW127218   5.906   2.324   3.380
 8773SOL    HW227219   5.753   2.361   3.423
 8774SOL     OW27220   0.451   6.714   6.526
 8774SOL    HW127221   0.523   6.645   6.524
 8774SOL    HW227222   0.438   6.751   6.434
 8775SOL     OW27223   5.222   1.470   5.775
 8775SOL    HW127224   5.306   1.425   5.745
 8775SOL    HW227225   5.208   1.451   5.873
 8776SOL     OW27226   4.721   2.844   1.446
 8776SOL    HW127227   4.809   2.823   1.403
 8776SOL    HW227228   4.734   2.916   1.514
 8777SOL     OW27229   0.567   3.340   3.534
 8777SOL    HW127230   0.479   3.322   3.491
 8777SOL    HW227231   0.616   3.411   3.482
 8778SOL     OW27232   4.808   3.591   5.840
 8778SOL    HW127233   4.750   3.571   5.919
 8778SOL    HW227234   4.768   3.666   5.787
 8779SOL     OW27235   2.599   5.908   2.298
 8779SOL    HW127236   2.691   5.868   2.299
 8779SOL    HW227237   2.577   5.942   2.389
 8780SOL     OW27238   0.900   5.931   2.986
 8780SOL    HW127239   0.948   5.863   2.931
 8780SOL    HW227240   0.802   5.913   2.984
 8781SOL     OW27241   4.480   6.921   2.546
 8781SOL    HW127242   4.493   6.822   2.548
 8781SOL    HW227243   4.436   6.947   2.460
 8782SOL     OW27244   6.324   1.135   1.940
 8782SOL    HW127245   6.310   1.037   1.953
 8782SOL    HW227246   6.240   1.177   1.906
 8783SOL     OW27247   6.189   3.821   4.029
 8783SOL    HW127248   6.263   3.790   4.087
 8783SOL    HW227249   6.102   3.816   4.079
 8784SOL     OW27250   6.394   6.396   0.992
 8784SOL    HW127251   6.447   6.388   0.907
 8784SOL    HW227252   6.454   6.380   1.070
 8785SOL     OW27253   0.390   5.241   5.902
 8785SOL    HW127254   0.392   5.340   5.885
 8785SOL    HW227255   0.373   5.194   5.816
 8786SOL     OW27256   3.815   1.727   2.409
 8786SOL    HW127257   3.863   1.814   2.424
 8786SOL    HW227258   3.724   1.745   2.372
 8787SOL     OW27259   3.418   0.641   2.068
 8787SOL    HW127260   3.368   0.604   1.990
 8787SOL    HW227261   3.430   0.740   2.057
 8788SOL     OW27262   6.655   0.952   5.161
 8788SOL    HW127263   6.616   0.869   5.200
 8788SOL    HW227264   6.659   1.023   5.232
 8789SOL     OW27265   6.653   3.926   5.450
 8789SOL    HW127266   6.674   4.002   5.387
 8789SOL    HW227267   6.555   3.904   5.444
 8790SOL     OW27268   6.326   1.748   6.928
 8790SOL    HW127269   6.240   1.742   6.879
 8790SOL    HW227270   6.382   1.667   6.908
 8791SOL     OW27271   4.800   6.420   4.769
 8791SOL    HW127272   4.762   6.416   4.861
 8791SOL    HW227273   4.883   6.476   4.769
 8792SOL     OW27274   3.115   4.823   2.721
 8792SOL    HW127275   3.062   4.904   2.696
 8792SOL    HW227276   3.065   4.740   2.696
 8793SOL     OW27277   0.922   4.937   3.852
 8793SOL    HW127278   0.909   4.923   3.754
 8793SOL    HW227279   1.020   4.942   3.872
 8794SOL     OW27280   6.552   1.095   3.468
 8794SOL    HW127281   6.482   1.070   3.401
 8794SOL    HW227282   6.539   1.041   3.551
 8795SOL     OW27283   1.034   5.133   5.283
 8795SOL    HW127284   1.084   5.163   5.364
 8795SOL    HW227285   0.950   5.185   5.274
 8796SOL     OW27286   5.956   3.544   3.383
 8796SOL    HW127287   5.861   3.545   3.413
 8796SOL    HW227288   6.005   3.470   3.430
 8797SOL     OW27289   6.901   6.988   4.245
 8797SOL    HW127290   6.855   7.005   4.332
 8797SOL    HW227291   6.993   0.003   4.247
 8798SOL     OW27292   4.604   6.598   5.677
 8798SOL    HW127293   4.583   6.541   5.757
 8798SOL    HW227294   4.603   6.541   5.595
 8799SOL     OW27295   2.544   4.574   2.351
 8799SOL    HW127296   2.641   4.590   2.370
 8799SOL    HW227297   2.531   4.562   2.253
 8800SOL     OW27298   6.024   5.793   5.641
 8800SOL    HW127299   6.057   5.849   5.716
 8800SOL    HW227300   6.099   5.738   5.604
 8801SOL     OW27301   6.062   1.941   5.230
 8801SOL    HW127302   5.993   1.901   5.291
 8801SOL    HW227303   6.016   1.984   5.152
 8802SOL     OW27304   1.529   5.623   5.601
 8802SOL    HW127305   1.437   5.644   5.632
 8802SOL    HW227306   1.571   5.558   5.664
 8803SOL     OW27307   0.150   1.295   0.271
 8803SOL    HW127308   0.186   1.239   0.346
 8803SOL    HW227309   0.051   1.304   0.280
 8804SOL     OW27310   1.676   6.406   1.220
 8804SOL    HW127311   1.760   6.436   1.264
 8804SOL    HW227312   1.647   6.475   1.153
 8805SOL     OW27313   3.895   5.451   3.692
 8805SOL    HW127314   3.990   5.474   3.716
 8805SOL    HW227315   3.891   5.357   3.658
 8806SOL     OW27316   2.298   5.497   0.603
 8806SOL    HW127317   2.343   5.576   0.644
 8806SOL    HW227318   2.336   5.413   0.641
 8807SOL     OW27319   4.380   2.020   0.068
 8807SOL    HW127320   4.396   1.949   7.024
 8807SOL    HW227321   4.310   1.990   0.133
 8808SOL     OW27322   0.510   2.330   6.664
 8808SOL    HW127323   0.506   2.315   6.763
 8808SOL    HW227324   0.602   2.310   6.631
 8809SOL     OW27325   2.279   4.126   3.302
 8809SOL    HW127326   2.289   4.141   3.400
 8809SOL    HW227327   2.212   4.053   3.286
 8810SOL     OW27328   5.767   1.277   5.162
 8810SOL    HW127329   5.759   1.185   5.198
 8810SOL    HW227330   5.854   1.286   5.112
 8811SOL     OW27331   3.938   0.453   2.397
 8811SOL    HW127332   3.868   0.490   2.458
 8811SOL    HW227333   4.022   0.505   2.407
 8812SOL     OW27334   3.108   0.381   6.540
 8812SOL    HW127335   3.097   0.427   6.627
 8812SOL    HW227336   3.077   0.441   6.466
 8813SOL     OW27337   2.148   4.503   2.564
 8813SOL    HW127338   2.173   4.588   2.518
 8813SOL    HW227339   2.227   4.468   2.614
 8814SOL     OW27340   5.331   6.802   0.430
 8814SOL    HW127341   5.299   6.880   0.484
 8814SOL    HW227342   5.422   6.821   0.395
 8815SOL     OW27343   5.483   0.074   1.603
 8815SOL    HW127344   5.432   0.100   1.520
 8815SOL    HW227345   5.497   7.000   1.604
 8816SOL     OW27346   0.126   6.584   6.879
 8816SOL    HW127347   0.179   6.644   6.939
 8816SOL    HW227348   0.176   6.570   6.793
 8817SOL     OW27349   0.719   3.459   4.354
 8817SOL    HW127350   0.678   3.550   4.366
 8817SOL    HW227351   0.818   3.468   4.346
 8818SOL     OW27352   1.580   6.683   2.762
 8818SOL    HW127353   1.551   6.612   2.698
 8818SOL    HW227354   1.668   6.658   2.801
 8819SOL     OW27355   5.815   4.282   5.186
 8819SOL    HW127356   5.833   4.233   5.101
 8819SOL    HW227357   5.895   4.338   5.209
 8820SOL     OW27358   3.034   1.296   4.780
 8820SOL    HW127359   2.938   1.295   4.809
 8820SOL    HW227360   3.047   1.369   4.712
 8821SOL     OW27361   1.006   5.473   6.993
 8821SOL    HW127362   0.947   5.541   6.951
 8821SOL    HW227363   1.099   5.483   6.958
 8822SOL     OW27364   0.252   0.294   2.988
 8822SOL    HW127365   0.236   0.366   3.056
 8822SOL    HW227366   0.294   0.215   3.033
 8823SOL     OW27367   2.130   0.546   2.391
 8823SOL    HW127368   2.106   0.473   2.327
 8823SOL    HW227369   2.093   0.633   2.357
 8824SOL     OW27370   1.293   0.526   1.302
 8824SOL    HW127371   1.307   0.576   1.216
 8824SOL    HW227372   1.230   0.577   1.360
 8825SOL     OW27373   0.685   0.478   1.661
 8825SOL    HW127374   0.680   0.450   1.565
 8825SOL    HW227375   0.649   0.405   1.720
 8826SOL     OW27376   0.933   3.437   1.319
 8826SOL    HW127377   0.853   3.468   1.370
 8826SOL    HW227378   0.986   3.373   1.375
 8827SOL     OW27379   3.822   0.173   2.532
 8827SOL    HW127380   3.822   0.263   2.489
 8827SOL    HW227381   3.732   0.132   2.524
 8828SOL     OW27382   3.828   4.638   6.107
 8828SOL    HW127383   3.872   4.567   6.162
 8828SOL    HW227384   3.732   4.647   6.135
 8829SOL     OW27385   6.187   1.576   1.830
 8829SOL    HW127386   6.268   1.520   1.849
 8829SOL    HW227387   6.108   1.516   1.817
 8830SOL     OW27388   1.818   1.522   2.582
 8830SOL    HW127389   1.759   1.465   2.525
 8830SOL    HW227390   1.825   1.614   2.542
 8831SOL     OW27391   6.218   3.358   2.319
 8831SOL    HW127392   6.175   3.310   2.243
 8831SOL    HW227393   6.227   3.456   2.297
 8832SOL     OW27394   0.034   6.293   4.132
 8832SOL    HW127395   6.978   6.343   4.100
 8832SOL    HW227396   0.105   6.294   4.061
 8833SOL     OW27397   3.794   4.070   0.265
 8833SOL    HW127398   3.792   4.011   0.346
 8833SOL    HW227399   3.886   4.107   0.252
 8834SOL     OW27400   6.175   3.167   4.941
 8834SOL    HW127401   6.259   3.145   4.891
 8834SOL    HW227402   6.150   3.091   5.000
 8835SOL     OW27403   5.860   1.405   6.175
 8835SOL    HW127404   5.883   1.348   6.255
 8835SOL    HW227405   5.901   1.495   6.186
 8836SOL     OW27406   5.589   2.456   0.596
 8836SOL    HW127407   5.569   2.452   0.694
 8836SOL    HW227408   5.637   2.541   0.575
 8837SOL     OW27409   6.964   0.476   1.961
 8837SOL    HW127410   7.005   0.429   2.039
 8837SOL    HW227411   6.880   0.429   1.934
 8838SOL     OW27412   0.504   4.567   2.411
 8838SOL    HW127413   0.603   4.581   2.405
 8838SOL    HW227414   0.479   4.549   2.506
 8839SOL     OW27415   4.518   5.851   2.343
 8839SOL    HW127416   4.592   5.801   2.299
 8839SOL    HW227417   4.503   5.937   2.294
 8840SOL     OW27418   5.755   0.211   1.854
 8840SOL    HW127419   5.727   0.307   1.861
 8840SOL    HW227420   5.756   0.171   1.946
 8841SOL     OW27421   4.915   1.148   2.901
 8841SOL    HW127422   4.870   1.217   2.845
 8841SOL    HW227423   4.969   1.192   2.973
 8842SOL     OW27424   3.327   4.102   3.857
 8842SOL    HW127425   3.304   4.007   3.836
 8842SOL    HW227426   3.265   4.163   3.807
 8843SOL     OW27427   1.845   3.113   4.655
 8843SOL    HW127428   1.884   3.089   4.744
 8843SOL    HW227429   1.782   3.042   4.625
 8844SOL     OW27430   6.697   1.658   4.860
 8844SOL    HW127431   6.788   1.648   4.900
 8844SOL    HW227432   6.700   1.635   4.763
 8845SOL     OW27433   2.552   5.015   0.406
 8845SOL    HW127434   2.632   5.002   0.464
 8845SOL    HW227435   2.562   5.099   0.353
 8846SOL     OW27436   5.538   4.867   4.352
 8846SOL    HW127437   5.524   4.956   4.395
 8846SOL    HW227438   5.491   4.865   4.264
 8847SOL     OW27439   1.711   0.753   2.572
 8847SOL    HW127440   1.713   0.668   2.623
 8847SOL    HW227441   1.782   0.751   2.501
 8848SOL     OW27442   3.131   2.091   2.073
 8848SOL    HW127443   3.094   2.011   2.121
 8848SOL    HW227444   3.058   2.155   2.054
 8849SOL     OW27445   3.309   4.925   3.623
 8849SOL    HW127446   3.256   4.962   3.700
 8849SOL    HW227447   3.395   4.888   3.656
 8850SOL     OW27448   2.822   1.168   1.044
 8850SOL    HW127449   2.869   1.080   1.040
 8850SOL    HW227450   2.837   1.210   1.134
 8851SOL     OW27451   1.064   4.598   2.377
 8851SOL    HW127452   0.969   4.623   2.354
 8851SOL    HW227453   1.125   4.626   2.303
 8852SOL     OW27454   4.981   3.230   6.238
 8852SOL    HW127455   5.068   3.253   6.194
 8852SOL    HW227456   4.912   3.214   6.168
 8853SOL     OW27457   3.624   0.120   4.140
 8853SOL    HW127458   3.707   0.071   4.166
 8853SOL    HW227459   3.630   0.215   4.173
 8854SOL     OW27460   2.385   0.656   6.411
 8854SOL    HW127461   2.421   0.738   6.366
 8854SOL    HW227462   2.285   0.660   6.413
 8855SOL     OW27463   6.488   6.162   0.286
 8855SOL    HW127464   6.474   6.163   0.385
 8855SOL    HW227465   6.578   6.198   0.264
 8856SOL     OW27466   6.439   6.795   5.561
 8856SOL    HW127467   6.394   6.884   5.557
 8856SOL    HW227468   6.480   6.775   5.472
 8857SOL     OW27469   6.324   1.689   3.698
 8857SOL    HW127470   6.289   1.759   3.636
 8857SOL    HW227471   6.276   1.603   3.683
 8858SOL     OW27472   2.317   3.258   5.710
 8858SOL    HW127473   2.248   3.286   5.776
 8858SOL    HW227474   2.354   3.339   5.664
 8859SOL     OW27475   0.376   0.075   5.463
 8859SOL    HW127476   0.284   0.106   5.483
 8859SOL    HW227477   0.431   0.077   5.547
 8860SOL     OW27478   1.681   3.791   2.927
 8860SOL    HW127479   1.770   3.827   2.900
 8860SOL    HW227480   1.675   3.791   3.027
 8861SOL     OW27481   2.626   2.293   6.470
 8861SOL    HW127482   2.595   2.303   6.564
 8861SOL    HW227483   2.566   2.344   6.409
 8862SOL     OW27484   6.071   1.289   3.526
 8862SOL    HW127485   6.121   1.343   3.458
 8862SOL    HW227486   6.117   1.200   3.538
 8863SOL     OW27487   1.511   5.297   4.733
 8863SOL    HW127488   1.440   5.348   4.782
 8863SOL    HW227489   1.568   5.362   4.682
 8864SOL     OW27490   2.271   3.480   6.464
 8864SOL    HW127491   2.245   3.405   6.526
 8864SOL    HW227492   2.263   3.448   6.370
 8865SOL     OW27493   3.089   1.439   5.143
 8865SOL    HW127494   3.101   1.435   5.043
 8865SOL    HW227495   3.077   1.534   5.171
 8866SOL     OW27496   4.899   6.928   4.057
 8866SOL    HW127497   4.965   6.888   3.994
 8866SOL    HW227498   4.864   6.857   4.118
 8867SOL     OW27499   4.997   2.583   3.197
 8867SOL    HW127500   4.922   2.540   3.146
 8867SOL    HW227501   4.959   2.640   3.270
 8868SOL     OW27502   5.602   3.846   0.602
 8868SOL    HW127503   5.615   3.750   0.577
 8868SOL    HW227504   5.659   3.903   0.543
 8869SOL     OW27505   4.344   5.481   3.526
 8869SOL    HW127506   4.280   5.507   3.598
 8869SOL    HW227507   4.325   5.387   3.497
 8870SOL     OW27508   3.304   0.161   0.405
 8870SOL    HW127509   3.248   0.211   0.470
 8870SOL    HW227510   3.401   0.170   0.430
 8871SOL     OW27511   3.671   1.486   3.931
 8871SOL    HW127512   3.765   1.487   3.898
 8871SOL    HW227513   3.631   1.578   3.921
 8872SOL     OW27514   1.613   4.200   4.391
 8872SOL    HW127515   1.535   4.233   4.338
 8872SOL    HW227516   1.582   4.176   4.484
 8873SOL     OW27517   6.311   6.097   1.832
 8873SOL    HW127518   6.239   6.154   1.872
 8873SOL    HW227519   6.277   6.054   1.748
 8874SOL     OW27520   1.850   6.935   1.203
 8874SOL    HW127521   1.844   7.008   1.272
 8874SOL    HW227522   1.852   6.976   1.111
 8875SOL     OW27523   1.012   2.431   4.365
 8875SOL    HW127524   0.995   2.478   4.278
 8875SOL    HW227525   1.020   2.499   4.438
 8876SOL     OW27526   0.939   6.986   4.726
 8876SOL    HW127527   0.940   0.048   4.778
 8876SOL    HW227528   0.866   6.988   4.658
 8877SOL     OW27529   2.918   0.835   4.545
 8877SOL    HW127530   2.962   0.814   4.632
 8877SOL    HW227531   2.818   0.828   4.556
 8878SOL     OW27532   0.690   5.219   0.723
 8878SOL    HW127533   0.752   5.200   0.647
 8878SOL    HW227534   0.735   5.197   0.810
 8879SOL     OW27535   6.232   5.054   1.337
 8879SOL    HW127536   6.223   5.075   1.240
 8879SOL    HW227537   6.195   5.129   1.391
 8880SOL     OW27538   6.998   5.605   4.418
 8880SOL    HW127539   6.926   5.673   4.427
 8880SOL    HW227540   0.000   5.573   4.510
 8881SOL     OW27541   5.956   6.956   3.624
 8881SOL    HW127542   5.897   6.954   3.705
 8881SOL    HW227543   6.012   6.873   3.622
 8882SOL     OW27544   5.162   1.508   0.572
 8882SOL    HW127545   5.234   1.541   0.633
 8882SOL    HW227546   5.202   1.448   0.503
 8883SOL     OW27547   0.708   1.448   5.953
 8883SOL    HW127548   0.780   1.504   5.993
 8883SOL    HW227549   0.635   1.507   5.919
 8884SOL     OW27550   6.160   6.559   6.753
 8884SOL    HW127551   6.115   6.614   6.824
 8884SOL    HW227552   6.090   6.524   6.691
 8885SOL     OW27553   6.571   4.044   1.282
 8885SOL    HW127554   6.628   4.085   1.353
 8885SOL    HW227555   6.612   4.063   1.193
 8886SOL     OW27556   3.228   5.894   5.908
 8886SOL    HW127557   3.305   5.840   5.943
 8886SOL    HW227558   3.146   5.872   5.960
 8887SOL     OW27559   3.243   1.396   1.325
 8887SOL    HW127560   3.322   1.422   1.380
 8887SOL    HW227561   3.161   1.394   1.383
 8888SOL     OW27562   0.811   1.870   1.385
 8888SOL    HW127563   0.753   1.814   1.445
 8888SOL    HW227564   0.862   1.810   1.323
 8889SOL     OW27565   5.214   6.495   5.884
 8889SOL    HW127566   5.173   6.460   5.801
 8889SOL    HW227567   5.180   6.443   5.963
 8890SOL     OW27568   6.501   6.264   4.575
 8890SOL    HW127569   6.544   6.348   4.607
 8890SOL    HW227570   6.560   6.186   4.597
 8891SOL     OW27571   6.324   3.400   6.222
 8891SOL    HW127572   6.227   3.382   6.208
 8891SOL    HW227573   6.348   3.385   6.318
 8892SOL     OW27574   3.070   6.255   3.808
 8892SOL    HW127575   3.019   6.179   3.768
 8892SOL    HW227576   3.013   6.338   3.808
 8893SOL     OW27577   0.884   0.520   1.909
 8893SOL    HW127578   0.814   0.494   1.843
 8893SOL    HW227579   0.841   0.553   1.993
 8894SOL     OW27580   3.919   2.999   5.845
 8894SOL    HW127581   3.870   3.077   5.806
 8894SOL    HW227582   3.866   2.963   5.922
 8895SOL     OW27583   6.839   1.193   1.963
 8895SOL    HW127584   6.853   1.282   2.007
 8895SOL    HW227585   6.827   1.123   2.032
 8896SOL     OW27586   1.667   3.327   4.618
 8896SOL    HW127587   1.749   3.271   4.633
 8896SOL    HW227588   1.600   3.306   4.689
 8897SOL     OW27589   1.468   1.776   2.712
 8897SOL    HW127590   1.556   1.772   2.663
 8897SOL    HW227591   1.393   1.764   2.647
 8898SOL     OW27592   6.011   3.156   4.650
 8898SOL    HW127593   5.932   3.156   4.711
 8898SOL    HW227594   6.076   3.226   4.681
 8899SOL     OW27595   1.620   4.500   0.328
 8899SOL    HW127596   1.701   4.559   0.333
 8899SOL    HW227597   1.594   4.488   0.232
 8900SOL     OW27598   5.595   3.748   2.877
 8900SOL    HW127599   5.647   3.717   2.956
 8900SOL    HW227600   5.521   3.684   2.858
 8901SOL     OW27601   2.562   0.991   4.221
 8901SOL    HW127602   2.524   0.979   4.313
 8901SOL    HW227603   2.520   1.071   4.178
 8902SOL     OW27604   3.197   6.093   6.944
 8902SOL    HW127605   3.233   6.000   6.950
 8902SOL    HW227606   3.099   6.090   6.927
 8903SOL     OW27607   1.994   0.698   4.032
 8903SOL    HW127608   2.024   0.731   4.122
 8903SOL    HW227609   1.946   0.771   3.984
 8904SOL     OW27610   7.004   5.049   3.751
 8904SOL    HW127611   6.958   4.970   3.711
 8904SOL    HW227612   0.072   5.022   3.779
 8905SOL     OW27613   2.228   3.996   4.539
 8905SOL    HW127614   2.209   3.898   4.549
 8905SOL    HW227615   2.233   4.038   4.630
 8906SOL     OW27616   6.529   6.724   6.834
 8906SOL    HW127617   6.591   6.764   6.767
 8906SOL    HW227618   6.572   6.725   6.924
 8907SOL     OW27619   3.501   2.087   5.000
 8907SOL    HW127620   3.402   2.094   5.002
 8907SOL    HW227621   3.537   2.082   5.094
 8908SOL     OW27622   1.340   2.834   6.659
 8908SOL    HW127623   1.297   2.812   6.747
 8908SOL    HW227624   1.438   2.821   6.666
 8909SOL     OW27625   2.411   0.352   5.189
 8909SOL    HW127626   2.319   0.354   5.226
 8909SOL    HW227627   2.428   0.263   5.146
 8910SOL     OW27628   2.212   3.434   6.190
 8910SOL    HW127629   2.235   3.500   6.119
 8910SOL    HW227630   2.166   3.355   6.149
 8911SOL     OW27631   3.989   2.137   5.015
 8911SOL    HW127632   4.031   2.066   5.072
 8911SOL    HW227633   4.051   2.162   4.941
 8912SOL     OW27634   4.045   1.489   6.745
 8912SOL    HW127635   4.021   1.575   6.791
 8912SOL    HW227636   3.989   1.415   6.781
 8913SOL     OW27637   4.624   5.297   0.578
 8913SOL    HW127638   4.579   5.208   0.573
 8913SOL    HW227639   4.663   5.320   0.489
 8914SOL     OW27640   4.514   0.616   5.889
 8914SOL    HW127641   4.560   0.608   5.800
 8914SOL    HW227642   4.561   0.685   5.944
 8915SOL     OW27643   0.612   2.580   3.913
 8915SOL    HW127644   0.577   2.673   3.928
 8915SOL    HW227645   0.664   2.550   3.993
 8916SOL     OW27646   0.469   3.612   2.343
 8916SOL    HW127647   0.490   3.518   2.370
 8916SOL    HW227648   0.429   3.612   2.251
 8917SOL     OW27649   5.753   5.079   6.318
 8917SOL    HW127650   5.732   5.081   6.220
 8917SOL    HW227651   5.669   5.073   6.370
 8918SOL     OW27652   0.066   6.215   0.947
 8918SOL    HW127653   0.096   6.301   0.987
 8918SOL    HW227654   0.074   6.220   0.847
 8919SOL     OW27655   4.268   3.189   0.609
 8919SOL    HW127656   4.269   3.205   0.510
 8919SOL    HW227657   4.310   3.266   0.655
 8920SOL     OW27658   6.799   6.493   6.609
 8920SOL    HW127659   6.713   6.528   6.571
 8920SOL    HW227660   6.815   6.536   6.698
 8921SOL     OW27661   2.582   1.384   2.960
 8921SOL    HW127662   2.614   1.441   3.035
 8921SOL    HW227663   2.538   1.442   2.891
 8922SOL     OW27664   2.297   4.900   1.286
 8922SOL    HW127665   2.372   4.958   1.317
 8922SOL    HW227666   2.260   4.849   1.364
 8923SOL     OW27667   1.653   3.556   6.224
 8923SOL    HW127668   1.673   3.654   6.225
 8923SOL    HW227669   1.630   3.527   6.131
 8924SOL     OW27670   2.987   5.472   6.076
 8924SOL    HW127671   2.948   5.506   5.990
 8924SOL    HW227672   2.957   5.532   6.151
 8925SOL     OW27673   0.807   0.586   2.148
 8925SOL    HW127674   0.874   0.627   2.209
 8925SOL    HW227675   0.716   0.592   2.189
 8926SOL     OW27676   5.841   3.243   0.495
 8926SOL    HW127677   5.777   3.254   0.419
 8926SOL    HW227678   5.796   3.268   0.581
 8927SOL     OW27679   1.726   1.916   4.634
 8927SOL    HW127680   1.713   1.902   4.733
 8927SOL    HW227681   1.676   1.997   4.605
 8928SOL     OW27682   0.096   0.680   5.040
 8928SOL    HW127683   0.019   0.742   5.037
 8928SOL    HW227684   0.179   0.730   5.065
 8929SOL     OW27685   0.556   3.541   3.948
 8929SOL    HW127686   0.561   3.544   3.848
 8929SOL    HW227687   0.466   3.574   3.977
 8930SOL     OW27688   2.075   4.947   5.006
 8930SOL    HW127689   2.030   5.023   5.054
 8930SOL    HW227690   2.048   4.949   4.909
 8931SOL     OW27691   3.541   2.759   0.390
 8931SOL    HW127692   3.464   2.720   0.440
 8931SOL    HW227693   3.517   2.851   0.358
 8932SOL     OW27694   5.506   0.273   6.782
 8932SOL    HW127695   5.448   0.237   6.855
 8932SOL    HW227696   5.470   0.362   6.752
 8933SOL     OW27697   0.872   2.269   5.519
 8933SOL    HW127698   0.825   2.237   5.437
 8933SOL    HW227699   0.900   2.191   5.574
 8934SOL     OW27700   2.660   5.525   4.121
 8934SOL    HW127701   2.713   5.598   4.079
 8934SOL    HW227702   2.721   5.467   4.176
 8935SOL     OW27703   5.108   3.932   1.989
 8935SOL    HW127704   5.025   3.963   2.035
 8935SOL    HW227705   5.119   3.982   1.903
 8936SOL     OW27706   0.594   3.645   0.853
 8936SOL    HW127707   0.595   3.585   0.773
 8936SOL    HW227708   0.550   3.598   0.929
 8937SOL     OW27709   6.922   0.794   3.938
 8937SOL    HW127710   6.903   0.768   4.032
 8937SOL    HW227711   7.021   0.792   3.922
 8938SOL     OW27712   6.757   1.744   0.431
 8938SOL    HW127713   6.765   1.677   0.357
 8938SOL    HW227714   6.706   1.704   0.507
 8939SOL     OW27715   6.530   2.836   4.825
 8939SOL    HW127716   6.600   2.768   4.846
 8939SOL    HW227717   6.443   2.791   4.809
 8940SOL     OW27718   5.643   2.184   0.498
 8940SOL    HW127719   5.595   2.122   0.560
 8940SOL    HW227720   5.616   2.278   0.518
 8941SOL     OW27721   4.899   2.089   1.855
 8941SOL    HW127722   4.856   2.082   1.945
 8941SOL    HW227723   4.902   2.185   1.827
 8942SOL     OW27724   0.387   5.061   4.000
 8942SOL    HW127725   0.410   5.121   3.923
 8942SOL    HW227726   0.347   5.116   4.073
 8943SOL     OW27727   4.415   4.501   7.008
 8943SOL    HW127728   4.337   4.542   0.030
 8943SOL    HW227729   4.427   4.544   6.918
 8944SOL     OW27730   4.910   5.118   4.673
 8944SOL    HW127731   4.962   5.187   4.722
 8944SOL    HW227732   4.818   5.151   4.654
 8945SOL     OW27733   7.018   2.673   4.966
 8945SOL    HW127734   0.072   2.614   4.944
 8945SOL    HW227735   0.027   2.759   5.005
 8946SOL     OW27736   3.671   0.360   4.283
 8946SOL    HW127737   3.640   0.391   4.373
 8946SOL    HW227738   3.763   0.323   4.291
 8947SOL     OW27739   1.699   3.813   6.211
 8947SOL    HW127740   1.756   3.845   6.135
 8947SOL    HW227741   1.742   3.840   6.297
 8948SOL     OW27742   6.451   6.242   3.646
 8948SOL    HW127743   6.437   6.149   3.610
 8948SOL    HW227744   6.427   6.309   3.575
 8949SOL     OW27745   3.538   5.581   0.000
 8949SOL    HW127746   3.440   5.566   0.004
 8949SOL    HW227747   3.564   5.610   6.932
 8950SOL     OW27748   4.622   3.418   1.348
 8950SOL    HW127749   4.547   3.364   1.310
 8950SOL    HW227750   4.677   3.360   1.409
 8951SOL     OW27751   2.175   1.442   4.266
 8951SOL    HW127752   2.241   1.373   4.296
 8951SOL    HW227753   2.086   1.422   4.306
 8952SOL     OW27754   2.220   5.177   3.396
 8952SOL    HW127755   2.275   5.094   3.402
 8952SOL    HW227756   2.254   5.244   3.463
 8953SOL     OW27757   2.266   5.213   1.276
 8953SOL    HW127758   2.242   5.178   1.367
 8953SOL    HW227759   2.343   5.161   1.240
 8954SOL     OW27760   0.588   6.018   4.157
 8954SOL    HW127761   0.590   5.954   4.081
 8954SOL    HW227762   0.527   5.983   4.229
 8955SOL     OW27763   0.007   3.089   2.629
 8955SOL    HW127764   6.987   3.001   2.645
 8955SOL    HW227765   6.984   3.137   2.555
 8956SOL     OW27766   0.480   0.316   6.488
 8956SOL    HW127767   0.504   0.222   6.465
 8956SOL    HW227768   0.390   0.318   6.532
 8957SOL     OW27769   1.729   4.921   1.906
 8957SOL    HW127770   1.774   4.889   1.823
 8957SOL    HW227771   1.793   4.975   1.961
 8958SOL     OW27772   1.334   2.724   5.038
 8958SOL    HW127773   1.282   2.771   4.967
 8958SOL    HW227774   1.346   2.628   5.012
 8959SOL     OW27775   1.095   3.455   2.222
 8959SOL    HW127776   1.189   3.476   2.197
 8959SOL    HW227777   1.083   3.356   2.225
 8960SOL     OW27778   6.722   5.253   4.076
 8960SOL    HW127779   6.713   5.342   4.120
 8960SOL    HW227780   6.780   5.194   4.132
 8961SOL     OW27781   4.024   1.083   4.035
 8961SOL    HW127782   3.955   1.125   4.094
 8961SOL    HW227783   4.006   1.108   3.940
 8962SOL     OW27784   0.339   6.026   1.884
 8962SOL    HW127785   0.396   6.076   1.819
 8962SOL    HW227786   0.247   6.066   1.886
 8963SOL     OW27787   3.589   6.293   4.544
 8963SOL    HW127788   3.678   6.313   4.584
 8963SOL    HW227789   3.599   6.220   4.475
 8964SOL     OW27790   5.086   3.806   3.097
 8964SOL    HW127791   5.182   3.810   3.122
 8964SOL    HW227792   5.076   3.757   3.010
 8965SOL     OW27793   3.492   4.879   0.377
 8965SOL    HW127794   3.400   4.841   0.368
 8965SOL    HW227795   3.558   4.804   0.383
 8966SOL     OW27796   6.379   5.082   6.319
 8966SOL    HW127797   6.467   5.039   6.338
 8966SOL    HW227798   6.393   5.178   6.294
 8967SOL     OW27799   4.293   0.779   3.293
 8967SOL    HW127800   4.331   0.719   3.222
 8967SOL    HW227801   4.350   0.861   3.299
 8968SOL     OW27802   2.713   4.731   1.495
 8968SOL    HW127803   2.613   4.731   1.506
 8968SOL    HW227804   2.744   4.640   1.471
 8969SOL     OW27805   0.437   0.294   3.349
 8969SOL    HW127806   0.428   0.392   3.365
 8969SOL    HW227807   0.530   0.273   3.321
 8970SOL     OW27808   1.322   2.477   6.765
 8970SOL    HW127809   1.341   2.426   6.849
 8970SOL    HW227810   1.401   2.534   6.743
 8971SOL     OW27811   4.756   6.820   1.584
 8971SOL    HW127812   4.674   6.767   1.605
 8971SOL    HW227813   4.747   6.861   1.494
 8972SOL     OW27814   5.472   4.649   0.753
 8972SOL    HW127815   5.505   4.676   0.844
 8972SOL    HW227816   5.492   4.552   0.738
 8973SOL     OW27817   0.048   2.627   2.649
 8973SOL    HW127818   0.088   2.540   2.681
 8973SOL    HW227819   0.114   2.674   2.591
 8974SOL     OW27820   2.163   3.746   3.710
 8974SOL    HW127821   2.221   3.816   3.751
 8974SOL    HW227822   2.170   3.751   3.611
 8975SOL     OW27823   0.364   6.665   6.985
 8975SOL    HW127824   0.392   6.570   6.999
 8975SOL    HW227825   0.367   6.714   0.048
 8976SOL     OW27826   6.546   6.440   0.770
 8976SOL    HW127827   6.638   6.403   0.757
 8976SOL    HW227828   6.499   6.442   0.681
 8977SOL     OW27829   0.045   5.003   6.100
 8977SOL    HW127830   0.145   5.009   6.102
 8977SOL    HW227831   0.017   4.910   6.125
 8978SOL     OW27832   5.139   6.331   4.810
 8978SOL    HW127833   5.161   6.368   4.720
 8978SOL    HW227834   5.052   6.282   4.805
 8979SOL     OW27835   1.038   5.457   6.361
 8979SOL    HW127836   1.025   5.527   6.291
 8979SOL    HW227837   0.951   5.437   6.405
 8980SOL     OW27838   4.586   2.155   5.342
 8980SOL    HW127839   4.608   2.223   5.412
 8980SOL    HW227840   4.671   2.114   5.308
 8981SOL     OW27841   4.850   2.236   5.494
 8981SOL    HW127842   4.893   2.306   5.437
 8981SOL    HW227843   4.901   2.150   5.485
 8982SOL     OW27844   6.675   1.597   1.763
 8982SOL    HW127845   6.643   1.690   1.750
 8982SOL    HW227846   6.769   1.599   1.799
 8983SOL     OW27847   1.394   5.235   1.447
 8983SOL    HW127848   1.364   5.145   1.415
 8983SOL    HW227849   1.318   5.279   1.495
 8984SOL     OW27850   6.207   0.034   4.528
 8984SOL    HW127851   6.274   0.105   4.507
 8984SOL    HW227852   6.118   0.075   4.542
 8985SOL     OW27853   4.147   2.084   0.847
 8985SOL    HW127854   4.168   2.052   0.939
 8985SOL    HW227855   4.222   2.059   0.785
 8986SOL     OW27856   5.522   4.357   2.098
 8986SOL    HW127857   5.570   4.359   2.186
 8986SOL    HW227858   5.520   4.263   2.064
 8987SOL     OW27859   3.035   0.644   1.190
 8987SOL    HW127860   3.109   0.692   1.142
 8987SOL    HW227861   2.993   0.577   1.128
 8988SOL     OW27862   2.123   5.203   0.381
 8988SOL    HW127863   2.169   5.290   0.365
 8988SOL    HW227864   2.170   5.153   0.454
 8989SOL     OW27865   5.026   2.907   3.112
 8989SOL    HW127866   5.096   2.837   3.126
 8989SOL    HW227867   4.936   2.868   3.129
 8990SOL     OW27868   2.391   6.256   1.243
 8990SOL    HW127869   2.452   6.298   1.175
 8990SOL    HW227870   2.332   6.189   1.198
 8991SOL     OW27871   2.551   2.641   1.687
 8991SOL    HW127872   2.625   2.592   1.733
 8991SOL    HW227873   2.493   2.577   1.638
 8992SOL     OW27874   0.295   3.056   0.738
 8992SOL    HW127875   0.243   3.018   0.662
 8992SOL    HW227876   0.252   3.031   0.825
 8993SOL     OW27877   5.020   2.227   3.569
 8993SOL    HW127878   4.962   2.146   3.570
 8993SOL    HW227879   5.030   2.259   3.474
 8994SOL     OW27880   1.831   5.000   4.485
 8994SOL    HW127881   1.882   5.083   4.508
 8994SOL    HW227882   1.886   4.941   4.427
 8995SOL     OW27883   1.434   2.303   5.379
 8995SOL    HW127884   1.488   2.254   5.448
 8995SOL    HW227885   1.368   2.363   5.425
 8996SOL     OW27886   0.535   3.680   1.424
 8996SOL    HW127887   0.478   3.663   1.504
 8996SOL    HW227888   0.588   3.764   1.438
 8997SOL     OW27889   5.290   1.000   6.103
 8997SOL    HW127890   5.299   0.903   6.126
 8997SOL    HW227891   5.270   1.009   6.005
 8998SOL     OW27892   6.936   1.983   5.173
 8998SOL    HW127893   7.021   1.975   5.224
 8998SOL    HW227894   6.955   2.001   5.077
 8999SOL     OW27895   5.011   0.922   6.134
 8999SOL    HW127896   5.002   0.992   6.063
 8999SOL    HW227897   5.093   0.939   6.188
 9000SOL     OW27898   2.589   4.383   6.551
 9000SOL    HW127899   2.567   4.448   6.479
 9000SOL    HW227900   2.571   4.424   6.640
 9001SOL     OW27901   1.179   4.506   2.600
 9001SOL    HW127902   1.143   4.540   2.513
 9001SOL    HW227903   1.193   4.583   2.662
 9002SOL     OW27904   7.018   5.503   5.535
 9002SOL    HW127905   6.995   5.525   5.630
 9002SOL    HW227906   7.017   5.587   5.480
 9003SOL     OW27907   6.183   2.573   0.911
 9003SOL    HW127908   6.140   2.544   0.825
 9003SOL    HW227909   6.262   2.515   0.930
 9004SOL     OW27910   5.369   6.508   1.654
 9004SOL    HW127911   5.373   6.588   1.714
 9004SOL    HW227912   5.451   6.505   1.597
 9005SOL     OW27913   5.392   2.458   3.561
 9005SOL    HW127914   5.352   2.370   3.587
 9005SOL    HW227915   5.398   2.517   3.641
 9006SOL     OW27916   1.217   5.522   1.263
 9006SOL    HW127917   1.269   5.604   1.241
 9006SOL    HW227918   1.230   5.453   1.192
 9007SOL     OW27919   3.491   5.315   3.649
 9007SOL    HW127920   3.510   5.412   3.664
 9007SOL    HW227921   3.420   5.285   3.712
 9008SOL     OW27922   6.213   4.783   2.200
 9008SOL    HW127923   6.274   4.834   2.261
 9008SOL    HW227924   6.264   4.710   2.156
 9009SOL     OW27925   2.576   6.607   1.170
 9009SOL    HW127926   2.657   6.662   1.152
 9009SOL    HW227927   2.583   6.520   1.121
 9010SOL     OW27928   1.049   6.618   4.797
 9010SOL    HW127929   0.997   6.565   4.731
 9010SOL    HW227930   1.020   6.593   4.890
 9011SOL     OW27931   3.864   2.209   1.470
 9011SOL    HW127932   3.845   2.269   1.393
 9011SOL    HW227933   3.913   2.259   1.541
 9012SOL     OW27934   1.982   5.666   0.772
 9012SOL    HW127935   1.907   5.648   0.707
 9012SOL    HW227936   2.036   5.583   0.784
 9013SOL     OW27937   6.193   5.701   4.752
 9013SOL    HW127938   6.290   5.707   4.730
 9013SOL    HW227939   6.142   5.668   4.672
 9014SOL     OW27940   1.566   1.478   0.085
 9014SOL    HW127941   1.576   1.483   0.184
 9014SOL    HW227942   1.613   1.397   0.050
 9015SOL     OW27943   6.939   1.341   6.909
 9015SOL    HW127944   0.009   1.372   6.921
 9015SOL    HW227945   6.877   1.418   6.921
 9016SOL     OW27946   6.200   6.392   5.455
 9016SOL    HW127947   6.197   6.320   5.524
 9016SOL    HW227948   6.238   6.356   5.370
 9017SOL     OW27949   6.113   2.321   3.367
 9017SOL    HW127950   6.151   2.346   3.456
 9017SOL    HW227951   6.156   2.376   3.296
 9018SOL     OW27952   3.486   1.639   5.329
 9018SOL    HW127953   3.495   1.540   5.319
 9018SOL    HW227954   3.519   1.684   5.246
 9019SOL     OW27955   1.899   6.698   6.829
 9019SOL    HW127956   1.995   6.671   6.818
 9019SOL    HW227957   1.864   6.731   6.741
 9020SOL     OW27958   1.858   3.951   2.325
 9020SOL    HW127959   1.847   4.028   2.262
 9020SOL    HW227960   1.769   3.926   2.363
 9021SOL     OW27961   6.955   6.091   3.558
 9021SOL    HW127962   6.861   6.067   3.582
 9021SOL    HW227963   7.003   6.123   3.640
 9022SOL     OW27964   2.652   0.321   0.411
 9022SOL    HW127965   2.567   0.362   0.378
 9022SOL    HW227966   2.706   0.290   0.333
 9023SOL     OW27967   3.844   3.532   3.469
 9023SOL    HW127968   3.801   3.449   3.503
 9023SOL    HW227969   3.777   3.587   3.420
 9024SOL     OW27970   1.368   6.068   6.332
 9024SOL    HW127971   1.311   6.126   6.274
 9024SOL    HW227972   1.453   6.047   6.285
 9025SOL     OW27973   6.195   5.923   1.657
 9025SOL    HW127974   6.100   5.894   1.653
 9025SOL    HW227975   6.251   5.849   1.695
 9026SOL     OW27976   3.552   3.280   3.898
 9026SOL    HW127977   3.454   3.267   3.883
 9026SOL    HW227978   3.589   3.201   3.946
 9027SOL     OW27979   2.689   1.609   3.349
 9027SOL    HW127980   2.662   1.687   3.405
 9027SOL    HW227981   2.617   1.540   3.351
 9028SOL     OW27982   1.704   4.172   6.392
 9028SOL    HW127983   1.740   4.173   6.486
 9028SOL    HW227984   1.644   4.250   6.378
 9029SOL     OW27985   3.900   5.122   4.639
 9029SOL    HW127986   3.910   5.173   4.725
 9029SOL    HW227987   3.864   5.182   4.568
 9030SOL     OW27988   1.674   0.217   2.286
 9030SOL    HW127989   1.712   0.242   2.197
 9030SOL    HW227990   1.729   0.143   2.326
 9031SOL     OW27991   3.157   5.088   5.759
 9031SOL    HW127992   3.164   5.187   5.771
 9031SOL    HW227993   3.229   5.056   5.698
 9032SOL     OW27994   3.527   2.587   1.126
 9032SOL    HW127995   3.515   2.523   1.050
 9032SOL    HW227996   3.589   2.660   1.099
 9033SOL     OW27997   2.172   3.228   4.285
 9033SOL    HW127998   2.168   3.322   4.320
 9033SOL    HW227999   2.197   3.229   4.189
 9034SOL     OW28000   2.655   6.823   5.019
 9034SOL    HW128001   2.647   6.826   5.118
 9034SOL    HW228002   2.752   6.833   4.993
 9035SOL     OW28003   0.604   6.668   5.218
 9035SOL    HW128004   0.617   6.573   5.247
 9035SOL    HW228005   0.530   6.709   5.271
 9036SOL     OW28006   2.250   2.452   5.475
 9036SOL    HW128007   2.217   2.538   5.437
 9036SOL    HW228008   2.344   2.463   5.506
 9037SOL     OW28009   1.994   4.004   6.567
 9037SOL    HW128010   2.027   3.923   6.615
 9037SOL    HW228011   2.061   4.030   6.496
 9038SOL     OW28012   5.570   0.894   6.009
 9038SOL    HW128013   5.521   0.971   6.050
 9038SOL    HW228014   5.616   0.842   6.080
 9039SOL     OW28015   2.053   4.445   5.043
 9039SOL    HW128016   2.128   4.383   5.064
 9039SOL    HW228017   2.090   4.535   5.020
 9040SOL     OW28018   3.019   0.430   3.281
 9040SOL    HW128019   2.979   0.505   3.334
 9040SOL    HW228020   3.105   0.461   3.240
 9041SOL     OW28021   0.729   1.713   1.979
 9041SOL    HW128022   0.762   1.630   1.934
 9041SOL    HW228023   0.658   1.689   2.045
 9042SOL     OW28024   2.543   6.472   3.876
 9042SOL    HW128025   2.574   6.383   3.843
 9042SOL    HW228026   2.520   6.531   3.798
 9043SOL     OW28027   2.246   1.842   5.637
 9043SOL    HW128028   2.221   1.745   5.647
 9043SOL    HW228029   2.296   1.872   5.718
 9044SOL     OW28030   6.444   1.140   0.449
 9044SOL    HW128031   6.415   1.217   0.506
 9044SOL    HW228032   6.424   1.161   0.353
 9045SOL     OW28033   3.869   0.973   2.832
 9045SOL    HW128034   3.773   0.951   2.813
 9045SOL    HW228035   3.880   0.990   2.930
 9046SOL     OW28036   3.606   3.807   5.386
 9046SOL    HW128037   3.598   3.815   5.287
 9046SOL    HW228038   3.514   3.804   5.427
 9047SOL     OW28039   2.067   4.212   5.462
 9047SOL    HW128040   1.969   4.202   5.446
 9047SOL    HW228041   2.088   4.307   5.485
 9048SOL     OW28042   1.248   3.570   5.971
 9048SOL    HW128043   1.162   3.595   6.014
 9048SOL    HW228044   1.247   3.597   5.875
 9049SOL     OW28045   4.681   6.199   6.863
 9049SOL    HW128046   4.585   6.173   6.872
 9049SOL    HW228047   4.687   6.297   6.845
 9050SOL     OW28048   1.093   5.628   6.650
 9050SOL    HW128049   1.151   5.591   6.723
 9050SOL    HW228050   1.077   5.557   6.581
 9051SOL     OW28051   4.325   6.159   1.068
 9051SOL    HW128052   4.327   6.202   1.158
 9051SOL    HW228053   4.380   6.076   1.069
 9052SOL     OW28054   2.979   4.856   4.585
 9052SOL    HW128055   2.929   4.943   4.593
 9052SOL    HW228056   2.922   4.790   4.535
 9053SOL     OW28057   2.353   2.112   3.863
 9053SOL    HW128058   2.355   2.153   3.771
 9053SOL    HW228059   2.286   2.161   3.919
 9054SOL     OW28060   1.644   0.450   2.405
 9054SOL    HW128061   1.659   0.358   2.368
 9054SOL    HW228062   1.724   0.507   2.385
 9055SOL     OW28063   0.588   4.166   3.023
 9055SOL    HW128064   0.494   4.150   3.053
 9055SOL    HW228065   0.602   4.124   2.933
 9056SOL     OW28066   4.911   0.522   1.380
 9056SOL    HW128067   4.958   0.434   1.381
 9056SOL    HW228068   4.942   0.576   1.303
 9057SOL     OW28069   6.380   4.615   5.978
 9057SOL    HW128070   6.297   4.569   5.946
 9057SOL    HW228071   6.410   4.682   5.910
 9058SOL     OW28072   2.065   1.956   4.700
 9058SOL    HW128073   2.091   2.051   4.718
 9058SOL    HW228074   2.007   1.923   4.775
 9059SOL     OW28075   6.722   0.672   3.174
 9059SOL    HW128076   6.683   0.599   3.230
 9059SOL    HW228077   6.658   0.749   3.169
 9060SOL     OW28078   6.444   3.407   2.647
 9060SOL    HW128079   6.534   3.391   2.605
 9060SOL    HW228080   6.446   3.494   2.696
 9061SOL     OW28081   4.722   5.547   2.931
 9061SOL    HW128082   4.723   5.533   2.832
 9061SOL    HW228083   4.768   5.471   2.976
 9062SOL     OW28084   0.966   4.747   1.930
 9062SOL    HW128085   0.882   4.751   1.877
 9062SOL    HW228086   1.042   4.780   1.874
 9063SOL     OW28087   3.323   0.925   2.319
 9063SOL    HW128088   3.248   0.973   2.274
 9063SOL    HW228089   3.288   0.842   2.363
 9064SOL     OW28090   6.417   4.389   4.336
 9064SOL    HW128091   6.491   4.322   4.345
 9064SOL    HW228092   6.453   4.472   4.294
 9065SOL     OW28093   2.793   5.918   5.651
 9065SOL    HW128094   2.810   5.842   5.589
 9065SOL    HW228095   2.696   5.944   5.645
 9066SOL     OW28096   6.564   0.330   6.088
 9066SOL    HW128097   6.643   0.365   6.138
 9066SOL    HW228098   6.556   0.378   6.001
 9067SOL     OW28099   6.674   6.086   4.628
 9067SOL    HW128100   6.749   6.122   4.682
 9067SOL    HW228101   6.704   6.005   4.577
 9068SOL     OW28102   3.526   6.830   5.145
 9068SOL    HW128103   3.573   6.749   5.108
 9068SOL    HW228104   3.586   6.878   5.208
 9069SOL     OW28105   4.763   2.184   2.894
 9069SOL    HW128106   4.832   2.112   2.894
 9069SOL    HW228107   4.807   2.274   2.895
 9070SOL     OW28108   1.480   2.040   6.085
 9070SOL    HW128109   1.421   2.087   6.151
 9070SOL    HW228110   1.570   2.024   6.126
 9071SOL     OW28111   5.435   0.399   6.369
 9071SOL    HW128112   5.378   0.469   6.412
 9071SOL    HW228113   5.474   0.436   6.285
 9072SOL     OW28114   5.185   6.474   1.440
 9072SOL    HW128115   5.110   6.538   1.453
 9072SOL    HW228116   5.253   6.486   1.512
 9073SOL     OW28117   3.766   6.615   1.042
 9073SOL    HW128118   3.741   6.712   1.037
 9073SOL    HW228119   3.722   6.565   0.967
 9074SOL     OW28120   1.778   0.661   1.390
 9074SOL    HW128121   1.690   0.706   1.376
 9074SOL    HW228122   1.846   0.699   1.328
 9075SOL     OW28123   0.422   0.286   2.118
 9075SOL    HW128124   0.426   0.385   2.109
 9075SOL    HW228125   0.406   0.244   2.028
 9076SOL     OW28126   4.909   1.513   3.955
 9076SOL    HW128127   4.822   1.465   3.940
 9076SOL    HW228128   4.912   1.549   4.048
 9077SOL     OW28129   4.562   1.511   6.351
 9077SOL    HW128130   4.604   1.584   6.405
 9077SOL    HW228131   4.462   1.519   6.356
 9078SOL     OW28132   5.521   5.179   6.713
 9078SOL    HW128133   5.604   5.162   6.767
 9078SOL    HW228134   5.510   5.105   6.646
 9079SOL     OW28135   1.950   0.009   4.848
 9079SOL    HW128136   1.882   0.071   4.885
 9079SOL    HW228137   1.998   6.988   4.924
 9080SOL     OW28138   6.502   2.810   0.095
 9080SOL    HW128139   6.537   2.865   0.019
 9080SOL    HW228140   6.569   2.809   0.169
 9081SOL     OW28141   3.342   1.794   1.550
 9081SOL    HW128142   3.291   1.793   1.636
 9081SOL    HW228143   3.413   1.724   1.552
 9082SOL     OW28144   2.494   6.608   4.999
 9082SOL    HW128145   2.471   6.546   5.073
 9082SOL    HW228146   2.505   6.701   5.035
 9083SOL     OW28147   4.526   4.046   6.327
 9083SOL    HW128148   4.431   4.062   6.300
 9083SOL    HW228149   4.587   4.098   6.267
 9084SOL     OW28150   1.061   2.333   6.110
 9084SOL    HW128151   1.143   2.365   6.158
 9084SOL    HW228152   1.012   2.411   6.071
 9085SOL     OW28153   2.258   5.769   1.489
 9085SOL    HW128154   2.263   5.673   1.513
 9085SOL    HW228155   2.258   5.825   1.572
 9086SOL     OW28156   5.838   4.193   1.162
 9086SOL    HW128157   5.814   4.097   1.174
 9086SOL    HW228158   5.844   4.215   1.065
 9087SOL     OW28159   5.389   2.899   2.354
 9087SOL    HW128160   5.298   2.938   2.369
 9087SOL    HW228161   5.429   2.939   2.272
 9088SOL     OW28162   5.756   6.971   1.789
 9088SOL    HW128163   5.764   0.046   1.779
 9088SOL    HW228164   5.683   6.938   1.730
 9089SOL     OW28165   3.815   5.679   5.088
 9089SOL    HW128166   3.805   5.733   5.172
 9089SOL    HW228167   3.898   5.707   5.040
 9090SOL     OW28168   5.332   0.499   4.339
 9090SOL    HW128169   5.351   0.566   4.267
 9090SOL    HW228170   5.238   0.467   4.331
 9091SOL     OW28171   3.310   3.462   0.874
 9091SOL    HW128172   3.312   3.378   0.819
 9091SOL    HW228173   3.215   3.482   0.898
 9092SOL     OW28174   1.080   1.306   6.719
 9092SOL    HW128175   1.010   1.279   6.654
 9092SOL    HW228176   1.056   1.394   6.760
 9093SOL     OW28177   0.923   6.311   6.971
 9093SOL    HW128178   1.010   6.264   6.985
 9093SOL    HW228179   0.927   6.402   7.012
 9094SOL     OW28180   0.826   5.388   2.699
 9094SOL    HW128181   0.800   5.478   2.735
 9094SOL    HW228182   0.749   5.326   2.708
 9095SOL     OW28183   5.053   4.310   6.001
 9095SOL    HW128184   4.986   4.347   6.065
 9095SOL    HW228185   5.012   4.303   5.910
 9096SOL     OW28186   5.364   3.582   2.894
 9096SOL    HW128187   5.367   3.483   2.882
 9096SOL    HW228188   5.270   3.610   2.917
 9097SOL     OW28189   0.422   3.114   6.902
 9097SOL    HW128190   0.426   3.211   6.878
 9097SOL    HW228191   0.346   3.098   6.964
 9098SOL     OW28192   3.742   3.126   6.980
 9098SOL    HW128193   3.713   3.219   6.959
 9098SOL    HW228194   3.804   3.094   6.909
 9099SOL     OW28195   3.603   3.535   0.321
 9099SOL    HW128196   3.552   3.554   0.406
 9099SOL    HW228197   3.636   3.441   0.322
 9100SOL     OW28198   1.084   3.167   3.040
 9100SOL    HW128199   1.081   3.079   2.993
 9100SOL    HW228200   1.100   3.153   3.137
 9101SOL     OW28201   2.034   2.736   3.021
 9101SOL    HW128202   2.078   2.750   3.110
 9101SOL    HW228203   2.007   2.640   3.012
 9102SOL     OW28204   3.697   6.706   1.869
 9102SOL    HW128205   3.725   6.662   1.783
 9102SOL    HW228206   3.766   6.773   1.896
 9103SOL     OW28207   6.692   3.617   6.673
 9103SOL    HW128208   6.653   3.634   6.764
 9103SOL    HW228209   6.769   3.554   6.682
 9104SOL     OW28210   4.403   6.083   2.863
 9104SOL    HW128211   4.386   6.179   2.886
 9104SOL    HW228212   4.437   6.034   2.944
 9105SOL     OW28213   1.547   1.146   0.727
 9105SOL    HW128214   1.514   1.213   0.795
 9105SOL    HW228215   1.515   1.172   0.636
 9106SOL     OW28216   5.907   3.929   6.901
 9106SOL    HW128217   5.919   4.028   6.908
 9106SOL    HW228218   5.996   3.886   6.883
 9107SOL     OW28219   3.740   0.829   5.555
 9107SOL    HW128220   3.789   0.802   5.471
 9107SOL    HW228221   3.655   0.874   5.530
 9108SOL     OW28222   4.674   3.802   5.712
 9108SOL    HW128223   4.685   3.896   5.743
 9108SOL    HW228224   4.596   3.796   5.650
 9109SOL     OW28225   1.523   2.652   3.048
 9109SOL    HW128226   1.597   2.637   2.983
 9109SOL    HW228227   1.493   2.747   3.043
 9110SOL     OW28228   2.026   4.188   4.296
 9110SOL    HW128229   1.995   4.114   4.236
 9110SOL    HW228230   2.126   4.186   4.303
 9111SOL     OW28231   4.359   3.382   0.106
 9111SOL    HW128232   4.408   3.354   0.189
 9111SOL    HW228233   4.350   3.304   0.045
 9112SOL     OW28234   0.708   4.177   4.838
 9112SOL    HW128235   0.665   4.111   4.899
 9112SOL    HW228236   0.684   4.156   4.743
 9113SOL     OW28237   4.517   6.532   0.867
 9113SOL    HW128238   4.432   6.534   0.920
 9113SOL    HW228239   4.526   6.443   0.822
 9114SOL     OW28240   1.553   5.264   1.213
 9114SOL    HW128241   1.595   5.352   1.193
 9114SOL    HW228242   1.507   5.268   1.302
 9115SOL     OW28243   0.951   5.647   6.140
 9115SOL    HW128244   0.987   5.587   6.069
 9115SOL    HW228245   0.880   5.706   6.101
 9116SOL     OW28246   6.440   1.824   0.406
 9116SOL    HW128247   6.527   1.858   0.370
 9116SOL    HW228248   6.370   1.830   0.336
 9117SOL     OW28249   6.091   2.924   0.252
 9117SOL    HW128250   6.047   3.012   0.268
 9117SOL    HW228251   6.158   2.932   0.178
 9118SOL     OW28252   6.496   5.675   0.504
 9118SOL    HW128253   6.526   5.620   0.425
 9118SOL    HW228254   6.531   5.768   0.495
 9119SOL     OW28255   5.664   1.144   1.699
 9119SOL    HW128256   5.679   1.087   1.618
 9119SOL    HW228257   5.711   1.104   1.777
 9120SOL     OW28258   5.627   2.768   5.827
 9120SOL    HW128259   5.719   2.778   5.788
 9120SOL    HW228260   5.579   2.856   5.823
 9121SOL     OW28261   2.499   2.460   6.238
 9121SOL    HW128262   2.522   2.515   6.158
 9121SOL    HW228263   2.417   2.406   6.219
 9122SOL     OW28264   1.987   3.953   1.990
 9122SOL    HW128265   2.047   3.874   2.005
 9122SOL    HW228266   2.039   4.037   2.002
 9123SOL     OW28267   3.389   0.171   4.663
 9123SOL    HW128268   3.418   0.155   4.568
 9123SOL    HW228269   3.465   0.211   4.714
 9124SOL     OW28270   5.379   6.962   6.032
 9124SOL    HW128271   5.440   7.020   5.977
 9124SOL    HW228272   5.408   6.867   6.024
 9125SOL     OW28273   5.205   4.327   2.014
 9125SOL    HW128274   5.169   4.420   2.028
 9125SOL    HW228275   5.235   4.290   2.102
 9126SOL     OW28276   5.893   2.415   1.631
 9126SOL    HW128277   5.927   2.418   1.537
 9126SOL    HW228278   5.801   2.456   1.634
 9127SOL     OW28279   6.836   1.428   5.784
 9127SOL    HW128280   6.886   1.480   5.853
 9127SOL    HW228281   6.898   1.362   5.741
 9128SOL     OW28282   4.522   1.605   4.880
 9128SOL    HW128283   4.569   1.588   4.793
 9128SOL    HW228284   4.473   1.691   4.875
 9129SOL     OW28285   0.113   2.938   0.906
 9129SOL    HW128286   0.156   2.926   0.996
 9129SOL    HW228287   0.043   3.009   0.912
 9130SOL     OW28288   0.259   3.283   0.276
 9130SOL    HW128289   0.285   3.188   0.291
 9130SOL    HW228290   0.252   3.330   0.364
 9131SOL     OW28291   0.042   3.059   5.785
 9131SOL    HW128292   0.029   2.960   5.789
 9131SOL    HW228293   0.053   3.094   5.878
 9132SOL     OW28294   0.165   5.073   4.390
 9132SOL    HW128295   0.187   5.167   4.363
 9132SOL    HW228296   0.150   5.017   4.309
 9133SOL     OW28297   4.009   6.205   1.294
 9133SOL    HW128298   3.993   6.107   1.287
 9133SOL    HW228299   3.951   6.254   1.229
 9134SOL     OW28300   4.497   5.949   0.301
 9134SOL    HW128301   4.515   6.030   0.357
 9134SOL    HW228302   4.510   5.867   0.357
 9135SOL     OW28303   6.348   6.808   1.953
 9135SOL    HW128304   6.269   6.754   1.984
 9135SOL    HW228305   6.335   6.834   1.857
 9136SOL     OW28306   5.402   5.602   6.171
 9136SOL    HW128307   5.442   5.511   6.176
 9136SOL    HW228308   5.325   5.602   6.108
 9137SOL     OW28309   5.183   1.924   1.159
 9137SOL    HW128310   5.211   1.841   1.206
 9137SOL    HW228311   5.186   2.001   1.223
 9138SOL     OW28312   0.083   6.040   5.476
 9138SOL    HW128313   0.020   5.976   5.519
 9138SOL    HW228314   0.097   6.119   5.536
 9139SOL     OW28315   2.310   1.746   4.880
 9139SOL    HW128316   2.341   1.745   4.785
 9139SOL    HW228317   2.258   1.829   4.896
 9140SOL     OW28318   6.246   3.379   3.118
 9140SOL    HW128319   6.245   3.280   3.105
 9140SOL    HW228320   6.153   3.412   3.133
 9141SOL     OW28321   5.949   0.686   6.978
 9141SOL    HW128322   6.018   0.672   6.908
 9141SOL    HW228323   5.990   0.728   0.034
 9142SOL     OW28324   0.720   2.372   1.437
 9142SOL    HW128325   0.660   2.370   1.517
 9142SOL    HW228326   0.674   2.329   1.360
 9143SOL     OW28327   5.853   2.994   1.144
 9143SOL    HW128328   5.880   2.915   1.198
 9143SOL    HW228329   5.877   3.078   1.194
 9144SOL     OW28330   2.464   5.165   5.785
 9144SOL    HW128331   2.471   5.088   5.721
 9144SOL    HW228332   2.471   5.130   5.879
 9145SOL     OW28333   0.057   5.635   0.637
 9145SOL    HW128334   0.085   5.692   0.560
 9145SOL    HW228335   0.134   5.577   0.665
 9146SOL     OW28336   5.315   2.784   3.011
 9146SOL    HW128337   5.411   2.783   2.986
 9146SOL    HW228338   5.283   2.690   3.026
 9147SOL     OW28339   6.081   0.369   4.390
 9147SOL    HW128340   6.154   0.416   4.339
 9147SOL    HW228341   5.992   0.404   4.359
 9148SOL     OW28342   5.337   6.399   0.652
 9148SOL    HW128343   5.256   6.355   0.689
 9148SOL    HW228344   5.419   6.350   0.680
 9149SOL     OW28345   6.079   3.348   3.515
 9149SOL    HW128346   6.123   3.262   3.487
 9149SOL    HW228347   6.021   3.331   3.595
 9150SOL     OW28348   2.876   5.071   1.973
 9150SOL    HW128349   2.909   4.990   2.020
 9150SOL    HW228350   2.940   5.147   1.987
 9151SOL     OW28351   1.802   4.312   3.642
 9151SOL    HW128352   1.901   4.300   3.639
 9151SOL    HW228353   1.781   4.399   3.687
 9152SOL     OW28354   2.223   4.367   4.754
 9152SOL    HW128355   2.222   4.267   4.761
 9152SOL    HW228356   2.256   4.406   4.841
 9153SOL     OW28357   1.014   3.800   0.338
 9153SOL    HW128358   0.958   3.721   0.311
 9153SOL    HW228359   1.029   3.797   0.437
 9154SOL     OW28360   4.346   4.606   6.224
 9154SOL    HW128361   4.434   4.640   6.258
 9154SOL    HW228362   4.310   4.670   6.156
 9155SOL     OW28363   1.877   3.800   1.773
 9155SOL    HW128364   1.811   3.871   1.749
 9155SOL    HW228365   1.952   3.841   1.825
 9156SOL     OW28366   0.962   2.480   0.748
 9156SOL    HW128367   1.006   2.394   0.772
 9156SOL    HW228368   0.865   2.477   0.773
 9157SOL     OW28369   6.591   4.351   5.638
 9157SOL    HW128370   6.633   4.389   5.556
 9157SOL    HW228371   6.518   4.287   5.612
 9158SOL     OW28372   6.124   3.377   4.761
 9158SOL    HW128373   6.213   3.395   4.720
 9158SOL    HW228374   6.135   3.358   4.859
 9159SOL     OW28375   1.890   0.014   2.370
 9159SOL    HW128376   1.986   0.034   2.391
 9159SOL    HW228377   1.885   6.978   2.291
 9160SOL     OW28378   6.246   0.489   5.354
 9160SOL    HW128379   6.226   0.506   5.257
 9160SOL    HW228380   6.199   0.557   5.410
 9161SOL     OW28381   4.937   4.119   4.645
 9161SOL    HW128382   4.866   4.189   4.635
 9161SOL    HW228383   4.907   4.034   4.603
 9162SOL     OW28384   4.759   0.677   4.474
 9162SOL    HW128385   4.670   0.632   4.463
 9162SOL    HW228386   4.755   0.740   4.551
 9163SOL     OW28387   1.647   2.988   4.298
 9163SOL    HW128388   1.641   3.086   4.281
 9163SOL    HW228389   1.722   2.949   4.245
 9164SOL     OW28390   2.722   0.765   6.088
 9164SOL    HW128391   2.708   0.807   5.998
 9164SOL    HW228392   2.734   0.838   6.156
 9165SOL     OW28393   6.242   2.073   5.916
 9165SOL    HW128394   6.339   2.073   5.937
 9165SOL    HW228395   6.226   2.121   5.830
 9166SOL     OW28396   3.980   5.995   1.115
 9166SOL    HW128397   3.998   5.898   1.095
 9166SOL    HW228398   4.013   6.051   1.039
 9167SOL     OW28399   2.209   2.437   6.677
 9167SOL    HW128400   2.235   2.532   6.655
 9167SOL    HW228401   2.123   2.415   6.631
 9168SOL     OW28402   0.058   0.178   6.731
 9168SOL    HW128403   0.124   0.253   6.733
 9168SOL    HW228404   6.998   0.206   6.776
 9169SOL     OW28405   5.669   0.774   5.093
 9169SOL    HW128406   5.661   0.859   5.146
 9169SOL    HW228407   5.587   0.763   5.037
 9170SOL     OW28408   1.421   5.989   0.166
 9170SOL    HW128409   1.477   5.930   0.223
 9170SOL    HW228410   1.335   5.943   0.143
 9171SOL     OW28411   4.460   4.893   1.063
 9171SOL    HW128412   4.376   4.891   1.008
 9171SOL    HW228413   4.436   4.905   1.160
 9172SOL     OW28414   3.885   1.028   3.081
 9172SOL    HW128415   3.924   0.973   3.155
 9172SOL    HW228416   3.824   1.097   3.119
 9173SOL     OW28417   6.906   3.492   5.182
 9173SOL    HW128418   6.831   3.556   5.163
 9173SOL    HW228419   6.922   3.489   5.281
 9174SOL     OW28420   5.100   4.003   1.719
 9174SOL    HW128421   5.088   3.917   1.670
 9174SOL    HW228422   5.147   4.069   1.659
 9175SOL     OW28423   0.866   0.435   5.188
 9175SOL    HW128424   0.927   0.506   5.222
 9175SOL    HW228425   0.813   0.471   5.110
 9176SOL     OW28426   2.716   1.251   4.868
 9176SOL    HW128427   2.693   1.197   4.948
 9176SOL    HW228428   2.653   1.329   4.860
 9177SOL     OW28429   0.719   4.736   4.956
 9177SOL    HW128430   0.664   4.653   4.955
 9177SOL    HW228431   0.690   4.796   4.882
 9178SOL     OW28432   1.746   5.063   0.137
 9178SOL    HW128433   1.658   5.097   0.172
 9178SOL    HW228434   1.729   4.992   0.068
 9179SOL     OW28435   2.832   4.755   4.343
 9179SOL    HW128436   2.924   4.773   4.308
 9179SOL    HW228437   2.767   4.752   4.267
 9180SOL     OW28438   6.179   2.703   3.393
 9180SOL    HW128439   6.190   2.730   3.489
 9180SOL    HW228440   6.236   2.624   3.374
 9181SOL     OW28441   4.274   1.965   5.392
 9181SOL    HW128442   4.279   2.056   5.350
 9181SOL    HW228443   4.179   1.945   5.417
 9182SOL     OW28444   2.968   6.598   1.727
 9182SOL    HW128445   2.877   6.607   1.688
 9182SOL    HW228446   2.962   6.594   1.827
 9183SOL     OW28447   4.853   5.805   0.533
 9183SOL    HW128448   4.842   5.771   0.626
 9183SOL    HW228449   4.831   5.733   0.468
 9184SOL     OW28450   4.750   1.805   0.534
 9184SOL    HW128451   4.679   1.876   0.538
 9184SOL    HW228452   4.759   1.762   0.624
 9185SOL     OW28453   4.454   6.509   4.459
 9185SOL    HW128454   4.541   6.556   4.470
 9185SOL    HW228455   4.456   6.452   4.377
 9186SOL     OW28456   5.396   5.905   4.841
 9186SOL    HW128457   5.432   5.983   4.790
 9186SOL    HW228458   5.463   5.876   4.910
 9187SOL     OW28459   2.351   2.212   0.747
 9187SOL    HW128460   2.317   2.119   0.735
 9187SOL    HW228461   2.451   2.211   0.756
 9188SOL     OW28462   1.570   6.325   0.414
 9188SOL    HW128463   1.523   6.412   0.425
 9188SOL    HW228464   1.511   6.251   0.445
 9189SOL     OW28465   3.436   5.927   2.179
 9189SOL    HW128466   3.366   5.938   2.109
 9189SOL    HW228467   3.519   5.976   2.151
 9190SOL     OW28468   2.934   4.401   5.917
 9190SOL    HW128469   3.018   4.378   5.867
 9190SOL    HW228470   2.958   4.446   6.003
 9191SOL     OW28471   6.689   2.006   6.442
 9191SOL    HW128472   6.693   2.066   6.522
 9191SOL    HW228473   6.707   2.059   6.359
 9192SOL     OW28474   1.071   3.265   5.691
 9192SOL    HW128475   1.032   3.342   5.641
 9192SOL    HW228476   1.165   3.251   5.661
 9193SOL     OW28477   4.109   4.037   6.651
 9193SOL    HW128478   4.095   4.027   6.749
 9193SOL    HW228479   4.059   3.964   6.603
 9194SOL     OW28480   3.296   0.823   3.657
 9194SOL    HW128481   3.220   0.813   3.593
 9194SOL    HW228482   3.333   0.916   3.652
 9195SOL     OW28483   1.314   1.634   3.164
 9195SOL    HW128484   1.292   1.730   3.148
 9195SOL    HW228485   1.258   1.600   3.240
 9196SOL     OW28486   5.336   0.383   2.476
 9196SOL    HW128487   5.378   0.311   2.421
 9196SOL    HW228488   5.399   0.410   2.549
 9197SOL     OW28489   1.946   5.440   1.185
 9197SOL    HW128490   1.949   5.527   1.234
 9197SOL    HW228491   2.032   5.391   1.197
 9198SOL     OW28492   6.192   4.671   6.618
 9198SOL    HW128493   6.192   4.590   6.559
 9198SOL    HW228494   6.133   4.741   6.579
 9199SOL     OW28495   1.058   3.790   5.437
 9199SOL    HW128496   1.006   3.832   5.362
 9199SOL    HW228497   1.044   3.842   5.521
 9200SOL     OW28498   2.891   6.525   6.895
 9200SOL    HW128499   2.925   6.619   6.905
 9200SOL    HW228500   2.956   6.472   6.842
 9201SOL     OW28501   6.766   2.728   0.208
 9201SOL    HW128502   6.842   2.675   0.170
 9201SOL    HW228503   6.792   2.824   0.214
 9202SOL     OW28504   1.053   6.412   2.606
 9202SOL    HW128505   0.970   6.364   2.634
 9202SOL    HW228506   1.125   6.397   2.673
 9203SOL     OW28507   0.455   3.941   5.760
 9203SOL    HW128508   0.544   3.947   5.805
 9203SOL    HW228509   0.429   4.030   5.725
 9204SOL     OW28510   5.179   3.350   6.065
 9204SOL    HW128511   5.151   3.443   6.040
 9204SOL    HW228512   5.256   3.354   6.129
 9205SOL     OW28513   5.612   5.397   3.450
 9205SOL    HW128514   5.518   5.384   3.417
 9205SOL    HW228515   5.670   5.323   3.417
 9206SOL     OW28516   3.824   5.192   3.353
 9206SOL    HW128517   3.859   5.237   3.435
 9206SOL    HW228518   3.900   5.153   3.301
 9207SOL     OW28519   5.108   4.129   5.573
 9207SOL    HW128520   5.102   4.100   5.669
 9207SOL    HW228521   5.020   4.116   5.528
 9208SOL     OW28522   5.690   4.712   3.765
 9208SOL    HW128523   5.604   4.753   3.796
 9208SOL    HW228524   5.671   4.637   3.701
 9209SOL     OW28525   3.639   0.432   6.883
 9209SOL    HW128526   3.617   0.404   6.977
 9209SOL    HW228527   3.563   0.486   6.846
 9210SOL     OW28528   0.354   0.932   2.428
 9210SOL    HW128529   0.321   1.013   2.476
 9210SOL    HW228530   0.314   0.930   2.336
 9211SOL     OW28531   0.590   3.008   5.847
 9211SOL    HW128532   0.606   3.035   5.752
 9211SOL    HW228533   0.637   2.922   5.865
 9212SOL     OW28534   4.263   6.087   4.479
 9212SOL    HW128535   4.190   6.050   4.537
 9212SOL    HW228536   4.225   6.158   4.420
 9213SOL     OW28537   5.724   3.026   5.145
 9213SOL    HW128538   5.816   3.054   5.173
 9213SOL    HW228539   5.657   3.092   5.180
 9214SOL     OW28540   0.110   3.985   6.583
 9214SOL    HW128541   0.073   4.003   6.491
 9214SOL    HW228542   0.150   3.894   6.586
 9215SOL     OW28543   0.463   2.715   1.441
 9215SOL    HW128544   0.414   2.749   1.361
 9215SOL    HW228545   0.551   2.677   1.412
 9216SOL     OW28546   3.314   6.881   2.207
 9216SOL    HW128547   3.263   6.873   2.292
 9216SOL    HW228548   3.398   6.827   2.212
 9217SOL     OW28549   6.971   2.824   6.558
 9217SOL    HW128550   6.974   2.725   6.544
 9217SOL    HW228551   6.944   2.843   6.652
 9218SOL     OW28552   1.778   0.242   6.982
 9218SOL    HW128553   1.847   0.301   6.940
 9218SOL    HW228554   1.805   0.218   0.050
 9219SOL     OW28555   5.879   3.268   1.195
 9219SOL    HW128556   5.907   3.357   1.232
 9219SOL    HW228557   5.825   3.282   1.112
 9220SOL     OW28558   1.569   6.491   1.714
 9220SOL    HW128559   1.512   6.421   1.671
 9220SOL    HW228560   1.580   6.568   1.651
 9221SOL     OW28561   3.395   0.335   3.343
 9221SOL    HW128562   3.342   0.352   3.426
 9221SOL    HW228563   3.484   0.380   3.350
 9222SOL     OW28564   2.006   6.022   6.333
 9222SOL    HW128565   1.970   6.070   6.414
 9222SOL    HW228566   2.050   5.937   6.361
 9223SOL     OW28567   0.588   1.676   3.637
 9223SOL    HW128568   0.584   1.689   3.736
 9223SOL    HW228569   0.653   1.604   3.615
 9224SOL     OW28570   1.365   5.001   4.213
 9224SOL    HW128571   1.318   4.913   4.222
 9224SOL    HW228572   1.410   5.024   4.299
 9225SOL     OW28573   2.893   6.626   6.177
 9225SOL    HW128574   2.987   6.620   6.144
 9225SOL    HW228575   2.884   6.702   6.241
 9226SOL     OW28576   6.053   6.989   1.884
 9226SOL    HW128577   6.138   7.014   1.837
 9226SOL    HW228578   5.979   6.982   1.817
 9227SOL     OW28579   1.333   5.721   0.865
 9227SOL    HW128580   1.431   5.720   0.885
 9227SOL    HW228581   1.299   5.627   0.858
 9228SOL     OW28582   1.769   1.899   5.746
 9228SOL    HW128583   1.761   1.837   5.824
 9228SOL    HW228584   1.707   1.976   5.758
 9229SOL     OW28585   1.215   5.384   5.733
 9229SOL    HW128586   1.243   5.350   5.823
 9229SOL    HW228587   1.167   5.471   5.744
 9230SOL     OW28588   4.636   2.108   3.690
 9230SOL    HW128589   4.601   2.087   3.782
 9230SOL    HW228590   4.709   2.176   3.698
 9231SOL     OW28591   0.599   4.042   4.626
 9231SOL    HW128592   0.690   4.018   4.593
 9231SOL    HW228593   0.537   3.964   4.610
 9232SOL     OW28594   3.837   4.994   0.278
 9232SOL    HW128595   3.797   4.928   0.342
 9232SOL    HW228596   3.787   5.080   0.282
 9233SOL     OW28597   5.529   5.342   1.961
 9233SOL    HW128598   5.439   5.370   1.928
 9233SOL    HW228599   5.521   5.308   2.055
 9234SOL     OW28600   3.554   6.200   5.983
 9234SOL    HW128601   3.495   6.193   6.063
 9234SOL    HW228602   3.627   6.266   6.001
 9235SOL     OW28603   1.518   3.380   3.309
 9235SOL    HW128604   1.419   3.393   3.313
 9235SOL    HW228605   1.554   3.367   3.401
 9236SOL     OW28606   2.046   4.799   5.622
 9236SOL    HW128607   2.057   4.888   5.666
 9236SOL    HW228608   2.116   4.736   5.656
 9237SOL     OW28609   1.692   5.491   4.612
 9237SOL    HW128610   1.769   5.555   4.624
 9237SOL    HW228611   1.631   5.525   4.541
 9238SOL     OW28612   3.618   1.163   0.282
 9238SOL    HW128613   3.563   1.245   0.265
 9238SOL    HW228614   3.697   1.163   0.222
 9239SOL     OW28615   6.416   4.171   0.496
 9239SOL    HW128616   6.444   4.238   0.427
 9239SOL    HW228617   6.480   4.172   0.572
 9240SOL     OW28618   5.299   1.374   1.169
 9240SOL    HW128619   5.203   1.385   1.195
 9240SOL    HW228620   5.305   1.342   1.075
 9241SOL     OW28621   0.644   5.375   5.771
 9241SOL    HW128622   0.646   5.373   5.871
 9241SOL    HW228623   0.564   5.427   5.740
 9242SOL     OW28624   0.891   5.252   0.106
 9242SOL    HW128625   0.900   5.267   0.205
 9242SOL    HW228626   0.941   5.324   0.057
 9243SOL     OW28627   6.028   6.788   1.571
 9243SOL    HW128628   5.956   6.790   1.502
 9243SOL    HW228629   6.105   6.735   1.537
 9244SOL     OW28630   4.736   5.585   5.927
 9244SOL    HW128631   4.735   5.541   5.838
 9244SOL    HW228632   4.701   5.522   5.996
 9245SOL     OW28633   1.749   5.002   3.393
 9245SOL    HW128634   1.677   4.993   3.323
 9245SOL    HW228635   1.706   5.022   3.481
 9246SOL     OW28636   0.063   5.610   2.429
 9246SOL    HW128637   0.031   5.702   2.406
 9246SOL    HW228638   0.087   5.606   2.526
 9247SOL     OW28639   1.506   6.823   2.537
 9247SOL    HW128640   1.488   6.845   2.633
 9247SOL    HW228641   1.506   6.724   2.525
 9248SOL     OW28642   1.947   2.055   4.408
 9248SOL    HW128643   1.922   2.004   4.490
 9248SOL    HW228644   2.034   2.021   4.372
 9249SOL     OW28645   4.179   4.312   6.970
 9249SOL    HW128646   4.210   4.390   6.917
 9249SOL    HW228647   4.249   4.287   0.013
 9250SOL     OW28648   5.427   3.334   4.126
 9250SOL    HW128649   5.378   3.299   4.046
 9250SOL    HW228650   5.480   3.415   4.100
 9251SOL     OW28651   4.144   1.601   2.277
 9251SOL    HW128652   4.111   1.685   2.321
 9251SOL    HW228653   4.237   1.616   2.243
 9252SOL     OW28654   5.851   0.303   4.724
 9252SOL    HW128655   5.822   0.396   4.701
 9252SOL    HW228656   5.918   0.307   4.798
 9253SOL     OW28657   5.461   6.287   5.216
 9253SOL    HW128658   5.385   6.338   5.256
 9253SOL    HW228659   5.451   6.284   5.117
 9254SOL     OW28660   6.062   4.657   2.777
 9254SOL    HW128661   5.976   4.706   2.790
 9254SOL    HW228662   6.108   4.648   2.865
 9255SOL     OW28663   4.552   3.902   6.966
 9255SOL    HW128664   4.470   3.918   7.021
 9255SOL    HW228665   4.629   3.879   0.001
 9256SOL     OW28666   4.343   7.001   2.911
 9256SOL    HW128667   4.307   6.913   2.877
 9256SOL    HW228668   4.388   0.025   2.836
 9257SOL     OW28669   0.055   3.888   3.019
 9257SOL    HW128670   0.122   3.924   2.953
 9257SOL    HW228671   0.089   3.802   3.056
 9258SOL     OW28672   3.017   3.490   3.278
 9258SOL    HW128673   3.103   3.439   3.282
 9258SOL    HW228674   3.022   3.568   3.340
 9259SOL     OW28675   1.131   2.774   6.442
 9259SOL    HW128676   1.199   2.763   6.514
 9259SOL    HW228677   1.039   2.760   6.480
 9260SOL     OW28678   4.793   1.824   4.786
 9260SOL    HW128679   4.812   1.734   4.748
 9260SOL    HW228680   4.854   1.892   4.744
 9261SOL     OW28681   4.433   0.843   0.224
 9261SOL    HW128682   4.355   0.901   0.243
 9261SOL    HW228683   4.486   0.882   0.148
 9262SOL     OW28684   0.283   3.766   5.903
 9262SOL    HW128685   0.343   3.822   5.847
 9262SOL    HW228686   0.324   3.676   5.917
 9263SOL     OW28687   5.163   5.865   2.025
 9263SOL    HW128688   5.259   5.838   2.012
 9263SOL    HW228689   5.149   5.892   2.120
 9264SOL     OW28690   5.750   4.316   0.485
 9264SOL    HW128691   5.801   4.328   0.400
 9264SOL    HW228692   5.652   4.331   0.467
 9265SOL     OW28693   3.500   1.959   6.810
 9265SOL    HW128694   3.504   1.994   6.904
 9265SOL    HW228695   3.585   1.913   6.788
 9266SOL     OW28696   2.230   0.127   1.970
 9266SOL    HW128697   2.273   0.097   1.884
 9266SOL    HW228698   2.191   0.218   1.957
 9267SOL     OW28699   0.393   3.482   5.134
 9267SOL    HW128700   0.451   3.402   5.149
 9267SOL    HW228701   0.318   3.482   5.200
 9268SOL     OW28702   0.982   5.535   1.730
 9268SOL    HW128703   1.049   5.537   1.805
 9268SOL    HW228704   0.927   5.452   1.738
 9269SOL     OW28705   2.767   1.412   6.046
 9269SOL    HW128706   2.758   1.389   5.949
 9269SOL    HW228707   2.753   1.510   6.059
 9270SOL     OW28708   4.530   6.486   5.933
 9270SOL    HW128709   4.467   6.434   5.990
 9270SOL    HW228710   4.542   6.578   5.970
 9271SOL     OW28711   0.366   0.154   6.858
 9271SOL    HW128712   0.292   0.086   6.865
 9271SOL    HW228713   0.332   0.236   6.812
 9272SOL     OW28714   1.947   5.217   4.046
 9272SOL    HW128715   1.889   5.153   4.096
 9272SOL    HW228716   1.928   5.310   4.078
 9273SOL     OW28717   5.827   6.040   3.410
 9273SOL    HW128718   5.890   5.997   3.476
 9273SOL    HW228719   5.753   6.085   3.460
 9274SOL     OW28720   6.290   2.591   0.186
 9274SOL    HW128721   6.255   2.603   0.279
 9274SOL    HW228722   6.314   2.680   0.147
 9275SOL     OW28723   0.176   1.660   6.628
 9275SOL    HW128724   0.096   1.616   6.670
 9275SOL    HW228725   0.256   1.601   6.639
 9276SOL     OW28726   1.902   4.001   2.597
 9276SOL    HW128727   1.994   4.018   2.562
 9276SOL    HW228728   1.839   3.985   2.520
 9277SOL     OW28729   5.296   3.185   6.885
 9277SOL    HW128730   5.236   3.169   6.806
 9277SOL    HW228731   5.390   3.164   6.861
 9278SOL     OW28732   1.222   0.513   5.671
 9278SOL    HW128733   1.232   0.572   5.751
 9278SOL    HW228734   1.176   0.429   5.697
 9279SOL     OW28735   5.329   0.998   1.650
 9279SOL    HW128736   5.315   1.093   1.621
 9279SOL    HW228737   5.278   0.981   1.735
 9280SOL     OW28738   1.978   1.451   3.451
 9280SOL    HW128739   2.059   1.426   3.398
 9280SOL    HW228740   1.988   1.544   3.486
 9281SOL     OW28741   2.744   4.944   0.567
 9281SOL    HW128742   2.738   4.869   0.632
 9281SOL    HW228743   2.786   5.023   0.612
 9282SOL     OW28744   5.028   1.058   4.229
 9282SOL    HW128745   5.064   0.984   4.172
 9282SOL    HW228746   4.975   1.020   4.304
 9283SOL     OW28747   5.790   0.561   3.845
 9283SOL    HW128748   5.815   0.465   3.835
 9283SOL    HW228749   5.870   0.618   3.825
 9284SOL     OW28750   3.095   4.217   6.111
 9284SOL    HW128751   3.176   4.201   6.167
 9284SOL    HW228752   3.021   4.156   6.140
 9285SOL     OW28753   5.054   2.477   1.458
 9285SOL    HW128754   5.019   2.390   1.491
 9285SOL    HW228755   5.029   2.490   1.362
 9286SOL     OW28756   5.321   6.090   0.142
 9286SOL    HW128757   5.420   6.098   0.149
 9286SOL    HW228758   5.286   6.160   0.081
 9287SOL     OW28759   3.443   5.370   6.195
 9287SOL    HW128760   3.415   5.372   6.291
 9287SOL    HW228761   3.408   5.452   6.148
 9288SOL     OW28762   4.358   1.500   3.633
 9288SOL    HW128763   4.386   1.595   3.647
 9288SOL    HW228764   4.318   1.490   3.542
 9289SOL     OW28765   4.128   1.420   2.482
 9289SOL    HW128766   4.152   1.324   2.471
 9289SOL    HW228767   4.144   1.468   2.395
 9290SOL     OW28768   5.406   1.014   3.072
 9290SOL    HW128769   5.387   0.944   3.141
 9290SOL    HW228770   5.343   1.091   3.085
 9291SOL     OW28771   1.612   6.779   4.404
 9291SOL    HW128772   1.710   6.800   4.403
 9291SOL    HW228773   1.597   6.686   4.373
 9292SOL     OW28774   0.738   3.386   6.801
 9292SOL    HW128775   0.794   3.466   6.784
 9292SOL    HW228776   0.752   3.354   6.895
 9293SOL     OW28777   5.570   4.069   6.869
 9293SOL    HW128778   5.586   4.112   6.958
 9293SOL    HW228779   5.643   4.003   6.850
 9294SOL     OW28780   3.570   0.711   5.154
 9294SOL    HW128781   3.474   0.719   5.181
 9294SOL    HW228782   3.577   0.699   5.055
 9295SOL     OW28783   5.235   2.029   4.267
 9295SOL    HW128784   5.232   1.930   4.263
 9295SOL    HW228785   5.178   2.067   4.194
 9296SOL     OW28786   0.049   6.385   6.466
 9296SOL    HW128787   6.976   6.383   6.488
 9296SOL    HW228788   0.062   6.422   6.374
 9297SOL     OW28789   6.653   0.853   0.241
 9297SOL    HW128790   6.582   0.873   0.309
 9297SOL    HW228791   6.610   0.813   0.160
 9298SOL     OW28792   1.188   0.489   4.947
 9298SOL    HW128793   1.206   0.401   4.990
 9298SOL    HW228794   1.115   0.479   4.879
 9299SOL     OW28795   0.848   2.736   4.635
 9299SOL    HW128796   0.834   2.773   4.727
 9299SOL    HW228797   0.795   2.790   4.569
 9300SOL     OW28798   0.457   4.854   5.354
 9300SOL    HW128799   0.382   4.790   5.339
 9300SOL    HW228800   0.533   4.832   5.294
 9301SOL     OW28801   4.824   4.475   4.126
 9301SOL    HW128802   4.845   4.572   4.132
 9301SOL    HW228803   4.883   4.432   4.059
 9302SOL     OW28804   2.211   2.835   4.078
 9302SOL    HW128805   2.176   2.924   4.047
 9302SOL    HW228806   2.162   2.808   4.161
 9303SOL     OW28807   3.097   4.979   0.960
 9303SOL    HW128808   3.031   4.918   0.916
 9303SOL    HW228809   3.104   5.064   0.908
 9304SOL     OW28810   4.558   4.411   2.226
 9304SOL    HW128811   4.534   4.369   2.138
 9304SOL    HW228812   4.582   4.339   2.292
 9305SOL     OW28813   2.859   0.934   1.349
 9305SOL    HW128814   2.884   0.847   1.306
 9305SOL    HW228815   2.937   0.997   1.345
 9306SOL     OW28816   0.039   4.466   4.786
 9306SOL    HW128817   0.132   4.460   4.822
 9306SOL    HW228818   7.024   4.374   4.780
 9307SOL     OW28819   1.765   3.659   2.024
 9307SOL    HW128820   1.838   3.616   2.076
 9307SOL    HW228821   1.805   3.711   1.948
 9308SOL     OW28822   1.907   3.936   0.647
 9308SOL    HW128823   1.880   3.864   0.711
 9308SOL    HW228824   1.891   3.904   0.553
 9309SOL     OW28825   3.686   5.114   5.725
 9309SOL    HW128826   3.683   5.103   5.625
 9309SOL    HW228827   3.604   5.074   5.765
 9310SOL     OW28828   4.710   5.127   6.528
 9310SOL    HW128829   4.612   5.108   6.537
 9310SOL    HW228830   4.749   5.146   6.618
 9311SOL     OW28831   3.968   4.917   2.393
 9311SOL    HW128832   4.015   4.846   2.340
 9311SOL    HW228833   3.908   4.968   2.332
 9312SOL     OW28834   1.364   3.597   1.409
 9312SOL    HW128835   1.329   3.689   1.428
 9312SOL    HW228836   1.315   3.531   1.466
 9313SOL     OW28837   0.472   0.450   1.143
 9313SOL    HW128838   0.561   0.403   1.146
 9313SOL    HW228839   0.484   0.541   1.104
 9314SOL     OW28840   5.003   5.487   5.899
 9314SOL    HW128841   4.963   5.458   5.986
 9314SOL    HW228842   4.955   5.568   5.865
 9315SOL     OW28843   6.447   0.457   5.032
 9315SOL    HW128844   6.380   0.390   5.000
 9315SOL    HW228845   6.408   0.549   5.025
 9316SOL     OW28846   4.217   5.672   5.234
 9316SOL    HW128847   4.242   5.643   5.326
 9316SOL    HW228848   4.136   5.730   5.238
 9317SOL     OW28849   6.207   5.422   3.303
 9317SOL    HW128850   6.237   5.422   3.399
 9317SOL    HW228851   6.108   5.409   3.299
 9318SOL     OW28852   6.533   0.377   5.661
 9318SOL    HW128853   6.626   0.404   5.686
 9318SOL    HW228854   6.504   0.301   5.719
 9319SOL     OW28855   1.537   2.872   6.879
 9319SOL    HW128856   1.459   2.918   6.922
 9319SOL    HW228857   1.563   2.793   6.934
 9320SOL     OW28858   3.929   0.500   5.121
 9320SOL    HW128859   3.990   0.467   5.049
 9320SOL    HW228860   3.951   0.595   5.143
 9321SOL     OW28861   6.594   0.164   3.908
 9321SOL    HW128862   6.595   0.234   3.836
 9321SOL    HW228863   6.673   0.176   3.968
 9322SOL     OW28864   0.832   4.333   6.908
 9322SOL    HW128865   0.736   4.354   6.925
 9322SOL    HW228866   0.888   4.376   6.978
 9323SOL     OW28867   1.549   0.553   5.392
 9323SOL    HW128868   1.527   0.504   5.476
 9323SOL    HW228869   1.636   0.601   5.403
 9324SOL     OW28870   1.647   4.774   0.846
 9324SOL    HW128871   1.576   4.704   0.852
 9324SOL    HW228872   1.658   4.817   0.936
 9325SOL     OW28873   4.795   0.553   0.007
 9325SOL    HW128874   4.792   0.523   0.102
 9325SOL    HW228875   4.749   0.485   6.974
 9326SOL     OW28876   2.254   5.423   0.309
 9326SOL    HW128877   2.235   5.490   0.238
 9326SOL    HW228878   2.351   5.424   0.331
 9327SOL     OW28879   5.525   0.386   3.226
 9327SOL    HW128880   5.447   0.357   3.171
 9327SOL    HW228881   5.535   0.485   3.220
 9328SOL     OW28882   2.556   0.319   5.925
 9328SOL    HW128883   2.516   0.392   5.981
 9328SOL    HW228884   2.505   0.235   5.940
 9329SOL     OW28885   5.870   3.994   1.653
 9329SOL    HW128886   5.924   4.039   1.582
 9329SOL    HW228887   5.783   4.043   1.664
 9330SOL     OW28888   6.009   6.975   6.383
 9330SOL    HW128889   6.078   6.977   6.455
 9330SOL    HW228890   5.933   6.917   6.412
 9331SOL     OW28891   2.404   1.028   6.972
 9331SOL    HW128892   2.432   1.068   0.035
 9331SOL    HW228893   2.473   0.963   6.941
 9332SOL     OW28894   4.079   4.044   1.780
 9332SOL    HW128895   4.000   4.095   1.747
 9332SOL    HW228896   4.070   4.028   1.879
 9333SOL     OW28897   3.874   3.417   0.641
 9333SOL    HW128898   3.929   3.433   0.722
 9333SOL    HW228899   3.929   3.433   0.559
 9334SOL     OW28900   6.033   5.938   3.541
 9334SOL    HW128901   6.086   5.918   3.458
 9334SOL    HW228902   6.087   5.995   3.602
 9335SOL     OW28903   0.925   1.008   6.110
 9335SOL    HW128904   0.838   0.960   6.124
 9335SOL    HW228905   0.909   1.090   6.054
 9336SOL     OW28906   2.906   5.619   5.802
 9336SOL    HW128907   2.984   5.650   5.747
 9336SOL    HW228908   2.861   5.543   5.755
 9337SOL     OW28909   4.399   1.953   4.608
 9337SOL    HW128910   4.318   1.895   4.598
 9337SOL    HW228911   4.481   1.897   4.593
 9338SOL     OW28912   5.113   0.834   2.381
 9338SOL    HW128913   5.161   0.778   2.314
 9338SOL    HW228914   5.131   0.931   2.362
 9339SOL     OW28915   5.546   6.831   1.629
 9339SOL    HW128916   5.569   6.768   1.555
 9339SOL    HW228917   5.464   6.799   1.675
 9340SOL     OW28918   5.814   3.979   4.645
 9340SOL    HW128919   5.827   4.022   4.555
 9340SOL    HW228920   5.773   3.889   4.633
 9341SOL     OW28921   6.846   5.696   0.939
 9341SOL    HW128922   6.912   5.770   0.950
 9341SOL    HW228923   6.755   5.730   0.961
 9342SOL     OW28924   2.107   6.549   4.050
 9342SOL    HW128925   2.013   6.533   4.079
 9342SOL    HW228926   2.162   6.577   4.129
 9343SOL     OW28927   5.731   4.020   2.732
 9343SOL    HW128928   5.680   3.971   2.803
 9343SOL    HW228929   5.809   3.966   2.704
 9344SOL     OW28930   5.012   6.327   2.802
 9344SOL    HW128931   4.924   6.297   2.765
 9344SOL    HW228932   5.003   6.347   2.899
 9345SOL     OW28933   6.133   5.120   2.319
 9345SOL    HW128934   6.081   5.075   2.247
 9345SOL    HW228935   6.212   5.064   2.343
 9346SOL     OW28936   6.182   1.245   1.104
 9346SOL    HW128937   6.188   1.327   1.047
 9346SOL    HW228938   6.274   1.213   1.125
 9347SOL     OW28939   2.329   3.541   1.014
 9347SOL    HW128940   2.324   3.576   1.108
 9347SOL    HW228941   2.249   3.573   0.963
 9348SOL     OW28942   3.658   6.030   2.003
 9348SOL    HW128943   3.713   6.111   1.985
 9348SOL    HW228944   3.708   5.948   1.976
 9349SOL     OW28945   6.183   5.727   3.778
 9349SOL    HW128946   6.209   5.738   3.682
 9349SOL    HW228947   6.166   5.630   3.796
 9350SOL     OW28948   0.495   2.910   5.040
 9350SOL    HW128949   0.550   2.983   5.001
 9350SOL    HW228950   0.545   2.868   5.116
 9351SOL     OW28951   2.754   0.368   6.959
 9351SOL    HW128952   2.846   0.366   6.920
 9351SOL    HW228953   2.694   0.307   6.907
 9352SOL     OW28954   3.716   1.710   6.301
 9352SOL    HW128955   3.708   1.634   6.366
 9352SOL    HW228956   3.768   1.680   6.221
 9353SOL     OW28957   0.561   4.578   0.835
 9353SOL    HW128958   0.595   4.625   0.754
 9353SOL    HW228959   0.628   4.511   0.866
 9354SOL     OW28960   0.004   1.897   6.490
 9354SOL    HW128961   0.018   1.810   6.444
 9354SOL    HW228962   0.091   1.945   6.500
 9355SOL     OW28963   0.250   2.196   4.727
 9355SOL    HW128964   0.199   2.146   4.657
 9355SOL    HW228965   0.348   2.184   4.712
 9356SOL     OW28966   4.929   0.612   2.008
 9356SOL    HW128967   4.903   0.547   1.937
 9356SOL    HW228968   4.915   0.571   2.098
 9357SOL     OW28969   1.769   2.746   5.751
 9357SOL    HW128970   1.796   2.712   5.841
 9357SOL    HW228971   1.750   2.668   5.691
 9358SOL     OW28972   6.064   3.550   1.941
 9358SOL    HW128973   6.058   3.648   1.959
 9358SOL    HW228974   6.155   3.517   1.967
 9359SOL     OW28975   1.353   4.401   6.136
 9359SOL    HW128976   1.427   4.404   6.203
 9359SOL    HW228977   1.265   4.391   6.183
 9360SOL     OW28978   0.893   4.682   6.397
 9360SOL    HW128979   0.958   4.758   6.387
 9360SOL    HW228980   0.915   4.630   6.480
 9361SOL     OW28981   1.905   4.638   3.579
 9361SOL    HW128982   1.995   4.666   3.546
 9361SOL    HW228983   1.852   4.601   3.502
 9362SOL     OW28984   1.537   1.396   2.653
 9362SOL    HW128985   1.510   1.478   2.704
 9362SOL    HW228986   1.528   1.316   2.712
 9363SOL     OW28987   2.935   5.549   1.880
 9363SOL    HW128988   2.839   5.561   1.905
 9363SOL    HW228989   2.945   5.557   1.781
 9364SOL     OW28990   2.669   1.987   0.052
 9364SOL    HW128991   2.648   2.065   7.017
 9364SOL    HW228992   2.587   1.960   0.102
 9365SOL     OW28993   3.033   1.821   3.337
 9365SOL    HW128994   2.936   1.796   3.335
 9365SOL    HW228995   3.055   1.862   3.425
 9366SOL     OW28996   2.845   5.424   6.679
 9366SOL    HW128997   2.836   5.443   6.581
 9366SOL    HW228998   2.841   5.509   6.730
 9367SOL     OW28999   6.590   6.652   2.338
 9367SOL    HW129000   6.666   6.644   2.402
 9367SOL    HW229001   6.615   6.611   2.251
 9368SOL     OW29002   3.337   0.188   2.414
 9368SOL    HW129003   3.241   0.192   2.385
 9368SOL    HW229004   3.343   0.214   2.511
 9369SOL     OW29005   0.020   6.650   3.635
 9369SOL    HW129006   0.082   6.725   3.657
 9369SOL    HW229007   6.967   6.685   3.582
 9370SOL     OW29008   5.357   0.272   5.004
 9370SOL    HW129009   5.457   0.271   4.999
 9370SOL    HW229010   5.329   0.265   5.100
 9371SOL     OW29011   2.269   6.126   0.381
 9371SOL    HW129012   2.234   6.077   0.301
 9371SOL    HW229013   2.252   6.073   0.464
 9372SOL     OW29014   5.575   6.619   1.459
 9372SOL    HW129015   5.502   6.676   1.419
 9372SOL    HW229016   5.624   6.572   1.386
 9373SOL     OW29017   4.618   2.390   1.277
 9373SOL    HW129018   4.686   2.319   1.296
 9373SOL    HW229019   4.660   2.480   1.289
 9374SOL     OW29020   0.641   2.899   6.481
 9374SOL    HW129021   0.579   2.908   6.403
 9374SOL    HW229022   0.692   2.984   6.494
 9375SOL     OW29023   0.571   2.323   0.995
 9375SOL    HW129024   0.536   2.235   1.027
 9375SOL    HW229025   0.550   2.394   1.062
 9376SOL     OW29026   2.257   3.787   1.681
 9376SOL    HW129027   2.290   3.694   1.663
 9376SOL    HW229028   2.251   3.837   1.595
 9377SOL     OW29029   1.995   5.040   3.256
 9377SOL    HW129030   1.920   4.999   3.307
 9377SOL    HW229031   2.052   5.094   3.318
 9378SOL     OW29032   3.642   1.231   3.204
 9378SOL    HW129033   3.572   1.203   3.270
 9378SOL    HW229034   3.608   1.309   3.152
 9379SOL     OW29035   5.175   0.293   4.811
 9379SOL    HW129036   5.243   0.287   4.885
 9379SOL    HW229037   5.213   0.251   4.729
 9380SOL     OW29038   3.733   5.949   5.267
 9380SOL    HW129039   3.822   5.907   5.282
 9380SOL    HW229040   3.661   5.890   5.303
 9381SOL     OW29041   5.252   2.906   5.779
 9381SOL    HW129042   5.167   2.860   5.754
 9381SOL    HW229043   5.239   2.958   5.863
 9382SOL     OW29044   4.160   1.349   3.781
 9382SOL    HW129045   4.131   1.253   3.774
 9382SOL    HW229046   4.214   1.374   3.701
 9383SOL     OW29047   5.799   4.920   4.255
 9383SOL    HW129048   5.799   4.833   4.206
 9383SOL    HW229049   5.713   4.930   4.306
 9384SOL     OW29050   3.319   0.118   2.109
 9384SOL    HW129051   3.316   0.022   2.138
 9384SOL    HW229052   3.317   0.176   2.190
 9385SOL     OW29053   4.581   1.325   4.218
 9385SOL    HW129054   4.548   1.326   4.123
 9385SOL    HW229055   4.621   1.414   4.239
 9386SOL     OW29056   3.147   5.492   5.197
 9386SOL    HW129057   3.134   5.421   5.129
 9386SOL    HW229058   3.072   5.557   5.193
 9387SOL     OW29059   3.256   2.473   0.793
 9387SOL    HW129060   3.204   2.410   0.734
 9387SOL    HW229061   3.205   2.558   0.804
 9388SOL     OW29062   1.937   6.227   3.488
 9388SOL    HW129063   1.951   6.182   3.400
 9388SOL    HW229064   1.863   6.294   3.480
 9389SOL     OW29065   3.074   6.623   2.564
 9389SOL    HW129066   3.127   6.698   2.526
 9389SOL    HW229067   3.136   6.555   2.604
 9390SOL     OW29068   6.009   5.613   5.948
 9390SOL    HW129069   5.932   5.606   6.011
 9390SOL    HW229070   5.976   5.615   5.854
 9391SOL     OW29071   0.186   6.941   5.874
 9391SOL    HW129072   0.279   6.952   5.841
 9391SOL    HW229073   0.126   6.916   5.798
 9392SOL     OW29074   5.025   4.263   4.985
 9392SOL    HW129075   4.960   4.190   4.961
 9392SOL    HW229076   4.989   4.316   5.061
 9393SOL     OW29077   2.924   6.685   5.700
 9393SOL    HW129078   2.875   6.686   5.786
 9393SOL    HW229079   3.019   6.712   5.716
 9394SOL     OW29080   6.003   0.434   1.169
 9394SOL    HW129081   5.931   0.469   1.109
 9394SOL    HW229082   5.967   0.357   1.223
 9395SOL     OW29083   2.074   1.191   0.807
 9395SOL    HW129084   2.102   1.096   0.796
 9395SOL    HW229085   2.004   1.198   0.877
 9396SOL     OW29086   1.295   4.453   4.620
 9396SOL    HW129087   1.281   4.552   4.623
 9396SOL    HW229088   1.391   4.433   4.640
 9397SOL     OW29089   2.235   6.315   5.941
 9397SOL    HW129090   2.276   6.240   5.994
 9397SOL    HW229091   2.167   6.362   5.998
 9398SOL     OW29092   5.984   1.158   5.942
 9398SOL    HW129093   5.891   1.191   5.959
 9398SOL    HW229094   6.050   1.217   5.987
 9399SOL     OW29095   0.852   3.229   4.190
 9399SOL    HW129096   0.782   3.175   4.144
 9399SOL    HW229097   0.871   3.312   4.137
 9400SOL     OW29098   4.307   0.240   0.873
 9400SOL    HW129099   4.267   0.153   0.843
 9400SOL    HW229100   4.310   0.303   0.796
 9401SOL     OW29101   7.006   1.685   2.835
 9401SOL    HW129102   0.068   1.724   2.867
 9401SOL    HW229103   6.943   1.759   2.812
 9402SOL     OW29104   1.295   3.811   2.979
 9402SOL    HW129105   1.391   3.797   3.002
 9402SOL    HW229106   1.287   3.834   2.882
 9403SOL     OW29107   6.639   1.459   2.113
 9403SOL    HW129108   6.568   1.526   2.089
 9403SOL    HW229109   6.596   1.370   2.130
 9404SOL     OW29110   0.297   1.772   1.117
 9404SOL    HW129111   0.203   1.749   1.142
 9404SOL    HW229112   0.331   1.844   1.177
 9405SOL     OW29113   1.415   4.338   4.121
 9405SOL    HW129114   1.363   4.259   4.153
 9405SOL    HW229115   1.454   4.318   4.031
 9406SOL     OW29116   1.046   3.304   0.211
 9406SOL    HW129117   1.030   3.262   0.300
 9406SOL    HW229118   0.967   3.289   0.152
 9407SOL     OW29119   2.354   5.119   4.369
 9407SOL    HW129120   2.329   5.023   4.375
 9407SOL    HW229121   2.281   5.175   4.407
 9408SOL     OW29122   0.972   2.115   6.219
 9408SOL    HW129123   0.987   2.198   6.165
 9408SOL    HW229124   0.874   2.099   6.229
 9409SOL     OW29125   6.332   5.707   1.748
 9409SOL    HW129126   6.392   5.633   1.717
 9409SOL    HW229127   6.329   5.706   1.848
 9410SOL     OW29128   3.926   1.235   1.836
 9410SOL    HW129129   3.993   1.167   1.866
 9410SOL    HW229130   3.865   1.258   1.912
 9411SOL     OW29131   3.934   3.537   3.194
 9411SOL    HW129132   3.862   3.481   3.237
 9411SOL    HW229133   4.018   3.529   3.247
 9412SOL     OW29134   1.313   0.190   2.058
 9412SOL    HW129135   1.265   0.213   2.143
 9412SOL    HW229136   1.298   0.094   2.037
 9413SOL     OW29137   4.812   5.409   4.327
 9413SOL    HW129138   4.756   5.387   4.407
 9413SOL    HW229139   4.909   5.394   4.350
 9414SOL     OW29140   3.458   1.833   4.286
 9414SOL    HW129141   3.366   1.800   4.265
 9414SOL    HW229142   3.526   1.776   4.238
 9415SOL     OW29143   2.360   0.180   1.713
 9415SOL    HW129144   2.419   0.243   1.764
 9415SOL    HW229145   2.287   0.231   1.668
 9416SOL     OW29146   0.225   0.590   5.564
 9416SOL    HW129147   0.178   0.583   5.652
 9416SOL    HW229148   0.287   0.511   5.553
 9417SOL     OW29149   3.619   6.806   1.492
 9417SOL    HW129150   3.658   6.715   1.479
 9417SOL    HW229151   3.674   6.857   1.559
 9418SOL     OW29152   2.425   1.254   2.279
 9418SOL    HW129153   2.394   1.166   2.245
 9418SOL    HW229154   2.518   1.271   2.248
 9419SOL     OW29155   1.723   3.244   6.721
 9419SOL    HW129156   1.653   3.316   6.729
 9419SOL    HW229157   1.809   3.277   6.758
 9420SOL     OW29158   5.229   4.440   0.160
 9420SOL    HW129159   5.257   4.526   0.117
 9420SOL    HW229160   5.280   4.427   0.245
 9421SOL     OW29161   2.928   5.325   4.029
 9421SOL    HW129162   2.994   5.361   4.095
 9421SOL    HW229163   2.880   5.247   4.070
 9422SOL     OW29164   2.714   6.233   3.880
 9422SOL    HW129165   2.707   6.136   3.856
 9422SOL    HW229166   2.730   6.242   3.978
 9423SOL     OW29167   3.819   6.384   3.034
 9423SOL    HW129168   3.796   6.372   2.938
 9423SOL    HW229169   3.914   6.416   3.042
 9424SOL     OW29170   5.463   2.041   4.480
 9424SOL    HW129171   5.403   2.056   4.401
 9424SOL    HW229172   5.518   1.959   4.465
 9425SOL     OW29173   5.758   5.323   1.159
 9425SOL    HW129174   5.814   5.246   1.129
 9425SOL    HW229175   5.674   5.328   1.105
 9426SOL     OW29176   2.438   1.667   6.256
 9426SOL    HW129177   2.424   1.729   6.333
 9426SOL    HW229178   2.352   1.652   6.208
 9427SOL     OW29179   2.373   6.076   3.362
 9427SOL    HW129180   2.348   6.030   3.447
 9427SOL    HW229181   2.346   6.019   3.284
 9428SOL     OW29182   6.470   0.025   0.811
 9428SOL    HW129183   6.546   6.998   0.770
 9428SOL    HW229184   6.505   0.105   0.858
 9429SOL     OW29185   2.152   2.242   4.000
 9429SOL    HW129186   2.139   2.331   3.956
 9429SOL    HW229187   2.063   2.199   4.015
 9430SOL     OW29188   0.367   2.475   4.384
 9430SOL    HW129189   0.341   2.478   4.481
 9430SOL    HW229190   0.447   2.534   4.370
 9431SOL     OW29191   6.962   4.812   1.435
 9431SOL    HW129192   0.005   4.856   1.374
 9431SOL    HW229193   6.935   4.877   1.506
 9432SOL     OW29194   5.881   1.676   4.605
 9432SOL    HW129195   5.923   1.681   4.514
 9432SOL    HW229196   5.833   1.589   4.614
 9433SOL     OW29197   3.813   6.664   3.170
 9433SOL    HW129198   3.787   6.568   3.156
 9433SOL    HW229199   3.827   6.681   3.268
 9434SOL     OW29200   6.257   5.707   3.471
 9434SOL    HW129201   6.289   5.613   3.486
 9434SOL    HW229202   6.249   5.724   3.373
 9435SOL     OW29203   0.205   1.825   2.788
 9435SOL    HW129204   0.267   1.902   2.771
 9435SOL    HW229205   0.134   1.824   2.718
 9436SOL     OW29206   1.425   1.566   2.886
 9436SOL    HW129207   1.353   1.580   2.954
 9436SOL    HW229208   1.447   1.654   2.843
 9437SOL     OW29209   0.690   4.985   3.589
 9437SOL    HW129210   0.652   4.951   3.503
 9437SOL    HW229211   0.783   4.950   3.600
 9438SOL     OW29212   1.494   0.395   1.971
 9438SOL    HW129213   1.426   0.332   2.007
 9438SOL    HW229214   1.464   0.489   1.985
 9439SOL     OW29215   0.692   3.432   1.433
 9439SOL    HW129216   0.648   3.411   1.346
 9439SOL    HW229217   0.647   3.510   1.475
 9440SOL     OW29218   3.872   4.888   3.857
 9440SOL    HW129219   3.802   4.909   3.788
 9440SOL    HW229220   3.958   4.866   3.811
 9441SOL     OW29221   6.598   6.249   5.385
 9441SOL    HW129222   6.606   6.175   5.453
 9441SOL    HW229223   6.689   6.284   5.364
 9442SOL     OW29224   4.713   3.339   1.752
 9442SOL    HW129225   4.669   3.321   1.664
 9442SOL    HW229226   4.658   3.302   1.826
 9443SOL     OW29227   2.678   5.615   0.892
 9443SOL    HW129228   2.613   5.621   0.816
 9443SOL    HW229229   2.628   5.607   0.978
 9444SOL     OW29230   1.990   4.662   0.600
 9444SOL    HW129231   1.918   4.679   0.533
 9444SOL    HW229232   1.978   4.723   0.678
 9445SOL     OW29233   7.003   2.511   3.072
 9445SOL    HW129234   0.008   2.419   3.099
 9445SOL    HW229235   6.951   2.505   2.986
 9446SOL     OW29236   0.690   5.200   4.214
 9446SOL    HW129237   0.735   5.249   4.140
 9446SOL    HW229238   0.755   5.184   4.289
 9447SOL     OW29239   5.314   4.576   3.465
 9447SOL    HW129240   5.338   4.494   3.413
 9447SOL    HW229241   5.246   4.553   3.534
 9448SOL     OW29242   6.790   6.801   6.713
 9448SOL    HW129243   6.779   6.893   6.750
 9448SOL    HW229244   6.830   6.742   6.783
 9449SOL     OW29245   5.880   6.709   7.022
 9449SOL    HW129246   5.951   6.641   0.014
 9449SOL    HW229247   5.900   6.760   6.938
 9450SOL     OW29248   2.276   5.415   3.558
 9450SOL    HW129249   2.317   5.432   3.648
 9450SOL    HW229250   2.186   5.457   3.554
 9451SOL     OW29251   4.174   5.998   5.708
 9451SOL    HW129252   4.175   6.070   5.777
 9451SOL    HW229253   4.080   5.973   5.687
 9452SOL     OW29254   0.900   4.041   6.856
 9452SOL    HW129255   0.814   3.999   6.886
 9452SOL    HW229256   0.887   4.139   6.846
 9453SOL     OW29257   2.782   4.729   2.475
 9453SOL    HW129258   2.759   4.816   2.432
 9453SOL    HW229259   2.786   4.741   2.575
 9454SOL     OW29260   3.942   3.425   6.948
 9454SOL    HW129261   3.969   3.424   6.852
 9454SOL    HW229262   3.842   3.426   6.955
 9455SOL     OW29263   2.477   2.143   2.480
 9455SOL    HW129264   2.523   2.105   2.399
 9455SOL    HW229265   2.545   2.183   2.541
 9456SOL     OW29266   6.109   4.130   1.820
 9456SOL    HW129267   6.157   4.185   1.888
 9456SOL    HW229268   6.056   4.059   1.866
 9457SOL     OW29269   0.304   4.599   4.069
 9457SOL    HW129270   0.367   4.624   4.142
 9457SOL    HW229271   0.341   4.627   3.981
 9458SOL     OW29272   0.057   3.913   0.334
 9458SOL    HW129273   0.000   3.914   0.252
 9458SOL    HW229274   0.017   3.975   0.403
 9459SOL     OW29275   5.366   4.681   3.879
 9459SOL    HW129276   5.410   4.743   3.814
 9459SOL    HW229277   5.363   4.589   3.839
 9460SOL     OW29278   2.204   2.994   4.458
 9460SOL    HW129279   2.234   3.046   4.379
 9460SOL    HW229280   2.188   3.056   4.535
 9461SOL     OW29281   0.710   1.506   1.694
 9461SOL    HW129282   0.775   1.481   1.765
 9461SOL    HW229283   0.628   1.449   1.702
 9462SOL     OW29284   2.058   3.032   3.880
 9462SOL    HW129285   2.083   3.031   3.783
 9462SOL    HW229286   1.965   3.067   3.890
 9463SOL     OW29287   5.368   6.476   1.247
 9463SOL    HW129288   5.345   6.432   1.161
 9463SOL    HW229289   5.285   6.493   1.299
 9464SOL     OW29290   5.753   0.069   0.669
 9464SOL    HW129291   5.722   0.081   0.575
 9464SOL    HW229292   5.718   7.007   0.705
 9465SOL     OW29293   6.738   4.271   1.444
 9465SOL    HW129294   6.799   4.339   1.484
 9465SOL    HW229295   6.700   4.305   1.358
 9466SOL     OW29296   3.707   4.083   5.986
 9466SOL    HW129297   3.754   4.061   5.901
 9466SOL    HW229298   3.671   4.176   5.982
 9467SOL     OW29299   0.900   2.825   1.146
 9467SOL    HW129300   0.857   2.913   1.125
 9467SOL    HW229301   0.924   2.779   1.061
 9468SOL     OW29302   6.548   3.833   6.579
 9468SOL    HW129303   6.573   3.908   6.640
 9468SOL    HW229304   6.612   3.757   6.591
 9469SOL     OW29305   7.013   5.947   1.257
 9469SOL    HW129306   0.014   5.913   1.348
 9469SOL    HW229307   0.044   5.900   1.188
 9470SOL     OW29308   4.740   3.791   6.762
 9470SOL    HW129309   4.670   3.833   6.820
 9470SOL    HW229310   4.733   3.827   6.669
 9471SOL     OW29311   6.163   1.828   5.555
 9471SOL    HW129312   6.158   1.826   5.655
 9471SOL    HW229313   6.158   1.735   5.520
 9472SOL     OW29314   1.111   4.026   5.590
 9472SOL    HW129315   1.079   4.103   5.646
 9472SOL    HW229316   1.187   3.981   5.637
 9473SOL     OW29317   2.784   4.165   6.562
 9473SOL    HW129318   2.714   4.234   6.547
 9473SOL    HW229319   2.742   4.079   6.588
 9474SOL     OW29320   6.038   3.204   2.176
 9474SOL    HW129321   6.029   3.187   2.078
 9474SOL    HW229322   6.062   3.118   2.223
 9475SOL     OW29323   4.760   3.841   0.088
 9475SOL    HW129324   4.800   3.928   0.117
 9475SOL    HW229325   4.817   3.799   0.018
 9476SOL     OW29326   4.122   3.589   5.048
 9476SOL    HW129327   4.106   3.509   4.990
 9476SOL    HW229328   4.202   3.572   5.106
 9477SOL     OW29329   1.140   3.136   0.993
 9477SOL    HW129330   1.121   3.121   0.896
 9477SOL    HW229331   1.079   3.080   1.048
 9478SOL     OW29332   4.981   2.574   1.211
 9478SOL    HW129333   5.074   2.611   1.214
 9478SOL    HW229334   4.935   2.604   1.127
 9479SOL     OW29335   3.888   6.691   0.642
 9479SOL    HW129336   3.957   6.739   0.696
 9479SOL    HW229337   3.930   6.618   0.590
 9480SOL     OW29338   5.965   5.462   0.379
 9480SOL    HW129339   5.972   5.446   0.281
 9480SOL    HW229340   6.039   5.416   0.426
 9481SOL     OW29341   5.655   2.293   2.630
 9481SOL    HW129342   5.639   2.314   2.726
 9481SOL    HW229343   5.602   2.356   2.572
 9482SOL     OW29344   6.591   0.260   2.631
 9482SOL    HW129345   6.592   0.359   2.640
 9482SOL    HW229346   6.559   0.219   2.716
 9483SOL     OW29347   1.351   1.387   0.582
 9483SOL    HW129348   1.290   1.434   0.518
 9483SOL    HW229349   1.371   1.447   0.659
 9484SOL     OW29350   2.911   0.209   4.798
 9484SOL    HW129351   2.878   0.189   4.706
 9484SOL    HW229352   2.986   0.275   4.794
 9485SOL     OW29353   6.984   1.658   0.668
 9485SOL    HW129354   0.026   1.676   0.741
 9485SOL    HW229355   0.008   1.632   0.584
 9486SOL     OW29356   4.523   6.417   1.411
 9486SOL    HW129357   4.568   6.365   1.484
 9486SOL    HW229358   4.443   6.367   1.379
 9487SOL     OW29359   3.270   4.020   4.330
 9487SOL    HW129360   3.338   4.085   4.362
 9487SOL    HW229361   3.250   3.954   4.403
 9488SOL     OW29362   2.525   0.199   0.893
 9488SOL    HW129363   2.445   0.232   0.844
 9488SOL    HW229364   2.496   0.139   0.968
 9489SOL     OW29365   4.920   4.541   1.170
 9489SOL    HW129366   4.982   4.469   1.136
 9489SOL    HW229367   4.832   4.534   1.123
 9490SOL     OW29368   0.170   6.368   3.885
 9490SOL    HW129369   0.121   6.453   3.904
 9490SOL    HW229370   0.268   6.387   3.883
 9491SOL     OW29371   6.068   5.403   4.493
 9491SOL    HW129372   6.043   5.312   4.525
 9491SOL    HW229373   6.092   5.398   4.396
 9492SOL     OW29374   3.652   3.156   5.322
 9492SOL    HW129375   3.639   3.243   5.275
 9492SOL    HW229376   3.724   3.104   5.276
 9493SOL     OW29377   3.446   5.807   4.086
 9493SOL    HW129378   3.485   5.721   4.056
 9493SOL    HW229379   3.392   5.791   4.169
 9494SOL     OW29380   5.530   3.019   2.151
 9494SOL    HW129381   5.545   3.115   2.130
 9494SOL    HW229382   5.619   2.973   2.161
 9495SOL     OW29383   0.033   1.530   2.298
 9495SOL    HW129384   0.103   1.584   2.252
 9495SOL    HW229385   0.019   1.566   2.390
 9496SOL     OW29386   4.887   2.390   1.830
 9496SOL    HW129387   4.888   2.475   1.778
 9496SOL    HW229388   4.822   2.397   1.906
 9497SOL     OW29389   5.097   6.184   5.277
 9497SOL    HW129390   5.105   6.136   5.190
 9497SOL    HW229391   5.149   6.269   5.272
 9498SOL     OW29392   6.626   4.446   5.270
 9498SOL    HW129393   6.708   4.441   5.213
 9498SOL    HW229394   6.570   4.364   5.256
 9499SOL     OW29395   0.644   5.750   5.049
 9499SOL    HW129396   0.544   5.751   5.043
 9499SOL    HW229397   0.680   5.678   4.989
 9500SOL     OW29398   3.985   6.389   0.538
 9500SOL    HW129399   4.070   6.423   0.579
 9500SOL    HW229400   3.989   6.400   0.438
 9501SOL     OW29401   1.671   1.211   4.061
 9501SOL    HW129402   1.710   1.217   4.153
 9501SOL    HW229403   1.745   1.204   3.994
 9502SOL     OW29404   6.302   3.964   4.590
 9502SOL    HW129405   6.358   4.047   4.579
 9502SOL    HW229406   6.267   3.960   4.684
 9503SOL     OW29407   6.753   2.386   0.406
 9503SOL    HW129408   6.803   2.422   0.485
 9503SOL    HW229409   6.692   2.457   0.371
 9504SOL     OW29410   6.546   3.978   1.822
 9504SOL    HW129411   6.623   3.994   1.760
 9504SOL    HW229412   6.461   3.974   1.769
 9505SOL     OW29413   5.313   4.507   5.390
 9505SOL    HW129414   5.379   4.510   5.316
 9505SOL    HW229415   5.323   4.589   5.447
 9506SOL     OW29416   1.612   2.694   0.809
 9506SOL    HW129417   1.686   2.754   0.779
 9506SOL    HW229418   1.524   2.739   0.795
 9507SOL     OW29419   6.837   0.716   1.400
 9507SOL    HW129420   6.891   0.740   1.319
 9507SOL    HW229421   6.756   0.664   1.373
 9508SOL     OW29422   5.713   2.024   2.905
 9508SOL    HW129423   5.694   1.926   2.913
 9508SOL    HW229424   5.631   2.072   2.874
 9509SOL     OW29425   0.141   0.504   3.485
 9509SOL    HW129426   0.155   0.406   3.494
 9509SOL    HW229427   0.052   0.521   3.443
 9510SOL     OW29428   1.260   3.454   3.283
 9510SOL    HW129429   1.201   3.474   3.361
 9510SOL    HW229430   1.240   3.518   3.209
 9511SOL     OW29431   1.836   1.049   1.837
 9511SOL    HW129432   1.738   1.052   1.857
 9511SOL    HW229433   1.885   1.111   1.898
 9512SOL     OW29434   6.559   2.587   1.152
 9512SOL    HW129435   6.492   2.515   1.170
 9512SOL    HW229436   6.620   2.596   1.230
 9513SOL     OW29437   2.701   4.817   6.173
 9513SOL    HW129438   2.628   4.814   6.241
 9513SOL    HW229439   2.689   4.898   6.116
 9514SOL     OW29440   2.610   4.580   6.821
 9514SOL    HW129441   2.651   4.608   6.734
 9514SOL    HW229442   2.673   4.519   6.869
 9515SOL     OW29443   2.132   5.827   2.414
 9515SOL    HW129444   2.061   5.887   2.377
 9515SOL    HW229445   2.111   5.732   2.390
 9516SOL     OW29446   5.692   4.624   0.269
 9516SOL    HW129447   5.618   4.619   0.336
 9516SOL    HW229448   5.655   4.649   0.180
 9517SOL     OW29449   1.526   3.783   1.670
 9517SOL    HW129450   1.477   3.773   1.757
 9517SOL    HW229451   1.537   3.694   1.628
 9518SOL     OW29452   2.260   1.715   0.957
 9518SOL    HW129453   2.199   1.636   0.951
 9518SOL    HW229454   2.206   1.798   0.974
 9519SOL     OW29455   2.976   3.036   5.276
 9519SOL    HW129456   2.964   2.937   5.279
 9519SOL    HW229457   3.057   3.059   5.222
 9520SOL     OW29458   2.997   0.382   3.003
 9520SOL    HW129459   2.991   0.478   3.029
 9520SOL    HW229460   3.002   0.325   3.085
 9521SOL     OW29461   5.889   5.360   2.325
 9521SOL    HW129462   5.953   5.360   2.401
 9521SOL    HW229463   5.936   5.337   2.240
 9522SOL     OW29464   3.510   5.356   0.994
 9522SOL    HW129465   3.596   5.387   0.953
 9522SOL    HW229466   3.465   5.293   0.931
 9523SOL     OW29467   3.158   5.569   4.808
 9523SOL    HW129468   3.107   5.652   4.830
 9523SOL    HW229469   3.255   5.590   4.797
 9524SOL     OW29470   3.983   2.632   1.660
 9524SOL    HW129471   4.018   2.716   1.617
 9524SOL    HW229472   3.894   2.609   1.621
 9525SOL     OW29473   2.534   2.694   6.410
 9525SOL    HW129474   2.540   2.615   6.350
 9525SOL    HW229475   2.444   2.696   6.454
 9526SOL     OW29476   5.288   5.597   1.906
 9526SOL    HW129477   5.295   5.508   1.860
 9526SOL    HW229478   5.235   5.586   1.991
 9527SOL     OW29479   0.844   0.494   1.251
 9527SOL    HW129480   0.783   0.456   1.320
 9527SOL    HW229481   0.896   0.421   1.206
 9528SOL     OW29482   0.046   0.871   0.064
 9528SOL    HW129483   0.120   0.935   0.042
 9528SOL    HW229484   0.059   0.837   0.157
 9529SOL     OW29485   0.209   2.841   5.050
 9529SOL    HW129486   0.152   2.895   5.112
 9529SOL    HW229487   0.294   2.889   5.033
 9530SOL     OW29488   1.759   3.091   3.839
 9530SOL    HW129489   1.752   3.089   3.740
 9530SOL    HW229490   1.688   3.033   3.879
 9531SOL     OW29491   3.595   5.121   3.502
 9531SOL    HW129492   3.664   5.147   3.435
 9531SOL    HW229493   3.562   5.202   3.550
 9532SOL     OW29494   0.551   5.987   2.072
 9532SOL    HW129495   0.469   6.020   2.027
 9532SOL    HW229496   0.539   5.993   2.172
 9533SOL     OW29497   0.075   0.536   5.315
 9533SOL    HW129498   0.137   0.551   5.392
 9533SOL    HW229499   0.100   0.596   5.240
 9534SOL     OW29500   5.946   2.977   5.510
 9534SOL    HW129501   5.987   2.887   5.524
 9534SOL    HW229502   5.849   2.967   5.492
 9535SOL     OW29503   2.433   1.114   6.082
 9535SOL    HW129504   2.373   1.081   6.155
 9535SOL    HW229505   2.465   1.206   6.105
 9536SOL     OW29506   2.468   4.859   5.318
 9536SOL    HW129507   2.403   4.784   5.316
 9536SOL    HW229508   2.430   4.938   5.269
 9537SOL     OW29509   2.824   0.318   2.365
 9537SOL    HW129510   2.794   0.413   2.355
 9537SOL    HW229511   2.770   0.260   2.305
 9538SOL     OW29512   6.512   1.601   4.254
 9538SOL    HW129513   6.515   1.688   4.304
 9538SOL    HW229514   6.602   1.581   4.216
 9539SOL     OW29515   2.036   4.323   6.445
 9539SOL    HW129516   2.034   4.326   6.545
 9539SOL    HW229517   2.083   4.239   6.416
 9540SOL     OW29518   4.631   4.337   5.240
 9540SOL    HW129519   4.684   4.386   5.171
 9540SOL    HW229520   4.657   4.240   5.240
 9541SOL     OW29521   2.188   2.211   5.599
 9541SOL    HW129522   2.188   2.294   5.543
 9541SOL    HW229523   2.179   2.131   5.541
 9542SOL     OW29524   4.750   3.773   5.296
 9542SOL    HW129525   4.745   3.695   5.234
 9542SOL    HW229526   4.822   3.757   5.363
 9543SOL     OW29527   4.882   0.972   4.432
 9543SOL    HW129528   4.785   0.996   4.432
 9543SOL    HW229529   4.894   0.881   4.474
 9544SOL     OW29530   5.417   0.774   1.984
 9544SOL    HW129531   5.448   0.866   2.007
 9544SOL    HW229532   5.443   0.753   1.889
 9545SOL     OW29533   6.507   5.428   2.921
 9545SOL    HW129534   6.433   5.479   2.965
 9545SOL    HW229535   6.586   5.425   2.981
 9546SOL     OW29536   2.363   3.952   6.962
 9546SOL    HW129537   2.363   3.853   6.950
 9546SOL    HW229538   2.355   3.996   6.872
 9547SOL     OW29539   2.302   6.007   4.379
 9547SOL    HW129540   2.269   6.002   4.473
 9547SOL    HW229541   2.226   6.034   4.318
 9548SOL     OW29542   6.884   5.409   5.024
 9548SOL    HW129543   6.846   5.337   4.966
 9548SOL    HW229544   6.983   5.401   5.027
 9549SOL     OW29545   3.221   4.739   1.012
 9549SOL    HW129546   3.317   4.729   0.985
 9549SOL    HW229547   3.192   4.834   0.999
 9550SOL     OW29548   6.839   1.122   6.374
 9550SOL    HW129549   6.864   1.214   6.345
 9550SOL    HW229550   6.917   1.061   6.361
 9551SOL     OW29551   0.115   6.681   4.239
 9551SOL    HW129552   0.144   6.603   4.295
 9551SOL    HW229553   0.122   6.657   4.142
 9552SOL     OW29554   1.826   6.139   2.725
 9552SOL    HW129555   1.892   6.073   2.760
 9552SOL    HW229556   1.873   6.210   2.673
 9553SOL     OW29557   5.743   4.807   6.730
 9553SOL    HW129558   5.716   4.903   6.724
 9553SOL    HW229559   5.677   4.751   6.681
 9554SOL     OW29560   3.001   0.987   1.779
 9554SOL    HW129561   2.960   0.920   1.841
 9554SOL    HW229562   2.929   1.032   1.726
 9555SOL     OW29563   6.261   2.885   0.965
 9555SOL    HW129564   6.267   2.787   0.948
 9555SOL    HW229565   6.285   2.935   0.881
 9556SOL     OW29566   2.448   1.885   1.410
 9556SOL    HW129567   2.484   1.978   1.400
 9556SOL    HW229568   2.520   1.825   1.442
 9557SOL     OW29569   6.003   0.427   2.465
 9557SOL    HW129570   5.954   0.340   2.466
 9557SOL    HW229571   6.101   0.409   2.458
 9558SOL     OW29572   6.795   5.497   3.645
 9558SOL    HW129573   6.714   5.445   3.672
 9558SOL    HW229574   6.773   5.552   3.564
 9559SOL     OW29575   6.773   3.944   2.649
 9559SOL    HW129576   6.816   3.862   2.688
 9559SOL    HW229577   6.835   3.986   2.583
 9560SOL     OW29578   2.165   1.363   2.327
 9560SOL    HW129579   2.142   1.455   2.361
 9560SOL    HW229580   2.255   1.337   2.362
 9561SOL     OW29581   3.048   6.827   0.313
 9561SOL    HW129582   3.127   6.810   0.254
 9561SOL    HW229583   3.078   6.881   0.392
 9562SOL     OW29584   3.372   5.786   4.374
 9562SOL    HW129585   3.315   5.792   4.455
 9562SOL    HW229586   3.468   5.774   4.400
 9563SOL     OW29587   6.414   6.471   6.754
 9563SOL    HW129588   6.451   6.526   6.829
 9563SOL    HW229589   6.320   6.500   6.734
 9564SOL     OW29590   2.555   0.331   6.582
 9564SOL    HW129591   2.618   0.406   6.566
 9564SOL    HW229592   2.503   0.313   6.499
 9565SOL     OW29593   4.418   6.041   5.305
 9565SOL    HW129594   4.324   6.036   5.339
 9565SOL    HW229595   4.422   6.104   5.228
 9566SOL     OW29596   3.532   4.765   6.708
 9566SOL    HW129597   3.488   4.851   6.679
 9566SOL    HW229598   3.571   4.720   6.628
 9567SOL     OW29599   6.307   5.532   6.400
 9567SOL    HW129600   6.264   5.586   6.328
 9567SOL    HW229601   6.306   5.583   6.486
 9568SOL     OW29602   4.671   3.588   6.348
 9568SOL    HW129603   4.769   3.581   6.363
 9568SOL    HW229604   4.626   3.503   6.376
 9569SOL     OW29605   6.414   0.879   0.366
 9569SOL    HW129606   6.324   0.896   0.327
 9569SOL    HW229607   6.445   0.960   0.416
 9570SOL     OW29608   0.646   1.733   1.552
 9570SOL    HW129609   0.556   1.713   1.514
 9570SOL    HW229610   0.680   1.653   1.601
 9571SOL     OW29611   3.078   3.367   0.286
 9571SOL    HW129612   3.141   3.420   0.342
 9571SOL    HW229613   2.988   3.364   0.330
 9572SOL     OW29614   1.255   4.892   0.874
 9572SOL    HW129615   1.305   4.844   0.947
 9572SOL    HW229616   1.186   4.952   0.915
 9573SOL     OW29617   0.573   0.935   6.530
 9573SOL    HW129618   0.593   1.025   6.569
 9573SOL    HW229619   0.651   0.874   6.544
 9574SOL     OW29620   3.386   3.447   5.141
 9574SOL    HW129621   3.360   3.538   5.110
 9574SOL    HW229622   3.396   3.386   5.062
 9575SOL     OW29623   6.081   1.067   0.746
 9575SOL    HW129624   6.103   1.094   0.840
 9575SOL    HW229625   6.041   1.144   0.697
 9576SOL     OW29626   3.815   0.936   3.398
 9576SOL    HW129627   3.754   0.902   3.326
 9576SOL    HW229628   3.903   0.888   3.393
 9577SOL     OW29629   0.952   0.900   2.231
 9577SOL    HW129630   1.000   0.880   2.316
 9577SOL    HW229631   0.862   0.856   2.232
 9578SOL     OW29632   5.861   2.862   2.951
 9578SOL    HW129633   5.901   2.775   2.980
 9578SOL    HW229634   5.908   2.895   2.869
 9579SOL     OW29635   0.980   6.673   2.527
 9579SOL    HW129636   1.069   6.715   2.544
 9579SOL    HW229637   0.990   6.574   2.523
 9580SOL     OW29638   5.157   3.670   6.780
 9580SOL    HW129639   5.077   3.668   6.840
 9580SOL    HW229640   5.228   3.729   6.819
 9581SOL     OW29641   2.025   4.831   6.166
 9581SOL    HW129642   1.960   4.776   6.114
 9581SOL    HW229643   1.976   4.885   6.235
 9582SOL     OW29644   4.424   4.523   4.061
 9582SOL    HW129645   4.442   4.427   4.040
 9582SOL    HW229646   4.457   4.544   4.154
 9583SOL     OW29647   1.948   3.412   1.911
 9583SOL    HW129648   1.910   3.485   1.854
 9583SOL    HW229649   2.032   3.445   1.955
 9584SOL     OW29650   6.023   5.654   0.011
 9584SOL    HW129651   5.960   5.579   7.017
 9584SOL    HW229652   6.117   5.623   7.021
 9585SOL     OW29653   5.605   0.259   2.560
 9585SOL    HW129654   5.596   0.351   2.600
 9585SOL    HW229655   5.641   0.196   2.629
 9586SOL     OW29656   5.351   3.501   3.498
 9586SOL    HW129657   5.290   3.425   3.480
 9586SOL    HW229658   5.437   3.466   3.537
 9587SOL     OW29659   6.080   0.598   1.529
 9587SOL    HW129660   6.089   0.591   1.628
 9587SOL    HW229661   6.171   0.608   1.488
 9588SOL     OW29662   0.120   0.781   1.572
 9588SOL    HW129663   0.130   0.682   1.575
 9588SOL    HW229664   0.037   0.807   1.622
 9589SOL     OW29665   2.053   6.496   6.365
 9589SOL    HW129666   1.962   6.496   6.407
 9589SOL    HW229667   2.098   6.408   6.383
 9590SOL     OW29668   0.538   3.773   2.568
 9590SOL    HW129669   0.550   3.866   2.532
 9590SOL    HW229670   0.520   3.711   2.492
 9591SOL     OW29671   2.300   6.930   0.641
 9591SOL    HW129672   2.359   6.892   0.569
 9591SOL    HW229673   2.295   6.866   0.718
 9592SOL     OW29674   4.036   5.100   3.203
 9592SOL    HW129675   4.116   5.143   3.245
 9592SOL    HW229676   4.062   5.060   3.115
 9593SOL     OW29677   5.372   2.456   4.303
 9593SOL    HW129678   5.406   2.408   4.222
 9593SOL    HW229679   5.433   2.438   4.380
 9594SOL     OW29680   0.018   6.493   3.002
 9594SOL    HW129681   7.000   6.495   3.093
 9594SOL    HW229682   0.116   6.511   3.010
 9595SOL     OW29683   2.144   5.755   4.534
 9595SOL    HW129684   2.211   5.804   4.590
 9595SOL    HW229685   2.182   5.666   4.509
 9596SOL     OW29686   0.245   5.413   5.532
 9596SOL    HW129687   0.305   5.439   5.607
 9596SOL    HW229688   0.159   5.465   5.538
 9597SOL     OW29689   6.939   4.329   2.049
 9597SOL    HW129690   6.956   4.352   1.954
 9597SOL    HW229691   6.845   4.354   2.073
 9598SOL     OW29692   0.170   4.604   5.611
 9598SOL    HW129693   0.264   4.585   5.639
 9598SOL    HW229694   0.121   4.518   5.597
 9599SOL     OW29695   3.645   6.987   5.329
 9599SOL    HW129696   3.739   6.956   5.314
 9599SOL    HW229697   3.639   0.060   5.308
 9600SOL     OW29698   1.703   0.602   5.754
 9600SOL    HW129699   1.624   0.664   5.765
 9600SOL    HW229700   1.721   0.557   5.841
 9601SOL     OW29701   0.059   4.304   6.378
 9601SOL    HW129702   0.025   4.211   6.361
 9601SOL    HW229703   0.038   4.362   6.299
 9602SOL     OW29704   6.747   4.714   6.238
 9602SOL    HW129705   6.718   4.640   6.177
 9602SOL    HW229706   6.846   4.725   6.233
 9603SOL     OW29707   2.628   6.388   4.720
 9603SOL    HW129708   2.659   6.377   4.814
 9603SOL    HW229709   2.663   6.312   4.665
 9604SOL     OW29710   5.128   1.026   0.561
 9604SOL    HW129711   5.029   1.039   0.553
 9604SOL    HW229712   5.146   0.946   0.618
 9605SOL     OW29713   1.571   4.994   5.613
 9605SOL    HW129714   1.524   5.003   5.525
 9605SOL    HW229715   1.643   4.925   5.605
 9606SOL     OW29716   1.010   6.653   3.460
 9606SOL    HW129717   1.001   6.670   3.361
 9606SOL    HW229718   1.106   6.637   3.482
 9607SOL     OW29719   1.104   1.236   1.910
 9607SOL    HW129720   1.055   1.216   1.995
 9607SOL    HW229721   1.093   1.159   1.847
 9608SOL     OW29722   6.796   7.010   2.152
 9608SOL    HW129723   6.762   6.917   2.136
 9608SOL    HW229724   6.795   0.005   2.250
 9609SOL     OW29725   1.922   4.156   4.758
 9609SOL    HW129726   1.907   4.221   4.683
 9609SOL    HW229727   1.895   4.065   4.728
 9610SOL     OW29728   1.743   2.445   5.763
 9610SOL    HW129729   1.663   2.460   5.822
 9610SOL    HW229730   1.784   2.356   5.785
 9611SOL     OW29731   6.368   0.408   0.902
 9611SOL    HW129732   6.344   0.395   0.998
 9611SOL    HW229733   6.436   0.340   0.875
 9612SOL     OW29734   0.103   3.360   0.799
 9612SOL    HW129735   0.047   3.430   0.842
 9612SOL    HW229736   0.196   3.395   0.787
 9613SOL     OW29737   5.643   6.699   4.390
 9613SOL    HW129738   5.570   6.749   4.343
 9613SOL    HW229739   5.606   6.615   4.429
 9614SOL     OW29740   3.842   3.916   2.306
 9614SOL    HW129741   3.764   3.978   2.311
 9614SOL    HW229742   3.907   3.938   2.379
 9615SOL     OW29743   2.234   5.750   2.878
 9615SOL    HW129744   2.287   5.666   2.894
 9615SOL    HW229745   2.141   5.726   2.852
 9616SOL     OW29746   3.506   2.514   1.381
 9616SOL    HW129747   3.477   2.418   1.378
 9616SOL    HW229748   3.522   2.547   1.288
 9617SOL     OW29749   1.112   3.498   3.505
 9617SOL    HW129750   1.035   3.550   3.543
 9617SOL    HW229751   1.137   3.425   3.569
 9618SOL     OW29752   3.947   6.701   6.526
 9618SOL    HW129753   3.939   6.780   6.464
 9618SOL    HW229754   3.856   6.678   6.562
 9619SOL     OW29755   1.993   5.514   0.118
 9619SOL    HW129756   1.935   5.439   0.151
 9619SOL    HW229757   1.945   5.601   0.132
 9620SOL     OW29758   4.092   0.293   6.409
 9620SOL    HW129759   3.999   0.274   6.376
 9620SOL    HW229760   4.111   0.236   6.489
 9621SOL     OW29761   0.898   0.220   2.521
 9621SOL    HW129762   0.965   0.247   2.451
 9621SOL    HW229763   0.946   0.181   2.600
 9622SOL     OW29764   6.956   1.185   6.649
 9622SOL    HW129765   6.884   1.115   6.649
 9622SOL    HW229766   6.961   1.228   6.739
 9623SOL     OW29767   4.619   5.551   6.431
 9623SOL    HW129768   4.594   5.535   6.527
 9623SOL    HW229769   4.718   5.554   6.422
 9624SOL     OW29770   5.702   5.364   5.277
 9624SOL    HW129771   5.691   5.271   5.241
 9624SOL    HW229772   5.746   5.421   5.208
 9625SOL     OW29773   5.541   4.638   6.657
 9625SOL    HW129774   5.449   4.635   6.695
 9625SOL    HW229775   5.581   4.547   6.660
 9626SOL     OW29776   1.552   4.527   4.663
 9626SOL    HW129777   1.550   4.508   4.761
 9626SOL    HW229778   1.647   4.527   4.631
 9627SOL     OW29779   1.668   4.462   5.943
 9627SOL    HW129780   1.609   4.492   5.868
 9627SOL    HW229781   1.665   4.530   6.016
 9628SOL     OW29782   5.713   4.174   0.089
 9628SOL    HW129783   5.747   4.098   0.145
 9628SOL    HW229784   5.725   4.260   0.138
 9629SOL     OW29785   6.695   6.202   3.074
 9629SOL    HW129786   6.756   6.241   3.005
 9629SOL    HW229787   6.650   6.121   3.037
 9630SOL     OW29788   5.952   6.688   5.650
 9630SOL    HW129789   6.051   6.708   5.650
 9630SOL    HW229790   5.938   6.591   5.664
 9631SOL     OW29791   4.796   1.083   1.318
 9631SOL    HW129792   4.775   1.089   1.220
 9631SOL    HW229793   4.712   1.065   1.369
 9632SOL     OW29794   2.016   5.398   1.548
 9632SOL    HW129795   1.968   5.455   1.481
 9632SOL    HW229796   1.999   5.302   1.528
 9633SOL     OW29797   3.901   3.114   2.153
 9633SOL    HW129798   3.952   3.107   2.238
 9633SOL    HW229799   3.963   3.099   2.076
 9634SOL     OW29800   5.232   4.402   2.458
 9634SOL    HW129801   5.155   4.464   2.443
 9634SOL    HW229802   5.277   4.425   2.545
 9635SOL     OW29803   0.310   3.964   4.064
 9635SOL    HW129804   0.296   4.035   4.133
 9635SOL    HW229805   0.223   3.919   4.044
 9636SOL     OW29806   4.195   1.480   5.708
 9636SOL    HW129807   4.264   1.489   5.780
 9636SOL    HW229808   4.174   1.570   5.670
 9637SOL     OW29809   2.671   2.851   1.081
 9637SOL    HW129810   2.580   2.877   1.115
 9637SOL    HW229811   2.729   2.826   1.159
 9638SOL     OW29812   7.002   4.447   6.097
 9638SOL    HW129813   6.970   4.484   6.009
 9638SOL    HW229814   0.077   4.443   6.097
 9639SOL     OW29815   4.518   2.492   1.790
 9639SOL    HW129816   4.422   2.492   1.762
 9639SOL    HW229817   4.549   2.586   1.804
 9640SOL     OW29818   4.121   1.447   1.963
 9640SOL    HW129819   4.086   1.540   1.959
 9640SOL    HW229820   4.072   1.396   2.034
 9641SOL     OW29821   5.677   5.173   2.865
 9641SOL    HW129822   5.621   5.181   2.782
 9641SOL    HW229823   5.752   5.240   2.860
 9642SOL     OW29824   1.751   0.259   4.373
 9642SOL    HW129825   1.748   0.220   4.465
 9642SOL    HW229826   1.714   0.192   4.308
 9643SOL     OW29827   5.163   4.157   4.048
 9643SOL    HW129828   5.153   4.248   4.087
 9643SOL    HW229829   5.147   4.162   3.949
 9644SOL     OW29830   2.334   6.003   5.080
 9644SOL    HW129831   2.286   6.026   5.165
 9644SOL    HW229832   2.421   6.051   5.076
 9645SOL     OW29833   1.081   4.623   5.308
 9645SOL    HW129834   1.060   4.701   5.366
 9645SOL    HW229835   1.126   4.654   5.225
 9646SOL     OW29836   3.136   6.817   4.419
 9646SOL    HW129837   3.079   6.853   4.492
 9646SOL    HW229838   3.079   6.791   4.342
 9647SOL     OW29839   6.523   6.031   2.948
 9647SOL    HW129840   6.461   5.955   2.932
 9647SOL    HW229841   6.471   6.115   2.961
 9648SOL     OW29842   5.257   2.403   1.675
 9648SOL    HW129843   5.211   2.432   1.759
 9648SOL    HW229844   5.191   2.403   1.599
 9649SOL     OW29845   2.070   3.697   6.525
 9649SOL    HW129846   2.014   3.645   6.461
 9649SOL    HW229847   2.164   3.665   6.521
 9650SOL     OW29848   6.365   4.886   3.747
 9650SOL    HW129849   6.316   4.907   3.662
 9650SOL    HW229850   6.339   4.953   3.817
 9651SOL     OW29851   3.070   1.040   0.562
 9651SOL    HW129852   3.090   0.964   0.624
 9651SOL    HW229853   3.151   1.099   0.554
 9652SOL     OW29854   0.627   4.354   1.205
 9652SOL    HW129855   0.694   4.411   1.254
 9652SOL    HW229856   0.576   4.298   1.271
 9653SOL     OW29857   4.268   4.588   5.773
 9653SOL    HW129858   4.258   4.497   5.812
 9653SOL    HW229859   4.214   4.595   5.690
 9654SOL     OW29860   3.464   2.884   2.817
 9654SOL    HW129861   3.377   2.915   2.780
 9654SOL    HW229862   3.452   2.857   2.913
 9655SOL     OW29863   6.907   1.440   0.844
 9655SOL    HW129864   6.898   1.515   0.778
 9655SOL    HW229865   6.993   1.449   0.893
 9656SOL     OW29866   4.803   3.018   0.502
 9656SOL    HW129867   4.812   3.074   0.420
 9656SOL    HW229868   4.720   3.042   0.552
 9657SOL     OW29869   5.103   4.204   3.778
 9657SOL    HW129870   5.143   4.115   3.755
 9657SOL    HW229871   5.173   4.275   3.768
 9658SOL     OW29872   5.525   2.055   2.581
 9658SOL    HW129873   5.579   2.122   2.631
 9658SOL    HW229874   5.439   2.038   2.630
 9659SOL     OW29875   2.942   1.594   0.552
 9659SOL    HW129876   2.846   1.614   0.533
 9659SOL    HW229877   2.991   1.583   0.466
 9660SOL     OW29878   0.640   6.229   0.894
 9660SOL    HW129879   0.590   6.227   0.981
 9660SOL    HW229880   0.732   6.193   0.908
 9661SOL     OW29881   4.259   5.786   1.196
 9661SOL    HW129882   4.230   5.824   1.108
 9661SOL    HW229883   4.197   5.711   1.222
 9662SOL     OW29884   5.342   4.349   6.881
 9662SOL    HW129885   5.285   4.279   6.924
 9662SOL    HW229886   5.412   4.380   6.946
 9663SOL     OW29887   0.427   4.839   2.690
 9663SOL    HW129888   0.339   4.825   2.643
 9663SOL    HW229889   0.427   4.790   2.777
 9664SOL     OW29890   5.242   3.980   3.718
 9664SOL    HW129891   5.293   3.939   3.793
 9664SOL    HW229892   5.295   3.974   3.634
 9665SOL     OW29893   6.367   6.326   5.242
 9665SOL    HW129894   6.435   6.292   5.308
 9665SOL    HW229895   6.312   6.250   5.209
 9666SOL     OW29896   6.665   4.599   1.288
 9666SOL    HW129897   6.691   4.596   1.385
 9666SOL    HW229898   6.628   4.510   1.261
 9667SOL     OW29899   4.754   4.478   0.950
 9667SOL    HW129900   4.737   4.380   0.957
 9667SOL    HW229901   4.687   4.528   1.005
 9668SOL     OW29902   1.261   0.381   5.963
 9668SOL    HW129903   1.332   0.329   5.916
 9668SOL    HW229904   1.300   0.425   6.044
 9669SOL     OW29905   2.903   0.211   0.669
 9669SOL    HW129906   2.937   0.121   0.700
 9669SOL    HW229907   2.825   0.238   0.724
 9670SOL     OW29908   0.450   6.090   5.082
 9670SOL    HW129909   0.426   5.993   5.076
 9670SOL    HW229910   0.536   6.107   5.035
 9671SOL     OW29911   0.685   4.777   0.551
 9671SOL    HW129912   0.643   4.687   0.544
 9671SOL    HW229913   0.645   4.838   0.482
 9672SOL     OW29914   1.184   4.779   2.694
 9672SOL    HW129915   1.117   4.777   2.768
 9672SOL    HW229916   1.224   4.871   2.688
 9673SOL     OW29917   3.593   4.273   1.560
 9673SOL    HW129918   3.515   4.288   1.620
 9673SOL    HW229919   3.623   4.360   1.520
 9674SOL     OW29920   3.775   6.404   2.739
 9674SOL    HW129921   3.683   6.373   2.715
 9674SOL    HW229922   3.843   6.353   2.686
 9675SOL     OW29923   5.425   3.638   0.308
 9675SOL    HW129924   5.472   3.707   0.254
 9675SOL    HW229925   5.405   3.558   0.250
 9676SOL     OW29926   1.444   3.102   6.664
 9676SOL    HW129927   1.532   3.112   6.710
 9676SOL    HW229928   1.399   3.018   6.697
 9677SOL     OW29929   6.541   5.282   6.720
 9677SOL    HW129930   6.556   5.376   6.690
 9677SOL    HW229931   6.450   5.252   6.691
 9678SOL     OW29932   3.279   3.641   4.545
 9678SOL    HW129933   3.197   3.605   4.590
 9678SOL    HW229934   3.274   3.741   4.544
 9679SOL     OW29935   2.799   1.754   4.282
 9679SOL    HW129936   2.880   1.754   4.341
 9679SOL    HW229937   2.815   1.814   4.203
 9680SOL     OW29938   5.234   6.803   4.593
 9680SOL    HW129939   5.293   6.873   4.554
 9680SOL    HW229940   5.145   6.843   4.617
 9681SOL     OW29941   2.856   1.384   1.737
 9681SOL    HW129942   2.828   1.288   1.733
 9681SOL    HW229943   2.827   1.424   1.824
 9682SOL     OW29944   5.074   4.525   3.616
 9682SOL    HW129945   5.040   4.618   3.629
 9682SOL    HW229946   5.006   4.471   3.565
 9683SOL     OW29947   2.226   6.549   0.597
 9683SOL    HW129948   2.204   6.481   0.527
 9683SOL    HW229949   2.148   6.561   0.659
 9684SOL     OW29950   0.796   3.678   4.642
 9684SOL    HW129951   0.764   3.695   4.735
 9684SOL    HW229952   0.837   3.587   4.637
 9685SOL     OW29953   4.391   3.701   0.609
 9685SOL    HW129954   4.410   3.722   0.705
 9685SOL    HW229955   4.294   3.680   0.597
 9686SOL     OW29956   0.554   2.854   0.167
 9686SOL    HW129957   0.641   2.857   0.119
 9686SOL    HW229958   0.539   2.761   0.203
 9687SOL     OW29959   6.473   0.089   2.156
 9687SOL    HW129960   6.483   0.022   2.230
 9687SOL    HW229961   6.381   0.128   2.159
 9688SOL     OW29962   0.838   3.624   0.958
 9688SOL    HW129963   0.749   3.631   0.914
 9688SOL    HW229964   0.835   3.668   1.047
 9689SOL     OW29965   0.839   4.583   6.165
 9689SOL    HW129966   0.904   4.604   6.093
 9689SOL    HW229967   0.866   4.629   6.250
 9690SOL     OW29968   4.319   5.735   5.673
 9690SOL    HW129969   4.409   5.732   5.716
 9690SOL    HW229970   4.274   5.822   5.696
 9691SOL     OW29971   3.461   3.876   2.512
 9691SOL    HW129972   3.504   3.818   2.581
 9691SOL    HW229973   3.361   3.867   2.519
 9692SOL     OW29974   5.032   5.568   0.609
 9692SOL    HW129975   5.067   5.479   0.582
 9692SOL    HW229976   5.081   5.640   0.560
 9693SOL     OW29977   5.683   4.397   4.010
 9693SOL    HW129978   5.750   4.399   3.937
 9693SOL    HW229979   5.672   4.488   4.049
 9694SOL     OW29980   3.823   0.708   1.194
 9694SOL    HW129981   3.786   0.793   1.157
 9694SOL    HW229982   3.826   0.713   1.293
 9695SOL     OW29983   0.429   3.410   2.682
 9695SOL    HW129984   0.416   3.317   2.715
 9695SOL    HW229985   0.352   3.435   2.622
 9696SOL     OW29986   5.995   1.819   2.287
 9696SOL    HW129987   6.053   1.846   2.210
 9696SOL    HW229988   6.050   1.813   2.370
 9697SOL     OW29989   0.148   6.803   0.897
 9697SOL    HW129990   0.236   6.849   0.887
 9697SOL    HW229991   0.120   6.765   0.809
 9698SOL     OW29992   5.835   3.122   6.295
 9698SOL    HW129993   5.833   3.091   6.200
 9698SOL    HW229994   5.920   3.093   6.338
 9699SOL     OW29995   1.080   6.121   0.316
 9699SOL    HW129996   1.058   6.082   0.406
 9699SOL    HW229997   1.089   6.047   0.250
 9700SOL     OW29998   6.333   5.446   3.549
 9700SOL    HW129999   6.417   5.391   3.543
 9700SOL    HW230000   6.285   5.424   3.634
 9701SOL     OW30001   4.146   3.473   5.950
 9701SOL    HW130002   4.094   3.423   6.020
 9701SOL    HW230003   4.107   3.564   5.938
 9702SOL     OW30004   4.133   2.922   0.394
 9702SOL    HW130005   4.068   2.935   0.469
 9702SOL    HW230006   4.111   2.838   0.345
 9703SOL     OW30007   5.602   3.751   4.573
 9703SOL    HW130008   5.504   3.744   4.590
 9703SOL    HW230009   5.642   3.660   4.566
 9704SOL     OW30010   3.274   5.219   2.436
 9704SOL    HW130011   3.290   5.149   2.506
 9704SOL    HW230012   3.266   5.309   2.480
 9705SOL     OW30013   6.226   4.403   5.639
 9705SOL    HW130014   6.227   4.489   5.588
 9705SOL    HW230015   6.253   4.328   5.578
 9706SOL     OW30016   2.120   2.248   1.364
 9706SOL    HW130017   2.169   2.165   1.387
 9706SOL    HW230018   2.103   2.251   1.265
 9707SOL     OW30019   5.502   5.246   2.236
 9707SOL    HW130020   5.443   5.172   2.269
 9707SOL    HW230021   5.503   5.320   2.302
 9708SOL     OW30022   1.770   1.804   2.187
 9708SOL    HW130023   1.817   1.846   2.109
 9708SOL    HW230024   1.771   1.704   2.177
 9709SOL     OW30025   4.793   4.556   2.193
 9709SOL    HW130026   4.704   4.513   2.208
 9709SOL    HW230027   4.810   4.564   2.095
 9710SOL     OW30028   6.474   0.342   0.599
 9710SOL    HW130029   6.453   0.440   0.599
 9710SOL    HW230030   6.421   0.297   0.527
 9711SOL     OW30031   3.444   5.702   6.371
 9711SOL    HW130032   3.384   5.748   6.305
 9711SOL    HW230033   3.405   5.613   6.395
 9712SOL     OW30034   6.363   3.282   0.400
 9712SOL    HW130035   6.419   3.302   0.481
 9712SOL    HW230036   6.398   3.335   0.322
 9713SOL     OW30037   2.629   5.789   3.193
 9713SOL    HW130038   2.667   5.808   3.284
 9713SOL    HW230039   2.624   5.873   3.140
 9714SOL     OW30040   3.994   6.326   5.594
 9714SOL    HW130041   4.014   6.331   5.496
 9714SOL    HW230042   3.904   6.285   5.608
 9715SOL     OW30043   6.182   5.015   6.794
 9715SOL    HW130044   6.162   5.112   6.780
 9715SOL    HW230045   6.137   4.961   6.723
 9716SOL     OW30046   3.845   4.144   6.779
 9716SOL    HW130047   3.900   4.221   6.748
 9716SOL    HW230048   3.903   4.065   6.796
 9717SOL     OW30049   4.707   6.217   0.420
 9717SOL    HW130050   4.631   6.205   0.484
 9717SOL    HW230051   4.672   6.223   0.327
 9718SOL     OW30052   3.859   2.927   0.533
 9718SOL    HW130053   3.824   2.909   0.441
 9718SOL    HW230054   3.806   2.999   0.576
 9719SOL     OW30055   5.323   6.648   5.376
 9719SOL    HW130056   5.296   6.672   5.469
 9719SOL    HW230057   5.319   6.730   5.318
 9720SOL     OW30058   0.893   3.584   2.574
 9720SOL    HW130059   0.872   3.561   2.479
 9720SOL    HW230060   0.808   3.587   2.627
 9721SOL     OW30061   0.539   1.700   0.047
 9721SOL    HW130062   0.550   1.777   7.009
 9721SOL    HW230063   0.506   1.620   7.021
 9722SOL     OW30064   3.472   1.356   5.233
 9722SOL    HW130065   3.509   1.400   5.152
 9722SOL    HW230066   3.380   1.322   5.213
 9723SOL     OW30067   5.586   5.286   4.035
 9723SOL    HW130068   5.621   5.375   4.005
 9723SOL    HW230069   5.661   5.220   4.038
 9724SOL     OW30070   2.211   4.727   6.863
 9724SOL    HW130071   2.236   4.633   6.841
 9724SOL    HW230072   2.166   4.769   6.784
 9725SOL     OW30073   4.671   6.177   5.485
 9725SOL    HW130074   4.699   6.089   5.523
 9725SOL    HW230075   4.684   6.177   5.386
 9726SOL     OW30076   4.443   1.641   4.482
 9726SOL    HW130077   4.511   1.714   4.489
 9726SOL    HW230078   4.354   1.675   4.514
 9727SOL     OW30079   0.805   2.614   0.410
 9727SOL    HW130080   0.753   2.546   0.359
 9727SOL    HW230081   0.743   2.666   0.470
 9728SOL     OW30082   6.983   2.035   5.990
 9728SOL    HW130083   0.001   2.120   5.960
 9728SOL    HW230084   6.972   2.036   6.089
 9729SOL     OW30085   1.331   4.041   4.178
 9729SOL    HW130086   1.406   4.028   4.114
 9729SOL    HW230087   1.276   3.958   4.183
 9730SOL     OW30088   0.879   4.375   2.851
 9730SOL    HW130089   0.862   4.276   2.848
 9730SOL    HW230090   0.976   4.392   2.864
 9731SOL     OW30091   4.801   5.563   1.827
 9731SOL    HW130092   4.812   5.464   1.834
 9731SOL    HW230093   4.704   5.587   1.841
 9732SOL     OW30094   6.781   3.384   1.725
 9732SOL    HW130095   6.777   3.387   1.825
 9732SOL    HW230096   6.794   3.477   1.690
 9733SOL     OW30097   5.680   5.972   0.907
 9733SOL    HW130098   5.675   5.913   0.988
 9733SOL    HW230099   5.687   6.067   0.936
 9734SOL     OW30100   6.572   0.189   0.301
 9734SOL    HW130101   6.490   0.191   0.357
 9734SOL    HW230102   6.617   0.278   0.304
 9735SOL     OW30103   1.401   2.626   3.447
 9735SOL    HW130104   1.474   2.669   3.500
 9735SOL    HW230105   1.440   2.551   3.393
 9736SOL     OW30106   5.341   1.790   5.885
 9736SOL    HW130107   5.319   1.764   5.979
 9736SOL    HW230108   5.274   1.856   5.851
 9737SOL     OW30109   5.579   2.162   3.262
 9737SOL    HW130110   5.676   2.185   3.260
 9737SOL    HW230111   5.525   2.243   3.239
 9738SOL     OW30112   1.537   6.803   0.563
 9738SOL    HW130113   1.585   6.731   0.613
 9738SOL    HW230114   1.442   6.807   0.593
 9739SOL     OW30115   4.950   6.172   0.302
 9739SOL    HW130116   4.941   6.190   0.204
 9739SOL    HW230117   4.862   6.188   0.347
 9740SOL     OW30118   5.747   1.311   2.902
 9740SOL    HW130119   5.779   1.271   2.816
 9740SOL    HW230120   5.692   1.245   2.951
 9741SOL     OW30121   2.445   0.537   3.924
 9741SOL    HW130122   2.459   0.565   3.829
 9741SOL    HW230123   2.447   0.617   3.983
 9742SOL     OW30124   3.981   1.123   0.591
 9742SOL    HW130125   4.011   1.028   0.598
 9742SOL    HW230126   3.883   1.125   0.570
 9743SOL     OW30127   6.970   4.442   3.347
 9743SOL    HW130128   6.977   4.376   3.273
 9743SOL    HW230129   6.928   4.526   3.312
 9744SOL     OW30130   2.672   6.706   3.165
 9744SOL    HW130131   2.607   6.777   3.191
 9744SOL    HW230132   2.627   6.617   3.166
 9745SOL     OW30133   5.296   2.916   6.508
 9745SOL    HW130134   5.314   2.984   6.437
 9745SOL    HW230135   5.368   2.920   6.577
 9746SOL     OW30136   5.739   6.351   6.394
 9746SOL    HW130137   5.688   6.411   6.456
 9746SOL    HW230138   5.736   6.388   6.301
 9747SOL     OW30139   3.001   2.320   1.663
 9747SOL    HW130140   3.101   2.315   1.666
 9747SOL    HW230141   2.969   2.378   1.739
 9748SOL     OW30142   0.362   6.633   2.907
 9748SOL    HW130143   0.357   6.665   2.813
 9748SOL    HW230144   0.406   6.544   2.910
 9749SOL     OW30145   0.962   1.431   2.743
 9749SOL    HW130146   1.015   1.508   2.779
 9749SOL    HW230147   1.023   1.352   2.731
 9750SOL     OW30148   6.378   5.943   3.822
 9750SOL    HW130149   6.467   5.897   3.828
 9750SOL    HW230150   6.305   5.876   3.838
 9751SOL     OW30151   1.633   0.147   0.651
 9751SOL    HW130152   1.723   0.134   0.693
 9751SOL    HW230153   1.562   0.113   0.712
 9752SOL     OW30154   3.642   1.932   6.119
 9752SOL    HW130155   3.695   1.868   6.174
 9752SOL    HW230156   3.545   1.906   6.120
 9753SOL     OW30157   1.378   5.967   6.598
 9753SOL    HW130158   1.367   5.959   6.499
 9753SOL    HW230159   1.289   5.975   6.641
 9754SOL     OW30160   2.836   0.049   0.952
 9754SOL    HW130161   2.933   0.057   0.976
 9754SOL    HW230162   2.803   0.137   0.916
 9755SOL     OW30163   3.553   3.885   4.857
 9755SOL    HW130164   3.511   3.803   4.819
 9755SOL    HW230165   3.559   3.877   4.957
 9756SOL     OW30166   6.261   2.023   6.358
 9756SOL    HW130167   6.280   2.104   6.302
 9756SOL    HW230168   6.235   2.051   6.450
 9757SOL     OW30169   5.916   4.229   4.870
 9757SOL    HW130170   5.853   4.158   4.838
 9757SOL    HW230171   5.958   4.274   4.792
 9758SOL     OW30172   1.780   1.201   0.412
 9758SOL    HW130173   1.836   1.262   0.468
 9758SOL    HW230174   1.687   1.238   0.406
 9759SOL     OW30175   1.003   1.766   0.503
 9759SOL    HW130176   1.004   1.758   0.603
 9759SOL    HW230177   0.914   1.736   0.469
 9760SOL     OW30178   4.882   3.411   6.436
 9760SOL    HW130179   4.968   3.441   6.476
 9760SOL    HW230180   4.900   3.343   6.364
 9761SOL     OW30181   1.447   2.488   2.746
 9761SOL    HW130182   1.365   2.494   2.802
 9761SOL    HW230183   1.421   2.491   2.649
 9762SOL     OW30184   3.199   1.465   4.585
 9762SOL    HW130185   3.230   1.478   4.679
 9762SOL    HW230186   3.277   1.469   4.523
 9763SOL     OW30187   5.844   0.923   3.095
 9763SOL    HW130188   5.938   0.938   3.127
 9763SOL    HW230189   5.803   1.011   3.071
 9764SOL     OW30190   6.609   2.316   2.229
 9764SOL    HW130191   6.532   2.263   2.266
 9764SOL    HW230192   6.695   2.271   2.252
 9765SOL     OW30193   0.027   0.157   2.923
 9765SOL    HW130194   0.082   0.241   2.914
 9765SOL    HW230195   0.069   0.084   2.869
 9766SOL     OW30196   2.122   6.900   2.746
 9766SOL    HW130197   2.087   6.829   2.684
 9766SOL    HW230198   2.217   6.921   2.723
 9767SOL     OW30199   2.480   2.732   5.230
 9767SOL    HW130200   2.443   2.689   5.147
 9767SOL    HW230201   2.502   2.828   5.211
 9768SOL     OW30202   4.315   1.456   1.299
 9768SOL    HW130203   4.255   1.536   1.299
 9768SOL    HW230204   4.403   1.480   1.340
 9769SOL     OW30205   3.828   0.954   4.518
 9769SOL    HW130206   3.766   0.925   4.591
 9769SOL    HW230207   3.831   0.882   4.448
 9770SOL     OW30208   4.003   1.522   5.390
 9770SOL    HW130209   3.940   1.539   5.314
 9770SOL    HW230210   3.993   1.594   5.459
 9771SOL     OW30211   2.253   6.110   1.024
 9771SOL    HW130212   2.297   6.027   0.991
 9771SOL    HW230213   2.244   6.175   0.949
 9772SOL     OW30214   2.032   6.258   1.700
 9772SOL    HW130215   1.990   6.205   1.774
 9772SOL    HW230216   1.964   6.272   1.628
 9773SOL     OW30217   5.446   5.702   3.211
 9773SOL    HW130218   5.449   5.633   3.139
 9773SOL    HW230219   5.539   5.733   3.231
 9774SOL     OW30220   0.488   5.068   2.977
 9774SOL    HW130221   0.552   5.139   3.005
 9774SOL    HW230222   0.398   5.087   3.016
 9775SOL     OW30223   2.869   0.089   3.873
 9775SOL    HW130224   2.835   0.106   3.965
 9775SOL    HW230225   2.795   0.104   3.807
 9776SOL     OW30226   1.517   4.184   6.052
 9776SOL    HW130227   1.533   4.172   5.954
 9776SOL    HW230228   1.472   4.272   6.068
 9777SOL     OW30229   5.380   6.048   0.724
 9777SOL    HW130230   5.312   6.052   0.796
 9777SOL    HW230231   5.418   5.955   0.718
 9778SOL     OW30232   6.992   1.657   4.652
 9778SOL    HW130233   7.007   1.612   4.564
 9778SOL    HW230234   6.996   1.589   4.725
 9779SOL     OW30235   0.065   2.301   3.680
 9779SOL    HW130236   7.011   2.298   3.742
 9779SOL    HW230237   0.125   2.223   3.699
 9780SOL     OW30238   2.135   1.935   0.994
 9780SOL    HW130239   2.144   1.923   1.093
 9780SOL    HW230240   2.110   2.030   0.974
 9781SOL     OW30241   2.118   3.209   4.646
 9781SOL    HW130242   2.030   3.161   4.657
 9781SOL    HW230243   2.101   3.304   4.621
 9782SOL     OW30244   0.761   1.574   0.384
 9782SOL    HW130245   0.797   1.482   0.403
 9782SOL    HW230246   0.667   1.566   0.351
 9783SOL     OW30247   4.235   2.286   3.210
 9783SOL    HW130248   4.195   2.308   3.299
 9783SOL    HW230249   4.242   2.187   3.200
 9784SOL     OW30250   3.872   0.679   6.030
 9784SOL    HW130251   3.950   0.631   6.072
 9784SOL    HW230252   3.838   0.748   6.094
 9785SOL     OW30253   6.229   2.466   5.307
 9785SOL    HW130254   6.136   2.477   5.271
 9785SOL    HW230255   6.246   2.369   5.326
 9786SOL     OW30256   2.728   3.456   0.612
 9786SOL    HW130257   2.654   3.393   0.635
 9786SOL    HW230258   2.761   3.436   0.520
 9787SOL     OW30259   2.903   3.570   3.000
 9787SOL    HW130260   2.913   3.528   3.090
 9787SOL    HW230261   2.973   3.535   2.938
 9788SOL     OW30262   0.568   0.273   1.801
 9788SOL    HW130263   0.586   0.183   1.841
 9788SOL    HW230264   0.492   0.316   1.849
 9789SOL     OW30265   2.021   6.267   0.014
 9789SOL    HW130266   2.117   6.257   7.011
 9789SOL    HW230267   2.000   6.364   0.025
 9790SOL     OW30268   6.606   4.509   6.084
 9790SOL    HW130269   6.528   4.571   6.071
 9790SOL    HW230270   6.615   4.450   6.004
 9791SOL     OW30271   0.487   0.558   7.009
 9791SOL    HW130272   0.570   0.609   0.007
 9791SOL    HW230273   0.421   0.568   0.059
 9792SOL     OW30274   3.367   5.208   0.809
 9792SOL    HW130275   3.297   5.179   0.744
 9792SOL    HW230276   3.435   5.135   0.819
 9793SOL     OW30277   4.258   0.101   2.573
 9793SOL    HW130278   4.330   0.032   2.565
 9793SOL    HW230279   4.299   0.190   2.591
 9794SOL     OW30280   6.242   4.614   5.447
 9794SOL    HW130281   6.205   4.700   5.481
 9794SOL    HW230282   6.336   4.628   5.414
 9795SOL     OW30283   1.301   3.228   4.227
 9795SOL    HW130284   1.394   3.242   4.193
 9795SOL    HW230285   1.286   3.285   4.308
 9796SOL     OW30286   3.902   3.844   2.933
 9796SOL    HW130287   3.900   3.846   2.833
 9796SOL    HW230288   3.891   3.750   2.965
 9797SOL     OW30289   1.856   5.250   6.922
 9797SOL    HW130290   1.955   5.239   6.928
 9797SOL    HW230291   1.830   5.342   6.951
 9798SOL     OW30292   2.369   0.750   2.198
 9798SOL    HW130293   2.304   0.825   2.187
 9798SOL    HW230294   2.421   0.738   2.114
 9799SOL     OW30295   3.225   3.891   5.817
 9799SOL    HW130296   3.320   3.886   5.849
 9799SOL    HW230297   3.201   3.986   5.799
 9800SOL     OW30298   5.618   4.611   4.172
 9800SOL    HW130299   5.535   4.660   4.198
 9800SOL    HW230300   5.638   4.542   4.241
 9801SOL     OW30301   5.022   4.654   0.407
 9801SOL    HW130302   4.974   4.611   0.331
 9801SOL    HW230303   5.053   4.584   0.471
 9802SOL     OW30304   4.711   5.336   0.320
 9802SOL    HW130305   4.794   5.365   0.273
 9802SOL    HW230306   4.711   5.237   0.329
 9803SOL     OW30307   1.937   3.468   6.385
 9803SOL    HW130308   1.994   3.438   6.308
 9803SOL    HW230309   1.868   3.398   6.405
 9804SOL     OW30310   0.301   6.001   2.901
 9804SOL    HW130311   0.247   5.969   2.979
 9804SOL    HW230312   0.316   5.925   2.838
 9805SOL     OW30313   0.510   6.591   3.551
 9805SOL    HW130314   0.444   6.536   3.499
 9805SOL    HW230315   0.584   6.533   3.583
 9806SOL     OW30316   1.412   1.428   6.854
 9806SOL    HW130317   1.473   1.383   6.789
 9806SOL    HW230318   1.457   1.435   6.943
 9807SOL     OW30319   3.170   3.606   1.561
 9807SOL    HW130320   3.206   3.594   1.468
 9807SOL    HW230321   3.084   3.556   1.570
 9808SOL     OW30322   3.645   5.745   4.363
 9808SOL    HW130323   3.660   5.824   4.304
 9808SOL    HW230324   3.628   5.664   4.306
 9809SOL     OW30325   0.679   3.793   0.448
 9809SOL    HW130326   0.664   3.753   0.358
 9809SOL    HW230327   0.656   3.890   0.446
 9810SOL     OW30328   3.298   2.184   4.614
 9810SOL    HW130329   3.233   2.238   4.667
 9810SOL    HW230330   3.261   2.167   4.523
 9811SOL     OW30331   5.944   4.826   3.695
 9811SOL    HW130332   6.008   4.751   3.708
 9811SOL    HW230333   5.852   4.796   3.721
 9812SOL     OW30334   3.262   1.764   5.397
 9812SOL    HW130335   3.340   1.713   5.362
 9812SOL    HW230336   3.217   1.811   5.321
 9813SOL     OW30337   5.319   1.919   0.913
 9813SOL    HW130338   5.271   1.978   0.848
 9813SOL    HW230339   5.283   1.937   1.005
 9814SOL     OW30340   6.278   1.288   6.929
 9814SOL    HW130341   6.338   1.366   6.914
 9814SOL    HW230342   6.228   1.268   6.845
 9815SOL     OW30343   4.429   2.504   4.128
 9815SOL    HW130344   4.365   2.445   4.177
 9815SOL    HW230345   4.395   2.520   4.035
 9816SOL     OW30346   0.533   1.362   6.233
 9816SOL    HW130347   0.552   1.265   6.249
 9816SOL    HW230348   0.473   1.372   6.153
 9817SOL     OW30349   1.371   0.420   3.585
 9817SOL    HW130350   1.316   0.346   3.547
 9817SOL    HW230351   1.346   0.435   3.681
 9818SOL     OW30352   6.420   2.028   4.546
 9818SOL    HW130353   6.504   2.043   4.597
 9818SOL    HW230354   6.360   2.107   4.556
 9819SOL     OW30355   4.872   3.004   3.619
 9819SOL    HW130356   4.865   3.080   3.683
 9819SOL    HW230357   4.795   2.942   3.631
 9820SOL     OW30358   4.076   3.205   0.054
 9820SOL    HW130359   4.115   3.143   7.010
 9820SOL    HW230360   4.039   3.286   0.008
 9821SOL     OW30361   6.100   1.306   6.663
 9821SOL    HW130362   6.097   1.405   6.676
 9821SOL    HW230363   6.042   1.262   6.732
 9822SOL     OW30364   1.705   7.014   3.442
 9822SOL    HW130365   1.654   0.074   3.429
 9822SOL    HW230366   1.748   7.014   3.532
 9823SOL     OW30367   3.579   6.946   0.903
 9823SOL    HW130368   3.505   6.964   0.968
 9823SOL    HW230369   3.667   6.950   0.951
 9824SOL     OW30370   1.811   4.705   5.062
 9824SOL    HW130371   1.830   4.793   5.105
 9824SOL    HW230372   1.803   4.634   5.132
 9825SOL     OW30373   3.833   5.353   5.813
 9825SOL    HW130374   3.770   5.319   5.883
 9825SOL    HW230375   3.799   5.328   5.723
 9826SOL     OW30376   5.092   5.162   6.187
 9826SOL    HW130377   5.049   5.083   6.231
 9826SOL    HW230378   5.188   5.167   6.214
 9827SOL     OW30379   2.168   3.275   4.007
 9827SOL    HW130380   2.118   3.352   3.968
 9827SOL    HW230381   2.149   3.192   3.954
 9828SOL     OW30382   2.330   3.100   6.499
 9828SOL    HW130383   2.422   3.126   6.528
 9828SOL    HW230384   2.335   3.052   6.412
 9829SOL     OW30385   2.737   6.148   0.559
 9829SOL    HW130386   2.821   6.201   0.569
 9829SOL    HW230387   2.658   6.210   0.568
 9830SOL     OW30388   5.479   2.275   1.613
 9830SOL    HW130389   5.386   2.311   1.620
 9830SOL    HW230390   5.479   2.192   1.557
 9831SOL     OW30391   1.724   6.021   0.901
 9831SOL    HW130392   1.820   5.993   0.907
 9831SOL    HW230393   1.703   6.049   0.807
 9832SOL     OW30394   5.355   5.646   2.639
 9832SOL    HW130395   5.373   5.696   2.723
 9832SOL    HW230396   5.359   5.548   2.657
 9833SOL     OW30397   3.756   2.912   4.825
 9833SOL    HW130398   3.823   2.837   4.827
 9833SOL    HW230399   3.695   2.904   4.904
 9834SOL     OW30400   3.262   4.730   5.533
 9834SOL    HW130401   3.200   4.728   5.455
 9834SOL    HW230402   3.345   4.680   5.511
 9835SOL     OW30403   3.455   2.668   5.790
 9835SOL    HW130404   3.505   2.594   5.745
 9835SOL    HW230405   3.459   2.656   5.889
 9836SOL     OW30406   6.059   4.582   3.645
 9836SOL    HW130407   6.011   4.498   3.619
 9836SOL    HW230408   6.129   4.561   3.713
 9837SOL     OW30409   3.246   6.999   2.741
 9837SOL    HW130410   3.310   0.051   2.752
 9837SOL    HW230411   3.167   7.014   2.801
 9838SOL     OW30412   0.548   6.731   5.703
 9838SOL    HW130413   0.570   6.815   5.752
 9838SOL    HW230414   0.449   6.717   5.704
 9839SOL     OW30415   5.649   1.122   3.077
 9839SOL    HW130416   5.651   1.150   3.173
 9839SOL    HW230417   5.565   1.072   3.059
 9840SOL     OW30418   0.720   1.320   1.475
 9840SOL    HW130419   0.749   1.383   1.547
 9840SOL    HW230420   0.798   1.299   1.415
 9841SOL     OW30421   1.645   3.600   4.738
 9841SOL    HW130422   1.708   3.540   4.688
 9841SOL    HW230423   1.559   3.608   4.688
 9842SOL     OW30424   3.983   3.565   2.690
 9842SOL    HW130425   4.079   3.545   2.714
 9842SOL    HW230426   3.928   3.568   2.774
 9843SOL     OW30427   5.899   0.993   1.267
 9843SOL    HW130428   5.983   0.941   1.253
 9843SOL    HW230429   5.923   1.087   1.294
 9844SOL     OW30430   5.742   0.727   2.215
 9844SOL    HW130431   5.835   0.710   2.248
 9844SOL    HW230432   5.708   0.814   2.251
 9845SOL     OW30433   3.181   1.198   3.305
 9845SOL    HW130434   3.108   1.150   3.355
 9845SOL    HW230435   3.211   1.141   3.228
 9846SOL     OW30436   4.204   3.547   1.538
 9846SOL    HW130437   4.210   3.471   1.603
 9846SOL    HW230438   4.151   3.621   1.577
 9847SOL     OW30439   3.250   3.065   4.781
 9847SOL    HW130440   3.210   3.030   4.697
 9847SOL    HW230441   3.318   3.001   4.815
 9848SOL     OW30442   3.401   2.727   6.178
 9848SOL    HW130443   3.360   2.800   6.124
 9848SOL    HW230444   3.486   2.697   6.134
 9849SOL     OW30445   6.799   0.358   0.332
 9849SOL    HW130446   6.853   0.347   0.415
 9849SOL    HW230447   6.802   0.453   0.302
 9850SOL     OW30448   6.064   6.594   3.296
 9850SOL    HW130449   6.001   6.610   3.372
 9850SOL    HW230450   6.114   6.509   3.312
 9851SOL     OW30451   4.556   1.962   5.567
 9851SOL    HW130452   4.533   1.989   5.474
 9851SOL    HW230453   4.506   1.879   5.591
 9852SOL     OW30454   4.258   2.318   2.574
 9852SOL    HW130455   4.305   2.278   2.495
 9852SOL    HW230456   4.160   2.303   2.566
 9853SOL     OW30457   4.919   4.726   4.121
 9853SOL    HW130458   4.881   4.808   4.162
 9853SOL    HW230459   4.965   4.750   4.035
 9854SOL     OW30460   0.842   5.487   4.673
 9854SOL    HW130461   0.785   5.407   4.657
 9854SOL    HW230462   0.888   5.513   4.588
 9855SOL     OW30463   2.191   3.937   1.455
 9855SOL    HW130464   2.269   3.918   1.395
 9855SOL    HW230465   2.114   3.968   1.399
 9856SOL     OW30466   5.043   4.020   5.954
 9856SOL    HW130467   5.125   3.996   6.005
 9856SOL    HW230468   5.008   4.108   5.988
 9857SOL     OW30469   4.476   2.183   4.167
 9857SOL    HW130470   4.440   2.254   4.107
 9857SOL    HW230471   4.408   2.162   4.238
 9858SOL     OW30472   0.584   0.994   1.209
 9858SOL    HW130473   0.532   0.922   1.163
 9858SOL    HW230474   0.635   0.956   1.285
 9859SOL     OW30475   6.111   6.652   2.061
 9859SOL    HW130476   6.072   6.665   1.970
 9859SOL    HW230477   6.082   6.563   2.096
 9860SOL     OW30478   0.089   1.490   3.289
 9860SOL    HW130479   0.121   1.396   3.283
 9860SOL    HW230480   0.112   1.539   3.205
 9861SOL     OW30481   3.569   6.909   2.775
 9861SOL    HW130482   3.598   6.816   2.753
 9861SOL    HW230483   3.500   6.905   2.848
 9862SOL     OW30484   3.022   4.387   0.429
 9862SOL    HW130485   3.029   4.450   0.352
 9862SOL    HW230486   3.099   4.323   0.428
 9863SOL     OW30487   3.838   0.415   3.537
 9863SOL    HW130488   3.907   0.465   3.485
 9863SOL    HW230489   3.814   0.467   3.618
 9864SOL     OW30490   3.862   6.298   4.016
 9864SOL    HW130491   3.810   6.296   3.930
 9864SOL    HW230492   3.800   6.311   4.093
 9865SOL     OW30493   1.534   0.557   3.962
 9865SOL    HW130494   1.495   0.626   4.023
 9865SOL    HW230495   1.619   0.522   4.001
 9866SOL     OW30496   5.535   4.868   6.005
 9866SOL    HW130497   5.542   4.774   5.973
 9866SOL    HW230498   5.502   4.869   6.099
 9867SOL     OW30499   5.641   0.978   0.771
 9867SOL    HW130500   5.614   0.882   0.763
 9867SOL    HW230501   5.617   1.012   0.862
 9868SOL     OW30502   1.232   4.108   5.329
 9868SOL    HW130503   1.190   4.180   5.273
 9868SOL    HW230504   1.177   4.093   5.411
 9869SOL     OW30505   1.693   3.035   2.446
 9869SOL    HW130506   1.626   3.077   2.507
 9869SOL    HW230507   1.777   3.089   2.447
 9870SOL     OW30508   3.895   5.697   2.565
 9870SOL    HW130509   3.961   5.749   2.619
 9870SOL    HW230510   3.929   5.687   2.472
 9871SOL     OW30511   0.435   6.052   6.352
 9871SOL    HW130512   0.352   6.109   6.346
 9871SOL    HW230513   0.515   6.108   6.330
 9872SOL     OW30514   2.458   4.790   4.421
 9872SOL    HW130515   2.482   4.781   4.325
 9872SOL    HW230516   2.531   4.752   4.478
 9873SOL     OW30517   3.031   2.333   1.014
 9873SOL    HW130518   3.129   2.314   1.013
 9873SOL    HW230519   2.988   2.283   1.089
 9874SOL     OW30520   0.927   3.449   4.707
 9874SOL    HW130521   0.951   3.374   4.645
 9874SOL    HW230522   1.011   3.490   4.744
 9875SOL     OW30523   6.621   6.829   2.073
 9875SOL    HW130524   6.526   6.841   2.046
 9875SOL    HW230525   6.645   6.732   2.070
 9876SOL     OW30526   6.578   1.006   2.984
 9876SOL    HW130527   6.538   0.934   3.041
 9876SOL    HW230528   6.650   1.053   3.036
 9877SOL     OW30529   0.333   6.396   3.453
 9877SOL    HW130530   0.253   6.380   3.394
 9877SOL    HW230531   0.321   6.345   3.538
 9878SOL     OW30532   2.780   4.846   5.165
 9878SOL    HW130533   2.757   4.790   5.245
 9878SOL    HW230534   2.794   4.787   5.086
 9879SOL     OW30535   5.140   5.618   4.432
 9879SOL    HW130536   5.230   5.653   4.458
 9879SOL    HW230537   5.148   5.521   4.406
 9880SOL     OW30538   2.705   0.954   5.465
 9880SOL    HW130539   2.797   0.985   5.442
 9880SOL    HW230540   2.683   0.979   5.559
 9881SOL     OW30541   0.741   1.198   4.831
 9881SOL    HW130542   0.741   1.238   4.922
 9881SOL    HW230543   0.768   1.267   4.764
 9882SOL     OW30544   1.058   2.961   3.822
 9882SOL    HW130545   0.969   2.931   3.788
 9882SOL    HW230546   1.048   2.997   3.915
 9883SOL     OW30547   1.199   6.359   0.258
 9883SOL    HW130548   1.270   6.331   0.193
 9883SOL    HW230549   1.162   6.278   0.304
 9884SOL     OW30550   4.912   2.047   2.414
 9884SOL    HW130551   4.893   2.144   2.422
 9884SOL    HW230552   5.010   2.031   2.430
 9885SOL     OW30553   6.824   2.336   4.904
 9885SOL    HW130554   6.865   2.392   4.831
 9885SOL    HW230555   6.874   2.250   4.912
 9886SOL     OW30556   1.336   4.081   2.528
 9886SOL    HW130557   1.270   4.075   2.454
 9886SOL    HW230558   1.411   4.142   2.502
 9887SOL     OW30559   3.564   0.607   5.676
 9887SOL    HW130560   3.621   0.551   5.736
 9887SOL    HW230561   3.588   0.589   5.581
 9888SOL     OW30562   5.917   4.469   2.612
 9888SOL    HW130563   5.908   4.379   2.653
 9888SOL    HW230564   5.997   4.516   2.650
 9889SOL     OW30565   0.174   4.983   1.615
 9889SOL    HW130566   0.247   5.014   1.553
 9889SOL    HW230567   0.192   5.018   1.707
 9890SOL     OW30568   1.660   2.016   0.842
 9890SOL    HW130569   1.638   1.947   0.773
 9890SOL    HW230570   1.625   2.105   0.812
 9891SOL     OW30571   4.922   3.658   2.148
 9891SOL    HW130572   4.864   3.599   2.092
 9891SOL    HW230573   5.017   3.651   2.118
 9892SOL     OW30574   0.144   4.931   0.787
 9892SOL    HW130575   0.082   4.852   0.791
 9892SOL    HW230576   0.185   4.946   0.877
 9893SOL     OW30577   0.779   0.600   0.992
 9893SOL    HW130578   0.797   0.697   0.976
 9893SOL    HW230579   0.792   0.580   1.089
 9894SOL     OW30580   2.865   2.188   1.212
 9894SOL    HW130581   2.818   2.199   1.299
 9894SOL    HW230582   2.960   2.163   1.227
 9895SOL     OW30583   6.036   4.789   4.663
 9895SOL    HW130584   6.116   4.748   4.617
 9895SOL    HW230585   5.960   4.724   4.659
 9896SOL     OW30586   6.786   0.805   6.311
 9896SOL    HW130587   6.818   0.815   6.405
 9896SOL    HW230588   6.864   0.795   6.250
 9897SOL     OW30589   5.787   5.828   2.965
 9897SOL    HW130590   5.745   5.918   2.950
 9897SOL    HW230591   5.754   5.792   3.053
 9898SOL     OW30592   1.741   5.718   4.255
 9898SOL    HW130593   1.713   5.748   4.164
 9898SOL    HW230594   1.822   5.769   4.284
 9899SOL     OW30595   0.914   5.740   0.902
 9899SOL    HW130596   0.934   5.743   1.000
 9899SOL    HW230597   0.933   5.648   0.867
 9900SOL     OW30598   1.828   2.922   3.021
 9900SOL    HW130599   1.730   2.934   3.037
 9900SOL    HW230600   1.845   2.830   2.986
 9901SOL     OW30601   2.554   0.834   6.909
 9901SOL    HW130602   2.587   0.763   6.971
 9901SOL    HW230603   2.518   0.792   6.826
 9902SOL     OW30604   3.481   4.711   0.899
 9902SOL    HW130605   3.534   4.771   0.960
 9902SOL    HW230606   3.525   4.708   0.810
 9903SOL     OW30607   5.771   2.185   1.793
 9903SOL    HW130608   5.806   2.260   1.737
 9903SOL    HW230609   5.705   2.221   1.859
 9904SOL     OW30610   1.028   3.841   6.437
 9904SOL    HW130611   1.115   3.857   6.484
 9904SOL    HW230612   1.015   3.911   6.367
 9905SOL     OW30613   1.820   0.306   6.298
 9905SOL    HW130614   1.809   0.256   6.384
 9905SOL    HW230615   1.897   0.268   6.247
 9906SOL     OW30616   2.261   3.520   1.621
 9906SOL    HW130617   2.286   3.488   1.712
 9906SOL    HW230618   2.338   3.505   1.558
 9907SOL     OW30619   0.241   0.229   1.202
 9907SOL    HW130620   0.313   0.278   1.152
 9907SOL    HW230621   0.281   0.151   1.249
 9908SOL     OW30622   6.119   1.453   4.737
 9908SOL    HW130623   6.024   1.438   4.765
 9908SOL    HW230624   6.171   1.368   4.748
 9909SOL     OW30625   4.457   1.246   3.146
 9909SOL    HW130626   4.529   1.246   3.077
 9909SOL    HW230627   4.370   1.272   3.103
 9910SOL     OW30628   1.473   4.994   2.007
 9910SOL    HW130629   1.554   4.951   1.968
 9910SOL    HW230630   1.482   5.000   2.106
 9911SOL     OW30631   2.455   5.987   1.926
 9911SOL    HW130632   2.489   6.067   1.974
 9911SOL    HW230633   2.523   5.956   1.859
 9912SOL     OW30634   3.794   0.707   1.459
 9912SOL    HW130635   3.806   0.610   1.436
 9912SOL    HW230636   3.841   0.727   1.545
 9913SOL     OW30637   6.053   3.878   1.208
 9913SOL    HW130638   6.108   3.836   1.136
 9913SOL    HW230639   5.959   3.843   1.202
 9914SOL     OW30640   6.026   1.387   5.090
 9914SOL    HW130641   6.087   1.348   5.021
 9914SOL    HW230642   6.051   1.482   5.107
 9915SOL     OW30643   5.649   0.701   3.665
 9915SOL    HW130644   5.650   0.650   3.579
 9915SOL    HW230645   5.708   0.655   3.731
 9916SOL     OW30646   2.295   1.957   2.562
 9916SOL    HW130647   2.304   1.877   2.503
 9916SOL    HW230648   2.368   2.022   2.541
 9917SOL     OW30649   5.162   4.554   6.518
 9917SOL    HW130650   5.089   4.490   6.544
 9917SOL    HW230651   5.216   4.578   6.599
 9918SOL     OW30652   3.217   1.710   3.115
 9918SOL    HW130653   3.236   1.779   3.046
 9918SOL    HW230654   3.166   1.751   3.191
 9919SOL     OW30655   0.873   5.190   0.945
 9919SOL    HW130656   0.802   5.129   0.979
 9919SOL    HW230657   0.864   5.280   0.988
 9920SOL     OW30658   5.362   1.476   2.416
 9920SOL    HW130659   5.356   1.525   2.503
 9920SOL    HW230660   5.318   1.530   2.344
 9921SOL     OW30661   4.054   6.986   5.051
 9921SOL    HW130662   4.051   6.887   5.035
 9921SOL    HW230663   4.148   7.019   5.039
 9922SOL     OW30664   2.399   4.362   1.077
 9922SOL    HW130665   2.474   4.428   1.066
 9922SOL    HW230666   2.354   4.377   1.165
 9923SOL     OW30667   5.802   5.085   6.789
 9923SOL    HW130668   5.848   5.041   6.866
 9923SOL    HW230669   5.858   5.160   6.754
 9924SOL     OW30670   6.355   1.302   3.749
 9924SOL    HW130671   6.260   1.270   3.747
 9924SOL    HW230672   6.377   1.344   3.662
 9925SOL     OW30673   0.279   4.162   4.251
 9925SOL    HW130674   0.333   4.218   4.188
 9925SOL    HW230675   0.210   4.219   4.295
 9926SOL     OW30676   4.380   3.076   1.484
 9926SOL    HW130677   4.326   3.149   1.441
 9926SOL    HW230678   4.365   2.991   1.434
 9927SOL     OW30679   0.578   0.043   0.732
 9927SOL    HW130680   0.602   0.100   0.653
 9927SOL    HW230681   0.636   0.069   0.810
 9928SOL     OW30682   5.248   4.644   3.131
 9928SOL    HW130683   5.237   4.604   3.040
 9928SOL    HW230684   5.345   4.648   3.154
 9929SOL     OW30685   3.648   4.210   5.256
 9929SOL    HW130686   3.676   4.244   5.166
 9929SOL    HW230687   3.575   4.143   5.244
 9930SOL     OW30688   6.426   6.467   4.860
 9930SOL    HW130689   6.386   6.505   4.944
 9930SOL    HW230690   6.524   6.453   4.873
 9931SOL     OW30691   0.667   5.547   4.379
 9931SOL    HW130692   0.753   5.523   4.334
 9931SOL    HW230693   0.679   5.631   4.433
 9932SOL     OW30694   3.302   3.104   6.430
 9932SOL    HW130695   3.399   3.094   6.411
 9932SOL    HW230696   3.249   3.084   6.348
 9933SOL     OW30697   0.456   5.703   3.336
 9933SOL    HW130698   0.483   5.613   3.301
 9933SOL    HW230699   0.414   5.692   3.426
 9934SOL     OW30700   6.348   2.385   5.738
 9934SOL    HW130701   6.325   2.312   5.674
 9934SOL    HW230702   6.438   2.369   5.778
 9935SOL     OW30703   3.041   6.516   0.207
 9935SOL    HW130704   3.065   6.593   0.148
 9935SOL    HW230705   2.957   6.537   0.256
 9936SOL     OW30706   0.150   4.777   0.195
 9936SOL    HW130707   0.120   4.685   0.218
 9936SOL    HW230708   0.199   4.775   0.108
 9937SOL     OW30709   0.366   1.571   1.526
 9937SOL    HW130710   0.307   1.647   1.553
 9937SOL    HW230711   0.340   1.538   1.435
 9938SOL     OW30712   6.690   5.010   3.608
 9938SOL    HW130713   6.692   5.044   3.703
 9938SOL    HW230714   6.659   4.915   3.607
 9939SOL     OW30715   4.122   2.135   1.333
 9939SOL    HW130716   4.074   2.112   1.418
 9939SOL    HW230717   4.205   2.186   1.354
 9940SOL     OW30718   1.080   0.542   0.873
 9940SOL    HW130719   1.179   0.544   0.883
 9940SOL    HW230720   1.039   0.498   0.953
 9941SOL     OW30721   3.568   3.326   4.736
 9941SOL    HW130722   3.668   3.326   4.733
 9941SOL    HW230723   3.534   3.243   4.692
 9942SOL     OW30724   2.487   5.603   2.557
 9942SOL    HW130725   2.473   5.687   2.506
 9942SOL    HW230726   2.536   5.622   2.642
 9943SOL     OW30727   0.371   4.447   5.761
 9943SOL    HW130728   0.380   4.435   5.662
 9943SOL    HW230729   0.294   4.392   5.794
 9944SOL     OW30730   0.900   4.518   6.607
 9944SOL    HW130731   0.998   4.506   6.589
 9944SOL    HW230732   0.853   4.431   6.598
 9945SOL     OW30733   4.678   5.492   6.703
 9945SOL    HW130734   4.610   5.419   6.692
 9945SOL    HW230735   4.769   5.457   6.683
 9946SOL     OW30736   6.208   0.649   3.082
 9946SOL    HW130737   6.213   0.749   3.073
 9946SOL    HW230738   6.184   0.609   2.994
 9947SOL     OW30739   2.299   2.218   4.480
 9947SOL    HW130740   2.343   2.266   4.404
 9947SOL    HW230741   2.369   2.195   4.549
 9948SOL     OW30742   6.007   4.242   5.654
 9948SOL    HW130743   6.096   4.287   5.659
 9948SOL    HW230744   5.942   4.289   5.714
 9949SOL     OW30745   6.615   5.374   4.407
 9949SOL    HW130746   6.637   5.358   4.504
 9949SOL    HW230747   6.696   5.355   4.352
 9950SOL     OW30748   5.535   6.281   5.918
 9950SOL    HW130749   5.456   6.340   5.903
 9950SOL    HW230750   5.514   6.218   5.993
 9951SOL     OW30751   0.188   1.461   3.854
 9951SOL    HW130752   0.208   1.411   3.770
 9951SOL    HW230753   0.270   1.460   3.913
 9952SOL     OW30754   1.255   4.495   0.659
 9952SOL    HW130755   1.312   4.490   0.740
 9952SOL    HW230756   1.311   4.517   0.579
 9953SOL     OW30757   5.302   2.723   4.332
 9953SOL    HW130758   5.280   2.759   4.423
 9953SOL    HW230759   5.306   2.623   4.337
 9954SOL     OW30760   0.199   0.337   6.029
 9954SOL    HW130761   0.225   0.274   5.956
 9954SOL    HW230762   0.273   0.343   6.096
 9955SOL     OW30763   5.685   2.876   5.469
 9955SOL    HW130764   5.624   2.824   5.408
 9955SOL    HW230765   5.631   2.919   5.541
 9956SOL     OW30766   1.426   6.826   1.718
 9956SOL    HW130767   1.406   6.780   1.632
 9956SOL    HW230768   1.524   6.847   1.723
 9957SOL     OW30769   5.390   5.845   2.470
 9957SOL    HW130770   5.462   5.905   2.507
 9957SOL    HW230771   5.382   5.764   2.528
 9958SOL     OW30772   2.721   5.545   7.018
 9958SOL    HW130773   2.629   5.508   0.005
 9958SOL    HW230774   2.787   5.470   7.021
 9959SOL     OW30775   4.038   3.910   4.839
 9959SOL    HW130776   4.018   3.849   4.916
 9959SOL    HW230777   4.087   3.990   4.871
 9960SOL     OW30778   0.354   0.567   2.224
 9960SOL    HW130779   0.276   0.550   2.284
 9960SOL    HW230780   0.322   0.612   2.140
 9961SOL     OW30781   1.574   4.965   4.402
 9961SOL    HW130782   1.545   4.889   4.460
 9961SOL    HW230783   1.667   4.993   4.427
 9962SOL     OW30784   5.535   5.688   1.796
 9962SOL    HW130785   5.479   5.652   1.871
 9962SOL    HW230786   5.490   5.768   1.757
 9963SOL     OW30787   2.817   3.339   6.778
 9963SOL    HW130788   2.875   3.396   6.721
 9963SOL    HW230789   2.870   3.303   6.855
 9964SOL     OW30790   5.650   4.635   5.866
 9964SOL    HW130791   5.586   4.562   5.840
 9964SOL    HW230792   5.660   4.636   5.966
 9965SOL     OW30793   4.109   6.492   6.374
 9965SOL    HW130794   4.136   6.487   6.278
 9965SOL    HW230795   4.029   6.552   6.383
 9966SOL     OW30796   2.014   5.552   2.328
 9966SOL    HW130797   1.918   5.531   2.347
 9966SOL    HW230798   2.033   5.536   2.231
 9967SOL     OW30799   6.170   6.883   2.277
 9967SOL    HW130800   6.258   6.844   2.303
 9967SOL    HW230801   6.118   6.816   2.224
 9968SOL     OW30802   2.850   3.597   0.043
 9968SOL    HW130803   2.790   3.676   0.026
 9968SOL    HW230804   2.873   3.594   0.140
 9969SOL     OW30805   1.792   2.608   3.290
 9969SOL    HW130806   1.715   2.567   3.338
 9969SOL    HW230807   1.839   2.672   3.350
 9970SOL     OW30808   5.397   4.031   2.663
 9970SOL    HW130809   5.305   3.999   2.640
 9970SOL    HW230810   5.425   3.991   2.750
 9971SOL     OW30811   2.444   5.115   1.012
 9971SOL    HW130812   2.427   5.021   0.982
 9971SOL    HW230813   2.366   5.173   0.988
 9972SOL     OW30814   3.902   4.594   1.400
 9972SOL    HW130815   3.852   4.594   1.487
 9972SOL    HW230816   3.886   4.508   1.352
 9973SOL     OW30817   4.269   2.304   3.983
 9973SOL    HW130818   4.187   2.283   3.931
 9973SOL    HW230819   4.327   2.366   3.930
 9974SOL     OW30820   6.827   3.080   3.494
 9974SOL    HW130821   6.752   3.147   3.498
 9974SOL    HW230822   6.798   3.000   3.442
 9975SOL     OW30823   6.411   4.809   6.893
 9975SOL    HW130824   6.403   4.873   6.816
 9975SOL    HW230825   6.332   4.748   6.893
 9976SOL     OW30826   0.932   6.537   5.482
 9976SOL    HW130827   0.922   6.592   5.564
 9976SOL    HW230828   0.857   6.558   5.419
 9977SOL     OW30829   0.145   5.387   5.015
 9977SOL    HW130830   0.176   5.424   5.102
 9977SOL    HW230831   0.214   5.326   4.977
 9978SOL     OW30832   6.701   3.222   3.086
 9978SOL    HW130833   6.714   3.146   3.023
 9978SOL    HW230834   6.789   3.260   3.112
 9979SOL     OW30835   5.924   4.761   5.509
 9979SOL    HW130836   5.949   4.740   5.415
 9979SOL    HW230837   6.007   4.763   5.565
 9980SOL     OW30838   1.746   1.439   5.818
 9980SOL    HW130839   1.802   1.429   5.901
 9980SOL    HW230840   1.684   1.361   5.811
 9981SOL     OW30841   2.220   2.061   1.738
 9981SOL    HW130842   2.212   1.973   1.785
 9981SOL    HW230843   2.307   2.103   1.761
 9982SOL     OW30844   0.162   0.234   3.516
 9982SOL    HW130845   0.198   0.203   3.604
 9982SOL    HW230846   0.233   0.226   3.446
 9983SOL     OW30847   0.291   2.498   3.377
 9983SOL    HW130848   0.302   2.492   3.278
 9983SOL    HW230849   0.373   2.464   3.422
 9984SOL     OW30850   1.891   0.958   0.303
 9984SOL    HW130851   1.856   0.900   0.377
 9984SOL    HW230852   1.858   1.052   0.317
 9985SOL     OW30853   2.164   1.106   1.489
 9985SOL    HW130854   2.101   1.036   1.521
 9985SOL    HW230855   2.189   1.165   1.566
 9986SOL     OW30856   5.466   4.463   5.787
 9986SOL    HW130857   5.418   4.500   5.866
 9986SOL    HW230858   5.400   4.416   5.728
 9987SOL     OW30859   6.755   2.936   3.926
 9987SOL    HW130860   6.747   2.879   4.008
 9987SOL    HW230861   6.851   2.946   3.901
 9988SOL     OW30862   0.243   5.492   5.245
 9988SOL    HW130863   0.161   5.544   5.269
 9988SOL    HW230864   0.261   5.424   5.316
 9989SOL     OW30865   6.476   4.130   3.397
 9989SOL    HW130866   6.450   4.064   3.467
 9989SOL    HW230867   6.447   4.097   3.307
 9990SOL     OW30868   2.760   5.718   1.671
 9990SOL    HW130869   2.860   5.712   1.668
 9990SOL    HW230870   2.722   5.627   1.687
 9991SOL     OW30871   2.094   2.536   4.061
 9991SOL    HW130872   2.074   2.498   4.151
 9991SOL    HW230873   2.163   2.608   4.070
 9992SOL     OW30874   5.540   4.870   0.601
 9992SOL    HW130875   5.508   4.805   0.670
 9992SOL    HW230876   5.509   4.962   0.625
 9993SOL     OW30877   3.429   0.595   0.943
 9993SOL    HW130878   3.511   0.586   0.999
 9993SOL    HW230879   3.431   0.683   0.896
 9994SOL     OW30880   0.044   5.179   3.377
 9994SOL    HW130881   6.992   5.117   3.364
 9994SOL    HW230882   0.037   5.222   3.468
 9995SOL     OW30883   4.580   1.176   2.909
 9995SOL    HW130884   4.584   1.085   2.869
 9995SOL    HW230885   4.507   1.229   2.865
 9996SOL     OW30886   2.454   2.927   1.355
 9996SOL    HW130887   2.537   2.890   1.397
 9996SOL    HW230888   2.379   2.925   1.421
 9997SOL     OW30889   3.414   1.903   0.567
 9997SOL    HW130890   3.380   1.811   0.547
 9997SOL    HW230891   3.382   1.967   0.496
 9998SOL     OW30892   5.548   4.440   0.028
 9998SOL    HW130893   5.549   4.368   0.098
 9998SOL    HW230894   5.488   4.514   0.058
 9999SOL     OW30895   0.250   2.968   5.389
 9999SOL    HW130896   0.215   3.059   5.414
 9999SOL    HW230897   0.345   2.976   5.360
10000SOL     OW30898   6.937   3.981   0.053
10000SOL    HW130899   6.977   3.997   6.987
10000SOL    HW230900   6.862   3.915   0.045
10001SOL     OW30901   4.720   0.355   2.549
10001SOL    HW130902   4.712   0.255   2.553
10001SOL    HW230903   4.635   0.394   2.515
10002SOL     OW30904   2.153   0.027   2.444
10002SOL    HW130905   2.135   0.036   2.542
10002SOL    HW230906   2.164   6.955   2.421
10003SOL     OW30907   3.886   1.208   3.351
10003SOL    HW130908   3.809   1.250   3.304
10003SOL    HW230909   3.860   1.117   3.383
10004SOL     OW30910   5.748   2.376   4.286
10004SOL    HW130911   5.777   2.281   4.299
10004SOL    HW230912   5.671   2.378   4.222
10005SOL     OW30913   4.899   0.512   4.323
10005SOL    HW130914   4.948   0.441   4.375
10005SOL    HW230915   4.837   0.561   4.385
10006SOL     OW30916   5.386   6.156   4.174
10006SOL    HW130917   5.324   6.214   4.227
10006SOL    HW230918   5.345   6.066   4.163
10007SOL     OW30919   6.914   4.978   5.559
10007SOL    HW130920   6.941   5.073   5.574
10007SOL    HW230921   6.941   4.922   5.638
10008SOL     OW30922   4.226   1.178   4.476
10008SOL    HW130923   4.276   1.258   4.444
10008SOL    HW230924   4.168   1.204   4.554
10009SOL     OW30925   1.968   3.571   1.658
10009SOL    HW130926   2.066   3.575   1.636
10009SOL    HW230927   1.933   3.664   1.667
10010SOL     OW30928   2.146   0.636   5.804
10010SOL    HW130929   2.138   0.640   5.904
10010SOL    HW230930   2.236   0.669   5.777
10011SOL     OW30931   5.199   1.237   5.317
10011SOL    HW130932   5.208   1.323   5.267
10011SOL    HW230933   5.163   1.255   5.409
10012SOL     OW30934   6.073   1.394   2.996
10012SOL    HW130935   6.071   1.489   3.027
10012SOL    HW230936   5.985   1.351   3.014
10013SOL     OW30937   0.610   1.108   3.225
10013SOL    HW130938   0.628   1.018   3.187
10013SOL    HW230939   0.526   1.145   3.186
10014SOL     OW30940   7.018   3.753   0.664
10014SOL    HW130941   6.977   3.697   0.737
10014SOL    HW230942   7.022   3.848   0.694
10015SOL     OW30943   2.351   4.585   0.242
10015SOL    HW130944   2.338   4.552   0.336
10015SOL    HW230945   2.418   4.659   0.242
10016SOL     OW30946   1.065   0.573   6.857
10016SOL    HW130947   1.116   0.527   6.784
10016SOL    HW230948   1.124   0.584   6.937
10017SOL     OW30949   2.791   1.080   3.195
10017SOL    HW130950   2.737   1.107   3.274
10017SOL    HW230951   2.827   1.162   3.150
10018SOL     OW30952   4.204   0.439   5.504
10018SOL    HW130953   4.299   0.458   5.525
10018SOL    HW230954   4.146   0.512   5.540
10019SOL     OW30955   0.320   2.154   2.997
10019SOL    HW130956   0.300   2.124   2.904
10019SOL    HW230957   0.297   2.082   3.061
10020SOL     OW30958   1.296   2.586   1.451
10020SOL    HW130959   1.200   2.599   1.476
10020SOL    HW230960   1.323   2.491   1.469
10021SOL     OW30961   6.826   2.879   1.466
10021SOL    HW130962   6.816   2.945   1.392
10021SOL    HW230963   6.913   2.894   1.513
10022SOL     OW30964   2.734   0.980   6.311
10022SOL    HW130965   2.752   1.073   6.279
10022SOL    HW230966   2.813   0.947   6.362
10023SOL     OW30967   0.978   5.336   0.379
10023SOL    HW130968   0.912   5.406   0.406
10023SOL    HW230969   1.070   5.376   0.377
10024SOL     OW30970   2.334   6.457   2.262
10024SOL    HW130971   2.270   6.528   2.292
10024SOL    HW230972   2.418   6.499   2.228
10025SOL     OW30973   1.200   2.442   1.153
10025SOL    HW130974   1.295   2.459   1.179
10025SOL    HW230975   1.183   2.480   1.062
10026SOL     OW30976   5.709   6.323   3.490
10026SOL    HW130977   5.756   6.304   3.577
10026SOL    HW230978   5.611   6.330   3.507
10027SOL     OW30979   6.327   4.403   4.737
10027SOL    HW130980   6.346   4.492   4.778
10027SOL    HW230981   6.413   4.353   4.723
10028SOL     OW30982   1.506   0.882   2.244
10028SOL    HW130983   1.579   0.949   2.230
10028SOL    HW230984   1.430   0.902   2.182
10029SOL     OW30985   5.108   1.524   4.959
10029SOL    HW130986   5.201   1.514   4.996
10029SOL    HW230987   5.045   1.464   5.008
10030SOL     OW30988   2.048   0.083   3.744
10030SOL    HW130989   1.951   0.063   3.754
10030SOL    HW230990   2.059   0.166   3.689
10031SOL     OW30991   5.614   4.931   5.026
10031SOL    HW130992   5.522   4.969   5.025
10031SOL    HW230993   5.610   4.832   5.039
10032SOL     OW30994   2.856   1.701   4.746
10032SOL    HW130995   2.821   1.616   4.707
10032SOL    HW230996   2.937   1.681   4.801
10033SOL     OW30997   6.504   2.940   4.557
10033SOL    HW130998   6.578   2.905   4.500
10033SOL    HW230999   6.532   2.937   4.653
10034SOL     OW31000   3.612   0.774   4.096
10034SOL    HW131001   3.704   0.752   4.065
10034SOL    HW231002   3.555   0.692   4.092
10035SOL     OW31003   6.632   4.938   1.560
10035SOL    HW131004   6.580   4.992   1.493
10035SOL    HW231005   6.571   4.869   1.600
10036SOL     OW31006   6.169   2.237   1.252
10036SOL    HW131007   6.234   2.312   1.241
10036SOL    HW231008   6.218   2.151   1.266
10037SOL     OW31009   0.502   1.571   0.281
10037SOL    HW131010   0.523   1.631   0.203
10037SOL    HW231011   0.424   1.513   0.258
10038SOL     OW31012   5.712   0.801   6.868
10038SOL    HW131013   5.725   0.810   6.769
10038SOL    HW231014   5.799   0.780   6.912
10039SOL     OW31015   3.985   0.713   3.734
10039SOL    HW131016   3.991   0.614   3.742
10039SOL    HW231017   4.053   0.746   3.668
10040SOL     OW31018   5.522   5.351   6.299
10040SOL    HW131019   5.612   5.348   6.256
10040SOL    HW231020   5.530   5.396   6.389
10041SOL     OW31021   4.269   5.877   6.799
10041SOL    HW131022   4.300   5.797   6.851
10041SOL    HW231023   4.278   5.858   6.701
10042SOL     OW31024   0.625   1.608   4.154
10042SOL    HW131025   0.659   1.647   4.068
10042SOL    HW231026   0.613   1.681   4.221
10043SOL     OW31027   6.277   1.819   5.024
10043SOL    HW131028   6.373   1.839   5.004
10043SOL    HW231029   6.218   1.884   4.975
10044SOL     OW31030   2.513   2.414   5.022
10044SOL    HW131031   2.465   2.366   4.949
10044SOL    HW231032   2.473   2.505   5.034
10045SOL     OW31033   3.557   1.013   1.495
10045SOL    HW131034   3.578   1.056   1.583
10045SOL    HW231035   3.601   1.065   1.421
10046SOL     OW31036   1.723   3.330   0.576
10046SOL    HW131037   1.719   3.430   0.575
10046SOL    HW231038   1.630   3.294   0.585
10047SOL     OW31039   0.953   2.976   5.229
10047SOL    HW131040   0.963   3.011   5.322
10047SOL    HW231041   0.926   3.051   5.168
10048SOL     OW31042   6.644   6.601   2.841
10048SOL    HW131043   6.657   6.612   2.939
10048SOL    HW231044   6.570   6.662   2.810
10049SOL     OW31045   1.524   1.264   5.524
10049SOL    HW131046   1.606   1.314   5.498
10049SOL    HW231047   1.520   1.178   5.474
10050SOL     OW31048   5.469   3.482   4.751
10050SOL    HW131049   5.455   3.428   4.834
10050SOL    HW231050   5.546   3.444   4.699
10051SOL     OW31051   0.844   4.389   4.520
10051SOL    HW131052   0.862   4.436   4.434
10051SOL    HW231053   0.858   4.452   4.596
10052SOL     OW31054   1.919   0.812   3.312
10052SOL    HW131055   1.963   0.894   3.349
10052SOL    HW231056   1.964   0.787   3.226
10053SOL     OW31057   4.301   5.973   3.988
10053SOL    HW131058   4.203   5.987   3.997
10053SOL    HW231059   4.341   5.952   4.077
10054SOL     OW31060   5.507   4.224   5.249
10054SOL    HW131061   5.453   4.304   5.223
10054SOL    HW231062   5.563   4.247   5.329
10055SOL     OW31063   6.214   2.651   5.838
10055SOL    HW131064   6.246   2.559   5.861
10055SOL    HW231065   6.291   2.705   5.806
10056SOL     OW31066   4.945   4.187   3.325
10056SOL    HW131067   5.025   4.225   3.279
10056SOL    HW231068   4.923   4.242   3.406
10057SOL     OW31069   6.051   3.740   5.677
10057SOL    HW131070   5.953   3.733   5.699
10057SOL    HW231071   6.102   3.677   5.735
10058SOL     OW31072   6.462   3.791   4.474
10058SOL    HW131073   6.451   3.779   4.375
10058SOL    HW231074   6.406   3.868   4.505
10059SOL     OW31075   6.942   2.179   0.971
10059SOL    HW131076   6.903   2.269   0.989
10059SOL    HW231077   6.894   2.137   0.893
10060SOL     OW31078   2.266   2.292   2.555
10060SOL    HW131079   2.331   2.218   2.536
10060SOL    HW231080   2.312   2.364   2.608
10061SOL     OW31081   4.639   1.391   3.918
10061SOL    HW131082   4.540   1.391   3.933
10061SOL    HW231083   4.669   1.298   3.896
10062SOL     OW31084   6.318   6.842   4.382
10062SOL    HW131085   6.413   6.818   4.401
10062SOL    HW231086   6.291   6.917   4.442
10063SOL     OW31087   2.757   1.850   3.986
10063SOL    HW131088   2.750   1.895   3.897
10063SOL    HW231089   2.690   1.777   3.992
10064SOL     OW31090   4.561   5.991   6.144
10064SOL    HW131091   4.615   6.000   6.060
10064SOL    HW231092   4.487   5.926   6.128
10065SOL     OW31093   1.365   0.635   2.012
10065SOL    HW131094   1.298   0.561   2.017
10065SOL    HW231095   1.335   0.712   2.069
10066SOL     OW31096   0.597   3.182   4.975
10066SOL    HW131097   0.620   3.228   5.061
10066SOL    HW231098   0.602   3.248   4.900
10067SOL     OW31099   0.736   2.773   6.161
10067SOL    HW131100   0.669   2.844   6.141
10067SOL    HW231101   0.827   2.814   6.166
10068SOL     OW31102   1.494   3.745   3.143
10068SOL    HW131103   1.524   3.654   3.113
10068SOL    HW231104   1.503   3.752   3.242
10069SOL     OW31105   3.603   4.932   1.545
10069SOL    HW131106   3.682   4.891   1.500
10069SOL    HW231107   3.582   5.020   1.502
10070SOL     OW31108   1.318   5.451   4.853
10070SOL    HW131109   1.359   5.419   4.939
10070SOL    HW231110   1.244   5.388   4.827
10071SOL     OW31111   0.817   0.265   3.983
10071SOL    HW131112   0.874   0.300   4.058
10071SOL    HW231113   0.825   0.165   3.980
10072SOL     OW31114   0.500   1.291   2.693
10072SOL    HW131115   0.428   1.360   2.706
10072SOL    HW231116   0.529   1.291   2.598
10073SOL     OW31117   5.964   3.295   3.746
10073SOL    HW131118   5.966   3.199   3.774
10073SOL    HW231119   6.002   3.351   3.820
10074SOL     OW31120   0.923   5.500   0.771
10074SOL    HW131121   0.969   5.550   0.698
10074SOL    HW231122   0.903   5.407   0.740
10075SOL     OW31123   2.066   0.319   2.538
10075SOL    HW131124   2.083   0.416   2.554
10075SOL    HW231125   2.114   0.290   2.455
10076SOL     OW31126   5.029   5.251   3.198
10076SOL    HW131127   4.984   5.331   3.157
10076SOL    HW231128   5.080   5.202   3.128
10077SOL     OW31129   5.797   2.656   0.290
10077SOL    HW131130   5.770   2.732   0.230
10077SOL    HW231131   5.749   2.663   0.377
10078SOL     OW31132   0.160   6.288   4.889
10078SOL    HW131133   0.144   6.371   4.941
10078SOL    HW231134   0.139   6.208   4.946
10079SOL     OW31135   5.651   2.388   3.586
10079SOL    HW131136   5.664   2.308   3.644
10079SOL    HW231137   5.553   2.411   3.583
10080SOL     OW31138   5.736   1.154   6.361
10080SOL    HW131139   5.696   1.143   6.269
10080SOL    HW231140   5.814   1.217   6.356
10081SOL     OW31141   1.147   1.726   7.013
10081SOL    HW131142   1.188   1.697   6.927
10081SOL    HW231143   1.219   1.732   0.059
10082SOL     OW31144   1.491   5.349   3.359
10082SOL    HW131145   1.479   5.448   3.366
10082SOL    HW231146   1.570   5.329   3.302
10083SOL     OW31147   3.643   6.215   3.527
10083SOL    HW131148   3.600   6.301   3.498
10083SOL    HW231149   3.705   6.183   3.456
10084SOL     OW31150   6.988   6.482   5.008
10084SOL    HW131151   7.005   6.561   4.950
10084SOL    HW231152   0.028   6.482   5.084
10085SOL     OW31153   4.108   6.747   0.078
10085SOL    HW131154   4.132   6.650   0.071
10085SOL    HW231155   4.157   6.788   0.155
10086SOL     OW31156   5.875   6.530   2.495
10086SOL    HW131157   5.838   6.623   2.489
10086SOL    HW231158   5.964   6.526   2.449
10087SOL     OW31159   0.666   6.444   4.537
10087SOL    HW131160   0.600   6.462   4.610
10087SOL    HW231161   0.664   6.347   4.514
10088SOL     OW31162   6.930   1.797   6.973
10088SOL    HW131163   6.913   1.850   6.890
10088SOL    HW231164   0.004   1.794   6.991
10089SOL     OW31165   3.633   1.284   2.747
10089SOL    HW131166   3.686   1.356   2.791
10089SOL    HW231167   3.696   1.217   2.707
10090SOL     OW31168   0.514   4.636   1.972
10090SOL    HW131169   0.430   4.583   1.958
10090SOL    HW231170   0.510   4.683   2.060
10091SOL     OW31171   6.528   5.905   6.476
10091SOL    HW131172   6.622   5.937   6.485
10091SOL    HW231173   6.526   5.823   6.418
10092SOL     OW31174   1.559   3.443   5.173
10092SOL    HW131175   1.562   3.445   5.273
10092SOL    HW231176   1.615   3.367   5.140
10093SOL     OW31177   5.265   3.260   5.381
10093SOL    HW131178   5.241   3.349   5.342
10093SOL    HW231179   5.229   3.253   5.474
10094SOL     OW31180   2.580   6.693   1.442
10094SOL    HW131181   2.580   6.671   1.345
10094SOL    HW231182   2.491   6.730   1.468
10095SOL     OW31183   5.555   2.223   4.695
10095SOL    HW131184   5.470   2.258   4.732
10095SOL    HW231185   5.536   2.167   4.614
10096SOL     OW31186   4.884   0.698   2.412
10096SOL    HW131187   4.919   0.608   2.436
10096SOL    HW231188   4.957   0.751   2.368
10097SOL     OW31189   1.977   1.974   6.440
10097SOL    HW131190   2.031   2.044   6.487
10097SOL    HW231191   1.960   2.002   6.346
10098SOL     OW31192   3.048   5.869   4.618
10098SOL    HW131193   2.986   5.812   4.566
10098SOL    HW231194   3.056   5.959   4.574
10099SOL     OW31195   6.388   4.496   1.564
10099SOL    HW131196   6.488   4.503   1.563
10099SOL    HW231197   6.355   4.487   1.470
10100SOL     OW31198   5.436   5.125   5.586
10100SOL    HW131199   5.535   5.129   5.573
10100SOL    HW231200   5.415   5.108   5.682
10101SOL     OW31201   6.575   3.150   1.784
10101SOL    HW131202   6.674   3.134   1.792
10101SOL    HW231203   6.532   3.136   1.873
10102SOL     OW31204   5.144   0.358   0.625
10102SOL    HW131205   5.237   0.347   0.592
10102SOL    HW231206   5.106   0.268   0.650
10103SOL     OW31207   0.574   0.380   5.722
10103SOL    HW131208   0.559   0.468   5.766
10103SOL    HW231209   0.669   0.376   5.689
10104SOL     OW31210   2.059   0.937   6.093
10104SOL    HW131211   2.015   0.950   6.182
10104SOL    HW231212   2.085   1.026   6.056
10105SOL     OW31213   2.623   1.411   5.815
10105SOL    HW131214   2.533   1.369   5.821
10105SOL    HW231215   2.627   1.472   5.736
10106SOL     OW31216   4.705   6.200   1.544
10106SOL    HW131217   4.698   6.130   1.615
10106SOL    HW231218   4.802   6.220   1.527
10107SOL     OW31219   4.990   4.362   6.704
10107SOL    HW131220   4.957   4.268   6.709
10107SOL    HW231221   4.989   4.403   6.795
10108SOL     OW31222   1.639   3.035   0.599
10108SOL    HW131223   1.633   2.977   0.680
10108SOL    HW231224   1.728   3.081   0.597
10109SOL     OW31225   0.631   1.207   0.151
10109SOL    HW131226   0.646   1.180   0.056
10109SOL    HW231227   0.678   1.294   0.168
10110SOL     OW31228   4.816   4.753   2.414
10110SOL    HW131229   4.882   4.764   2.340
10110SOL    HW231230   4.778   4.843   2.437
10111SOL     OW31231   0.746   2.914   2.156
10111SOL    HW131232   0.838   2.944   2.129
10111SOL    HW231233   0.679   2.980   2.123
10112SOL     OW31234   6.464   3.223   3.229
10112SOL    HW131235   6.553   3.222   3.184
10112SOL    HW231236   6.398   3.175   3.172
10113SOL     OW31237   4.759   1.146   6.745
10113SOL    HW131238   4.746   1.175   6.840
10113SOL    HW231239   4.675   1.102   6.712
10114SOL     OW31240   3.943   2.160   2.921
10114SOL    HW131241   4.033   2.197   2.895
10114SOL    HW231242   3.941   2.146   3.020
10115SOL     OW31243   3.799   1.437   4.254
10115SOL    HW131244   3.842   1.417   4.166
10115SOL    HW231245   3.703   1.409   4.251
10116SOL     OW31246   5.928   0.315   5.658
10116SOL    HW131247   5.990   0.385   5.693
10116SOL    HW231248   5.840   0.322   5.706
10117SOL     OW31249   6.663   5.438   5.161
10117SOL    HW131250   6.641   5.378   5.238
10117SOL    HW231251   6.751   5.410   5.121
10118SOL     OW31252   2.815   5.067   4.580
10118SOL    HW131253   2.780   5.025   4.663
10118SOL    HW231254   2.770   5.027   4.500
10119SOL     OW31255   0.053   4.951   4.106
10119SOL    HW131256   7.013   4.910   4.041
10119SOL    HW231257   0.135   4.895   4.111
10120SOL     OW31258   1.229   2.710   3.099
10120SOL    HW131259   1.323   2.687   3.124
10120SOL    HW231260   1.219   2.810   3.094
10121SOL     OW31261   6.371   4.713   0.579
10121SOL    HW131262   6.303   4.718   0.652
10121SOL    HW231263   6.416   4.623   0.581
10122SOL     OW31264   6.710   1.800   3.565
10122SOL    HW131265   6.619   1.834   3.543
10122SOL    HW231266   6.711   1.700   3.559
10123SOL     OW31267   5.707   6.225   1.008
10123SOL    HW131268   5.697   6.321   1.035
10123SOL    HW231269   5.777   6.182   1.065
10124SOL     OW31270   1.180   5.199   2.574
10124SOL    HW131271   1.124   5.194   2.657
10124SOL    HW231272   1.123   5.178   2.495
10125SOL     OW31273   2.104   1.781   1.298
10125SOL    HW131274   2.068   1.768   1.390
10125SOL    HW231275   2.198   1.747   1.293
10126SOL     OW31276   6.441   0.737   6.609
10126SOL    HW131277   6.395   0.654   6.640
10126SOL    HW231278   6.393   0.774   6.529
10127SOL     OW31279   1.186   4.341   5.892
10127SOL    HW131280   1.232   4.356   5.979
10127SOL    HW231281   1.157   4.245   5.886
10128SOL     OW31282   2.989   0.904   0.001
10128SOL    HW131283   2.939   0.822   0.032
10128SOL    HW231284   3.069   0.917   0.060
10129SOL     OW31285   6.358   1.591   2.593
10129SOL    HW131286   6.422   1.665   2.616
10129SOL    HW231287   6.344   1.534   2.674
10130SOL     OW31288   0.619   2.678   2.105
10130SOL    HW131289   0.686   2.752   2.109
10130SOL    HW231290   0.614   2.632   2.194
10131SOL     OW31291   2.289   1.046   4.805
10131SOL    HW131292   2.383   1.045   4.770
10131SOL    HW231293   2.276   0.970   4.868
10132SOL     OW31294   7.008   6.936   2.594
10132SOL    HW131295   0.030   6.985   2.668
10132SOL    HW231296   7.018   6.837   2.609
10133SOL     OW31297   4.565   5.727   0.463
10133SOL    HW131298   4.660   5.708   0.438
10133SOL    HW231299   4.522   5.643   0.498
10134SOL     OW31300   5.992   0.626   2.302
10134SOL    HW131301   6.080   0.666   2.274
10134SOL    HW231302   6.004   0.573   2.386
10135SOL     OW31303   5.389   0.689   4.144
10135SOL    HW131304   5.368   0.782   4.114
10135SOL    HW231305   5.487   0.672   4.135
10136SOL     OW31306   5.031   2.204   2.660
10136SOL    HW131307   4.957   2.158   2.609
10136SOL    HW231308   5.092   2.135   2.698
10137SOL     OW31309   0.441   5.541   5.727
10137SOL    HW131310   0.478   5.620   5.678
10137SOL    HW231311   0.388   5.573   5.805
10138SOL     OW31312   6.054   1.633   0.095
10138SOL    HW131313   6.006   1.634   0.007
10138SOL    HW231314   6.099   1.545   0.107
10139SOL     OW31315   3.252   3.499   5.599
10139SOL    HW131316   3.274   3.425   5.663
10139SOL    HW231317   3.315   3.497   5.522
10140SOL     OW31318   0.191   6.010   6.121
10140SOL    HW131319   0.278   5.964   6.136
10140SOL    HW231320   0.149   6.031   6.210
10141SOL     OW31321   3.957   1.485   3.896
10141SOL    HW131322   4.040   1.429   3.897
10141SOL    HW231323   3.950   1.533   3.809
10142SOL     OW31324   5.650   6.396   4.877
10142SOL    HW131325   5.719   6.331   4.844
10142SOL    HW231326   5.646   6.474   4.814
10143SOL     OW31327   5.251   3.112   0.747
10143SOL    HW131328   5.276   3.142   0.655
10143SOL    HW231329   5.153   3.093   0.751
10144SOL     OW31330   3.880   6.607   5.309
10144SOL    HW131331   3.855   6.621   5.405
10144SOL    HW231332   3.809   6.555   5.262
10145SOL     OW31333   4.654   5.959   1.279
10145SOL    HW131334   4.656   6.048   1.235
10145SOL    HW231335   4.718   5.958   1.356
10146SOL     OW31336   0.316   3.687   4.023
10146SOL    HW131337   0.352   3.779   4.037
10146SOL    HW231338   0.248   3.667   4.093
10147SOL     OW31339   4.376   5.092   6.482
10147SOL    HW131340   4.373   5.192   6.482
10147SOL    HW231341   4.382   5.059   6.388
10148SOL     OW31342   0.965   4.832   0.513
10148SOL    HW131343   0.868   4.818   0.531
10148SOL    HW231344   1.020   4.791   0.586
10149SOL     OW31345   4.483   5.319   1.926
10149SOL    HW131346   4.532   5.315   1.839
10149SOL    HW231347   4.413   5.247   1.928
10150SOL     OW31348   4.860   3.791   0.877
10150SOL    HW131349   4.900   3.746   0.797
10150SOL    HW231350   4.849   3.725   0.951
10151SOL     OW31351   6.825   0.023   6.110
10151SOL    HW131352   6.796   0.091   6.177
10151SOL    HW231353   6.913   0.050   6.072
10152SOL     OW31354   5.983   6.088   2.837
10152SOL    HW131355   5.998   6.182   2.806
10152SOL    HW231356   5.886   6.066   2.830
10153SOL     OW31357   4.636   5.837   3.975
10153SOL    HW131358   4.631   5.928   4.016
10153SOL    HW231359   4.626   5.768   4.047
10154SOL     OW31360   4.126   4.981   5.600
10154SOL    HW131361   4.066   4.916   5.645
10154SOL    HW231362   4.195   5.014   5.664
10155SOL     OW31363   4.823   2.315   5.751
10155SOL    HW131364   4.737   2.274   5.781
10155SOL    HW231365   4.839   2.293   5.654
10156SOL     OW31366   5.024   0.116   1.151
10156SOL    HW131367   5.023   0.163   1.239
10156SOL    HW231368   4.941   0.138   1.100
10157SOL     OW31369   6.795   2.426   0.990
10157SOL    HW131370   6.879   2.470   0.962
10157SOL    HW231371   6.730   2.495   1.024
10158SOL     OW31372   4.895   6.886   2.445
10158SOL    HW131373   4.816   6.916   2.498
10158SOL    HW231374   4.864   6.827   2.370
10159SOL     OW31375   3.434   3.270   2.887
10159SOL    HW131376   3.466   3.216   2.809
10159SOL    HW231377   3.513   3.304   2.938
10160SOL     OW31378   1.975   4.444   2.792
10160SOL    HW131379   2.031   4.433   2.711
10160SOL    HW231380   2.013   4.516   2.851
10161SOL     OW31381   3.574   4.813   6.135
10161SOL    HW131382   3.487   4.820   6.184
10161SOL    HW231383   3.630   4.894   6.155
10162SOL     OW31384   1.893   4.402   1.965
10162SOL    HW131385   1.966   4.462   1.933
10162SOL    HW231386   1.817   4.457   1.999
10163SOL     OW31387   1.702   6.065   4.993
10163SOL    HW131388   1.700   5.987   4.931
10163SOL    HW231389   1.609   6.090   5.019
10164SOL     OW31390   6.440   3.422   3.593
10164SOL    HW131391   6.520   3.369   3.566
10164SOL    HW231392   6.357   3.368   3.575
10165SOL     OW31393   5.625   2.598   4.013
10165SOL    HW131394   5.597   2.675   3.956
10165SOL    HW231395   5.637   2.630   4.107
10166SOL     OW31396   0.498   2.745   1.067
10166SOL    HW131397   0.554   2.827   1.055
10166SOL    HW231398   0.500   2.691   0.984
10167SOL     OW31399   0.346   5.080   6.120
10167SOL    HW131400   0.344   5.123   6.030
10167SOL    HW231401   0.434   5.097   6.164
10168SOL     OW31402   5.980   1.617   6.443
10168SOL    HW131403   5.943   1.696   6.492
10168SOL    HW231404   5.960   1.534   6.494
10169SOL     OW31405   6.998   4.129   3.100
10169SOL    HW131406   6.975   4.125   3.197
10169SOL    HW231407   7.021   4.038   3.067
10170SOL     OW31408   6.489   5.852   0.192
10170SOL    HW131409   6.400   5.881   0.229
10170SOL    HW231410   6.556   5.925   0.205
10171SOL     OW31411   2.029   3.141   5.438
10171SOL    HW131412   2.021   3.158   5.536
10171SOL    HW231413   2.086   3.061   5.422
10172SOL     OW31414   6.812   0.038   2.934
10172SOL    HW131415   6.905   0.074   2.942
10172SOL    HW231416   6.806   6.975   2.983
10173SOL     OW31417   3.650   5.028   6.563
10173SOL    HW131418   3.561   5.047   6.604
10173SOL    HW231419   3.718   5.015   6.636
10174SOL     OW31420   5.149   6.738   3.181
10174SOL    HW131421   5.217   6.804   3.147
10174SOL    HW231422   5.194   6.672   3.241
10175SOL     OW31423   6.641   1.955   3.166
10175SOL    HW131424   6.674   1.874   3.117
10175SOL    HW231425   6.716   2.019   3.179
10176SOL     OW31426   6.592   3.475   5.822
10176SOL    HW131427   6.534   3.556   5.819
10176SOL    HW231428   6.619   3.458   5.917
10177SOL     OW31429   2.486   0.433   1.560
10177SOL    HW131430   2.510   0.341   1.532
10177SOL    HW231431   2.518   0.450   1.654
10178SOL     OW31432   1.881   1.933   0.521
10178SOL    HW131433   1.932   1.866   0.468
10178SOL    HW231434   1.793   1.951   0.477
10179SOL     OW31435   6.992   4.321   0.329
10179SOL    HW131436   0.065   4.308   0.311
10179SOL    HW231437   6.954   4.238   0.371
10180SOL     OW31438   4.358   6.647   6.892
10180SOL    HW131439   4.265   6.680   6.876
10180SOL    HW231440   4.423   6.703   6.839
10181SOL     OW31441   6.324   4.062   1.677
10181SOL    HW131442   6.251   4.064   1.745
10181SOL    HW231443   6.302   4.126   1.603
10182SOL     OW31444   5.476   1.780   0.198
10182SOL    HW131445   5.425   1.701   0.231
10182SOL    HW231446   5.554   1.749   0.143
10183SOL     OW31447   6.700   2.475   6.201
10183SOL    HW131448   6.789   2.456   6.244
10183SOL    HW231449   6.715   2.521   6.114
10184SOL     OW31450   6.198   3.517   6.492
10184SOL    HW131451   6.257   3.572   6.552
10184SOL    HW231452   6.110   3.503   6.536
10185SOL     OW31453   3.791   6.027   2.243
10185SOL    HW131454   3.793   5.927   2.244
10185SOL    HW231455   3.751   6.059   2.157
10186SOL     OW31456   4.649   4.079   5.689
10186SOL    HW131457   4.557   4.077   5.650
10186SOL    HW231458   4.648   4.128   5.776
10187SOL     OW31459   2.417   4.401   5.785
10187SOL    HW131460   2.376   4.323   5.831
10187SOL    HW231461   2.517   4.392   5.786
10188SOL     OW31462   2.695   6.532   0.075
10188SOL    HW131463   2.675   6.626   0.101
10188SOL    HW231464   2.773   6.531   0.012
10189SOL     OW31465   1.284   1.191   6.830
10189SOL    HW131466   1.201   1.217   6.782
10189SOL    HW231467   1.324   1.272   6.873
10190SOL     OW31468   2.807   3.864   1.146
10190SOL    HW131469   2.814   3.963   1.150
10190SOL    HW231470   2.733   3.838   1.084
10191SOL     OW31471   6.143   5.515   0.673
10191SOL    HW131472   6.046   5.539   0.685
10191SOL    HW231473   6.188   5.586   0.619
10192SOL     OW31474   2.519   1.850   5.303
10192SOL    HW131475   2.542   1.921   5.238
10192SOL    HW231476   2.422   1.825   5.293
10193SOL     OW31477   3.841   3.011   2.606
10193SOL    HW131478   3.938   3.034   2.612
10193SOL    HW231479   3.789   3.089   2.570
10194SOL     OW31480   3.825   0.352   4.620
10194SOL    HW131481   3.870   0.438   4.644
10194SOL    HW231482   3.895   0.283   4.599
10195SOL     OW31483   5.506   0.387   1.623
10195SOL    HW131484   5.566   0.463   1.649
10195SOL    HW231485   5.559   0.302   1.623
10196SOL     OW31486   5.620   2.048   3.518
10196SOL    HW131487   5.678   1.973   3.486
10196SOL    HW231488   5.611   2.116   3.445
10197SOL     OW31489   5.709   0.266   3.056
10197SOL    HW131490   5.652   0.307   3.127
10197SOL    HW231491   5.752   0.183   3.093
10198SOL     OW31492   3.034   6.567   1.054
10198SOL    HW131493   2.946   6.609   1.076
10198SOL    HW231494   3.064   6.510   1.130
10199SOL     OW31495   1.385   1.909   6.824
10199SOL    HW131496   1.332   1.887   6.742
10199SOL    HW231497   1.329   1.895   6.905
10200SOL     OW31498   5.852   3.735   6.184
10200SOL    HW131499   5.778   3.755   6.248
10200SOL    HW231500   5.926   3.687   6.233
10201SOL     OW31501   0.500   5.484   2.437
10201SOL    HW131502   0.447   5.565   2.412
10201SOL    HW231503   0.489   5.414   2.368
10202SOL     OW31504   6.920   4.178   1.130
10202SOL    HW131505   7.000   4.133   1.089
10202SOL    HW231506   6.950   4.254   1.188
10203SOL     OW31507   1.944   3.122   2.450
10203SOL    HW131508   2.005   3.063   2.502
10203SOL    HW231509   1.949   3.215   2.486
10204SOL     OW31510   3.172   4.548   5.709
10204SOL    HW131511   3.214   4.617   5.649
10204SOL    HW231512   3.235   4.526   5.783
10205SOL     OW31513   5.013   1.647   3.520
10205SOL    HW131514   4.987   1.678   3.611
10205SOL    HW231515   4.941   1.671   3.455
10206SOL     OW31516   5.366   6.667   6.060
10206SOL    HW131517   5.320   6.742   6.109
10206SOL    HW231518   5.301   6.622   5.999
10207SOL     OW31519   2.191   1.024   1.839
10207SOL    HW131520   2.124   0.951   1.849
10207SOL    HW231521   2.248   1.029   1.921
10208SOL     OW31522   6.223   5.639   5.193
10208SOL    HW131523   6.140   5.672   5.237
10208SOL    HW231524   6.213   5.542   5.171
10209SOL     OW31525   0.299   1.016   5.950
10209SOL    HW131526   0.247   1.006   5.865
10209SOL    HW231527   0.396   1.032   5.928
10210SOL     OW31528   5.258   0.239   2.077
10210SOL    HW131529   5.357   0.255   2.075
10210SOL    HW231530   5.219   0.279   2.160
10211SOL     OW31531   3.503   6.486   5.557
10211SOL    HW131532   3.570   6.553   5.589
10211SOL    HW231533   3.441   6.462   5.631
10212SOL     OW31534   0.410   1.294   4.344
10212SOL    HW131535   0.343   1.278   4.272
10212SOL    HW231536   0.364   1.330   4.426
10213SOL     OW31537   5.369   1.625   2.642
10213SOL    HW131538   5.306   1.676   2.700
10213SOL    HW231539   5.440   1.687   2.608
10214SOL     OW31540   6.595   0.839   2.010
10214SOL    HW131541   6.604   0.766   2.078
10214SOL    HW231542   6.612   0.802   1.919
10215SOL     OW31543   3.001   3.503   5.739
10215SOL    HW131544   3.034   3.451   5.660
10215SOL    HW231545   2.980   3.597   5.711
10216SOL     OW31546   6.193   7.004   0.798
10216SOL    HW131547   6.160   0.073   0.788
10216SOL    HW231548   6.291   7.004   0.815
10217SOL     OW31549   2.675   1.520   4.272
10217SOL    HW131550   2.719   1.595   4.321
10217SOL    HW231551   2.724   1.502   4.187
10218SOL     OW31552   1.237   1.795   1.496
10218SOL    HW131553   1.332   1.770   1.514
10218SOL    HW231554   1.226   1.817   1.399
10219SOL     OW31555   0.541   2.206   2.042
10219SOL    HW131556   0.464   2.197   2.105
10219SOL    HW231557   0.625   2.176   2.088
10220SOL     OW31558   3.913   1.473   1.662
10220SOL    HW131559   3.832   1.467   1.721
10220SOL    HW231560   3.986   1.417   1.700
10221SOL     OW31561   2.135   1.198   4.619
10221SOL    HW131562   2.053   1.250   4.643
10221SOL    HW231563   2.188   1.179   4.702
10222SOL     OW31564   1.038   3.713   5.106
10222SOL    HW131565   1.006   3.642   5.044
10222SOL    HW231566   1.062   3.672   5.194
10223SOL     OW31567   1.324   4.977   6.372
10223SOL    HW131568   1.352   5.027   6.290
10223SOL    HW231569   1.368   5.017   6.452
10224SOL     OW31570   1.514   1.134   4.355
10224SOL    HW131571   1.499   1.213   4.295
10224SOL    HW231572   1.607   1.137   4.391
10225SOL     OW31573   1.060   6.261   4.885
10225SOL    HW131574   1.044   6.327   4.959
10225SOL    HW231575   0.973   6.222   4.855
10226SOL     OW31576   3.220   0.957   6.783
10226SOL    HW131577   3.259   0.885   6.725
10226SOL    HW231578   3.283   0.976   6.858
10227SOL     OW31579   4.799   4.708   0.585
10227SOL    HW131580   4.784   4.612   0.607
10227SOL    HW231581   4.885   4.717   0.535
10228SOL     OW31582   0.517   5.298   2.211
10228SOL    HW131583   0.548   5.291   2.116
10228SOL    HW231584   0.471   5.213   2.237
10229SOL     OW31585   0.949   1.070   3.468
10229SOL    HW131586   0.969   1.008   3.543
10229SOL    HW231587   0.851   1.066   3.446
10230SOL     OW31588   0.257   0.111   3.231
10230SOL    HW131589   0.331   0.161   3.276
10230SOL    HW231590   0.182   0.174   3.211
10231SOL     OW31591   0.183   6.828   5.234
10231SOL    HW131592   0.229   6.756   5.181
10231SOL    HW231593   0.248   6.865   5.301
10232SOL     OW31594   4.243   0.901   4.393
10232SOL    HW131595   4.170   0.871   4.332
10232SOL    HW231596   4.226   0.996   4.421
10233SOL     OW31597   4.671   2.783   5.509
10233SOL    HW131598   4.613   2.712   5.468
10233SOL    HW231599   4.707   2.843   5.437
10234SOL     OW31600   5.061   0.120   0.718
10234SOL    HW131601   5.082   0.081   0.808
10234SOL    HW231602   4.963   0.133   0.709
10235SOL     OW31603   4.402   1.207   0.467
10235SOL    HW131604   4.358   1.207   0.557
10235SOL    HW231605   4.365   1.281   0.412
10236SOL     OW31606   1.718   6.865   1.636
10236SOL    HW131607   1.762   6.827   1.717
10236SOL    HW231608   1.701   6.792   1.570
10237SOL     OW31609   6.100   4.009   1.426
10237SOL    HW131610   6.092   3.960   1.339
10237SOL    HW231611   6.040   4.088   1.425
10238SOL     OW31612   3.662   3.797   5.122
10238SOL    HW131613   3.660   3.702   5.090
10238SOL    HW231614   3.756   3.827   5.132
10239SOL     OW31615   1.325   4.508   5.710
10239SOL    HW131616   1.298   4.453   5.788
10239SOL    HW231617   1.276   4.476   5.628
10240SOL     OW31618   1.029   4.279   2.469
10240SOL    HW131619   1.065   4.351   2.528
10240SOL    HW231620   0.974   4.320   2.396
10241SOL     OW31621   0.323   0.878   1.797
10241SOL    HW131622   0.275   0.909   1.715
10241SOL    HW231623   0.411   0.840   1.771
10242SOL     OW31624   0.862   1.898   5.914
10242SOL    HW131625   0.956   1.870   5.901
10242SOL    HW231626   0.851   1.937   6.006
10243SOL     OW31627   0.095   5.398   1.384
10243SOL    HW131628   0.115   5.300   1.387
10243SOL    HW231629   0.152   5.446   1.450
10244SOL     OW31630   1.915   4.404   0.122
10244SOL    HW131631   1.991   4.466   0.107
10244SOL    HW231632   1.943   4.331   0.185
10245SOL     OW31633   2.145   3.451   0.053
10245SOL    HW131634   2.212   3.398   0.002
10245SOL    HW231635   2.092   3.507   7.013
10246SOL     OW31636   3.209   4.166   4.712
10246SOL    HW131637   3.276   4.165   4.787
10246SOL    HW231638   3.120   4.195   4.748
10247SOL     OW31639   0.583   5.274   5.435
10247SOL    HW131640   0.488   5.247   5.421
10247SOL    HW231641   0.592   5.322   5.522
10248SOL     OW31642   3.078   0.231   2.324
10248SOL    HW131643   2.997   0.286   2.347
10248SOL    HW231644   3.058   0.134   2.337
10249SOL     OW31645   3.123   0.760   5.568
10249SOL    HW131646   3.034   0.746   5.524
10249SOL    HW231647   3.111   0.818   5.648
10250SOL     OW31648   0.007   1.854   1.079
10250SOL    HW131649   6.975   1.798   1.139
10250SOL    HW231650   6.991   1.858   0.988
10251SOL     OW31651   2.348   2.900   6.024
10251SOL    HW131652   2.401   2.886   6.108
10251SOL    HW231653   2.398   2.962   5.963
10252SOL     OW31654   6.213   6.962   0.522
10252SOL    HW131655   6.252   6.872   0.505
10252SOL    HW231656   6.194   6.972   0.620
10253SOL     OW31657   4.843   5.273   6.993
10253SOL    HW131658   4.861   5.245   6.899
10253SOL    HW231659   4.792   5.359   6.993
10254SOL     OW31660   3.471   2.078   4.358
10254SOL    HW131661   3.478   1.981   4.379
10254SOL    HW231662   3.380   2.098   4.321
10255SOL     OW31663   1.769   6.117   1.272
10255SOL    HW131664   1.695   6.179   1.245
10255SOL    HW231665   1.854   6.148   1.231
10256SOL     OW31666   5.363   0.051   1.320
10256SOL    HW131667   5.360   7.004   1.249
10256SOL    HW231668   5.290   0.117   1.303
10257SOL     OW31669   0.647   4.378   5.133
10257SOL    HW131670   0.652   4.430   5.048
10257SOL    HW231671   0.560   4.395   5.179
10258SOL     OW31672   5.505   6.956   3.532
10258SOL    HW131673   5.423   6.942   3.587
10258SOL    HW231674   5.567   7.019   3.580
10259SOL     OW31675   1.041   4.979   3.294
10259SOL    HW131676   1.112   5.021   3.237
10259SOL    HW231677   1.082   4.910   3.354
10260SOL     OW31678   6.956   6.747   2.908
10260SOL    HW131679   6.989   6.673   2.967
10260SOL    HW231680   6.861   6.768   2.931
10261SOL     OW31681   6.901   6.017   2.228
10261SOL    HW131682   6.806   6.044   2.213
10261SOL    HW231683   6.957   6.099   2.240
10262SOL     OW31684   3.050   5.583   4.511
10262SOL    HW131685   3.133   5.615   4.557
10262SOL    HW231686   2.991   5.536   4.578
10263SOL     OW31687   5.137   1.629   6.549
10263SOL    HW131688   5.130   1.562   6.475
10263SOL    HW231689   5.205   1.597   6.616
10264SOL     OW31690   6.210   1.805   6.650
10264SOL    HW131691   6.154   1.879   6.612
10264SOL    HW231692   6.271   1.842   6.721
10265SOL     OW31693   3.287   1.705   2.690
10265SOL    HW131694   3.378   1.689   2.653
10265SOL    HW231695   3.255   1.622   2.736
10266SOL     OW31696   3.753   3.719   5.722
10266SOL    HW131697   3.659   3.715   5.689
10266SOL    HW231698   3.806   3.645   5.679
10267SOL     OW31699   6.422   1.975   6.764
10267SOL    HW131700   6.382   2.037   6.832
10267SOL    HW231701   6.498   2.021   6.718
10268SOL     OW31702   5.300   6.100   1.559
10268SOL    HW131703   5.265   6.147   1.639
10268SOL    HW231704   5.359   6.161   1.507
10269SOL     OW31705   2.100   1.337   5.609
10269SOL    HW131706   2.172   1.269   5.600
10269SOL    HW231707   2.011   1.291   5.612
10270SOL     OW31708   2.146   6.061   1.399
10270SOL    HW131709   2.144   5.978   1.342
10270SOL    HW231710   2.212   6.049   1.473
10271SOL     OW31711   3.098   3.492   0.528
10271SOL    HW131712   3.169   3.557   0.554
10271SOL    HW231713   3.036   3.477   0.605
10272SOL     OW31714   0.847   0.956   4.153
10272SOL    HW131715   0.788   0.965   4.072
10272SOL    HW231716   0.817   1.020   4.223
10273SOL     OW31717   3.994   6.033   3.981
10273SOL    HW131718   3.967   6.107   3.920
10273SOL    HW231719   3.972   5.945   3.938
10274SOL     OW31720   1.535   4.665   5.783
10274SOL    HW131721   1.568   4.718   5.705
10274SOL    HW231722   1.454   4.613   5.756
10275SOL     OW31723   1.151   0.051   2.389
10275SOL    HW131724   1.064   0.100   2.383
10275SOL    HW231725   1.207   0.091   2.461
10276SOL     OW31726   6.841   5.414   6.245
10276SOL    HW131727   6.893   5.438   6.327
10276SOL    HW231728   6.821   5.316   6.246
10277SOL     OW31729   2.806   6.300   4.134
10277SOL    HW131730   2.905   6.310   4.142
10277SOL    HW231731   2.761   6.369   4.191
10278SOL     OW31732   6.428   1.111   5.713
10278SOL    HW131733   6.495   1.042   5.687
10278SOL    HW231734   6.473   1.184   5.765
10279SOL     OW31735   3.816   0.492   3.803
10279SOL    HW131736   3.753   0.532   3.869
10279SOL    HW231737   3.865   0.416   3.845
10280SOL     OW31738   2.208   4.498   1.277
10280SOL    HW131739   2.159   4.549   1.348
10280SOL    HW231740   2.153   4.497   1.193
10281SOL     OW31741   5.218   2.283   2.483
10281SOL    HW131742   5.142   2.227   2.516
10281SOL    HW231743   5.281   2.302   2.558
10282SOL     OW31744   6.366   3.432   4.176
10282SOL    HW131745   6.433   3.357   4.175
10282SOL    HW231746   6.339   3.454   4.082
10283SOL     OW31747   1.205   3.317   1.214
10283SOL    HW131748   1.123   3.364   1.245
10283SOL    HW231749   1.185   3.266   1.130
10284SOL     OW31750   5.680   4.313   5.422
10284SOL    HW131751   5.719   4.330   5.331
10284SOL    HW231752   5.750   4.328   5.491
10285SOL     OW31753   4.708   0.418   1.520
10285SOL    HW131754   4.779   0.472   1.475
10285SOL    HW231755   4.623   0.426   1.468
10286SOL     OW31756   3.220   1.901   2.897
10286SOL    HW131757   3.230   1.833   2.825
10286SOL    HW231758   3.279   1.979   2.877
10287SOL     OW31759   1.715   0.123   1.764
10287SOL    HW131760   1.704   0.059   1.840
10287SOL    HW231761   1.739   0.072   1.681
10288SOL     OW31762   5.448   5.696   2.230
10288SOL    HW131763   5.451   5.738   2.140
10288SOL    HW231764   5.452   5.767   2.301
10289SOL     OW31765   3.279   0.895   1.291
10289SOL    HW131766   3.305   0.804   1.324
10289SOL    HW231767   3.278   0.960   1.367
10290SOL     OW31768   3.498   4.117   2.794
10290SOL    HW131769   3.448   4.203   2.791
10290SOL    HW231770   3.546   4.103   2.707
10291SOL     OW31771   4.221   0.350   3.906
10291SOL    HW131772   4.222   0.352   3.806
10291SOL    HW231773   4.248   0.260   3.938
10292SOL     OW31774   0.537   2.142   4.689
10292SOL    HW131775   0.575   2.085   4.617
10292SOL    HW231776   0.579   2.118   4.776
10293SOL     OW31777   1.559   6.311   3.009
10293SOL    HW131778   1.613   6.378   3.060
10293SOL    HW231779   1.499   6.261   3.072
10294SOL     OW31780   4.863   3.173   3.404
10294SOL    HW131781   4.889   3.107   3.474
10294SOL    HW231782   4.896   3.264   3.429
10295SOL     OW31783   5.687   4.823   5.681
10295SOL    HW131784   5.736   4.768   5.612
10295SOL    HW231785   5.668   4.766   5.761
10296SOL     OW31786   5.588   4.587   6.148
10296SOL    HW131787   5.622   4.495   6.129
10296SOL    HW231788   5.492   4.583   6.174
10297SOL     OW31789   2.436   6.443   4.423
10297SOL    HW131790   2.382   6.428   4.340
10297SOL    HW231791   2.376   6.437   4.503
10298SOL     OW31792   4.426   4.497   3.305
10298SOL    HW131793   4.357   4.452   3.362
10298SOL    HW231794   4.502   4.435   3.288
10299SOL     OW31795   4.774   4.392   2.980
10299SOL    HW131796   4.861   4.345   2.998
10299SOL    HW231797   4.714   4.383   3.059
10300SOL     OW31798   1.593   4.078   2.171
10300SOL    HW131799   1.641   4.129   2.099
10300SOL    HW231800   1.554   4.143   2.236
10301SOL     OW31801   5.971   1.927   3.222
10301SOL    HW131802   5.929   2.003   3.172
10301SOL    HW231803   6.042   1.963   3.283
10302SOL     OW31804   1.563   6.102   2.703
10302SOL    HW131805   1.661   6.112   2.721
10302SOL    HW231806   1.519   6.191   2.710
10303SOL     OW31807   3.661   4.149   1.324
10303SOL    HW131808   3.630   4.204   1.401
10303SOL    HW231809   3.671   4.054   1.354
10304SOL     OW31810   6.053   0.343   4.071
10304SOL    HW131811   6.023   0.281   4.143
10304SOL    HW231812   6.120   0.408   4.108
10305SOL     OW31813   1.210   6.198   6.952
10305SOL    HW131814   1.287   6.232   7.006
10305SOL    HW231815   1.223   6.100   6.935
10306SOL     OW31816   4.478   5.316   6.725
10306SOL    HW131817   4.395   5.370   6.740
10306SOL    HW231818   4.469   5.228   6.770
10307SOL     OW31819   1.600   1.118   5.256
10307SOL    HW131820   1.555   1.203   5.228
10307SOL    HW231821   1.697   1.124   5.236
10308SOL     OW31822   3.294   5.208   3.809
10308SOL    HW131823   3.311   5.292   3.861
10308SOL    HW231824   3.320   5.129   3.865
10309SOL     OW31825   6.489   6.870   3.638
10309SOL    HW131826   6.431   6.806   3.587
10309SOL    HW231827   6.529   6.936   3.576
10310SOL     OW31828   2.841   3.776   1.765
10310SOL    HW131829   2.896   3.740   1.690
10310SOL    HW231830   2.797   3.861   1.736
10311SOL     OW31831   0.553   5.627   1.347
10311SOL    HW131832   0.634   5.686   1.345
10311SOL    HW231833   0.480   5.673   1.396
10312SOL     OW31834   3.627   5.089   0.972
10312SOL    HW131835   3.663   5.181   0.965
10312SOL    HW231836   3.622   5.047   0.881
10313SOL     OW31837   4.358   7.011   2.322
10313SOL    HW131838   4.375   0.078   2.285
10313SOL    HW231839   4.264   7.005   2.356
10314SOL     OW31840   6.232   0.588   0.753
10314SOL    HW131841   6.303   0.539   0.804
10314SOL    HW231842   6.149   0.532   0.749
10315SOL     OW31843   6.267   6.082   5.176
10315SOL    HW131844   6.186   6.023   5.170
10315SOL    HW231845   6.335   6.052   5.109
10316SOL     OW31846   0.254   3.155   4.662
10316SOL    HW131847   0.183   3.191   4.602
10316SOL    HW231848   0.217   3.080   4.717
10317SOL     OW31849   3.820   4.985   5.925
10317SOL    HW131850   3.732   5.002   5.968
10317SOL    HW231851   3.827   5.038   5.841
10318SOL     OW31852   6.111   5.589   1.640
10318SOL    HW131853   6.193   5.626   1.683
10318SOL    HW231854   6.125   5.492   1.619
10319SOL     OW31855   0.352   4.758   4.469
10319SOL    HW131856   0.285   4.685   4.456
10319SOL    HW231857   0.445   4.719   4.467
10320SOL     OW31858   1.033   0.316   0.712
10320SOL    HW131859   1.046   0.397   0.769
10320SOL    HW231860   0.940   0.281   0.725
10321SOL     OW31861   3.825   6.272   4.886
10321SOL    HW131862   3.827   6.172   4.884
10321SOL    HW231863   3.919   6.307   4.883
10322SOL     OW31864   6.422   6.292   0.552
10322SOL    HW131865   6.338   6.242   0.532
10322SOL    HW231866   6.495   6.228   0.574
10323SOL     OW31867   6.926   3.431   6.669
10323SOL    HW131868   6.951   3.373   6.591
10323SOL    HW231869   7.002   3.435   6.733
10324SOL     OW31870   3.677   3.337   3.233
10324SOL    HW131871   3.669   3.301   3.326
10324SOL    HW231872   3.598   3.394   3.212
10325SOL     OW31873   6.698   4.207   3.906
10325SOL    HW131874   6.601   4.186   3.892
10325SOL    HW231875   6.714   4.304   3.892
10326SOL     OW31876   4.949   2.657   0.214
10326SOL    HW131877   4.863   2.663   0.265
10326SOL    HW231878   4.994   2.570   0.236
10327SOL     OW31879   2.277   1.116   2.734
10327SOL    HW131880   2.183   1.151   2.728
10327SOL    HW231881   2.314   1.134   2.825
10328SOL     OW31882   5.643   3.410   2.360
10328SOL    HW131883   5.733   3.451   2.349
10328SOL    HW231884   5.575   3.483   2.375
10329SOL     OW31885   2.732   0.558   4.205
10329SOL    HW131886   2.664   0.630   4.196
10329SOL    HW231887   2.724   0.494   4.128
10330SOL     OW31888   3.458   4.969   3.323
10330SOL    HW131889   3.538   4.931   3.278
10330SOL    HW231890   3.485   5.019   3.405
10331SOL     OW31891   5.708   0.900   3.376
10331SOL    HW131892   5.706   0.965   3.300
10331SOL    HW231893   5.669   0.943   3.457
10332SOL     OW31894   0.104   1.932   0.682
10332SOL    HW131895   0.018   1.928   0.631
10332SOL    HW231896   0.105   1.861   0.752
10333SOL     OW31897   5.813   4.703   4.029
10333SOL    HW131898   5.745   4.675   4.096
10333SOL    HW231899   5.767   4.730   3.945
10334SOL     OW31900   1.964   4.977   3.614
10334SOL    HW131901   2.036   5.043   3.590
10334SOL    HW231902   1.920   4.944   3.531
10335SOL     OW31903   2.177   5.104   6.678
10335SOL    HW131904   2.255   5.098   6.740
10335SOL    HW231905   2.142   5.198   6.678
10336SOL     OW31906   4.342   6.760   2.124
10336SOL    HW131907   4.357   6.842   2.180
10336SOL    HW231908   4.386   6.772   2.035
10337SOL     OW31909   0.346   5.204   4.908
10337SOL    HW131910   0.423   5.163   4.958
10337SOL    HW231911   0.377   5.232   4.817
10338SOL     OW31912   3.700   6.882   1.231
10338SOL    HW131913   3.780   6.942   1.233
10338SOL    HW231914   3.680   6.851   1.324
10339SOL     OW31915   3.977   5.733   1.021
10339SOL    HW131916   3.879   5.722   1.002
10339SOL    HW231917   4.010   5.655   1.074
10340SOL     OW31918   2.276   5.482   6.756
10340SOL    HW131919   2.363   5.456   6.715
10340SOL    HW231920   2.201   5.435   6.708
10341SOL     OW31921   2.507   2.558   2.479
10341SOL    HW131922   2.587   2.502   2.496
10341SOL    HW231923   2.483   2.555   2.382
10342SOL     OW31924   1.824   6.426   6.523
10342SOL    HW131925   1.767   6.445   6.443
10342SOL    HW231926   1.765   6.413   6.603
10343SOL     OW31927   1.814   4.181   6.643
10343SOL    HW131928   1.872   4.099   6.640
10343SOL    HW231929   1.844   4.239   6.719
10344SOL     OW31930   4.097   3.744   4.628
10344SOL    HW131931   4.185   3.756   4.581
10344SOL    HW231932   4.090   3.810   4.703
10345SOL     OW31933   2.744   1.314   7.007
10345SOL    HW131934   2.722   1.218   6.990
10345SOL    HW231935   2.783   1.324   0.074
10346SOL     OW31936   5.237   0.110   0.286
10346SOL    HW131937   5.335   0.129   0.274
10346SOL    HW231938   5.226   0.025   0.337
10347SOL     OW31939   5.219   1.668   0.866
10347SOL    HW131940   5.276   1.586   0.862
10347SOL    HW231941   5.277   1.748   0.874
10348SOL     OW31942   6.091   0.987   6.202
10348SOL    HW131943   6.096   0.933   6.117
10348SOL    HW231944   6.181   1.024   6.223
10349SOL     OW31945   5.904   0.857   0.670
10349SOL    HW131946   5.956   0.938   0.698
10349SOL    HW231947   5.821   0.851   0.724
10350SOL     OW31948   3.641   5.950   4.179
10350SOL    HW131949   3.699   5.987   4.106
10350SOL    HW231950   3.573   5.888   4.140
10351SOL     OW31951   6.264   4.811   5.210
10351SOL    HW131952   6.330   4.743   5.240
10351SOL    HW231953   6.274   4.895   5.264
10352SOL     OW31954   5.531   1.945   6.831
10352SOL    HW131955   5.514   2.043   6.845
10352SOL    HW231956   5.451   1.902   6.790
10353SOL     OW31957   0.010   3.479   3.573
10353SOL    HW131958   0.010   3.434   3.484
10353SOL    HW231959   6.944   3.518   3.590
10354SOL     OW31960   0.575   3.937   0.848
10354SOL    HW131961   0.513   3.920   0.771
10354SOL    HW231962   0.655   3.877   0.840
10355SOL     OW31963   1.173   1.917   1.243
10355SOL    HW131964   1.173   1.879   1.151
10355SOL    HW231965   1.132   2.008   1.242
10356SOL     OW31966   0.430   2.879   6.729
10356SOL    HW131967   0.480   2.795   6.752
10356SOL    HW231968   0.459   2.953   6.789
10357SOL     OW31969   1.712   2.253   6.426
10357SOL    HW131970   1.797   2.244   6.479
10357SOL    HW231971   1.634   2.236   6.486
10358SOL     OW31972   1.788   2.687   2.833
10358SOL    HW131973   1.823   2.613   2.890
10358SOL    HW231974   1.800   2.663   2.737
10359SOL     OW31975   4.893   2.631   2.499
10359SOL    HW131976   4.866   2.663   2.409
10359SOL    HW231977   4.813   2.593   2.546
10360SOL     OW31978   5.393   5.122   3.125
10360SOL    HW131979   5.469   5.069   3.086
10360SOL    HW231980   5.318   5.060   3.150
10361SOL     OW31981   2.036   1.762   1.591
10361SOL    HW131982   2.082   1.676   1.611
10361SOL    HW231983   1.938   1.752   1.602
10362SOL     OW31984   0.224   5.328   2.031
10362SOL    HW131985   0.235   5.261   2.104
10362SOL    HW231986   0.309   5.379   2.018
10363SOL     OW31987   4.527   3.197   0.349
10363SOL    HW131988   4.591   3.257   0.301
10363SOL    HW231989   4.572   3.158   0.430
10364SOL     OW31990   5.251   5.121   1.019
10364SOL    HW131991   5.278   5.105   0.924
10364SOL    HW231992   5.311   5.190   1.060
10365SOL     OW31993   6.124   5.268   0.147
10365SOL    HW131994   6.058   5.308   0.083
10365SOL    HW231995   6.176   5.196   0.100
10366SOL     OW31996   4.399   6.754   3.302
10366SOL    HW131997   4.342   6.827   3.265
10366SOL    HW231998   4.494   6.768   3.273
10367SOL     OW31999   6.642   1.944   2.140
10367SOL    HW132000   6.669   1.922   2.046
10367SOL    HW232001   6.543   1.954   2.145
10368SOL     OW32002   2.807   0.968   2.179
10368SOL    HW132003   2.875   0.913   2.227
10368SOL    HW232004   2.722   0.969   2.231
10369SOL     OW32005   2.942   6.406   5.631
10369SOL    HW132006   2.893   6.362   5.555
10369SOL    HW232007   2.917   6.503   5.633
10370SOL     OW32008   6.224   1.350   4.169
10370SOL    HW132009   6.223   1.442   4.130
10370SOL    HW232010   6.184   1.285   4.104
10371SOL     OW32011   3.528   6.468   2.940
10371SOL    HW132012   3.583   6.385   2.933
10371SOL    HW232013   3.512   6.505   2.849
10372SOL     OW32014   2.823   0.452   1.562
10372SOL    HW132015   2.820   0.424   1.466
10372SOL    HW232016   2.785   0.378   1.619
10373SOL     OW32017   0.384   0.014   4.696
10373SOL    HW132018   0.325   0.059   4.764
10373SOL    HW232019   0.469   0.066   4.686
10374SOL     OW32020   2.686   6.483   4.297
10374SOL    HW132021   2.757   6.519   4.357
10374SOL    HW232022   2.601   6.472   4.349
10375SOL     OW32023   2.785   2.354   5.943
10375SOL    HW132024   2.872   2.326   5.902
10375SOL    HW232025   2.775   2.312   6.033
10376SOL     OW32026   1.549   6.268   3.390
10376SOL    HW132027   1.561   6.198   3.461
10376SOL    HW232028   1.629   6.328   3.389
10377SOL     OW32029   0.081   1.825   1.922
10377SOL    HW132030   0.175   1.817   1.889
10377SOL    HW232031   0.025   1.873   1.854
10378SOL     OW32032   0.377   5.980   5.564
10378SOL    HW132033   0.319   5.995   5.484
10378SOL    HW232034   0.340   5.905   5.618
10379SOL     OW32035   2.743   6.163   4.606
10379SOL    HW132036   2.819   6.174   4.670
10379SOL    HW232037   2.776   6.177   4.512
10380SOL     OW32038   1.268   1.976   4.843
10380SOL    HW132039   1.200   1.956   4.914
10380SOL    HW232040   1.247   2.064   4.801
10381SOL     OW32041   4.060   3.936   1.418
10381SOL    HW132042   3.968   3.908   1.387
10381SOL    HW232043   4.061   4.035   1.432
10382SOL     OW32044   2.439   5.778   2.105
10382SOL    HW132045   2.459   5.823   2.192
10382SOL    HW232046   2.437   5.846   2.031
10383SOL     OW32047   2.018   4.003   0.177
10383SOL    HW132048   1.935   3.952   0.152
10383SOL    HW232049   2.086   3.940   0.214
10384SOL     OW32050   6.157   6.534   0.920
10384SOL    HW132051   6.186   6.629   0.936
10384SOL    HW232052   6.234   6.473   0.934
10385SOL     OW32053   3.613   5.312   5.989
10385SOL    HW132054   3.619   5.232   5.930
10385SOL    HW232055   3.574   5.285   6.077
10386SOL     OW32056   0.110   1.022   5.716
10386SOL    HW132057   0.084   1.075   5.635
10386SOL    HW232058   0.034   0.962   5.743
10387SOL     OW32059   5.238   3.044   3.524
10387SOL    HW132060   5.305   3.114   3.547
10387SOL    HW232061   5.239   3.029   3.425
10388SOL     OW32062   2.830   0.277   0.200
10388SOL    HW132063   2.907   0.338   0.218
10388SOL    HW232064   2.797   0.292   0.106
10389SOL     OW32065   6.387   3.736   0.312
10389SOL    HW132066   6.458   3.735   0.241
10389SOL    HW232067   6.429   3.749   0.402
10390SOL     OW32068   1.757   2.258   0.438
10390SOL    HW132069   1.836   2.206   0.471
10390SOL    HW232070   1.698   2.282   0.515
10391SOL     OW32071   1.493   6.490   3.701
10391SOL    HW132072   1.555   6.415   3.678
10391SOL    HW232073   1.521   6.573   3.652
10392SOL     OW32074   5.698   5.124   5.671
10392SOL    HW132075   5.702   5.024   5.673
10392SOL    HW232076   5.791   5.160   5.663
10393SOL     OW32077   1.897   3.768   3.787
10393SOL    HW132078   1.995   3.752   3.779
10393SOL    HW232079   1.872   3.850   3.736
10394SOL     OW32080   2.690   5.639   4.434
10394SOL    HW132081   2.698   5.730   4.394
10394SOL    HW232082   2.685   5.571   4.360
10395SOL     OW32083   0.377   6.424   1.621
10395SOL    HW132084   0.281   6.451   1.628
10395SOL    HW232085   0.393   6.341   1.674
10396SOL     OW32086   4.453   1.634   4.079
10396SOL    HW132087   4.522   1.624   4.151
10396SOL    HW232088   4.417   1.544   4.055
10397SOL     OW32089   3.110   2.142   3.204
10397SOL    HW132090   3.184   2.108   3.263
10397SOL    HW232091   3.027   2.153   3.258
10398SOL     OW32092   5.657   2.443   0.934
10398SOL    HW132093   5.622   2.420   1.024
10398SOL    HW232094   5.693   2.361   0.889
10399SOL     OW32095   5.265   2.231   3.662
10399SOL    HW132096   5.308   2.144   3.640
10399SOL    HW232097   5.166   2.226   3.647
10400SOL     OW32098   4.392   6.533   0.240
10400SOL    HW132099   4.443   6.586   0.308
10400SOL    HW232100   4.331   6.469   0.286
10401SOL     OW32101   6.466   0.154   3.449
10401SOL    HW132102   6.452   0.227   3.383
10401SOL    HW232103   6.402   0.166   3.526
10402SOL     OW32104   6.302   3.109   5.462
10402SOL    HW132105   6.335   3.111   5.367
10402SOL    HW232106   6.230   3.040   5.471
10403SOL     OW32107   4.993   1.407   3.705
10403SOL    HW132108   4.946   1.424   3.792
10403SOL    HW232109   4.981   1.487   3.645
10404SOL     OW32110   6.275   6.804   5.345
10404SOL    HW132111   6.189   6.840   5.379
10404SOL    HW232112   6.335   6.879   5.317
10405SOL     OW32113   1.089   0.991   5.023
10405SOL    HW132114   1.131   0.901   5.012
10405SOL    HW232115   1.035   1.012   4.941
10406SOL     OW32116   2.876   4.748   2.930
10406SOL    HW132117   2.929   4.807   2.869
10406SOL    HW232118   2.909   4.759   3.024
10407SOL     OW32119   2.791   6.729   5.938
10407SOL    HW132120   2.694   6.755   5.946
10407SOL    HW232121   2.817   6.673   6.017
10408SOL     OW32122   4.437   0.344   1.826
10408SOL    HW132123   4.453   0.429   1.775
10408SOL    HW232124   4.392   0.366   1.913
10409SOL     OW32125   0.015   4.670   0.896
10409SOL    HW132126   0.076   4.645   0.971
10409SOL    HW232127   0.001   4.590   0.837
10410SOL     OW32128   5.701   1.884   1.150
10410SOL    HW132129   5.690   1.955   1.221
10410SOL    HW232130   5.769   1.818   1.180
10411SOL     OW32131   3.524   6.849   3.428
10411SOL    HW132132   3.439   6.812   3.391
10411SOL    HW232133   3.528   6.947   3.408
10412SOL     OW32134   0.352   1.385   0.091
10412SOL    HW132135   0.284   1.347   0.154
10412SOL    HW232136   0.428   1.320   0.081
10413SOL     OW32137   6.515   2.553   0.769
10413SOL    HW132138   6.434   2.560   0.712
10413SOL    HW232139   6.498   2.598   0.857
10414SOL     OW32140   4.024   4.154   5.762
10414SOL    HW132141   3.952   4.085   5.754
10414SOL    HW232142   3.992   4.228   5.821
10415SOL     OW32143   1.587   3.441   4.380
10415SOL    HW132144   1.624   3.396   4.461
10415SOL    HW232145   1.652   3.509   4.348
10416SOL     OW32146   5.988   0.050   4.850
10416SOL    HW132147   5.953   0.039   4.943
10416SOL    HW232148   5.921   0.100   4.795
10417SOL     OW32149   2.937   5.523   4.258
10417SOL    HW132150   3.003   5.542   4.330
10417SOL    HW232151   2.863   5.466   4.294
10418SOL     OW32152   0.001   4.523   6.801
10418SOL    HW132153   0.061   4.598   6.774
10418SOL    HW232154   0.039   4.436   6.771
10419SOL     OW32155   1.515   7.005   6.036
10419SOL    HW132156   1.456   6.927   6.018
10419SOL    HW232157   1.515   0.002   6.133
10420SOL     OW32158   6.686   3.895   3.427
10420SOL    HW132159   6.626   3.834   3.376
10420SOL    HW232160   6.687   3.869   3.523
10421SOL     OW32161   0.417   1.847   3.478
10421SOL    HW132162   0.489   1.790   3.517
10421SOL    HW232163   0.437   1.867   3.382
10422SOL     OW32164   6.978   3.441   5.459
10422SOL    HW132165   0.009   3.523   5.472
10422SOL    HW232166   6.941   3.412   5.547
10423SOL     OW32167   6.204   5.421   4.852
10423SOL    HW132168   6.105   5.406   4.854
10423SOL    HW232169   6.223   5.519   4.862
10424SOL     OW32170   5.633   2.945   0.735
10424SOL    HW132171   5.574   2.948   0.654
10424SOL    HW232172   5.641   2.850   0.765
10425SOL     OW32173   0.882   0.186   1.816
10425SOL    HW132174   0.838   0.250   1.879
10425SOL    HW232175   0.886   0.095   1.857
10426SOL     OW32176   6.623   4.746   0.431
10426SOL    HW132177   6.551   4.792   0.481
10426SOL    HW232178   6.583   4.686   0.361
10427SOL     OW32179   3.810   0.465   6.263
10427SOL    HW132180   3.899   0.464   6.217
10427SOL    HW232181   3.748   0.528   6.215
10428SOL     OW32182   3.114   1.024   3.971
10428SOL    HW132183   3.105   0.956   3.899
10428SOL    HW232184   3.204   1.018   4.013
10429SOL     OW32185   0.315   5.183   0.723
10429SOL    HW132186   0.251   5.109   0.747
10429SOL    HW232187   0.304   5.206   0.627
10430SOL     OW32188   5.166   6.472   4.203
10430SOL    HW132189   5.195   6.413   4.278
10430SOL    HW232190   5.175   6.568   4.231
10431SOL     OW32191   3.440   6.122   4.029
10431SOL    HW132192   3.514   6.071   3.985
10431SOL    HW232193   3.372   6.058   4.064
10432SOL     OW32194   6.048   6.617   5.160
10432SOL    HW132195   5.963   6.613   5.108
10432SOL    HW232196   6.030   6.654   5.251
10433SOL     OW32197   2.010   6.174   1.182
10433SOL    HW132198   2.041   6.142   1.272
10433SOL    HW232199   2.077   6.146   1.113
10434SOL     OW32200   4.080   6.754   3.565
10434SOL    HW132201   4.038   6.709   3.486
10434SOL    HW232202   4.009   6.782   3.630
10435SOL     OW32203   0.355   0.332   4.468
10435SOL    HW132204   0.420   0.276   4.520
10435SOL    HW232205   0.266   0.288   4.468
10436SOL     OW32206   0.623   5.132   6.142
10436SOL    HW132207   0.636   5.221   6.098
10436SOL    HW232208   0.704   5.076   6.127
10437SOL     OW32209   5.750   5.383   6.158
10437SOL    HW132210   5.845   5.396   6.185
10437SOL    HW232211   5.746   5.335   6.070
10438SOL     OW32212   5.959   6.585   0.739
10438SOL    HW132213   5.942   6.678   0.706
10438SOL    HW232214   6.051   6.580   0.778
10439SOL     OW32215   3.891   1.184   5.883
10439SOL    HW132216   3.930   1.203   5.973
10439SOL    HW232217   3.953   1.123   5.832
10440SOL     OW32218   1.164   6.558   0.513
10440SOL    HW132219   1.124   6.631   0.458
10440SOL    HW232220   1.197   6.485   0.453
10441SOL     OW32221   4.034   0.495   0.695
10441SOL    HW132222   4.005   0.525   0.786
10441SOL    HW232223   4.132   0.512   0.684
10442SOL     OW32224   3.328   6.272   6.256
10442SOL    HW132225   3.243   6.277   6.203
10442SOL    HW232226   3.333   6.350   6.318
10443SOL     OW32227   5.163   3.968   4.690
10443SOL    HW132228   5.225   4.045   4.672
10443SOL    HW232229   5.071   4.003   4.708
10444SOL     OW32230   3.867   6.300   4.556
10444SOL    HW132231   3.953   6.280   4.603
10444SOL    HW232232   3.828   6.215   4.521
10445SOL     OW32233   1.133   5.454   4.220
10445SOL    HW132234   1.187   5.516   4.162
10445SOL    HW232235   1.179   5.366   4.226
10446SOL     OW32236   1.123   2.810   5.403
10446SOL    HW132237   1.055   2.736   5.405
10446SOL    HW232238   1.096   2.878   5.335
10447SOL     OW32239   6.904   0.858   2.344
10447SOL    HW132240   6.941   0.795   2.275
10447SOL    HW232241   6.936   0.829   2.435
10448SOL     OW32242   3.622   1.693   1.483
10448SOL    HW132243   3.664   1.735   1.563
10448SOL    HW232244   3.641   1.749   1.402
10449SOL     OW32245   2.124   5.252   4.501
10449SOL    HW132246   2.043   5.299   4.467
10449SOL    HW232247   2.188   5.318   4.539
10450SOL     OW32248   0.246   1.867   0.469
10450SOL    HW132249   0.197   1.867   0.556
10450SOL    HW232250   0.271   1.773   0.445
10451SOL     OW32251   1.845   5.084   2.613
10451SOL    HW132252   1.776   5.070   2.684
10451SOL    HW232253   1.921   5.137   2.650
10452SOL     OW32254   5.642   3.433   3.157
10452SOL    HW132255   5.717   3.478   3.107
10452SOL    HW232256   5.577   3.502   3.189
10453SOL     OW32257   4.440   5.688   1.601
10453SOL    HW132258   4.502   5.764   1.579
10453SOL    HW232259   4.457   5.657   1.694
10454SOL     OW32260   4.555   3.166   1.085
10454SOL    HW132261   4.556   3.087   1.146
10454SOL    HW232262   4.467   3.171   1.038
10455SOL     OW32263   6.829   5.236   2.150
10455SOL    HW132264   6.897   5.310   2.155
10455SOL    HW232265   6.858   5.169   2.081
10456SOL     OW32266   2.774   6.260   1.107
10456SOL    HW132267   2.861   6.272   1.059
10456SOL    HW232268   2.789   6.215   1.195
10457SOL     OW32269   3.348   3.255   2.568
10457SOL    HW132270   3.291   3.251   2.651
10457SOL    HW232271   3.323   3.181   2.506
10458SOL     OW32272   0.144   1.058   6.172
10458SOL    HW132273   0.151   0.974   6.226
10458SOL    HW232274   0.182   1.042   6.080
10459SOL     OW32275   4.988   5.079   2.638
10459SOL    HW132276   4.903   5.042   2.600
10459SOL    HW232277   5.065   5.024   2.606
10460SOL     OW32278   1.472   5.096   1.664
10460SOL    HW132279   1.454   5.143   1.578
10460SOL    HW232280   1.486   4.998   1.647
10461SOL     OW32281   1.256   5.726   5.573
10461SOL    HW132282   1.191   5.712   5.498
10461SOL    HW232283   1.208   5.719   5.660
10462SOL     OW32284   5.905   1.698   2.818
10462SOL    HW132285   5.814   1.704   2.859
10462SOL    HW232286   5.927   1.786   2.776
10463SOL     OW32287   4.086   2.887   5.631
10463SOL    HW132288   4.022   2.936   5.691
10463SOL    HW232289   4.080   2.925   5.539
10464SOL     OW32290   5.937   6.416   1.033
10464SOL    HW132291   5.951   6.489   0.967
10464SOL    HW232292   5.994   6.338   1.009
10465SOL     OW32293   5.949   6.836   0.605
10465SOL    HW132294   5.987   6.857   0.515
10465SOL    HW232295   5.915   6.920   0.648
10466SOL     OW32296   4.566   5.067   5.079
10466SOL    HW132297   4.583   5.088   5.175
10466SOL    HW232298   4.637   5.109   5.022
10467SOL     OW32299   1.152   1.929   5.470
10467SOL    HW132300   1.200   1.921   5.382
10467SOL    HW232301   1.070   1.872   5.468
10468SOL     OW32302   3.694   4.889   3.223
10468SOL    HW132303   3.679   4.898   3.124
10468SOL    HW232304   3.775   4.831   3.239
10469SOL     OW32305   3.520   2.338   6.729
10469SOL    HW132306   3.467   2.344   6.645
10469SOL    HW232307   3.495   2.414   6.790
10470SOL     OW32308   2.696   1.641   3.074
10470SOL    HW132309   2.643   1.707   3.021
10470SOL    HW232310   2.666   1.643   3.169
10471SOL     OW32311   2.006   3.261   1.006
10471SOL    HW132312   2.101   3.264   0.973
10471SOL    HW232313   1.964   3.351   0.995
10472SOL     OW32314   3.299   5.523   1.036
10472SOL    HW132315   3.377   5.461   1.028
10472SOL    HW232316   3.253   5.507   1.123
10473SOL     OW32317   5.598   0.326   0.365
10473SOL    HW132318   5.616   0.338   0.268
10473SOL    HW232319   5.650   0.394   0.417
10474SOL     OW32320   4.236   1.536   4.845
10474SOL    HW132321   4.195   1.445   4.837
10474SOL    HW232322   4.329   1.529   4.879
10475SOL     OW32323   4.292   6.283   2.129
10475SOL    HW132324   4.196   6.260   2.144
10475SOL    HW232325   4.320   6.250   2.038
10476SOL     OW32326   0.137   5.489   6.145
10476SOL    HW132327   0.176   5.425   6.212
10476SOL    HW232328   0.061   5.444   6.097
10477SOL     OW32329   6.144   2.588   4.991
10477SOL    HW132330   6.227   2.625   5.033
10477SOL    HW232331   6.159   2.492   4.967
10478SOL     OW32332   0.117   0.205   0.836
10478SOL    HW132333   0.210   0.240   0.849
10478SOL    HW232334   0.095   0.140   0.909
10479SOL     OW32335   6.985   2.935   1.904
10479SOL    HW132336   0.047   2.962   1.863
10479SOL    HW232337   6.916   3.006   1.891
10480SOL     OW32338   5.886   0.247   1.309
10480SOL    HW132339   5.917   0.160   1.271
10480SOL    HW232340   5.933   0.263   1.396
10481SOL     OW32341   2.376   0.826   5.519
10481SOL    HW132342   2.426   0.839   5.433
10481SOL    HW232343   2.288   0.784   5.501
10482SOL     OW32344   1.040   5.946   4.813
10482SOL    HW132345   0.953   5.972   4.770
10482SOL    HW232346   1.023   5.887   4.892
10483SOL     OW32347   0.102   5.204   0.079
10483SOL    HW132348   0.119   5.167   7.011
10483SOL    HW232349   0.008   5.184   0.106
10484SOL     OW32350   6.963   0.661   1.128
10484SOL    HW132351   6.971   0.757   1.157
10484SOL    HW232352   6.890   0.653   1.060
10485SOL     OW32353   3.260   3.058   2.407
10485SOL    HW132354   3.174   3.058   2.355
10485SOL    HW232355   3.328   3.003   2.359
10486SOL     OW32356   6.770   0.668   6.037
10486SOL    HW132357   6.719   0.752   6.057
10486SOL    HW232358   6.868   0.687   6.040
10487SOL     OW32359   4.469   2.001   1.408
10487SOL    HW132360   4.463   1.935   1.334
10487SOL    HW232361   4.528   1.965   1.481
10488SOL     OW32362   1.908   2.057   6.185
10488SOL    HW132363   1.976   2.029   6.117
10488SOL    HW232364   1.920   2.154   6.205
10489SOL     OW32365   5.953   6.056   4.383
10489SOL    HW132366   5.857   6.080   4.372
10489SOL    HW232367   5.975   6.053   4.480
10490SOL     OW32368   5.946   1.108   0.311
10490SOL    HW132369   5.849   1.104   0.335
10490SOL    HW232370   5.995   1.038   0.364
10491SOL     OW32371   2.083   2.726   6.152
10491SOL    HW132372   2.097   2.719   6.251
10491SOL    HW232373   2.067   2.822   6.128
10492SOL     OW32374   3.931   5.655   0.585
10492SOL    HW132375   3.959   5.683   0.493
10492SOL    HW232376   3.854   5.592   0.579
10493SOL     OW32377   2.935   5.591   1.185
10493SOL    HW132378   3.005   5.534   1.226
10493SOL    HW232379   2.855   5.536   1.164
10494SOL     OW32380   7.012   4.421   5.575
10494SOL    HW132381   6.928   4.453   5.531
10494SOL    HW232382   6.990   4.372   5.659
10495SOL     OW32383   6.129   6.563   0.367
10495SOL    HW132384   6.099   6.471   0.392
10495SOL    HW232385   6.226   6.573   0.388
10496SOL     OW32386   6.377   4.649   4.870
10496SOL    HW132387   6.476   4.653   4.878
10496SOL    HW232388   6.337   4.734   4.904
10497SOL     OW32389   1.389   6.511   2.324
10497SOL    HW132390   1.419   6.427   2.279
10497SOL    HW232391   1.307   6.546   2.279
10498SOL     OW32392   5.361   6.284   1.050
10498SOL    HW132393   5.451   6.242   1.039
10498SOL    HW232394   5.294   6.236   0.993
10499SOL     OW32395   4.932   6.302   1.463
10499SOL    HW132396   5.022   6.277   1.427
10499SOL    HW232397   4.942   6.376   1.530
10500SOL     OW32398   5.599   2.130   5.566
10500SOL    HW132399   5.666   2.056   5.573
10500SOL    HW232400   5.639   2.206   5.515
10501SOL     OW32401   2.334   6.021   2.882
10501SOL    HW132402   2.253   6.080   2.875
10501SOL    HW232403   2.305   5.926   2.891
10502SOL     OW32404   2.397   3.890   0.993
10502SOL    HW132405   2.367   3.842   1.076
10502SOL    HW232406   2.489   3.858   0.968
10503SOL     OW32407   6.249   4.200   0.107
10503SOL    HW132408   6.279   4.130   0.172
10503SOL    HW232409   6.183   4.160   0.043
10504SOL     OW32410   0.384   2.271   5.443
10504SOL    HW132411   0.356   2.297   5.535
10504SOL    HW232412   0.439   2.188   5.447
10505SOL     OW32413   5.181   6.357   1.786
10505SOL    HW132414   5.242   6.415   1.732
10505SOL    HW232415   5.175   6.392   1.879
10506SOL     OW32416   0.361   3.570   0.308
10506SOL    HW132417   0.416   3.595   0.388
10506SOL    HW232418   0.294   3.500   0.334
10507SOL     OW32419   1.867   5.519   6.865
10507SOL    HW132420   1.890   5.577   6.943
10507SOL    HW232421   1.821   5.573   6.795
10508SOL     OW32422   1.071   6.058   3.949
10508SOL    HW132423   0.973   6.055   3.966
10508SOL    HW232424   1.099   5.973   3.903
10509SOL     OW32425   5.989   4.432   4.655
10509SOL    HW132426   6.046   4.406   4.577
10509SOL    HW232427   5.893   4.416   4.633
10510SOL     OW32428   4.847   6.460   0.197
10510SOL    HW132429   4.771   6.406   0.160
10510SOL    HW232430   4.906   6.488   0.122
10511SOL     OW32431   2.746   1.488   1.997
10511SOL    HW132432   2.686   1.555   1.954
10511SOL    HW232433   2.808   1.534   2.060
10512SOL     OW32434   3.912   6.703   5.874
10512SOL    HW132435   3.826   6.739   5.839
10512SOL    HW232436   3.988   6.738   5.819
10513SOL     OW32437   6.676   2.900   3.365
10513SOL    HW132438   6.642   2.878   3.273
10513SOL    HW232439   6.600   2.908   3.428
10514SOL     OW32440   1.616   1.742   1.850
10514SOL    HW132441   1.539   1.686   1.819
10514SOL    HW232442   1.639   1.810   1.780
10515SOL     OW32443   2.591   2.494   4.071
10515SOL    HW132444   2.536   2.562   4.119
10515SOL    HW232445   2.688   2.519   4.076
10516SOL     OW32446   2.688   1.855   0.432
10516SOL    HW132447   2.779   1.882   0.400
10516SOL    HW232448   2.672   1.759   0.408
10517SOL     OW32449   1.338   4.275   1.230
10517SOL    HW132450   1.269   4.231   1.172
10517SOL    HW232451   1.309   4.368   1.251
10518SOL     OW32452   0.381   5.574   1.926
10518SOL    HW132453   0.388   5.636   1.847
10518SOL    HW232454   0.409   5.623   2.009
10519SOL     OW32455   2.833   4.673   1.090
10519SOL    HW132456   2.884   4.706   1.010
10519SOL    HW232457   2.896   4.639   1.159
10520SOL     OW32458   6.942   2.026   6.249
10520SOL    HW132459   6.845   2.052   6.252
10520SOL    HW232460   6.967   1.984   6.336
10521SOL     OW32461   6.503   5.051   1.329
10521SOL    HW132462   6.537   4.973   1.277
10521SOL    HW232463   6.405   5.063   1.312
10522SOL     OW32464   0.421   2.877   3.114
10522SOL    HW132465   0.475   2.955   3.146
10522SOL    HW232466   0.474   2.827   3.045
10523SOL     OW32467   0.044   4.580   3.088
10523SOL    HW132468   0.082   4.490   3.067
10523SOL    HW232469   0.009   4.622   3.005
10524SOL     OW32470   0.652   5.602   3.870
10524SOL    HW132471   0.734   5.546   3.867
10524SOL    HW232472   0.571   5.543   3.867
10525SOL     OW32473   3.917   6.889   5.302
10525SOL    HW132474   3.915   6.794   5.271
10525SOL    HW232475   3.954   6.947   5.230
10526SOL     OW32476   0.380   6.644   1.450
10526SOL    HW132477   0.394   6.602   1.540
10526SOL    HW232478   0.466   6.640   1.398
10527SOL     OW32479   0.743   0.284   6.261
10527SOL    HW132480   0.813   0.213   6.274
10527SOL    HW232481   0.757   0.328   6.172
10528SOL     OW32482   0.752   4.302   6.631
10528SOL    HW132483   0.803   4.225   6.593
10528SOL    HW232484   0.792   4.329   6.719
10529SOL     OW32485   1.409   5.868   5.061
10529SOL    HW132486   1.432   5.965   5.056
10529SOL    HW232487   1.365   5.849   5.149
10530SOL     OW32488   1.048   6.080   5.884
10530SOL    HW132489   1.022   6.014   5.814
10530SOL    HW232490   1.075   6.166   5.840
10531SOL     OW32491   2.837   2.237   3.987
10531SOL    HW132492   2.785   2.219   4.071
10531SOL    HW232493   2.775   2.269   3.916
10532SOL     OW32494   6.304   6.713   7.022
10532SOL    HW132495   6.306   6.810   0.020
10532SOL    HW232496   6.366   6.695   6.945
10533SOL     OW32497   3.119   6.106   4.519
10533SOL    HW132498   3.213   6.133   4.540
10533SOL    HW232499   3.103   6.118   4.421
10534SOL     OW32500   6.914   5.485   2.247
10534SOL    HW132501   6.845   5.547   2.211
10534SOL    HW232502   6.979   5.537   2.303
10535SOL     OW32503   1.827   1.443   1.716
10535SOL    HW132504   1.804   1.508   1.643
10535SOL    HW232505   1.762   1.367   1.715
10536SOL     OW32506   4.365   6.987   4.066
10536SOL    HW132507   4.347   6.913   4.131
10536SOL    HW232508   4.460   6.982   4.036
10537SOL     OW32509   5.217   6.289   3.784
10537SOL    HW132510   5.253   6.351   3.854
10537SOL    HW232511   5.209   6.197   3.822
10538SOL     OW32512   5.587   4.238   2.593
10538SOL    HW132513   5.601   4.207   2.687
10538SOL    HW232514   5.515   4.183   2.551
10539SOL     OW32515   5.754   5.518   1.341
10539SOL    HW132516   5.760   5.450   1.268
10539SOL    HW232517   5.821   5.590   1.325
10540SOL     OW32518   2.333   4.202   5.952
10540SOL    HW132519   2.288   4.173   6.036
10540SOL    HW232520   2.289   4.158   5.874
10541SOL     OW32521   3.507   2.936   3.730
10541SOL    HW132522   3.412   2.905   3.740
10541SOL    HW232523   3.526   2.953   3.633
10542SOL     OW32524   6.772   0.132   5.009
10542SOL    HW132525   6.701   0.171   5.066
10542SOL    HW232526   6.731   0.087   4.930
10543SOL     OW32527   0.353   1.733   4.624
10543SOL    HW132528   0.339   1.636   4.602
10543SOL    HW232529   0.309   1.789   4.553
10544SOL     OW32530   2.203   6.414   3.278
10544SOL    HW132531   2.184   6.421   3.376
10544SOL    HW232532   2.116   6.405   3.228
10545SOL     OW32533   1.316   2.714   1.858
10545SOL    HW132534   1.285   2.769   1.781
10545SOL    HW232535   1.390   2.763   1.906
10546SOL     OW32536   3.722   6.090   1.189
10546SOL    HW132537   3.643   6.068   1.132
10546SOL    HW232538   3.804   6.090   1.133
10547SOL     OW32539   5.092   1.338   4.237
10547SOL    HW132540   5.048   1.254   4.269
10547SOL    HW232541   5.145   1.378   4.312
10548SOL     OW32542   0.638   4.166   4.163
10548SOL    HW132543   0.701   4.202   4.232
10548SOL    HW232544   0.563   4.231   4.148
10549SOL     OW32545   0.526   1.249   1.118
10549SOL    HW132546   0.593   1.322   1.106
10549SOL    HW232547   0.572   1.165   1.146
10550SOL     OW32548   4.230   6.961   3.503
10550SOL    HW132549   4.318   6.914   3.513
10550SOL    HW232550   4.158   6.906   3.547
10551SOL     OW32551   2.167   1.738   5.993
10551SOL    HW132552   2.159   1.703   6.087
10551SOL    HW232553   2.252   1.706   5.953
10552SOL     OW32554   2.467   0.885   5.264
10552SOL    HW132555   2.560   0.892   5.228
10552SOL    HW232556   2.412   0.962   5.232
10553SOL     OW32557   0.013   4.524   0.648
10553SOL    HW132558   6.953   4.560   0.609
10553SOL    HW232559   0.082   4.514   0.576
10554SOL     OW32560   5.467   5.478   2.391
10554SOL    HW132561   5.524   5.499   2.470
10554SOL    HW232562   5.452   5.560   2.337
10555SOL     OW32563   2.870   2.336   0.751
10555SOL    HW132564   2.912   2.266   0.693
10555SOL    HW232565   2.927   2.352   0.831
10556SOL     OW32566   3.231   1.464   3.967
10556SOL    HW132567   3.195   1.544   3.920
10556SOL    HW232568   3.164   1.389   3.962
10557SOL     OW32569   1.921   3.142   4.204
10557SOL    HW132570   1.999   3.168   4.262
10557SOL    HW232571   1.925   3.044   4.187
10558SOL     OW32572   3.546   5.711   5.795
10558SOL    HW132573   3.643   5.692   5.783
10558SOL    HW232574   3.534   5.787   5.860
10559SOL     OW32575   3.532   0.823   0.791
10559SOL    HW132576   3.585   0.874   0.859
10559SOL    HW232577   3.593   0.789   0.719
10560SOL     OW32578   4.285   6.528   1.717
10560SOL    HW132579   4.194   6.493   1.739
10560SOL    HW232580   4.339   6.536   1.800
10561SOL     OW32581   3.760   4.576   1.651
10561SOL    HW132582   3.722   4.586   1.743
10561SOL    HW232583   3.686   4.582   1.584
10562SOL     OW32584   3.696   5.712   0.166
10562SOL    HW132585   3.629   5.657   0.116
10562SOL    HW232586   3.742   5.774   0.102
10563SOL     OW32587   0.988   0.737   1.313
10563SOL    HW132588   0.954   0.653   1.271
10563SOL    HW232589   1.063   0.715   1.375
10564SOL     OW32590   6.139   6.093   3.753
10564SOL    HW132591   6.103   6.074   3.844
10564SOL    HW232592   6.239   6.083   3.754
10565SOL     OW32593   6.528   6.784   5.822
10565SOL    HW132594   6.511   6.797   5.724
10565SOL    HW232595   6.586   6.859   5.856
10566SOL     OW32596   2.532   2.479   6.939
10566SOL    HW132597   2.596   2.429   6.996
10566SOL    HW232598   2.513   2.426   6.856
10567SOL     OW32599   2.065   2.450   5.783
10567SOL    HW132600   2.118   2.529   5.814
10567SOL    HW232601   2.101   2.367   5.827
10568SOL     OW32602   5.978   2.512   6.903
10568SOL    HW132603   6.016   2.439   6.960
10568SOL    HW232604   5.883   2.491   6.880
10569SOL     OW32605   5.506   0.989   1.297
10569SOL    HW132606   5.557   0.948   1.373
10569SOL    HW232607   5.414   0.952   1.295
10570SOL     OW32608   1.741   4.635   3.329
10570SOL    HW132609   1.715   4.541   3.309
10570SOL    HW232610   1.771   4.680   3.245
10571SOL     OW32611   0.351   3.826   5.469
10571SOL    HW132612   0.325   3.913   5.511
10571SOL    HW232613   0.381   3.841   5.375
10572SOL     OW32614   6.918   4.970   2.291
10572SOL    HW132615   6.837   5.005   2.340
10572SOL    HW232616   6.888   4.920   2.210
10573SOL     OW32617   4.787   0.752   5.034
10573SOL    HW132618   4.828   0.791   5.116
10573SOL    HW232619   4.765   0.656   5.051
10574SOL     OW32620   6.603   1.047   3.854
10574SOL    HW132621   6.606   1.147   3.852
10574SOL    HW232622   6.690   1.011   3.822
10575SOL     OW32623   6.169   1.060   3.656
10575SOL    HW132624   6.119   0.987   3.609
10575SOL    HW232625   6.247   1.022   3.705
10576SOL     OW32626   1.289   5.219   2.901
10576SOL    HW132627   1.333   5.159   2.834
10576SOL    HW232628   1.190   5.215   2.890
10577SOL     OW32629   2.231   5.051   0.632
10577SOL    HW132630   2.190   5.054   0.723
10577SOL    HW232631   2.216   4.961   0.591
10578SOL     OW32632   5.094   0.890   3.283
10578SOL    HW132633   5.093   0.791   3.299
10578SOL    HW232634   5.101   0.907   3.185
10579SOL     OW32635   3.223   2.874   1.322
10579SOL    HW132636   3.216   2.861   1.421
10579SOL    HW232637   3.133   2.899   1.285
10580SOL     OW32638   6.329   6.513   6.329
10580SOL    HW132639   6.267   6.589   6.309
10580SOL    HW232640   6.406   6.546   6.383
10581SOL     OW32641   4.952   7.008   2.829
10581SOL    HW132642   4.904   7.021   2.743
10581SOL    HW232643   5.028   0.049   2.836
10582SOL     OW32644   5.566   4.964   6.517
10582SOL    HW132645   5.488   4.906   6.543
10582SOL    HW232646   5.639   4.907   6.481
10583SOL     OW32647   4.573   0.472   4.416
10583SOL    HW132648   4.621   0.405   4.473
10583SOL    HW232649   4.483   0.491   4.456
10584SOL     OW32650   6.630   0.324   6.668
10584SOL    HW132651   6.703   0.304   6.733
10584SOL    HW232652   6.668   0.366   6.586
10585SOL     OW32653   1.978   1.901   5.581
10585SOL    HW132654   2.058   1.841   5.592
10585SOL    HW232655   1.913   1.883   5.655
10586SOL     OW32656   4.920   4.759   5.151
10586SOL    HW132657   4.987   4.708   5.206
10586SOL    HW232658   4.849   4.794   5.210
10587SOL     OW32659   6.937   5.683   6.482
10587SOL    HW132660   6.925   5.585   6.470
10587SOL    HW232661   6.898   5.711   6.570
10588SOL     OW32662   1.783   1.706   5.268
10588SOL    HW132663   1.781   1.632   5.200
10588SOL    HW232664   1.856   1.690   5.334
10589SOL     OW32665   5.546   6.886   4.187
10589SOL    HW132666   5.504   6.931   4.108
10589SOL    HW232667   5.619   6.826   4.157
10590SOL     OW32668   0.525   6.197   1.756
10590SOL    HW132669   0.578   6.227   1.835
10590SOL    HW232670   0.585   6.146   1.694
10591SOL     OW32671   2.446   1.921   1.114
10591SOL    HW132672   2.459   1.854   1.187
10591SOL    HW232673   2.352   1.955   1.117
10592SOL     OW32674   5.584   2.707   4.282
10592SOL    HW132675   5.508   2.654   4.320
10592SOL    HW232676   5.641   2.742   4.356
10593SOL     OW32677   1.504   6.338   0.759
10593SOL    HW132678   1.524   6.300   0.669
10593SOL    HW232679   1.524   6.270   0.830
10594SOL     OW32680   4.530   1.565   2.887
10594SOL    HW132681   4.478   1.483   2.862
10594SOL    HW232682   4.624   1.539   2.908
10595SOL     OW32683   6.056   0.326   7.020
10595SOL    HW132684   6.127   0.262   6.990
10595SOL    HW232685   5.971   0.306   6.971
10596SOL     OW32686   5.318   0.888   6.902
10596SOL    HW132687   5.345   0.797   6.933
10596SOL    HW232688   5.274   0.937   6.977
10597SOL     OW32689   2.166   0.364   5.319
10597SOL    HW132690   2.071   0.383   5.294
10597SOL    HW232691   2.181   0.385   5.415
10598SOL     OW32692   2.472   2.336   6.694
10598SOL    HW132693   2.387   2.389   6.685
10598SOL    HW232694   2.450   2.239   6.705
10599SOL     OW32695   6.101   3.997   6.658
10599SOL    HW132696   6.173   3.931   6.634
10599SOL    HW232697   6.035   4.002   6.583
10600SOL     OW32698   3.621   2.082   1.475
10600SOL    HW132699   3.718   2.103   1.485
10600SOL    HW232700   3.609   2.006   1.412
10601SOL     OW32701   1.117   5.012   5.637
10601SOL    HW132702   1.025   5.036   5.669
10601SOL    HW232703   1.162   5.093   5.600
10602SOL     OW32704   1.119   1.280   0.994
10602SOL    HW132705   1.216   1.285   1.014
10602SOL    HW232706   1.079   1.372   0.996
10603SOL     OW32707   4.754   6.885   2.999
10603SOL    HW132708   4.808   6.859   3.079
10603SOL    HW232709   4.811   6.935   2.935
10604SOL     OW32710   0.048   5.840   4.988
10604SOL    HW132711   0.090   5.930   5.000
10604SOL    HW232712   6.981   5.839   5.030
10605SOL     OW32713   1.813   0.071   6.676
10605SOL    HW132714   1.785   0.004   6.745
10605SOL    HW232715   1.751   0.065   6.597
10606SOL     OW32716   6.761   1.062   1.727
10606SOL    HW132717   6.817   0.980   1.715
10606SOL    HW232718   6.770   1.095   1.821
10607SOL     OW32719   4.201   4.684   0.538
10607SOL    HW132720   4.283   4.627   0.537
10607SOL    HW232721   4.134   4.648   0.473
10608SOL     OW32722   6.757   3.579   3.341
10608SOL    HW132723   6.839   3.567   3.285
10608SOL    HW232724   6.689   3.631   3.288
10609SOL     OW32725   2.423   6.920   6.802
10609SOL    HW132726   2.390   7.007   6.766
10609SOL    HW232727   2.362   6.889   6.874
10610SOL     OW32728   0.088   2.060   4.531
10610SOL    HW132729   0.119   2.147   4.492
10610SOL    HW232730   0.117   1.985   4.471
10611SOL     OW32731   2.838   5.365   5.738
10611SOL    HW132732   2.781   5.301   5.687
10611SOL    HW232733   2.922   5.319   5.767
10612SOL     OW32734   5.295   1.755   4.224
10612SOL    HW132735   5.245   1.716   4.301
10612SOL    HW232736   5.307   1.685   4.153
10613SOL     OW32737   6.022   5.832   4.904
10613SOL    HW132738   6.075   5.773   4.842
10613SOL    HW232739   5.931   5.792   4.919
10614SOL     OW32740   5.369   1.264   4.682
10614SOL    HW132741   5.277   1.267   4.721
10614SOL    HW232742   5.435   1.244   4.754
10615SOL     OW32743   3.519   1.020   5.581
10615SOL    HW132744   3.438   0.975   5.542
10615SOL    HW232745   3.554   0.965   5.656
10616SOL     OW32746   2.993   6.316   6.665
10616SOL    HW132747   2.999   6.298   6.567
10616SOL    HW232748   2.999   6.230   6.716
10617SOL     OW32749   2.318   4.473   1.579
10617SOL    HW132750   2.385   4.427   1.521
10617SOL    HW232751   2.227   4.436   1.560
10618SOL     OW32752   0.835   5.092   5.714
10618SOL    HW132753   0.750   5.042   5.695
10618SOL    HW232754   0.813   5.181   5.753
10619SOL     OW32755   0.615   2.743   3.283
10619SOL    HW132756   0.696   2.786   3.325
10619SOL    HW232757   0.546   2.814   3.265
10620SOL     OW32758   1.374   6.831   5.197
10620SOL    HW132759   1.369   6.761   5.126
10620SOL    HW232760   1.452   6.890   5.180
10621SOL     OW32761   0.142   4.451   2.118
10621SOL    HW132762   0.056   4.401   2.127
10621SOL    HW232763   0.218   4.387   2.110
10622SOL     OW32764   4.364   2.272   1.378
10622SOL    HW132765   4.436   2.338   1.357
10622SOL    HW232766   4.403   2.179   1.379
10623SOL     OW32767   6.457   5.814   5.284
10623SOL    HW132768   6.385   5.756   5.245
10623SOL    HW232769   6.465   5.898   5.230
10624SOL     OW32770   0.203   2.592   5.204
10624SOL    HW132771   0.185   2.682   5.163
10624SOL    HW232772   0.293   2.592   5.247
10625SOL     OW32773   0.707   3.972   1.438
10625SOL    HW132774   0.719   3.967   1.537
10625SOL    HW232775   0.795   3.958   1.393
10626SOL     OW32776   2.962   2.624   1.101
10626SOL    HW132777   3.060   2.633   1.080
10626SOL    HW232778   2.938   2.527   1.102
10627SOL     OW32779   6.368   1.386   6.625
10627SOL    HW132780   6.270   1.370   6.625
10627SOL    HW232781   6.387   1.481   6.599
10628SOL     OW32782   4.605   6.897   1.155
10628SOL    HW132783   4.683   6.866   1.100
10628SOL    HW232784   4.638   6.948   1.234
10629SOL     OW32785   3.257   4.930   4.603
10629SOL    HW132786   3.165   4.891   4.600
10629SOL    HW232787   3.292   4.926   4.696
10630SOL     OW32788   5.932   1.191   2.202
10630SOL    HW132789   5.980   1.268   2.160
10630SOL    HW232790   5.865   1.225   2.268
10631SOL     OW32791   3.851   4.472   5.552
10631SOL    HW132792   3.889   4.548   5.499
10631SOL    HW232793   3.869   4.486   5.649
10632SOL     OW32794   4.922   6.077   3.171
10632SOL    HW132795   4.951   6.108   3.261
10632SOL    HW232796   4.872   5.991   3.179
10633SOL     OW32797   2.217   2.531   1.383
10633SOL    HW132798   2.169   2.444   1.373
10633SOL    HW232799   2.256   2.537   1.475
10634SOL     OW32800   1.761   5.342   0.146
10634SOL    HW132801   1.686   5.328   0.210
10634SOL    HW232802   1.784   5.255   0.103
10635SOL     OW32803   1.994   3.203   6.626
10635SOL    HW132804   2.049   3.120   6.634
10635SOL    HW232805   1.947   3.204   6.538
10636SOL     OW32806   0.093   2.245   1.432
10636SOL    HW132807   0.050   2.220   1.518
10636SOL    HW232808   0.027   2.234   1.357
10637SOL     OW32809   1.256   5.326   6.476
10637SOL    HW132810   1.215   5.242   6.511
10637SOL    HW232811   1.189   5.376   6.420
10638SOL     OW32812   5.517   6.184   2.666
10638SOL    HW132813   5.419   6.175   2.683
10638SOL    HW232814   5.548   6.107   2.609
10639SOL     OW32815   1.845   3.500   2.334
10639SOL    HW132816   1.824   3.559   2.412
10639SOL    HW232817   1.927   3.533   2.287
10640SOL     OW32818   5.105   0.374   3.417
10640SOL    HW132819   5.169   0.324   3.475
10640SOL    HW232820   5.018   0.323   3.413
10641SOL     OW32821   2.322   1.607   3.025
10641SOL    HW132822   2.298   1.518   3.065
10641SOL    HW232823   2.342   1.672   3.097
10642SOL     OW32824   6.071   1.798   0.539
10642SOL    HW132825   6.042   1.890   0.512
10642SOL    HW232826   6.007   1.730   0.502
10643SOL     OW32827   2.274   6.067   5.341
10643SOL    HW132828   2.300   5.998   5.409
10643SOL    HW232829   2.309   6.156   5.369
10644SOL     OW32830   5.605   3.229   1.389
10644SOL    HW132831   5.607   3.217   1.290
10644SOL    HW232832   5.698   3.247   1.423
10645SOL     OW32833   2.361   2.331   4.244
10645SOL    HW132834   2.394   2.418   4.207
10645SOL    HW232835   2.349   2.266   4.170
10646SOL     OW32836   6.782   0.455   5.729
10646SOL    HW132837   6.843   0.376   5.738
10646SOL    HW232838   6.788   0.511   5.812
10647SOL     OW32839   3.345   5.220   5.007
10647SOL    HW132840   3.388   5.265   4.929
10647SOL    HW232841   3.246   5.237   5.005
10648SOL     OW32842   6.024   5.399   6.221
10648SOL    HW132843   6.024   5.331   6.294
10648SOL    HW232844   6.038   5.490   6.260
10649SOL     OW32845   0.937   3.408   3.129
10649SOL    HW132846   0.986   3.322   3.117
10649SOL    HW232847   0.911   3.444   3.040
10650SOL     OW32848   0.528   0.566   4.365
10650SOL    HW132849   0.436   0.531   4.350
10650SOL    HW232850   0.532   0.662   4.337
10651SOL     OW32851   6.440   5.787   5.872
10651SOL    HW132852   6.368   5.720   5.854
10651SOL    HW232853   6.529   5.744   5.857
10652SOL     OW32854   2.022   0.087   6.525
10652SOL    HW132855   1.933   0.105   6.567
10652SOL    HW232856   2.049   7.017   6.545
10653SOL     OW32857   3.818   6.209   5.185
10653SOL    HW132858   3.770   6.132   5.226
10653SOL    HW232859   3.755   6.260   5.126
10654SOL     OW32860   4.951   0.714   5.949
10654SOL    HW132861   5.002   0.770   6.015
10654SOL    HW232862   4.967   0.748   5.857
10655SOL     OW32863   1.732   4.705   0.021
10655SOL    HW132864   1.765   4.665   0.107
10655SOL    HW232865   1.786   4.669   6.969
10656SOL     OW32866   6.721   1.296   2.419
10656SOL    HW132867   6.813   1.329   2.441
10656SOL    HW232868   6.656   1.372   2.426
10657SOL     OW32869   6.277   0.723   4.677
10657SOL    HW132870   6.199   0.675   4.636
10657SOL    HW232871   6.354   0.659   4.687
10658SOL     OW32872   6.279   4.123   4.858
10658SOL    HW132873   6.256   4.214   4.823
10658SOL    HW232874   6.245   4.113   4.951
10659SOL     OW32875   1.071   4.707   0.738
10659SOL    HW132876   1.138   4.775   0.767
10659SOL    HW232877   1.112   4.646   0.670
10660SOL     OW32878   5.701   4.041   6.112
10660SOL    HW132879   5.757   3.967   6.151
10660SOL    HW232880   5.707   4.038   6.012
10661SOL     OW32881   1.973   6.417   0.952
10661SOL    HW132882   2.016   6.327   0.949
10661SOL    HW232883   1.874   6.406   0.963
10662SOL     OW32884   4.401   0.749   2.401
10662SOL    HW132885   4.415   0.836   2.449
10662SOL    HW232886   4.488   0.718   2.362
10663SOL     OW32887   0.713   1.443   2.808
10663SOL    HW132888   0.653   1.376   2.764
10663SOL    HW232889   0.805   1.435   2.771
10664SOL     OW32890   6.444   4.225   5.279
10664SOL    HW132891   6.505   4.198   5.204
10664SOL    HW232892   6.364   4.273   5.241
10665SOL     OW32893   1.619   2.059   6.804
10665SOL    HW132894   1.535   2.005   6.806
10665SOL    HW232895   1.679   2.023   6.732
10666SOL     OW32896   3.065   4.030   2.017
10666SOL    HW132897   3.020   4.105   1.970
10666SOL    HW232898   3.089   3.959   1.951
10667SOL     OW32899   4.814   2.308   3.750
10667SOL    HW132900   4.887   2.267   3.695
10667SOL    HW232901   4.826   2.407   3.751
10668SOL     OW32902   3.254   1.355   4.936
10668SOL    HW132903   3.179   1.315   4.884
10668SOL    HW232904   3.338   1.349   4.882
10669SOL     OW32905   6.606   0.569   1.303
10669SOL    HW132906   6.553   0.604   1.226
10669SOL    HW232907   6.602   0.469   1.304
10670SOL     OW32908   5.465   4.542   4.630
10670SOL    HW132909   5.464   4.480   4.552
10670SOL    HW232910   5.537   4.610   4.619
10671SOL     OW32911   1.413   1.900   4.117
10671SOL    HW132912   1.335   1.838   4.119
10671SOL    HW232913   1.431   1.933   4.210
10672SOL     OW32914   6.503   4.204   1.987
10672SOL    HW132915   6.526   4.114   1.950
10672SOL    HW232916   6.407   4.207   2.012
10673SOL     OW32917   0.342   0.846   6.969
10673SOL    HW132918   0.326   0.881   6.877
10673SOL    HW232919   0.389   0.915   7.024
10674SOL     OW32920   3.977   3.351   3.802
10674SOL    HW132921   4.044   3.390   3.739
10674SOL    HW232922   3.987   3.252   3.806
10675SOL     OW32923   2.158   0.323   6.480
10675SOL    HW132924   2.073   0.376   6.486
10675SOL    HW232925   2.137   0.226   6.491
10676SOL     OW32926   0.374   5.807   5.078
10676SOL    HW132927   0.336   5.728   5.030
10676SOL    HW232928   0.318   5.826   5.159
10677SOL     OW32929   1.440   0.722   1.577
10677SOL    HW132930   1.420   0.767   1.664
10677SOL    HW232931   1.496   0.641   1.593
10678SOL     OW32932   4.453   5.128   4.233
10678SOL    HW132933   4.490   5.107   4.324
10678SOL    HW232934   4.369   5.181   4.243
10679SOL     OW32935   3.936   5.680   6.255
10679SOL    HW132936   3.840   5.655   6.261
10679SOL    HW232937   3.992   5.597   6.263
10680SOL     OW32938   3.760   2.143   3.899
10680SOL    HW132939   3.702   2.171   3.822
10680SOL    HW232940   3.705   2.137   3.982
10681SOL     OW32941   0.076   3.643   0.444
10681SOL    HW132942   0.062   3.688   0.532
10681SOL    HW232943   0.108   3.711   0.377
10682SOL     OW32944   6.872   2.325   5.351
10682SOL    HW132945   6.955   2.348   5.301
10682SOL    HW232946   6.792   2.340   5.292
10683SOL     OW32947   5.013   0.942   3.775
10683SOL    HW132948   4.993   1.008   3.704
10683SOL    HW232949   5.005   0.849   3.738
10684SOL     OW32950   4.590   4.584   2.626
10684SOL    HW132951   4.628   4.496   2.654
10684SOL    HW232952   4.578   4.585   2.527
10685SOL     OW32953   0.769   5.791   1.417
10685SOL    HW132954   0.847   5.854   1.420
10685SOL    HW232955   0.757   5.749   1.507
10686SOL     OW32956   1.276   3.930   5.810
10686SOL    HW132957   1.343   3.914   5.738
10686SOL    HW232958   1.308   3.889   5.895
10687SOL     OW32959   6.126   5.395   4.210
10687SOL    HW132960   6.219   5.416   4.180
10687SOL    HW232961   6.082   5.333   4.146
10688SOL     OW32962   5.790   3.121   2.953
10688SOL    HW132963   5.810   3.026   2.977
10688SOL    HW232964   5.814   3.137   2.858
10689SOL     OW32965   6.707   0.275   3.071
10689SOL    HW132966   6.608   0.266   3.061
10689SOL    HW232967   6.751   0.190   3.043
10690SOL     OW32968   0.381   5.502   3.835
10690SOL    HW132969   0.317   5.530   3.907
10690SOL    HW232970   0.384   5.403   3.830
10691SOL     OW32971   1.512   1.920   2.253
10691SOL    HW132972   1.590   1.888   2.199
10691SOL    HW232973   1.428   1.909   2.200
10692SOL     OW32974   2.287   6.983   3.987
10692SOL    HW132975   2.188   6.989   3.971
10692SOL    HW232976   2.332   6.954   3.902
10693SOL     OW32977   1.467   6.067   1.497
10693SOL    HW132978   1.370   6.043   1.495
10693SOL    HW232979   1.493   6.111   1.411
10694SOL     OW32980   5.200   6.294   7.020
10694SOL    HW132981   5.200   6.391   6.996
10694SOL    HW232982   5.106   6.261   0.002
10695SOL     OW32983   1.466   2.089   2.684
10695SOL    HW132984   1.536   2.159   2.670
10695SOL    HW232985   1.424   2.066   2.597
10696SOL     OW32986   6.384   4.397   3.535
10696SOL    HW132987   6.470   4.430   3.497
10696SOL    HW232988   6.331   4.350   3.463
10697SOL     OW32989   0.815   6.792   5.116
10697SOL    HW132990   0.809   6.800   5.016
10697SOL    HW232991   0.736   6.741   5.150
10698SOL     OW32992   5.365   4.649   0.077
10698SOL    HW132993   5.423   4.705   0.018
10698SOL    HW232994   5.330   4.704   0.152
10699SOL     OW32995   3.979   4.409   1.653
10699SOL    HW132996   4.060   4.464   1.671
10699SOL    HW232997   3.899   4.453   1.695
10700SOL     OW32998   5.552   6.493   0.337
10700SOL    HW132999   5.460   6.510   0.303
10700SOL    HW233000   5.616   6.490   0.261
10701SOL     OW33001   2.682   6.814   6.872
10701SOL    HW133002   2.740   6.869   6.812
10701SOL    HW233003   2.587   6.823   6.842
10702SOL     OW33004   5.590   3.279   1.871
10702SOL    HW133005   5.581   3.293   1.969
10702SOL    HW233006   5.498   3.273   1.830
10703SOL     OW33007   2.714   3.081   5.360
10703SOL    HW133008   2.641   3.052   5.299
10703SOL    HW233009   2.800   3.086   5.309
10704SOL     OW33010   5.806   5.606   2.176
10704SOL    HW133011   5.800   5.530   2.241
10704SOL    HW233012   5.795   5.571   2.083
10705SOL     OW33013   6.195   5.315   1.624
10705SOL    HW133014   6.211   5.291   1.720
10705SOL    HW233015   6.099   5.302   1.602
10706SOL     OW33016   4.245   0.667   2.820
10706SOL    HW133017   4.282   0.730   2.888
10706SOL    HW233018   4.319   0.632   2.762
10707SOL     OW33019   0.277   6.900   4.242
10707SOL    HW133020   0.366   6.861   4.265
10707SOL    HW233021   0.207   6.830   4.250
10708SOL     OW33022   3.695   1.155   1.319
10708SOL    HW133023   3.769   1.091   1.337
10708SOL    HW233024   3.716   1.244   1.360
10709SOL     OW33025   5.228   5.268   5.452
10709SOL    HW133026   5.244   5.303   5.359
10709SOL    HW233027   5.307   5.215   5.482
10710SOL     OW33028   6.474   0.536   4.367
10710SOL    HW133029   6.542   0.479   4.320
10710SOL    HW233030   6.480   0.521   4.466
10711SOL     OW33031   2.009   6.752   4.605
10711SOL    HW133032   1.988   6.667   4.558
10711SOL    HW233033   2.078   6.736   4.675
10712SOL     OW33034   2.937   0.774   1.914
10712SOL    HW133035   2.880   0.728   1.846
10712SOL    HW233036   2.902   0.756   2.005
10713SOL     OW33037   0.593   3.594   1.962
10713SOL    HW133038   0.665   3.533   1.996
10713SOL    HW233039   0.506   3.568   2.004
10714SOL     OW33040   5.682   3.550   5.356
10714SOL    HW133041   5.719   3.639   5.381
10714SOL    HW233042   5.749   3.500   5.301
10715SOL     OW33043   4.646   0.640   2.313
10715SOL    HW133044   4.679   0.634   2.219
10715SOL    HW233045   4.719   0.674   2.372
10716SOL     OW33046   6.126   1.865   3.548
10716SOL    HW133047   6.061   1.905   3.613
10716SOL    HW233048   6.150   1.933   3.479
10717SOL     OW33049   0.888   2.368   1.658
10717SOL    HW133050   0.972   2.423   1.664
10717SOL    HW233051   0.840   2.389   1.573
10718SOL     OW33052   1.015   3.063   6.985
10718SOL    HW133053   1.077   3.137   7.012
10718SOL    HW233054   0.961   3.034   0.040
10719SOL     OW33055   6.395   5.578   2.511
10719SOL    HW133056   6.401   5.489   2.467
10719SOL    HW233057   6.487   5.616   2.520
10720SOL     OW33058   0.393   4.442   5.210
10720SOL    HW133059   0.351   4.352   5.207
10720SOL    HW233060   0.326   4.512   5.186
10721SOL     OW33061   5.601   3.816   4.984
10721SOL    HW133062   5.680   3.782   4.933
10721SOL    HW233063   5.570   3.745   5.048
10722SOL     OW33064   0.778   5.173   6.641
10722SOL    HW133065   0.733   5.146   6.556
10722SOL    HW233066   0.873   5.142   6.640
10723SOL     OW33067   0.408   3.111   5.637
10723SOL    HW133068   0.449   3.101   5.546
10723SOL    HW233069   0.382   3.021   5.672
10724SOL     OW33070   6.629   1.712   6.781
10724SOL    HW133071   6.612   1.649   6.704
10724SOL    HW233072   6.571   1.793   6.771
10725SOL     OW33073   1.283   5.826   4.245
10725SOL    HW133074   1.297   5.837   4.343
10725SOL    HW233075   1.338   5.749   4.211
10726SOL     OW33076   5.325   0.236   5.269
10726SOL    HW133077   5.334   0.291   5.352
10726SOL    HW233078   5.254   0.167   5.282
10727SOL     OW33079   0.478   4.997   5.086
10727SOL    HW133080   0.487   4.969   5.181
10727SOL    HW233081   0.384   4.982   5.055
10728SOL     OW33082   0.069   5.930   6.576
10728SOL    HW133083   0.169   5.931   6.572
10728SOL    HW233084   0.034   5.842   6.546
10729SOL     OW33085   5.683   1.505   1.860
10729SOL    HW133086   5.619   1.437   1.826
10729SOL    HW233087   5.681   1.586   1.801
10730SOL     OW33088   1.981   1.307   1.477
10730SOL    HW133089   1.982   1.369   1.556
10730SOL    HW233090   2.024   1.221   1.502
10731SOL     OW33091   3.225   6.374   0.755
10731SOL    HW133092   3.195   6.467   0.736
10731SOL    HW233093   3.270   6.336   0.674
10732SOL     OW33094   6.042   5.067   4.692
10732SOL    HW133095   6.044   4.967   4.689
10732SOL    HW233096   5.988   5.102   4.617
10733SOL     OW33097   6.854   1.852   0.852
10733SOL    HW133098   6.833   1.775   0.793
10733SOL    HW233099   6.780   1.919   0.848
10734SOL     OW33100   0.773   0.837   0.225
10734SOL    HW133101   0.699   0.804   0.284
10734SOL    HW233102   0.759   0.801   0.132
10735SOL     OW33103   0.800   2.818   2.923
10735SOL    HW133104   0.803   2.860   3.014
10735SOL    HW233105   0.882   2.844   2.872
10736SOL     OW33106   1.598   0.359   3.478
10736SOL    HW133107   1.508   0.378   3.517
10736SOL    HW233108   1.654   0.442   3.480
10737SOL     OW33109   1.904   2.031   1.267
10737SOL    HW133110   1.875   2.042   1.362
10737SOL    HW233111   1.988   1.977   1.264
10738SOL     OW33112   2.724   0.173   3.423
10738SOL    HW133113   2.810   0.219   3.447
10738SOL    HW233114   2.734   0.129   3.334
10739SOL     OW33115   1.121   1.865   0.970
10739SOL    HW133116   1.200   1.851   0.911
10739SOL    HW233117   1.040   1.882   0.914
10740SOL     OW33118   6.857   4.452   5.128
10740SOL    HW133119   6.941   4.501   5.106
10740SOL    HW233120   6.810   4.427   5.043
10741SOL     OW33121   5.621   6.984   1.320
10741SOL    HW133122   5.660   7.014   1.232
10741SOL    HW233123   5.525   7.011   1.324
10742SOL     OW33124   5.161   0.357   1.109
10742SOL    HW133125   5.252   0.365   1.069
10742SOL    HW233126   5.129   0.262   1.100
10743SOL     OW33127   2.479   1.137   5.408
10743SOL    HW133128   2.548   1.205   5.435
10743SOL    HW233129   2.524   1.049   5.392
10744SOL     OW33130   3.507   1.559   1.144
10744SOL    HW133131   3.462   1.574   1.232
10744SOL    HW233132   3.606   1.556   1.157
10745SOL     OW33133   0.213   5.630   6.831
10745SOL    HW133134   0.130   5.647   6.883
10745SOL    HW233135   0.288   5.607   6.894
10746SOL     OW33136   1.848   4.336   1.445
10746SOL    HW133137   1.857   4.350   1.347
10746SOL    HW233138   1.762   4.290   1.464
10747SOL     OW33139   4.272   1.151   4.113
10747SOL    HW133140   4.337   1.081   4.083
10747SOL    HW233141   4.180   1.127   4.081
10748SOL     OW33142   4.894   1.154   1.057
10748SOL    HW133143   4.914   1.230   0.995
10748SOL    HW233144   4.811   1.108   1.027
10749SOL     OW33145   0.943   5.735   2.707
10749SOL    HW133146   0.965   5.671   2.633
10749SOL    HW233147   0.937   5.827   2.670
10750SOL     OW33148   4.513   6.036   5.053
10750SOL    HW133149   4.420   6.045   5.018
10750SOL    HW233150   4.536   5.940   5.062
10751SOL     OW33151   1.786   3.964   4.347
10751SOL    HW133152   1.733   4.048   4.359
10751SOL    HW233153   1.836   3.968   4.261
10752SOL     OW33154   5.906   4.040   6.428
10752SOL    HW133155   5.846   4.120   6.423
10752SOL    HW233156   5.851   3.957   6.432
10753SOL     OW33157   4.745   6.040   4.108
10753SOL    HW133158   4.818   6.072   4.047
10753SOL    HW233159   4.716   6.115   4.167
10754SOL     OW33160   0.578   1.702   2.795
10754SOL    HW133161   0.502   1.695   2.860
10754SOL    HW233162   0.638   1.623   2.805
10755SOL     OW33163   6.714   0.797   6.614
10755SOL    HW133164   6.709   0.889   6.654
10755SOL    HW233165   6.622   0.764   6.595
10756SOL     OW33166   6.938   4.917   0.275
10756SOL    HW133167   0.008   4.889   0.292
10756SOL    HW233168   6.937   5.015   0.251
10757SOL     OW33169   1.838   2.892   0.313
10757SOL    HW133170   1.783   2.976   0.315
10757SOL    HW233171   1.900   2.891   0.391
10758SOL     OW33172   0.414   6.946   3.908
10758SOL    HW133173   0.400   6.859   3.861
10758SOL    HW233174   0.490   6.937   3.973
10759SOL     OW33175   1.848   3.512   1.119
10759SOL    HW133176   1.781   3.515   1.193
10759SOL    HW233177   1.892   3.602   1.110
10760SOL     OW33178   6.418   1.634   2.126
10760SOL    HW133179   6.324   1.599   2.131
10760SOL    HW233180   6.417   1.724   2.083
10761SOL     OW33181   0.613   0.021   6.182
10761SOL    HW133182   0.658   0.107   6.208
10761SOL    HW233183   0.563   7.009   6.260
10762SOL     OW33184   3.897   1.962   4.415
10762SOL    HW133185   3.919   1.864   4.417
10762SOL    HW233186   3.810   1.978   4.462
10763SOL     OW33187   5.228   6.171   2.687
10763SOL    HW133188   5.196   6.241   2.752
10763SOL    HW233189   5.150   6.122   2.650
10764SOL     OW33190   5.107   2.608   5.839
10764SOL    HW133191   5.185   2.645   5.890
10764SOL    HW233192   5.046   2.560   5.901
10765SOL     OW33193   5.410   2.195   0.138
10765SOL    HW133194   5.436   2.140   0.217
10765SOL    HW233195   5.335   2.150   0.089
10766SOL     OW33196   4.743   3.977   0.423
10766SOL    HW133197   4.764   3.882   0.448
10766SOL    HW233198   4.644   3.992   0.428
10767SOL     OW33199   1.026   0.939   0.164
10767SOL    HW133200   1.093   0.971   0.231
10767SOL    HW233201   0.942   0.911   0.211
10768SOL     OW33202   4.636   4.133   1.677
10768SOL    HW133203   4.562   4.185   1.720
10768SOL    HW233204   4.650   4.048   1.726
10769SOL     OW33205   2.424   4.523   4.958
10769SOL    HW133206   2.456   4.530   5.052
10769SOL    HW233207   2.329   4.554   4.953
10770SOL     OW33208   5.702   1.015   5.233
10770SOL    HW133209   5.779   0.981   5.286
10770SOL    HW233210   5.624   1.032   5.294
10771SOL     OW33211   6.104   0.605   3.518
10771SOL    HW133212   6.027   0.547   3.491
10771SOL    HW233213   6.182   0.548   3.541
10772SOL     OW33214   6.270   6.455   4.184
10772SOL    HW133215   6.236   6.525   4.121
10772SOL    HW233216   6.251   6.483   4.278
10773SOL     OW33217   6.437   5.791   6.962
10773SOL    HW133218   6.447   5.817   0.034
10773SOL    HW233219   6.463   5.867   6.904
10774SOL     OW33220   2.307   1.445   0.341
10774SOL    HW133221   2.354   1.461   0.428
10774SOL    HW233222   2.213   1.416   0.359
10775SOL     OW33223   0.147   4.909   1.285
10775SOL    HW133224   0.232   4.924   1.335
10775SOL    HW233225   0.148   4.963   1.200
10776SOL     OW33226   0.091   0.970   6.565
10776SOL    HW133227   0.083   1.059   6.609
10776SOL    HW233228   0.155   0.913   6.615
10777SOL     OW33229   3.351   5.377   3.154
10777SOL    HW133230   3.440   5.423   3.151
10777SOL    HW233231   3.364   5.279   3.166
10778SOL     OW33232   5.886   6.958   4.420
10778SOL    HW133233   5.945   6.921   4.348
10778SOL    HW233234   5.932   0.011   4.463
10779SOL     OW33235   6.580   3.424   3.847
10779SOL    HW133236   6.539   3.387   3.764
10779SOL    HW233237   6.666   3.376   3.866
10780SOL     OW33238   2.116   0.511   3.867
10780SOL    HW133239   2.076   0.579   3.930
10780SOL    HW233240   2.208   0.541   3.840
10781SOL     OW33241   4.728   1.129   3.933
10781SOL    HW133242   4.791   1.184   3.987
10781SOL    HW233243   4.779   1.069   3.872
10782SOL     OW33244   6.316   1.805   1.735
10782SOL    HW133245   6.246   1.735   1.747
10782SOL    HW233246   6.342   1.811   1.639
10783SOL     OW33247   0.590   3.356   3.205
10783SOL    HW133248   0.571   3.409   3.123
10783SOL    HW233249   0.666   3.397   3.255
10784SOL     OW33250   3.555   6.652   4.247
10784SOL    HW133251   3.634   6.671   4.306
10784SOL    HW233252   3.585   6.650   4.152
10785SOL     OW33253   0.208   4.549   1.072
10785SOL    HW133254   0.225   4.512   1.163
10785SOL    HW233255   0.290   4.594   1.037
10786SOL     OW33256   5.843   4.203   3.384
10786SOL    HW133257   5.895   4.127   3.344
10786SOL    HW233258   5.880   4.290   3.351
10787SOL     OW33259   2.159   1.478   4.841
10787SOL    HW133260   2.246   1.527   4.844
10787SOL    HW233261   2.109   1.504   4.759
10788SOL     OW33262   1.874   4.551   6.142
10788SOL    HW133263   1.849   4.600   6.058
10788SOL    HW233264   1.946   4.484   6.121
10789SOL     OW33265   0.088   3.092   6.508
10789SOL    HW133266   0.077   3.007   6.560
10789SOL    HW233267   0.176   3.134   6.532
10790SOL     OW33268   1.338   0.205   1.757
10790SOL    HW133269   1.387   0.250   1.683
10790SOL    HW233270   1.363   0.248   1.844
10791SOL     OW33271   6.588   0.016   1.447
10791SOL    HW133272   6.655   6.966   1.447
10791SOL    HW233273   6.576   0.050   1.540
10792SOL     OW33274   2.947   3.783   4.106
10792SOL    HW133275   2.959   3.851   4.178
10792SOL    HW233276   3.006   3.704   4.123
10793SOL     OW33277   5.279   3.264   4.567
10793SOL    HW133278   5.234   3.317   4.638
10793SOL    HW233279   5.324   3.326   4.502
10794SOL     OW33280   2.924   3.651   3.489
10794SOL    HW133281   2.897   3.698   3.573
10794SOL    HW233282   2.964   3.718   3.426
10795SOL     OW33283   6.710   4.986   1.845
10795SOL    HW133284   6.665   5.074   1.862
10795SOL    HW233285   6.713   4.969   1.746
10796SOL     OW33286   5.906   0.332   6.057
10796SOL    HW133287   5.936   0.242   6.088
10796SOL    HW233288   5.947   0.402   6.116
10797SOL     OW33289   3.756   2.564   1.518
10797SOL    HW133290   3.681   2.620   1.480
10797SOL    HW233291   3.793   2.506   1.447
10798SOL     OW33292   3.127   0.341   0.528
10798SOL    HW133293   3.045   0.301   0.569
10798SOL    HW233294   3.179   0.391   0.597
10799SOL     OW33295   3.930   0.814   1.718
10799SOL    HW133296   3.843   0.859   1.740
10799SOL    HW233297   3.959   0.760   1.797
10800SOL     OW33298   0.104   6.428   6.193
10800SOL    HW133299   0.024   6.421   6.133
10800SOL    HW233300   0.118   6.523   6.219
10801SOL     OW33301   0.837   6.069   6.057
10801SOL    HW133302   0.867   6.067   6.152
10801SOL    HW233303   0.917   6.078   5.997
10802SOL     OW33304   0.976   0.794   3.177
10802SOL    HW133305   1.044   0.732   3.217
10802SOL    HW233306   1.023   0.871   3.134
10803SOL     OW33307   2.166   4.640   5.936
10803SOL    HW133308   2.217   4.637   5.849
10803SOL    HW233309   2.125   4.731   5.946
10804SOL     OW33310   5.545   3.303   2.128
10804SOL    HW133311   5.589   3.325   2.215
10804SOL    HW233312   5.459   3.352   2.121
10805SOL     OW33313   4.389   6.574   6.449
10805SOL    HW133314   4.291   6.591   6.439
10805SOL    HW233315   4.405   6.477   6.466
10806SOL     OW33316   4.019   4.165   6.303
10806SOL    HW133317   4.033   4.145   6.400
10806SOL    HW233318   4.107   4.160   6.256
10807SOL     OW33319   1.280   6.826   2.379
10807SOL    HW133320   1.270   6.924   2.363
10807SOL    HW233321   1.349   6.812   2.451
10808SOL     OW33322   0.367   2.840   5.641
10808SOL    HW133323   0.408   2.749   5.642
10808SOL    HW233324   0.315   2.851   5.556
10809SOL     OW33325   3.197   4.841   3.372
10809SOL    HW133326   3.197   4.786   3.456
10809SOL    HW233327   3.292   4.863   3.347
10810SOL     OW33328   1.599   6.849   4.111
10810SOL    HW133329   1.598   6.818   4.206
10810SOL    HW233330   1.677   6.910   4.096
10811SOL     OW33331   4.275   4.129   6.211
10811SOL    HW133332   4.300   4.060   6.144
10811SOL    HW233333   4.278   4.219   6.169
10812SOL     OW33334   0.803   4.029   0.153
10812SOL    HW133335   0.745   4.037   0.234
10812SOL    HW233336   0.748   3.999   0.075
10813SOL     OW33337   1.703   3.845   6.768
10813SOL    HW133338   1.769   3.770   6.768
10813SOL    HW233339   1.684   3.873   6.674
10814SOL     OW33340   0.943   0.086   6.275
10814SOL    HW133341   1.023   0.047   6.229
10814SOL    HW233342   0.893   0.014   6.321
10815SOL     OW33343   4.630   4.313   3.228
10815SOL    HW133344   4.720   4.339   3.262
10815SOL    HW233345   4.630   4.215   3.206
10816SOL     OW33346   3.309   3.595   2.189
10816SOL    HW133347   3.242   3.520   2.185
10816SOL    HW233348   3.391   3.563   2.236
10817SOL     OW33349   4.402   0.600   3.656
10817SOL    HW133350   4.445   0.611   3.746
10817SOL    HW233351   4.468   0.560   3.592
10818SOL     OW33352   4.623   4.703   5.522
10818SOL    HW133353   4.595   4.756   5.601
10818SOL    HW233354   4.591   4.608   5.532
10819SOL     OW33355   6.825   5.138   6.207
10819SOL    HW133356   6.916   5.099   6.189
10819SOL    HW233357   6.757   5.091   6.151
10820SOL     OW33358   6.883   5.395   4.268
10820SOL    HW133359   6.938   5.359   4.192
10820SOL    HW233360   6.937   5.463   4.318
10821SOL     OW33361   4.641   0.652   3.097
10821SOL    HW133362   4.643   0.670   3.196
10821SOL    HW233363   4.729   0.615   3.068
10822SOL     OW33364   6.477   2.433   2.830
10822SOL    HW133365   6.528   2.436   2.744
10822SOL    HW233366   6.444   2.524   2.852
10823SOL     OW33367   1.124   0.505   2.042
10823SOL    HW133368   1.102   0.497   2.139
10823SOL    HW233369   1.039   0.500   1.988
10824SOL     OW33370   6.742   1.194   3.148
10824SOL    HW133371   6.803   1.271   3.170
10824SOL    HW233372   6.754   1.121   3.215
10825SOL     OW33373   2.332   1.913   6.453
10825SOL    HW133374   2.263   1.975   6.489
10825SOL    HW233375   2.366   1.948   6.365
10826SOL     OW33376   0.842   2.795   3.662
10826SOL    HW133377   0.839   2.700   3.695
10826SOL    HW233378   0.852   2.795   3.563
10827SOL     OW33379   0.065   3.274   4.473
10827SOL    HW133380   0.104   3.219   4.399
10827SOL    HW233381   6.992   3.286   4.458
10828SOL     OW33382   1.704   4.270   0.951
10828SOL    HW133383   1.624   4.212   0.967
10828SOL    HW233384   1.733   4.261   0.855
10829SOL     OW33385   4.625   2.865   0.145
10829SOL    HW133386   4.668   2.789   0.194
10829SOL    HW233387   4.556   2.907   0.204
10830SOL     OW33388   5.167   1.799   2.830
10830SOL    HW133389   5.193   1.753   2.915
10830SOL    HW233390   5.111   1.737   2.775
10831SOL     OW33391   2.949   6.416   3.117
10831SOL    HW133392   2.958   6.328   3.164
10831SOL    HW233393   2.994   6.411   3.028
10832SOL     OW33394   0.909   3.189   6.080
10832SOL    HW133395   0.836   3.251   6.050
10832SOL    HW233396   0.940   3.133   6.003
10833SOL     OW33397   0.674   0.854   2.007
10833SOL    HW133398   0.740   0.911   1.958
10833SOL    HW233399   0.688   0.863   2.105
10834SOL     OW33400   0.219   1.702   0.822
10834SOL    HW133401   0.293   1.683   0.757
10834SOL    HW233402   0.256   1.751   0.901
10835SOL     OW33403   5.666   2.702   0.524
10835SOL    HW133404   5.754   2.738   0.553
10835SOL    HW233405   5.604   2.777   0.505
10836SOL     OW33406   6.328   1.244   4.758
10836SOL    HW133407   6.331   1.211   4.663
10836SOL    HW233408   6.377   1.331   4.764
10837SOL     OW33409   6.335   5.330   1.229
10837SOL    HW133410   6.425   5.292   1.207
10837SOL    HW233411   6.344   5.427   1.249
10838SOL     OW33412   6.630   5.867   3.786
10838SOL    HW133413   6.692   5.916   3.847
10838SOL    HW233414   6.651   5.890   3.691
10839SOL     OW33415   4.356   3.110   1.747
10839SOL    HW133416   4.362   3.097   1.648
10839SOL    HW233417   4.447   3.096   1.788
10840SOL     OW33418   2.947   5.658   2.784
10840SOL    HW133419   2.919   5.749   2.814
10840SOL    HW233420   2.959   5.599   2.864
10841SOL     OW33421   6.452   5.080   5.580
10841SOL    HW133422   6.389   5.157   5.567
10841SOL    HW233423   6.508   5.097   5.661
10842SOL     OW33424   4.973   2.213   1.496
10842SOL    HW133425   4.908   2.215   1.421
10842SOL    HW233426   4.952   2.136   1.557
10843SOL     OW33427   1.024   1.623   1.599
10843SOL    HW133428   1.062   1.707   1.561
10843SOL    HW233429   0.924   1.628   1.597
10844SOL     OW33430   0.442   6.320   3.201
10844SOL    HW133431   0.531   6.274   3.202
10844SOL    HW233432   0.425   6.361   3.290
10845SOL     OW33433   3.393   6.703   5.461
10845SOL    HW133434   3.407   6.621   5.517
10845SOL    HW233435   3.451   6.777   5.495
10846SOL     OW33436   5.509   0.984   0.246
10846SOL    HW133437   5.470   0.894   0.267
10846SOL    HW233438   5.595   0.972   0.196
10847SOL     OW33439   3.485   2.986   6.825
10847SOL    HW133440   3.449   3.062   6.879
10847SOL    HW233441   3.554   2.937   6.878
10848SOL     OW33442   2.603   3.860   0.570
10848SOL    HW133443   2.542   3.829   0.643
10848SOL    HW233444   2.652   3.942   0.599
10849SOL     OW33445   2.256   4.669   4.149
10849SOL    HW133446   2.252   4.652   4.248
10849SOL    HW233447   2.264   4.767   4.133
10850SOL     OW33448   2.229   6.446   6.621
10850SOL    HW133449   2.294   6.512   6.583
10850SOL    HW233450   2.267   6.353   6.613
10851SOL     OW33451   2.215   3.123   0.341
10851SOL    HW133452   2.130   3.167   0.371
10851SOL    HW233453   2.288   3.146   0.406
10852SOL     OW33454   0.920   0.046   0.100
10852SOL    HW133455   0.969   0.130   0.080
10852SOL    HW233456   0.830   0.067   0.137
10853SOL     OW33457   1.637   2.672   5.176
10853SOL    HW133458   1.548   2.708   5.202
10853SOL    HW233459   1.671   2.723   5.096
10854SOL     OW33460   4.510   4.760   5.781
10854SOL    HW133461   4.461   4.824   5.839
10854SOL    HW233462   4.476   4.667   5.796
10855SOL     OW33463   3.706   0.431   0.618
10855SOL    HW133464   3.738   0.359   0.679
10855SOL    HW233465   3.745   0.519   0.646
10856SOL     OW33466   5.285   1.091   0.350
10856SOL    HW133467   5.374   1.048   0.338
10856SOL    HW233468   5.232   1.041   0.419
10857SOL     OW33469   0.092   2.275   3.139
10857SOL    HW133470   0.181   2.239   3.112
10857SOL    HW233471   0.084   2.270   3.239
10858SOL     OW33472   0.895   1.568   6.728
10858SOL    HW133473   0.894   1.568   6.628
10858SOL    HW233474   0.933   1.654   6.762
10859SOL     OW33475   1.129   4.270   4.532
10859SOL    HW133476   1.036   4.295   4.557
10859SOL    HW233477   1.193   4.336   4.572
10860SOL     OW33478   0.344   2.348   5.744
10860SOL    HW133479   0.440   2.366   5.721
10860SOL    HW233480   0.311   2.419   5.805
10861SOL     OW33481   3.383   3.839   3.471
10861SOL    HW133482   3.366   3.936   3.456
10861SOL    HW233483   3.480   3.819   3.458
10862SOL     OW33484   2.207   1.348   6.246
10862SOL    HW133485   2.292   1.375   6.200
10862SOL    HW233486   2.161   1.277   6.192
10863SOL     OW33487   3.854   0.753   3.972
10863SOL    HW133488   3.924   0.760   4.043
10863SOL    HW233489   3.897   0.761   3.882
10864SOL     OW33490   1.769   6.583   0.466
10864SOL    HW133491   1.759   6.589   0.565
10864SOL    HW233492   1.679   6.587   0.423
10865SOL     OW33493   0.313   1.381   1.707
10865SOL    HW133494   0.269   1.301   1.666
10865SOL    HW233495   0.335   1.447   1.636
10866SOL     OW33496   5.508   4.230   0.649
10866SOL    HW133497   5.523   4.154   0.713
10866SOL    HW233498   5.505   4.316   0.699
10867SOL     OW33499   3.617   4.134   6.890
10867SOL    HW133500   3.540   4.189   6.858
10867SOL    HW233501   3.699   4.155   6.837
10868SOL     OW33502   4.934   1.616   4.233
10868SOL    HW133503   4.937   1.715   4.238
10868SOL    HW233504   5.027   1.579   4.245
10869NA      NA33505   6.423   2.589   5.270
10870NA      NA33506   4.482   4.574   5.193
10871NA      NA33507   1.982   3.115   2.198
10872NA      NA33508   5.199   3.765   4.846
10873NA      NA33509   4.076   2.359   5.352
10874NA      NA33510   3.460   4.820   1.719
10875NA      NA33511   6.880   4.806   0.467
10876NA      NA33512   3.416   3.721   3.947
10877NA      NA33513   5.179   6.104   0.331
10878NA      NA33514   3.162   6.737   5.373
10879NA      NA33515   5.710   5.389   1.542
10880NA      NA33516   2.244   0.360   4.295
10881NA      NA33517   3.606   5.445   2.715
10882NA      NA33518   3.778   3.697   2.296
   7.02430   7.02430   7.02430
